You are running Q-Chem version: 5.4.0

#
# job setting
#
local host:  exp-3-30
current dir: /expanse/lustre/projects/csd626/rramji/aromodel/PTB7_fin/Hydrogenated_Impropers_Test
input file:  fin_bdt_Phi_50_Theta_50_fin_ftt_Hydrogenated_Improper.qcin
output file: 
nprocs     : 1
nthreads   : 64
#
# qchem installation setting
#
QC:          /cm/shared/apps/spack/cpu/opt/spack/linux-centos8-zen2/gcc-10.2.0/qchem-5.4-akfmr7b3t57bfs6qan3padb2wnb2i7cl
QCAUX:       /cm/shared/apps/spack/cpu/opt/spack/linux-centos8-zen2/gcc-10.2.0/qchem-5.4-akfmr7b3t57bfs6qan3padb2wnb2i7cl/qcaux
QCPROG:      /cm/shared/apps/spack/cpu/opt/spack/linux-centos8-zen2/gcc-10.2.0/qchem-5.4-akfmr7b3t57bfs6qan3padb2wnb2i7cl/exe/qcprog.exe
QCPROG_S:    /cm/shared/apps/spack/cpu/opt/spack/linux-centos8-zen2/gcc-10.2.0/qchem-5.4-akfmr7b3t57bfs6qan3padb2wnb2i7cl/exe/qcprog.exe_s
PARALLEL:    -DPARALLEL
QCMPI:       mpich
#
# qchem directory setting
#
qcrun:       qchem1276294
QCSCRATCH:   .
QCLOCALSCR:  
QCTMPDIR:    .
QCFILEPREF:  ./qchem1276294
QCSAVEDIR:   
workdirs:    ./qchem1276294
workdir0:    ./qchem1276294
partmpdirs =  
#
# parallel setting
#
QCRSH:           ssh
QCMPI:           mpich
QCMPIRUN:        /cm/shared/apps/spack/cpu/opt/spack/linux-centos8-zen2/gcc-10.2.0/qchem-5.4-akfmr7b3t57bfs6qan3padb2wnb2i7cl/bin/mpi/mpirun_qchem
QCMACHINEFILE:   ./qchem1276294/hostfile
exp-3-30

#
# env setting
#
exported envs:   QC QCAUX QCSCRATCH QCRUNNAME QCFILEPREF QCPROG QCPROG_S GUIFILE

Running Job 1 of 1 fin_bdt_Phi_50_Theta_50_fin_ftt_Hydrogenated_Improper.qcin
qchem fin_bdt_Phi_50_Theta_50_fin_ftt_Hydrogenated_Improper.qcin_1276294.0 ./qchem1276294/ 1
/cm/shared/apps/spack/cpu/opt/spack/linux-centos8-zen2/gcc-10.2.0/qchem-5.4-akfmr7b3t57bfs6qan3padb2wnb2i7cl/bin/mpi/mpirun_qchem -machinefile ./qchem1276294/hostfile -np 1 /cm/shared/apps/spack/cpu/opt/spack/linux-centos8-zen2/gcc-10.2.0/qchem-5.4-akfmr7b3t57bfs6qan3padb2wnb2i7cl/exe/qcprog.exe fin_bdt_Phi_50_Theta_50_fin_ftt_Hydrogenated_Improper.qcin_1276294.0 ./qchem1276294/

Process 0 of 1 is on exp-3-30 - thread support 0
initial socket setup ...start
initial socket setup ...done 
now start server 0 ... 
                  Welcome to Q-Chem
     A Quantum Leap Into The Future Of Chemistry


 Q-Chem 5.4, Q-Chem, Inc., Pleasanton, CA (2021)

 License issued to: University of California, San Diego (site)

 E. Epifanovsky,  A. T. B. Gilbert,  Xintian Feng,  Joonho Lee,  Yuezhi Mao,  
 N. Mardirossian,  P. Pokhilko,  A. White,  M. Wormit,  M. P. Coons,  
 A. L. Dempwolff,  Zhengting Gan,  D. Hait,  P. R. Horn,  L. D. Jacobson,  
 I. Kaliman,  J. Kussmann,  A. W. Lange,  Ka Un Lao,  D. S. Levine,  Jie Liu,  
 S. C. McKenzie,  A. F. Morrison,  K. Nanda,  F. Plasser,  D. R. Rehn,  
 M. L. Vidal,  Zhi-Qiang You,  Ying Zhu,  B. Alam,  B. Albrecht,  
 A. Aldossary,  E. Alguire,  J. H. Andersen,  D. Barton,  K. Begam,  A. Behn,  
 Y. A. Bernard,  E. J. Berquist,  H. Burton,  A. Carreras,  K. Carter-Fenk,  
 R. Chakraborty,  A. D. Chien,  K. D. Closser,  V. Cofer-Shabica,  
 S. Dasgupta,  Jia Deng,  M. de Wergifosse,  M. Diedenhofen,  Hainam Do,  
 S. Ehlert,  Po-Tung Fang,  S. Fatehi,  Qingguo Feng,  J. Gayvert,  
 Qinghui Ge,  G. Gidofalvi,  M. Goldey,  J. Gomes,  C. Gonzalez-Espinoza,  
 S. Gulania,  A. Gunina,  M. W. D. Hanson-Heine,  P. H. P. Harbach,  
 A. W. Hauser,  M. F. Herbst,  M. Hernandez Vera,  M. Hodecker,  
 Z. C. Holden,  S. Houck,  Xunkun Huang,  Kerwin Hui,  B. C. Huynh,  
 M. Ivanov,  Hyunjun Ji,  Hanjie Jiang,  B. Kaduk,  S. Kaehler,  
 K. Khistyaev,  Jaehoon Kim,  P. Klunzinger,  Z. Koczor-Benda,  
 Joong Hoon Koh,  D. Kosenkov,  L. Koulias,  T. Kowalczyk,  C. M. Krauter,  
 K. Kue,  A. Kunitsa,  T. Kus,  A. Landau,  K. V. Lawler,  D. Lefrancois,  
 S. Lehtola,  Rain Li,  Yi-Pei Li,  Jiashu Liang,  M. Liebenthal,  
 Hung-Hsuan Lin,  You-Sheng Lin,  Fenglai Liu,  Kuan-Yu Liu,  
 M. Loipersberger,  A. Luenser,  A. Manjanath,  P. Manohar,  E. Mansoor,  
 S. F. Manzer,  Shan-Ping Mao,  A. V. Marenich,  T. Markovich,  S. Mason,  
 S. A. Maurer,  P. F. McLaughlin,  M. F. S. J. Menger,  J.-M. Mewes,  
 S. A. Mewes,  P. Morgante,  J. W. Mullinax,  T. S. Nguyen-Beck,  
 K. J. Oosterbaan,  G. Paran,  Alexander C. Paul,  Suranjan K. Paul,  
 F. Pavosevic,  Zheng Pei,  S. Prager,  E. I. Proynov,  E. Ramos,  B. Rana,  
 A. E. Rask,  A. Rettig,  R. M. Richard,  F. Rob,  E. Rossomme,  T. Scheele,  
 M. Scheurer,  M. Schneider,  N. Sergueev,  S. M. Sharada,  W. Skomorowski,  
 D. W. Small,  C. J. Stein,  Yu-Chuan Su,  E. J. Sundstrom,  Zhen Tao,  
 J. Thirman,  T. Tsuchimochi,  N. M. Tubman,  S. P. Veccham,  O. Vydrov,  
 J. Wenzel,  J. Witte,  A. Yamada,  Kun Yao,  S. Yeganeh,  S. R. Yost,  
 A. Zech,  Igor Ying Zhang,  Xing Zhang,  Yu Zhang,  D. Zuev,  
 A. Aspuru-Guzik,  A. T. Bell,  N. A. Besley,  K. B. Bravaya,  B. R. Brooks,  
 D. Casanova,  Jeng-Da Chai,  S. Coriani,  C. J. Cramer,  
 A. E. DePrince, III,  R. A. DiStasio Jr.,  A. Dreuw,  B. D. Dunietz,  
 T. R. Furlani,  W. A. Goddard III,  S. Grimme,  S. Hammes-Schiffer,  
 T. Head-Gordon,  W. J. Hehre,  Chao-Ping Hsu,  T.-C. Jagau,  Yousung Jung,  
 A. Klamt,  Jing Kong,  D. S. Lambrecht,  WanZhen Liang,  N. J. Mayhall,  
 C. W. McCurdy,  J. B. Neaton,  C. Ochsenfeld,  J. A. Parkhill,  R. Peverati,  
 V. A. Rassolov,  Yihan Shao,  L. V. Slipchenko,  T. Stauch,  R. P. Steele,  
 J. E. Subotnik,  A. J. W. Thom,  A. Tkatchenko,  D. G. Truhlar,  
 T. Van Voorhis,  T. A. Wesolowski,  K. B. Whaley,  H. L. Woodcock III,  
 P. M. Zimmerman,  S. Faraji,  P. M. W. Gill,  M. Head-Gordon,  
 J. M. Herbert,  A. I. Krylov

 Contributors to earlier versions of Q-Chem not listed above: 
 R. D. Adamson,  B. Austin,  R. Baer,  J. Baker,  G. J. O. Beran,  
 K. Brandhorst,  S. T. Brown,  E. F. C. Byrd,  A. K. Chakraborty,  
 G. K. L. Chan,  Chun-Min Chang,  Yunqing Chen,  C.-L. Cheng,  
 Siu Hung Chien,  D. M. Chipman,  D. L. Crittenden,  H. Dachsel,  
 R. J. Doerksen,  A. D. Dutoi,  R. G. Edgar,  J. Fosso-Tande,  
 L. Fusti-Molnar,  D. Ghosh,  A. Ghysels,  A. Golubeva-Zadorozhnaya,  
 J. Gonthier,  M. S. Gordon,  S. R. Gwaltney,  G. Hawkins,  J. E. Herr,  
 A. Heyden,  S. Hirata,  E. G. Hohenstein,  G. Kedziora,  F. J. Keil,  
 C. Kelley,  Jihan Kim,  R. A. King,  R. Z. Khaliullin,  P. P. Korambath,  
 W. Kurlancheek,  A. Laurent,  A. M. Lee,  M. S. Lee,  S. V. Levchenko,  
 Ching Yeh Lin,  D. Liotard,  E. Livshits,  R. C. Lochan,  I. Lotan,  
 L. A. Martinez-Martinez,  P. E. Maslen,  N. Nair,  D. P. O'Neill,  
 D. Neuhauser,  E. Neuscamman,  C. M. Oana,  R. Olivares-Amaya,  R. Olson,  
 T. M. Perrine,  B. Peters,  P. A. Pieniazek,  A. Prociuk,  Y. M. Rhee,  
 J. Ritchie,  M. A. Rohrdanz,  E. Rosta,  N. J. Russ,  H. F. Schaefer III,  
 M. W. Schmidt,  N. E. Schultz,  S. Sharma,  N. Shenvi,  C. D. Sherrill,  
 A. C. Simmonett,  A. Sodt,  T. Stein,  D. Stuck,  K. S. Thanthiriwatte,  
 V. Vanovschi,  L. Vogt,  Tao Wang,  A. Warshel,  M. A. Watson,  
 C. F. Williams,  Q. Wu,  X. Xu,  Jun Yang,  W. Zhang,  Yan Zhao

 Please cite Q-Chem as follows:
 Y. Shao et al., Mol. Phys. 113, 184-215 (2015)
 DOI: 10.1080/00268976.2014.952696

 Q-Chem 5.4.0 for Intel X86 EM64T Linux

 Parts of Q-Chem use Armadillo 9.800.1 (Horizon Scraper).
 http://arma.sourceforge.net/

 Q-Chem begins on Sun Sep 24 16:55:19 2023  

 Host: 
0

     Scratch files written to ./qchem1276294//
 May1621 |scratch|qcdevops|jenkins|workspace|build_RNUM    
 Parallel job on  1  processors
 Processing $rem in /cm/shared/apps/spack/cpu/opt/spack/linux-centos8-zen2/gcc-10.2.0/qchem-5.4-akfmr7b3t57bfs6qan3padb2wnb2i7cl/config/preferences:
 Processing $rem in /home/rramji/.qchemrc:
 Symmetry turned off for PCM/SM12/SMD calculation
 Core orbitals will be frozen

 Checking the input file for inconsistencies... 	...done.

 Q-Chem warning in module forms1/BasisType.C, line 2236:

 You are not using the predefined 5D/6D in this basis set.


--------------------------------------------------------------
User input:
--------------------------------------------------------------
$molecule
0 1
C	-0.681966	-0.518946	1.021287
S	0.008434	0.057454	2.531987
C	1.214534	1.070954	1.748887
C	0.013734	0.064854	-0.043413
C	1.076634	0.958754	0.342987
C	-0.036066	0.020954	-1.464813
C	0.932834	0.834054	-2.085613
S	1.886334	1.638454	-0.944413
C	1.130734	0.994054	-3.538713
O	0.417534	0.391754	-4.329013
O	2.115834	1.816354	-3.983113
F	-0.886966	-0.698246	-2.225013
C	2.397134	2.039154	-5.313713
H	3.243934	2.748954	-5.349013
H	1.526134	2.471454	-5.854313
H	2.676134	1.099854	-5.840613
C	-0.681966	-1.954146	1.021287
H	0.018634	-1.963146	1.843087
H	-1.322066	-2.638046	1.558887
H	0.036134	-2.478546	0.408287
H	1.919334	1.662254	2.342787
$end

$rem
JOBTYPE		SP
EXCHANGE	HF
CORRELATION	pRIMP2
BASIS		cc-pvtz
METHOD		rimp2
AUX_BASIS	rimp2-cc-pvtz
SOLVENT_METHOD	PCM
PURECART	11111
SYMMETRY	false
MEM_TOTAL	110000
SCF_CONVERGENCE = 6
THRESH=10
GUI = 2
$end



$solvent
dielectric 4.90
$end
--------------------------------------------------------------
 ----------------------------------------------------------------
             Standard Nuclear Orientation (Angstroms)
    I     Atom           X                Y                Z
 ----------------------------------------------------------------
    1      C      -0.6819660000    -0.5189460000     1.0212870000
    2      S       0.0084340000     0.0574540000     2.5319870000
    3      C       1.2145340000     1.0709540000     1.7488870000
    4      C       0.0137340000     0.0648540000    -0.0434130000
    5      C       1.0766340000     0.9587540000     0.3429870000
    6      C      -0.0360660000     0.0209540000    -1.4648130000
    7      C       0.9328340000     0.8340540000    -2.0856130000
    8      S       1.8863340000     1.6384540000    -0.9444130000
    9      C       1.1307340000     0.9940540000    -3.5387130000
   10      O       0.4175340000     0.3917540000    -4.3290130000
   11      O       2.1158340000     1.8163540000    -3.9831130000
   12      F      -0.8869660000    -0.6982460000    -2.2250130000
   13      C       2.3971340000     2.0391540000    -5.3137130000
   14      H       3.2439340000     2.7489540000    -5.3490130000
   15      H       1.5261340000     2.4714540000    -5.8543130000
   16      H       2.6761340000     1.0998540000    -5.8406130000
   17      C      -0.6819660000    -1.9541460000     1.0212870000
   18      H       0.0186340000    -1.9631460000     1.8430870000
   19      H      -1.3220660000    -2.6380460000     1.5588870000
   20      H       0.0361340000    -2.4785460000     0.4082870000
   21      H       1.9193340000     1.6622540000     2.3427870000
 ----------------------------------------------------------------
 Nuclear Repulsion Energy =        1095.80035380 hartrees
 There are       59 alpha and       59 beta electrons
 Requested basis set is cc-pVTZ
 There are 186 shells and 526 basis functions

 Total QAlloc Memory Limit 110000 MB
 Mega-Array Size       188 MB
 MEM_STATIC part       192 MB
 Discretize the solute cavity surface with Lebedev spheres
	Using 110 Lebedev grid points for each H atom
	Using 194 Lebedev grid points for other atoms
	Atomic van der Waals radii will be scaled by 1.20
 Remove points where switching function is < 1.0e-08
 Keep 1535 surface tesserae and discard 1951 interior tesserae
 Molecular Surface Area = 239.923 Angst**2
 Requested basis set is rimp2-cc-pVTZ
 There are 410 shells and 1426 basis functions
 A cutoff of  1.0D-10 yielded  11708 shell pairs
 There are     92038 function pairs (    120475 Cartesian)
 Smallest overlap matrix eigenvalue = 6.18E-05

 Scale SEOQF with 1.000000e-01/1.000000e-01/1.000000e-02

 Standard Electronic Orientation quadrupole field applied
 Nucleus-field energy     =     0.0000000107 hartrees
 Guess from superposition of atomic densities
 Warning:  Energy on first SCF cycle will be non-variational
 SAD guess density has 118.000000 electrons

 -----------------------------------------------------------------------
  General SCF calculation program by
  Eric Jon Sundstrom, Paul Horn, Yuezhi Mao, Dmitri Zuev, Alec White,
  David Stuck, Shaama M.S., Shane Yost, Joonho Lee, David Small,
  Daniel Levine, Susi Lehtola, Hugh Burton, Evgeny Epifanovsky,
  Bang C. Huynh
 -----------------------------------------------------------------------
 Hartree-Fock
 using 64 threads for integral computing
 -------------------------------------------------------
 OpenMP Integral computing Module                
 Release: version 1.0, May 2013, Q-Chem Inc. Pittsburgh 
 -------------------------------------------------------
 A restricted SCF calculation will be
 performed using DIIS
 SCF converges when DIIS error is below 1.0e-06
 ---------------------------------------
  Cycle       Energy         DIIS error
 ---------------------------------------
    1   -1394.6714449276      2.54e-02  
    2   -1388.9475981441      2.53e-03  
    3   -1389.1222100744      1.62e-03  
    4   -1389.1882476739      3.53e-04  
    5   -1389.1941649567      1.14e-04  
    6   -1389.1948977157      3.80e-05  
    7   -1389.1950601655      1.95e-05  
    8   -1389.1951203144      8.23e-06  
    9   -1389.1951360011      4.09e-06  
   10   -1389.1951391017      1.59e-06  
   11   -1389.1951396812      6.86e-07  Convergence criterion met
 ---------------------------------------
 SCF time:   CPU 1761.02s  wall 53.00s 

************** Final PCM Free Energy Summary **************
 G_electrostatic  =      -0.01331043 hartree =      -8.35242147 kcal/mol
 G_cavitation     =       0.00000000 hartree =       0.00000000 kcal/mol
 G_dispersion     =       0.00000000 hartree =       0.00000000 kcal/mol
 G_repulsion      =       0.00000000 hartree =       0.00000000 kcal/mol
 --------------------------------------------------
 Non-electrostatic Free Energy =       0.00000000 hartree =       0.00000000 kcal/mol
 Total                         =      -0.01331043 hartree =      -8.35242147 kcal/mol
 --------------------------------------------------
 SCF Energy (H0 + V/2)                       =   -1389.19513968 
 Solute Internal Energy (H0)                 =   -1389.18182925 
 Total Free Energy (H0 + V/2 + non-elec)     =   -1389.19513968 hartree
                                             = -871733.10721713 kcal/mol
***********************************************************

 SCF   energy in the final basis set =    -1389.1951396812
 Total energy in the final basis set =    -1389.1951396812


 --------------------------------------------------------------
  Generalized many-body perturbation theory program
  by Joonho Lee, Fazle Rob, Xintian Feng, Evgeny Epifanovsky

 No regularization used 
 (reg. param. = 0.0000e+00)
  (P|Q)^-1/2 Time:  CPU 36.02 s  wall 0.60 s

 In RI-MP2 calculation: 
 # of frozen core orbitals: 22

 Components of the RIMP2 correlation energy:
        aaaa    correlation energy =        -0.3316535222 a.u.
        abab    correlation energy =        -1.8558607517 a.u.
        bbbb    correlation energy =        -0.3316535222 a.u.
        non-Brillouin singles      =        -0.0000000000 a.u.
        total same-spin energy     =        -0.6633070444 a.u.
        total opposite-spin energy =        -1.8558607517 a.u.

 Total  RIMP2   correlation energy =        -2.5191677961 a.u.
        RIMP2         total energy =     -1391.7143074773 a.u.

 RI-MP2 Energy Time:  CPU 195.41 s  wall 4.03 s
 
 --------------------------------------------------------------
 
                    Orbital Energies (a.u.)
 --------------------------------------------------------------
 
 Alpha MOs
 -- Occupied --
-91.9996 -91.9948 -26.3333 -20.6131 -20.5521 -11.4118 -11.3749 -11.3020
-11.3011 -11.2923 -11.2890 -11.2869 -11.2794 -11.2184  -9.0001  -8.9988
 -6.6807  -6.6801  -6.6798  -6.6796  -6.6794  -6.6781  -1.6462  -1.4729
 -1.3686  -1.2330  -1.1546  -1.0676  -1.0322  -1.0014  -0.9710  -0.9030
 -0.8677  -0.7984  -0.7863  -0.7721  -0.7288  -0.7149  -0.6965  -0.6793
 -0.6752  -0.6712  -0.6091  -0.6069  -0.6025  -0.5909  -0.5663  -0.5632
 -0.5404  -0.5274  -0.5135  -0.4893  -0.4812  -0.4623  -0.4620  -0.4383
 -0.3916  -0.3421  -0.2800
 -- Virtual --
  0.0160   0.1124   0.1385   0.1550   0.1578   0.1692   0.1856   0.1952
  0.2021   0.2116   0.2164   0.2284   0.2314   0.2431   0.2579   0.2652
  0.2844   0.2952   0.3101   0.3356   0.3477   0.3600   0.3714   0.3755
  0.3794   0.3832   0.3933   0.4070   0.4187   0.4299   0.4321   0.4360
  0.4518   0.4647   0.4693   0.4728   0.4986   0.5011   0.5142   0.5224
  0.5247   0.5340   0.5393   0.5508   0.5598   0.5643   0.5743   0.5886
  0.5913   0.5937   0.6008   0.6097   0.6156   0.6217   0.6269   0.6303
  0.6348   0.6434   0.6462   0.6610   0.6794   0.6869   0.6919   0.6976
  0.7091   0.7126   0.7431   0.7506   0.7581   0.7747   0.7877   0.7963
  0.7991   0.8112   0.8330   0.8478   0.8501   0.8590   0.8835   0.8927
  0.8964   0.9074   0.9241   0.9266   0.9367   0.9472   0.9568   0.9695
  0.9873   0.9992   1.0088   1.0148   1.0325   1.0358   1.0451   1.0608
  1.0674   1.0834   1.0843   1.0909   1.1023   1.1133   1.1302   1.1430
  1.1481   1.1546   1.1618   1.1743   1.1803   1.1937   1.1995   1.2155
  1.2223   1.2407   1.2422   1.2612   1.2744   1.2812   1.3025   1.3085
  1.3357   1.3429   1.3467   1.3586   1.3624   1.3720   1.3967   1.4057
  1.4307   1.4339   1.4516   1.4648   1.4774   1.4785   1.4947   1.5012
  1.5122   1.5215   1.5253   1.5435   1.5581   1.5737   1.5749   1.5993
  1.6164   1.6481   1.6670   1.6794   1.6846   1.7120   1.7176   1.7268
  1.7383   1.7612   1.7809   1.8182   1.8199   1.8319   1.8368   1.8583
  1.8670   1.8735   1.8908   1.9209   1.9277   1.9321   1.9459   1.9651
  1.9944   2.0204   2.0228   2.0393   2.0663   2.0971   2.1061   2.1313
  2.1345   2.1395   2.1537   2.1596   2.1921   2.1961   2.2087   2.2283
  2.2427   2.2505   2.2624   2.2793   2.2903   2.2927   2.3264   2.3581
  2.3627   2.3798   2.4016   2.4195   2.4358   2.4607   2.4872   2.5186
  2.5281   2.5396   2.5613   2.5729   2.5811   2.5880   2.6248   2.6328
  2.6485   2.6603   2.6719   2.6829   2.6961   2.7039   2.7125   2.7240
  2.7375   2.7511   2.7668   2.7890   2.7951   2.8111   2.8175   2.8323
  2.8392   2.8749   2.8850   2.8962   2.9047   2.9339   2.9432   2.9473
  2.9722   3.0017   3.0298   3.0322   3.0383   3.0458   3.0598   3.0749
  3.0868   3.0906   3.0973   3.1097   3.1269   3.1308   3.1500   3.1598
  3.1634   3.1913   3.2055   3.2167   3.2186   3.2243   3.2338   3.2506
  3.2613   3.2682   3.2773   3.2883   3.2960   3.3013   3.3032   3.3309
  3.3364   3.3466   3.3647   3.3707   3.3795   3.3900   3.4127   3.4194
  3.4313   3.4374   3.4538   3.4619   3.4755   3.4851   3.4978   3.5082
  3.5143   3.5250   3.5381   3.5515   3.5627   3.5777   3.5804   3.5885
  3.6036   3.6068   3.6310   3.6327   3.6541   3.6629   3.6779   3.6841
  3.6907   3.6999   3.7083   3.7103   3.7253   3.7303   3.7404   3.7552
  3.7752   3.8000   3.8035   3.8177   3.8263   3.8288   3.8418   3.8505
  3.8547   3.8607   3.8768   3.8971   3.9080   3.9222   3.9348   3.9355
  3.9588   3.9861   4.0047   4.0073   4.0255   4.0374   4.0489   4.0673
  4.0799   4.0849   4.0962   4.1078   4.1355   4.1689   4.1742   4.1928
  4.2142   4.2176   4.2504   4.2720   4.2878   4.3048   4.3293   4.3476
  4.3745   4.3766   4.3836   4.3942   4.4160   4.4217   4.4335   4.4605
  4.4821   4.4994   4.5156   4.5192   4.5418   4.5679   4.5877   4.5964
  4.6193   4.6318   4.6394   4.6500   4.6676   4.7132   4.7179   4.7408
  4.7521   4.7873   4.8090   4.8254   4.8408   4.8852   4.9109   4.9407
  4.9683   5.0050   5.0113   5.0352   5.0583   5.0803   5.1189   5.1361
  5.1522   5.1920   5.2067   5.2165   5.2515   5.2586   5.2835   5.3534
  5.3549   5.3665   5.3932   5.4405   5.4491   5.4726   5.4805   5.5340
  5.5687   5.5852   5.5983   5.6161   5.6375   5.6695   5.7351   5.7975
  5.7999   5.8348   5.8644   5.8821   5.9218   5.9606   5.9684   6.0073
  6.0922   6.1095   6.1225   6.1330   6.1846   6.3078   6.3599   6.4143
  6.4753   6.5037   6.5552   6.6583   6.6754   6.7307   6.7383   6.8587
  6.8795   6.9884   7.1775   7.2093   7.3250   7.3739   7.3763   7.4248
  7.4617   7.4878   7.5171   7.5470   7.6035   7.7716   7.8302   7.9043
  8.0020   8.1210   8.4216   8.9288   9.0074   9.3639   9.4937   9.6882
 10.2074  11.2042  11.8897  11.9251  12.2768  12.5766  12.9933  13.3829
 13.7703  14.0759  14.5358
 --------------------------------------------------------------
 
          Ground-State Mulliken Net Atomic Charges

     Atom                 Charge (a.u.)
  ----------------------------------------
      1 C                    -0.030689
      2 S                     0.082392
      3 C                    -0.200788
      4 C                    -0.069301
      5 C                    -0.026307
      6 C                     0.371672
      7 C                    -0.147633
      8 S                     0.041397
      9 C                     0.457740
     10 O                    -0.446313
     11 O                    -0.297222
     12 F                    -0.209617
     13 C                    -0.054582
     14 H                     0.116843
     15 H                     0.084851
     16 H                     0.084610
     17 C                    -0.385927
     18 H                     0.134802
     19 H                     0.142141
     20 H                     0.138336
     21 H                     0.213594
  ----------------------------------------
  Sum of atomic charges =     0.000000

 -----------------------------------------------------------------
                    Cartesian Multipole Moments
 -----------------------------------------------------------------
    Charge (ESU x 10^10)
                -0.0000
    Dipole Moment (Debye)
         X       3.5913      Y       1.0454      Z       3.4721
       Tot       5.1035
    Quadrupole Moments (Debye-Ang)
        XX     -91.4429     XY       4.5213     YY     -89.2932
        XZ      -7.6339     YZ      -9.0128     ZZ     -93.3883
    Octopole Moments (Debye-Ang^2)
       XXX    -188.1020    XXY     -36.6455    XYY     -56.2237
       YYY    -149.1161    XXZ      67.6341    XYZ      -7.6241
       YYZ      76.5945    XZZ       5.7588    YZZ       6.7023
       ZZZ     249.5775
    Hexadecapole Moments (Debye-Ang^3)
      XXXX    -994.4851   XXXY    -374.1800   XXYY    -299.3542
      XYYY    -389.0127   YYYY    -940.9329   XXXZ     502.3123
      XXYZ     129.2517   XYYZ     146.9751   YYYZ     462.6960
      XXZZ    -656.2770   XYZZ      13.3861   YYZZ    -685.4126
      XZZZ     218.0517   YZZZ     219.3928   ZZZZ   -3762.2243
 -----------------------------------------------------------------
 Total job time:  59.98s(wall), 2030.47s(cpu) 
 Sun Sep 24 16:56:19 2023

        *************************************************************
        *                                                           *
        *  Thank you very much for using Q-Chem.  Have a nice day.  *
        *                                                           *
        *************************************************************


0 sent ACK to 0 
now end server 0 ... 
cleanup process ... done
remove work dirs ./qchem1276294.0 -- ./qchem1276294.0
rm -rf ./qchem1276294.0
rm -rf ./qchem1276294
