You are running Q-Chem version: 5.4.0

#
# job setting
#
local host:  exp-6-53
current dir: /expanse/lustre/projects/csd626/rramji/aromodel/PTB7_fin/Hydrogenated_Impropers_Test
input file:  fin_bdt_Phi_0_Theta_300_fin_ftt_Hydrogenated_Improper.qcin
output file: 
nprocs     : 1
nthreads   : 64
#
# qchem installation setting
#
QC:          /cm/shared/apps/spack/cpu/opt/spack/linux-centos8-zen2/gcc-10.2.0/qchem-5.4-akfmr7b3t57bfs6qan3padb2wnb2i7cl
QCAUX:       /cm/shared/apps/spack/cpu/opt/spack/linux-centos8-zen2/gcc-10.2.0/qchem-5.4-akfmr7b3t57bfs6qan3padb2wnb2i7cl/qcaux
QCPROG:      /cm/shared/apps/spack/cpu/opt/spack/linux-centos8-zen2/gcc-10.2.0/qchem-5.4-akfmr7b3t57bfs6qan3padb2wnb2i7cl/exe/qcprog.exe
QCPROG_S:    /cm/shared/apps/spack/cpu/opt/spack/linux-centos8-zen2/gcc-10.2.0/qchem-5.4-akfmr7b3t57bfs6qan3padb2wnb2i7cl/exe/qcprog.exe_s
PARALLEL:    -DPARALLEL
QCMPI:       mpich
#
# qchem directory setting
#
qcrun:       qchem2015740
QCSCRATCH:   .
QCLOCALSCR:  
QCTMPDIR:    .
QCFILEPREF:  ./qchem2015740
QCSAVEDIR:   
workdirs:    ./qchem2015740
workdir0:    ./qchem2015740
partmpdirs =  
#
# parallel setting
#
QCRSH:           ssh
QCMPI:           mpich
QCMPIRUN:        /cm/shared/apps/spack/cpu/opt/spack/linux-centos8-zen2/gcc-10.2.0/qchem-5.4-akfmr7b3t57bfs6qan3padb2wnb2i7cl/bin/mpi/mpirun_qchem
QCMACHINEFILE:   ./qchem2015740/hostfile
exp-6-53

#
# env setting
#
exported envs:   QC QCAUX QCSCRATCH QCRUNNAME QCFILEPREF QCPROG QCPROG_S GUIFILE

Running Job 1 of 1 fin_bdt_Phi_0_Theta_300_fin_ftt_Hydrogenated_Improper.qcin
qchem fin_bdt_Phi_0_Theta_300_fin_ftt_Hydrogenated_Improper.qcin_2015740.0 ./qchem2015740/ 1
/cm/shared/apps/spack/cpu/opt/spack/linux-centos8-zen2/gcc-10.2.0/qchem-5.4-akfmr7b3t57bfs6qan3padb2wnb2i7cl/bin/mpi/mpirun_qchem -machinefile ./qchem2015740/hostfile -np 1 /cm/shared/apps/spack/cpu/opt/spack/linux-centos8-zen2/gcc-10.2.0/qchem-5.4-akfmr7b3t57bfs6qan3padb2wnb2i7cl/exe/qcprog.exe fin_bdt_Phi_0_Theta_300_fin_ftt_Hydrogenated_Improper.qcin_2015740.0 ./qchem2015740/

Process 0 of 1 is on exp-6-53 - thread support 0
initial socket setup ...start
initial socket setup ...done 
now start server 0 ... 
                  Welcome to Q-Chem
     A Quantum Leap Into The Future Of Chemistry


 Q-Chem 5.4, Q-Chem, Inc., Pleasanton, CA (2021)

 License issued to: University of California, San Diego (site)

 E. Epifanovsky,  A. T. B. Gilbert,  Xintian Feng,  Joonho Lee,  Yuezhi Mao,  
 N. Mardirossian,  P. Pokhilko,  A. White,  M. Wormit,  M. P. Coons,  
 A. L. Dempwolff,  Zhengting Gan,  D. Hait,  P. R. Horn,  L. D. Jacobson,  
 I. Kaliman,  J. Kussmann,  A. W. Lange,  Ka Un Lao,  D. S. Levine,  Jie Liu,  
 S. C. McKenzie,  A. F. Morrison,  K. Nanda,  F. Plasser,  D. R. Rehn,  
 M. L. Vidal,  Zhi-Qiang You,  Ying Zhu,  B. Alam,  B. Albrecht,  
 A. Aldossary,  E. Alguire,  J. H. Andersen,  D. Barton,  K. Begam,  A. Behn,  
 Y. A. Bernard,  E. J. Berquist,  H. Burton,  A. Carreras,  K. Carter-Fenk,  
 R. Chakraborty,  A. D. Chien,  K. D. Closser,  V. Cofer-Shabica,  
 S. Dasgupta,  Jia Deng,  M. de Wergifosse,  M. Diedenhofen,  Hainam Do,  
 S. Ehlert,  Po-Tung Fang,  S. Fatehi,  Qingguo Feng,  J. Gayvert,  
 Qinghui Ge,  G. Gidofalvi,  M. Goldey,  J. Gomes,  C. Gonzalez-Espinoza,  
 S. Gulania,  A. Gunina,  M. W. D. Hanson-Heine,  P. H. P. Harbach,  
 A. W. Hauser,  M. F. Herbst,  M. Hernandez Vera,  M. Hodecker,  
 Z. C. Holden,  S. Houck,  Xunkun Huang,  Kerwin Hui,  B. C. Huynh,  
 M. Ivanov,  Hyunjun Ji,  Hanjie Jiang,  B. Kaduk,  S. Kaehler,  
 K. Khistyaev,  Jaehoon Kim,  P. Klunzinger,  Z. Koczor-Benda,  
 Joong Hoon Koh,  D. Kosenkov,  L. Koulias,  T. Kowalczyk,  C. M. Krauter,  
 K. Kue,  A. Kunitsa,  T. Kus,  A. Landau,  K. V. Lawler,  D. Lefrancois,  
 S. Lehtola,  Rain Li,  Yi-Pei Li,  Jiashu Liang,  M. Liebenthal,  
 Hung-Hsuan Lin,  You-Sheng Lin,  Fenglai Liu,  Kuan-Yu Liu,  
 M. Loipersberger,  A. Luenser,  A. Manjanath,  P. Manohar,  E. Mansoor,  
 S. F. Manzer,  Shan-Ping Mao,  A. V. Marenich,  T. Markovich,  S. Mason,  
 S. A. Maurer,  P. F. McLaughlin,  M. F. S. J. Menger,  J.-M. Mewes,  
 S. A. Mewes,  P. Morgante,  J. W. Mullinax,  T. S. Nguyen-Beck,  
 K. J. Oosterbaan,  G. Paran,  Alexander C. Paul,  Suranjan K. Paul,  
 F. Pavosevic,  Zheng Pei,  S. Prager,  E. I. Proynov,  E. Ramos,  B. Rana,  
 A. E. Rask,  A. Rettig,  R. M. Richard,  F. Rob,  E. Rossomme,  T. Scheele,  
 M. Scheurer,  M. Schneider,  N. Sergueev,  S. M. Sharada,  W. Skomorowski,  
 D. W. Small,  C. J. Stein,  Yu-Chuan Su,  E. J. Sundstrom,  Zhen Tao,  
 J. Thirman,  T. Tsuchimochi,  N. M. Tubman,  S. P. Veccham,  O. Vydrov,  
 J. Wenzel,  J. Witte,  A. Yamada,  Kun Yao,  S. Yeganeh,  S. R. Yost,  
 A. Zech,  Igor Ying Zhang,  Xing Zhang,  Yu Zhang,  D. Zuev,  
 A. Aspuru-Guzik,  A. T. Bell,  N. A. Besley,  K. B. Bravaya,  B. R. Brooks,  
 D. Casanova,  Jeng-Da Chai,  S. Coriani,  C. J. Cramer,  
 A. E. DePrince, III,  R. A. DiStasio Jr.,  A. Dreuw,  B. D. Dunietz,  
 T. R. Furlani,  W. A. Goddard III,  S. Grimme,  S. Hammes-Schiffer,  
 T. Head-Gordon,  W. J. Hehre,  Chao-Ping Hsu,  T.-C. Jagau,  Yousung Jung,  
 A. Klamt,  Jing Kong,  D. S. Lambrecht,  WanZhen Liang,  N. J. Mayhall,  
 C. W. McCurdy,  J. B. Neaton,  C. Ochsenfeld,  J. A. Parkhill,  R. Peverati,  
 V. A. Rassolov,  Yihan Shao,  L. V. Slipchenko,  T. Stauch,  R. P. Steele,  
 J. E. Subotnik,  A. J. W. Thom,  A. Tkatchenko,  D. G. Truhlar,  
 T. Van Voorhis,  T. A. Wesolowski,  K. B. Whaley,  H. L. Woodcock III,  
 P. M. Zimmerman,  S. Faraji,  P. M. W. Gill,  M. Head-Gordon,  
 J. M. Herbert,  A. I. Krylov

 Contributors to earlier versions of Q-Chem not listed above: 
 R. D. Adamson,  B. Austin,  R. Baer,  J. Baker,  G. J. O. Beran,  
 K. Brandhorst,  S. T. Brown,  E. F. C. Byrd,  A. K. Chakraborty,  
 G. K. L. Chan,  Chun-Min Chang,  Yunqing Chen,  C.-L. Cheng,  
 Siu Hung Chien,  D. M. Chipman,  D. L. Crittenden,  H. Dachsel,  
 R. J. Doerksen,  A. D. Dutoi,  R. G. Edgar,  J. Fosso-Tande,  
 L. Fusti-Molnar,  D. Ghosh,  A. Ghysels,  A. Golubeva-Zadorozhnaya,  
 J. Gonthier,  M. S. Gordon,  S. R. Gwaltney,  G. Hawkins,  J. E. Herr,  
 A. Heyden,  S. Hirata,  E. G. Hohenstein,  G. Kedziora,  F. J. Keil,  
 C. Kelley,  Jihan Kim,  R. A. King,  R. Z. Khaliullin,  P. P. Korambath,  
 W. Kurlancheek,  A. Laurent,  A. M. Lee,  M. S. Lee,  S. V. Levchenko,  
 Ching Yeh Lin,  D. Liotard,  E. Livshits,  R. C. Lochan,  I. Lotan,  
 L. A. Martinez-Martinez,  P. E. Maslen,  N. Nair,  D. P. O'Neill,  
 D. Neuhauser,  E. Neuscamman,  C. M. Oana,  R. Olivares-Amaya,  R. Olson,  
 T. M. Perrine,  B. Peters,  P. A. Pieniazek,  A. Prociuk,  Y. M. Rhee,  
 J. Ritchie,  M. A. Rohrdanz,  E. Rosta,  N. J. Russ,  H. F. Schaefer III,  
 M. W. Schmidt,  N. E. Schultz,  S. Sharma,  N. Shenvi,  C. D. Sherrill,  
 A. C. Simmonett,  A. Sodt,  T. Stein,  D. Stuck,  K. S. Thanthiriwatte,  
 V. Vanovschi,  L. Vogt,  Tao Wang,  A. Warshel,  M. A. Watson,  
 C. F. Williams,  Q. Wu,  X. Xu,  Jun Yang,  W. Zhang,  Yan Zhao

 Please cite Q-Chem as follows:
 Y. Shao et al., Mol. Phys. 113, 184-215 (2015)
 DOI: 10.1080/00268976.2014.952696

 Q-Chem 5.4.0 for Intel X86 EM64T Linux

 Parts of Q-Chem use Armadillo 9.800.1 (Horizon Scraper).
 http://arma.sourceforge.net/

 Q-Chem begins on Sun Sep 24 17:04:07 2023  

 Host: 
0

     Scratch files written to ./qchem2015740//
 May1621 |scratch|qcdevops|jenkins|workspace|build_RNUM    
 Parallel job on  1  processors
 Processing $rem in /cm/shared/apps/spack/cpu/opt/spack/linux-centos8-zen2/gcc-10.2.0/qchem-5.4-akfmr7b3t57bfs6qan3padb2wnb2i7cl/config/preferences:
 Processing $rem in /home/rramji/.qchemrc:
 Symmetry turned off for PCM/SM12/SMD calculation
 Core orbitals will be frozen

 Checking the input file for inconsistencies... 	...done.

 Q-Chem warning in module forms1/BasisType.C, line 2236:

 You are not using the predefined 5D/6D in this basis set.


--------------------------------------------------------------
User input:
--------------------------------------------------------------
$molecule
0 1
C	-0.002749	-0.836989	1.025081
S	-0.000549	0.062411	2.535781
C	-0.001549	1.637711	1.752681
C	-0.002749	0.071211	-0.039619
C	-0.004249	1.460011	0.346781
C	-0.001149	0.004811	-1.461019
C	-0.001249	1.269711	-2.081819
S	-0.004549	2.517211	-0.940619
C	0.003451	1.524111	-3.534919
O	0.006451	0.590611	-4.325219
O	0.006651	2.807311	-3.979319
F	0.002751	-1.109289	-2.221219
C	0.016851	3.166011	-5.309919
H	0.017451	4.271011	-5.345219
H	-0.874149	2.776711	-5.850519
H	0.915751	2.776111	-5.836819
C	-0.002749	-2.272189	1.025081
H	0.529851	-2.281189	0.085581
H	0.721351	-2.956089	1.442681
H	-0.824349	-2.796589	0.559981
H	-0.001549	2.557811	2.346581
$end

$rem
JOBTYPE		SP
EXCHANGE	HF
CORRELATION	pRIMP2
BASIS		cc-pvtz
METHOD		rimp2
AUX_BASIS	rimp2-cc-pvtz
SOLVENT_METHOD	PCM
PURECART	11111
SYMMETRY	false
MEM_TOTAL	110000
SCF_CONVERGENCE = 6
THRESH=10
GUI = 2
$end



$solvent
dielectric 4.90
$end
--------------------------------------------------------------
 ----------------------------------------------------------------
             Standard Nuclear Orientation (Angstroms)
    I     Atom           X                Y                Z
 ----------------------------------------------------------------
    1      C      -0.0027490000    -0.8369890000     1.0250810000
    2      S      -0.0005490000     0.0624110000     2.5357810000
    3      C      -0.0015490000     1.6377110000     1.7526810000
    4      C      -0.0027490000     0.0712110000    -0.0396190000
    5      C      -0.0042490000     1.4600110000     0.3467810000
    6      C      -0.0011490000     0.0048110000    -1.4610190000
    7      C      -0.0012490000     1.2697110000    -2.0818190000
    8      S      -0.0045490000     2.5172110000    -0.9406190000
    9      C       0.0034510000     1.5241110000    -3.5349190000
   10      O       0.0064510000     0.5906110000    -4.3252190000
   11      O       0.0066510000     2.8073110000    -3.9793190000
   12      F       0.0027510000    -1.1092890000    -2.2212190000
   13      C       0.0168510000     3.1660110000    -5.3099190000
   14      H       0.0174510000     4.2710110000    -5.3452190000
   15      H      -0.8741490000     2.7767110000    -5.8505190000
   16      H       0.9157510000     2.7761110000    -5.8368190000
   17      C      -0.0027490000    -2.2721890000     1.0250810000
   18      H       0.5298510000    -2.2811890000     0.0855810000
   19      H       0.7213510000    -2.9560890000     1.4426810000
   20      H      -0.8243490000    -2.7965890000     0.5599810000
   21      H      -0.0015490000     2.5578110000     2.3465810000
 ----------------------------------------------------------------
 Nuclear Repulsion Energy =        1089.80066608 hartrees
 There are       59 alpha and       59 beta electrons
 Requested basis set is cc-pVTZ
 There are 186 shells and 526 basis functions

 Total QAlloc Memory Limit 110000 MB
 Mega-Array Size       188 MB
 MEM_STATIC part       192 MB
 Discretize the solute cavity surface with Lebedev spheres
	Using 110 Lebedev grid points for each H atom
	Using 194 Lebedev grid points for other atoms
	Atomic van der Waals radii will be scaled by 1.20
 Remove points where switching function is < 1.0e-08
 Keep 1556 surface tesserae and discard 1930 interior tesserae
 Molecular Surface Area = 241.814 Angst**2
 Requested basis set is rimp2-cc-pVTZ
 There are 410 shells and 1426 basis functions
 A cutoff of  1.0D-10 yielded  11604 shell pairs
 There are     91174 function pairs (    119381 Cartesian)
 Smallest overlap matrix eigenvalue = 5.70E-05

 Scale SEOQF with 1.000000e+00/1.000000e-01/1.000000e-02

 Standard Electronic Orientation quadrupole field applied
 Nucleus-field energy     =     0.0000000196 hartrees
 Guess from superposition of atomic densities
 Warning:  Energy on first SCF cycle will be non-variational
 SAD guess density has 118.000000 electrons

 -----------------------------------------------------------------------
  General SCF calculation program by
  Eric Jon Sundstrom, Paul Horn, Yuezhi Mao, Dmitri Zuev, Alec White,
  David Stuck, Shaama M.S., Shane Yost, Joonho Lee, David Small,
  Daniel Levine, Susi Lehtola, Hugh Burton, Evgeny Epifanovsky,
  Bang C. Huynh
 -----------------------------------------------------------------------
 Hartree-Fock
 using 64 threads for integral computing
 -------------------------------------------------------
 OpenMP Integral computing Module                
 Release: version 1.0, May 2013, Q-Chem Inc. Pittsburgh 
 -------------------------------------------------------
 A restricted SCF calculation will be
 performed using DIIS
 SCF converges when DIIS error is below 1.0e-06
 ---------------------------------------
  Cycle       Energy         DIIS error
 ---------------------------------------
    1   -1394.5618514054      2.52e-02  
    2   -1389.0149792227      2.50e-03  
    3   -1389.1865741087      1.58e-03  
    4   -1389.2484963126      3.46e-04  
    5   -1389.2541236036      1.09e-04  
    6   -1389.2547665102      3.60e-05  
    7   -1389.2549039050      1.80e-05  
    8   -1389.2549499247      7.22e-06  
    9   -1389.2549602708      3.28e-06  
   10   -1389.2549619091      1.28e-06  
   11   -1389.2549621723      4.79e-07  Convergence criterion met
 ---------------------------------------
 SCF time:   CPU 1709.61s  wall 49.00s 

************** Final PCM Free Energy Summary **************
 G_electrostatic  =      -0.01274211 hartree =      -7.99579470 kcal/mol
 G_cavitation     =       0.00000000 hartree =       0.00000000 kcal/mol
 G_dispersion     =       0.00000000 hartree =       0.00000000 kcal/mol
 G_repulsion      =       0.00000000 hartree =       0.00000000 kcal/mol
 --------------------------------------------------
 Non-electrostatic Free Energy =       0.00000000 hartree =       0.00000000 kcal/mol
 Total                         =      -0.01274211 hartree =      -7.99579470 kcal/mol
 --------------------------------------------------
 SCF Energy (H0 + V/2)                       =   -1389.25496217 
 Solute Internal Energy (H0)                 =   -1389.24222006 
 Total Free Energy (H0 + V/2 + non-elec)     =   -1389.25496217 hartree
                                             = -871770.64639685 kcal/mol
***********************************************************

 SCF   energy in the final basis set =    -1389.2549621723
 Total energy in the final basis set =    -1389.2549621723


 --------------------------------------------------------------
  Generalized many-body perturbation theory program
  by Joonho Lee, Fazle Rob, Xintian Feng, Evgeny Epifanovsky

 No regularization used 
 (reg. param. = 0.0000e+00)
  (P|Q)^-1/2 Time:  CPU 38.75 s  wall 0.71 s

 In RI-MP2 calculation: 
 # of frozen core orbitals: 22

 Components of the RIMP2 correlation energy:
        aaaa    correlation energy =        -0.3295066028 a.u.
        abab    correlation energy =        -1.8471876912 a.u.
        bbbb    correlation energy =        -0.3295066028 a.u.
        non-Brillouin singles      =        -0.0000000000 a.u.
        total same-spin energy     =        -0.6590132056 a.u.
        total opposite-spin energy =        -1.8471876912 a.u.

 Total  RIMP2   correlation energy =        -2.5062008967 a.u.
        RIMP2         total energy =     -1391.7611630690 a.u.

 RI-MP2 Energy Time:  CPU 184.81 s  wall 3.10 s
 
 --------------------------------------------------------------
 
                    Orbital Energies (a.u.)
 --------------------------------------------------------------
 
 Alpha MOs
 -- Occupied --
-92.0048 -91.9901 -26.3353 -20.6105 -20.5473 -11.4078 -11.3767 -11.3126
-11.2917 -11.2912 -11.2877 -11.2803 -11.2719 -11.2300  -9.0036  -8.9943
 -6.6844  -6.6837  -6.6833  -6.6756  -6.6749  -6.6736  -1.6485  -1.4701
 -1.3651  -1.2275  -1.1453  -1.0680  -1.0267  -1.0066  -0.9683  -0.9117
 -0.8633  -0.7957  -0.7859  -0.7665  -0.7264  -0.7163  -0.6974  -0.6782
 -0.6773  -0.6686  -0.6097  -0.6042  -0.5970  -0.5873  -0.5827  -0.5670
 -0.5433  -0.5244  -0.5047  -0.4826  -0.4753  -0.4633  -0.4600  -0.4557
 -0.3946  -0.3456  -0.2796
 -- Virtual --
  0.0398   0.1213   0.1367   0.1560   0.1595   0.1713   0.1856   0.1968
  0.2043   0.2166   0.2213   0.2285   0.2360   0.2441   0.2648   0.2728
  0.2939   0.3029   0.3218   0.3342   0.3502   0.3582   0.3713   0.3769
  0.3813   0.3870   0.3961   0.4122   0.4174   0.4296   0.4411   0.4429
  0.4621   0.4652   0.4738   0.4857   0.4919   0.5080   0.5165   0.5224
  0.5297   0.5407   0.5508   0.5552   0.5601   0.5642   0.5771   0.5870
  0.5925   0.5954   0.6086   0.6163   0.6173   0.6237   0.6259   0.6324
  0.6392   0.6493   0.6553   0.6636   0.6753   0.6873   0.6930   0.7042
  0.7088   0.7146   0.7419   0.7645   0.7684   0.7856   0.7946   0.7974
  0.8016   0.8134   0.8193   0.8407   0.8636   0.8787   0.8841   0.8923
  0.9011   0.9164   0.9218   0.9285   0.9396   0.9470   0.9680   0.9744
  0.9858   0.9916   1.0026   1.0105   1.0272   1.0313   1.0396   1.0511
  1.0603   1.0767   1.0795   1.0904   1.1054   1.1059   1.1098   1.1385
  1.1539   1.1571   1.1663   1.1708   1.1832   1.1977   1.2022   1.2116
  1.2226   1.2384   1.2437   1.2493   1.2619   1.2830   1.2941   1.3095
  1.3184   1.3360   1.3455   1.3511   1.3588   1.3806   1.3863   1.4097
  1.4246   1.4324   1.4435   1.4751   1.4801   1.5006   1.5051   1.5140
  1.5144   1.5364   1.5478   1.5508   1.5611   1.5751   1.5891   1.6112
  1.6239   1.6400   1.6576   1.6690   1.6787   1.7086   1.7111   1.7350
  1.7577   1.7624   1.7938   1.8127   1.8212   1.8341   1.8451   1.8554
  1.8660   1.8729   1.8782   1.9176   1.9249   1.9383   1.9447   1.9534
  1.9962   2.0250   2.0319   2.0447   2.0512   2.0928   2.1067   2.1318
  2.1436   2.1561   2.1636   2.1763   2.1969   2.2009   2.2197   2.2449
  2.2516   2.2745   2.2830   2.2923   2.2996   2.3164   2.3323   2.3535
  2.3713   2.3832   2.4129   2.4299   2.4642   2.4737   2.4885   2.4988
  2.5302   2.5565   2.5757   2.5812   2.5901   2.6222   2.6231   2.6440
  2.6520   2.6543   2.6729   2.6855   2.6963   2.7105   2.7189   2.7339
  2.7378   2.7502   2.7572   2.7706   2.7746   2.7977   2.8108   2.8217
  2.8404   2.8716   2.8739   2.8886   2.9074   2.9212   2.9300   2.9448
  2.9650   2.9832   2.9965   3.0211   3.0411   3.0438   3.0450   3.0614
  3.0875   3.0926   3.1001   3.1153   3.1177   3.1297   3.1326   3.1617
  3.1693   3.1789   3.2021   3.2105   3.2188   3.2299   3.2431   3.2508
  3.2610   3.2732   3.2775   3.2817   3.2882   3.2948   3.3200   3.3255
  3.3381   3.3551   3.3613   3.3647   3.3808   3.3867   3.3936   3.4081
  3.4256   3.4416   3.4540   3.4594   3.4644   3.4719   3.4911   3.4969
  3.5175   3.5208   3.5321   3.5482   3.5669   3.5800   3.5837   3.5886
  3.5971   3.6019   3.6163   3.6353   3.6391   3.6525   3.6600   3.6646
  3.6876   3.6913   3.7063   3.7117   3.7189   3.7307   3.7321   3.7391
  3.7655   3.7784   3.7819   3.7995   3.8212   3.8293   3.8383   3.8537
  3.8589   3.8749   3.8754   3.8954   3.9028   3.9148   3.9291   3.9455
  3.9567   3.9754   3.9820   3.9878   4.0027   4.0083   4.0431   4.0618
  4.0639   4.0773   4.0851   4.0963   4.1217   4.1273   4.1682   4.1762
  4.1857   4.2085   4.2228   4.2333   4.2829   4.2923   4.3153   4.3273
  4.3488   4.3688   4.3775   4.3904   4.3965   4.4036   4.4315   4.4359
  4.4531   4.4732   4.4995   4.5221   4.5300   4.5505   4.5876   4.6063
  4.6142   4.6433   4.6552   4.6673   4.6762   4.6956   4.7172   4.7374
  4.7625   4.7704   4.7943   4.8121   4.8159   4.8898   4.9129   4.9168
  4.9696   5.0125   5.0257   5.0627   5.0759   5.1007   5.1053   5.1420
  5.1830   5.2140   5.2231   5.2538   5.2600   5.2673   5.2723   5.3556
  5.3564   5.3630   5.4083   5.4209   5.4639   5.4738   5.4914   5.5321
  5.5562   5.5971   5.6106   5.6199   5.6422   5.6803   5.7284   5.8023
  5.8206   5.8233   5.8621   5.8835   5.9514   5.9718   5.9833   6.0454
  6.0912   6.1317   6.1347   6.1867   6.2245   6.3100   6.3554   6.4354
  6.4543   6.5132   6.5583   6.6735   6.6789   6.7386   6.7432   6.8627
  6.8843   6.9934   7.1801   7.2117   7.3287   7.3716   7.3748   7.4297
  7.4641   7.4853   7.5188   7.5504   7.6186   7.7686   7.8330   7.9131
  8.0002   8.1190   8.4714   8.9278   9.0057   9.3618   9.4970   9.6982
 10.1044  11.2231  11.5622  11.9368  12.3188  12.7040  13.1576  13.5613
 13.8430  14.0950  14.7270
 --------------------------------------------------------------
 
          Ground-State Mulliken Net Atomic Charges

     Atom                 Charge (a.u.)
  ----------------------------------------
      1 C                     0.051184
      2 S                     0.081926
      3 C                    -0.261607
      4 C                    -0.100468
      5 C                    -0.011222
      6 C                     0.386725
      7 C                    -0.156860
      8 S                     0.028371
      9 C                     0.458574
     10 O                    -0.455892
     11 O                    -0.298447
     12 F                    -0.214499
     13 C                    -0.055003
     14 H                     0.116300
     15 H                     0.083938
     16 H                     0.083814
     17 C                    -0.377148
     18 H                     0.123954
     19 H                     0.165036
     20 H                     0.141476
     21 H                     0.209848
  ----------------------------------------
  Sum of atomic charges =     0.000000

 -----------------------------------------------------------------
                    Cartesian Multipole Moments
 -----------------------------------------------------------------
    Charge (ESU x 10^10)
                -0.0000
    Dipole Moment (Debye)
         X       0.3343      Y       0.8405      Z       2.9412
       Tot       3.0772
    Quadrupole Moments (Debye-Ang)
        XX     -96.0388     XY      -0.9303     YY     -81.9588
        XZ       0.6013     YZ     -10.9750     ZZ     -97.7229
    Octopole Moments (Debye-Ang^2)
       XXX      -0.8065    XXY     -85.8444    XYY       2.6736
       YYY    -232.6038    XXZ      79.8382    XYZ      -2.4968
       YYZ      62.2998    XZZ       0.9077    YZZ      10.4340
       ZZZ     255.2344
    Hexadecapole Moments (Debye-Ang^3)
      XXXX    -119.8290   XXXY       0.3196   XXYY    -344.9998
      XYYY      -7.6913   YYYY   -1773.6492   XXXZ       2.5606
      XXYZ     248.1075   XYYZ       6.6311   YYYZ     642.8228
      XXZZ    -677.7465   XYZZ      -1.7617   YYZZ    -690.1776
      XZZZ       1.5635   YZZZ     337.4749   ZZZZ   -3793.9467
 -----------------------------------------------------------------
 Total job time:  54.32s(wall), 1969.14s(cpu) 
 Sun Sep 24 17:05:01 2023

        *************************************************************
        *                                                           *
        *  Thank you very much for using Q-Chem.  Have a nice day.  *
        *                                                           *
        *************************************************************


0 sent ACK to 0 
now end server 0 ... 
cleanup process ... done
remove work dirs ./qchem2015740.0 -- ./qchem2015740.0
rm -rf ./qchem2015740.0
rm -rf ./qchem2015740
