You are running Q-Chem version: 5.4.0

#
# job setting
#
local host:  exp-9-02
current dir: /expanse/lustre/projects/csd626/rramji/aromodel/PTB7_fin/Hydrogenated_Impropers_Test
input file:  fin_bdt_Phi_30_Theta_0_fin_ftt_Hydrogenated_Improper.qcin
output file: 
nprocs     : 1
nthreads   : 64
#
# qchem installation setting
#
QC:          /cm/shared/apps/spack/cpu/opt/spack/linux-centos8-zen2/gcc-10.2.0/qchem-5.4-akfmr7b3t57bfs6qan3padb2wnb2i7cl
QCAUX:       /cm/shared/apps/spack/cpu/opt/spack/linux-centos8-zen2/gcc-10.2.0/qchem-5.4-akfmr7b3t57bfs6qan3padb2wnb2i7cl/qcaux
QCPROG:      /cm/shared/apps/spack/cpu/opt/spack/linux-centos8-zen2/gcc-10.2.0/qchem-5.4-akfmr7b3t57bfs6qan3padb2wnb2i7cl/exe/qcprog.exe
QCPROG_S:    /cm/shared/apps/spack/cpu/opt/spack/linux-centos8-zen2/gcc-10.2.0/qchem-5.4-akfmr7b3t57bfs6qan3padb2wnb2i7cl/exe/qcprog.exe_s
PARALLEL:    -DPARALLEL
QCMPI:       mpich
#
# qchem directory setting
#
qcrun:       qchem631441
QCSCRATCH:   .
QCLOCALSCR:  
QCTMPDIR:    .
QCFILEPREF:  ./qchem631441
QCSAVEDIR:   
workdirs:    ./qchem631441
workdir0:    ./qchem631441
partmpdirs =  
#
# parallel setting
#
QCRSH:           ssh
QCMPI:           mpich
QCMPIRUN:        /cm/shared/apps/spack/cpu/opt/spack/linux-centos8-zen2/gcc-10.2.0/qchem-5.4-akfmr7b3t57bfs6qan3padb2wnb2i7cl/bin/mpi/mpirun_qchem
QCMACHINEFILE:   ./qchem631441/hostfile
exp-9-02

#
# env setting
#
exported envs:   QC QCAUX QCSCRATCH QCRUNNAME QCFILEPREF QCPROG QCPROG_S GUIFILE

Running Job 1 of 1 fin_bdt_Phi_30_Theta_0_fin_ftt_Hydrogenated_Improper.qcin
qchem fin_bdt_Phi_30_Theta_0_fin_ftt_Hydrogenated_Improper.qcin_631441.0 ./qchem631441/ 1
/cm/shared/apps/spack/cpu/opt/spack/linux-centos8-zen2/gcc-10.2.0/qchem-5.4-akfmr7b3t57bfs6qan3padb2wnb2i7cl/bin/mpi/mpirun_qchem -machinefile ./qchem631441/hostfile -np 1 /cm/shared/apps/spack/cpu/opt/spack/linux-centos8-zen2/gcc-10.2.0/qchem-5.4-akfmr7b3t57bfs6qan3padb2wnb2i7cl/exe/qcprog.exe fin_bdt_Phi_30_Theta_0_fin_ftt_Hydrogenated_Improper.qcin_631441.0 ./qchem631441/

Process 0 of 1 is on exp-9-02 - thread support 0
initial socket setup ...start
initial socket setup ...done 
now start server 0 ... 
                  Welcome to Q-Chem
     A Quantum Leap Into The Future Of Chemistry


 Q-Chem 5.4, Q-Chem, Inc., Pleasanton, CA (2021)

 License issued to: University of California, San Diego (site)

 E. Epifanovsky,  A. T. B. Gilbert,  Xintian Feng,  Joonho Lee,  Yuezhi Mao,  
 N. Mardirossian,  P. Pokhilko,  A. White,  M. Wormit,  M. P. Coons,  
 A. L. Dempwolff,  Zhengting Gan,  D. Hait,  P. R. Horn,  L. D. Jacobson,  
 I. Kaliman,  J. Kussmann,  A. W. Lange,  Ka Un Lao,  D. S. Levine,  Jie Liu,  
 S. C. McKenzie,  A. F. Morrison,  K. Nanda,  F. Plasser,  D. R. Rehn,  
 M. L. Vidal,  Zhi-Qiang You,  Ying Zhu,  B. Alam,  B. Albrecht,  
 A. Aldossary,  E. Alguire,  J. H. Andersen,  D. Barton,  K. Begam,  A. Behn,  
 Y. A. Bernard,  E. J. Berquist,  H. Burton,  A. Carreras,  K. Carter-Fenk,  
 R. Chakraborty,  A. D. Chien,  K. D. Closser,  V. Cofer-Shabica,  
 S. Dasgupta,  Jia Deng,  M. de Wergifosse,  M. Diedenhofen,  Hainam Do,  
 S. Ehlert,  Po-Tung Fang,  S. Fatehi,  Qingguo Feng,  J. Gayvert,  
 Qinghui Ge,  G. Gidofalvi,  M. Goldey,  J. Gomes,  C. Gonzalez-Espinoza,  
 S. Gulania,  A. Gunina,  M. W. D. Hanson-Heine,  P. H. P. Harbach,  
 A. W. Hauser,  M. F. Herbst,  M. Hernandez Vera,  M. Hodecker,  
 Z. C. Holden,  S. Houck,  Xunkun Huang,  Kerwin Hui,  B. C. Huynh,  
 M. Ivanov,  Hyunjun Ji,  Hanjie Jiang,  B. Kaduk,  S. Kaehler,  
 K. Khistyaev,  Jaehoon Kim,  P. Klunzinger,  Z. Koczor-Benda,  
 Joong Hoon Koh,  D. Kosenkov,  L. Koulias,  T. Kowalczyk,  C. M. Krauter,  
 K. Kue,  A. Kunitsa,  T. Kus,  A. Landau,  K. V. Lawler,  D. Lefrancois,  
 S. Lehtola,  Rain Li,  Yi-Pei Li,  Jiashu Liang,  M. Liebenthal,  
 Hung-Hsuan Lin,  You-Sheng Lin,  Fenglai Liu,  Kuan-Yu Liu,  
 M. Loipersberger,  A. Luenser,  A. Manjanath,  P. Manohar,  E. Mansoor,  
 S. F. Manzer,  Shan-Ping Mao,  A. V. Marenich,  T. Markovich,  S. Mason,  
 S. A. Maurer,  P. F. McLaughlin,  M. F. S. J. Menger,  J.-M. Mewes,  
 S. A. Mewes,  P. Morgante,  J. W. Mullinax,  T. S. Nguyen-Beck,  
 K. J. Oosterbaan,  G. Paran,  Alexander C. Paul,  Suranjan K. Paul,  
 F. Pavosevic,  Zheng Pei,  S. Prager,  E. I. Proynov,  E. Ramos,  B. Rana,  
 A. E. Rask,  A. Rettig,  R. M. Richard,  F. Rob,  E. Rossomme,  T. Scheele,  
 M. Scheurer,  M. Schneider,  N. Sergueev,  S. M. Sharada,  W. Skomorowski,  
 D. W. Small,  C. J. Stein,  Yu-Chuan Su,  E. J. Sundstrom,  Zhen Tao,  
 J. Thirman,  T. Tsuchimochi,  N. M. Tubman,  S. P. Veccham,  O. Vydrov,  
 J. Wenzel,  J. Witte,  A. Yamada,  Kun Yao,  S. Yeganeh,  S. R. Yost,  
 A. Zech,  Igor Ying Zhang,  Xing Zhang,  Yu Zhang,  D. Zuev,  
 A. Aspuru-Guzik,  A. T. Bell,  N. A. Besley,  K. B. Bravaya,  B. R. Brooks,  
 D. Casanova,  Jeng-Da Chai,  S. Coriani,  C. J. Cramer,  
 A. E. DePrince, III,  R. A. DiStasio Jr.,  A. Dreuw,  B. D. Dunietz,  
 T. R. Furlani,  W. A. Goddard III,  S. Grimme,  S. Hammes-Schiffer,  
 T. Head-Gordon,  W. J. Hehre,  Chao-Ping Hsu,  T.-C. Jagau,  Yousung Jung,  
 A. Klamt,  Jing Kong,  D. S. Lambrecht,  WanZhen Liang,  N. J. Mayhall,  
 C. W. McCurdy,  J. B. Neaton,  C. Ochsenfeld,  J. A. Parkhill,  R. Peverati,  
 V. A. Rassolov,  Yihan Shao,  L. V. Slipchenko,  T. Stauch,  R. P. Steele,  
 J. E. Subotnik,  A. J. W. Thom,  A. Tkatchenko,  D. G. Truhlar,  
 T. Van Voorhis,  T. A. Wesolowski,  K. B. Whaley,  H. L. Woodcock III,  
 P. M. Zimmerman,  S. Faraji,  P. M. W. Gill,  M. Head-Gordon,  
 J. M. Herbert,  A. I. Krylov

 Contributors to earlier versions of Q-Chem not listed above: 
 R. D. Adamson,  B. Austin,  R. Baer,  J. Baker,  G. J. O. Beran,  
 K. Brandhorst,  S. T. Brown,  E. F. C. Byrd,  A. K. Chakraborty,  
 G. K. L. Chan,  Chun-Min Chang,  Yunqing Chen,  C.-L. Cheng,  
 Siu Hung Chien,  D. M. Chipman,  D. L. Crittenden,  H. Dachsel,  
 R. J. Doerksen,  A. D. Dutoi,  R. G. Edgar,  J. Fosso-Tande,  
 L. Fusti-Molnar,  D. Ghosh,  A. Ghysels,  A. Golubeva-Zadorozhnaya,  
 J. Gonthier,  M. S. Gordon,  S. R. Gwaltney,  G. Hawkins,  J. E. Herr,  
 A. Heyden,  S. Hirata,  E. G. Hohenstein,  G. Kedziora,  F. J. Keil,  
 C. Kelley,  Jihan Kim,  R. A. King,  R. Z. Khaliullin,  P. P. Korambath,  
 W. Kurlancheek,  A. Laurent,  A. M. Lee,  M. S. Lee,  S. V. Levchenko,  
 Ching Yeh Lin,  D. Liotard,  E. Livshits,  R. C. Lochan,  I. Lotan,  
 L. A. Martinez-Martinez,  P. E. Maslen,  N. Nair,  D. P. O'Neill,  
 D. Neuhauser,  E. Neuscamman,  C. M. Oana,  R. Olivares-Amaya,  R. Olson,  
 T. M. Perrine,  B. Peters,  P. A. Pieniazek,  A. Prociuk,  Y. M. Rhee,  
 J. Ritchie,  M. A. Rohrdanz,  E. Rosta,  N. J. Russ,  H. F. Schaefer III,  
 M. W. Schmidt,  N. E. Schultz,  S. Sharma,  N. Shenvi,  C. D. Sherrill,  
 A. C. Simmonett,  A. Sodt,  T. Stein,  D. Stuck,  K. S. Thanthiriwatte,  
 V. Vanovschi,  L. Vogt,  Tao Wang,  A. Warshel,  M. A. Watson,  
 C. F. Williams,  Q. Wu,  X. Xu,  Jun Yang,  W. Zhang,  Yan Zhao

 Please cite Q-Chem as follows:
 Y. Shao et al., Mol. Phys. 113, 184-215 (2015)
 DOI: 10.1080/00268976.2014.952696

 Q-Chem 5.4.0 for Intel X86 EM64T Linux

 Parts of Q-Chem use Armadillo 9.800.1 (Horizon Scraper).
 http://arma.sourceforge.net/

 Q-Chem begins on Sun Sep 24 16:45:45 2023  

 Host: 
0

     Scratch files written to ./qchem631441//
 May1621 |scratch|qcdevops|jenkins|workspace|build_RNUM    
 Parallel job on  1  processors
 Processing $rem in /cm/shared/apps/spack/cpu/opt/spack/linux-centos8-zen2/gcc-10.2.0/qchem-5.4-akfmr7b3t57bfs6qan3padb2wnb2i7cl/config/preferences:
 Processing $rem in /home/rramji/.qchemrc:
 Symmetry turned off for PCM/SM12/SMD calculation
 Core orbitals will be frozen

 Checking the input file for inconsistencies... 	...done.

 Q-Chem warning in module forms1/BasisType.C, line 2236:

 You are not using the predefined 5D/6D in this basis set.


--------------------------------------------------------------
User input:
--------------------------------------------------------------
$molecule
0 1
C	-0.315805	-0.784071	1.023176
S	-0.006105	0.060329	2.533876
C	0.531695	1.541029	1.750776
C	-0.005205	0.069429	-0.041524
C	0.468395	1.374929	0.344876
C	-0.026305	0.006429	-1.462924
C	0.406095	1.195029	-2.083724
S	0.829695	2.368429	-0.942524
C	0.497595	1.432529	-3.536824
O	0.181095	0.554329	-4.327124
O	0.939495	2.637229	-3.981224
F	-0.403705	-1.041871	-2.223124
C	1.071695	2.970829	-5.311824
H	1.450195	4.009029	-5.347124
H	0.101295	2.909729	-5.852424
H	1.782995	2.296929	-5.838724
C	-0.066605	-2.197471	1.023176
H	0.998495	-2.018771	1.014676
H	0.052495	-2.870871	1.859076
H	0.016595	-2.715271	0.079076
H	0.846395	2.405529	2.344676
$end

$rem
JOBTYPE		SP
EXCHANGE	HF
CORRELATION	pRIMP2
BASIS		cc-pvtz
METHOD		rimp2
AUX_BASIS	rimp2-cc-pvtz
SOLVENT_METHOD	PCM
PURECART	11111
SYMMETRY	false
MEM_TOTAL	110000
SCF_CONVERGENCE = 6
THRESH=10
GUI = 2
$end



$solvent
dielectric 4.90
$end
--------------------------------------------------------------
 ----------------------------------------------------------------
             Standard Nuclear Orientation (Angstroms)
    I     Atom           X                Y                Z
 ----------------------------------------------------------------
    1      C      -0.3158050000    -0.7840710000     1.0231760000
    2      S      -0.0061050000     0.0603290000     2.5338760000
    3      C       0.5316950000     1.5410290000     1.7507760000
    4      C      -0.0052050000     0.0694290000    -0.0415240000
    5      C       0.4683950000     1.3749290000     0.3448760000
    6      C      -0.0263050000     0.0064290000    -1.4629240000
    7      C       0.4060950000     1.1950290000    -2.0837240000
    8      S       0.8296950000     2.3684290000    -0.9425240000
    9      C       0.4975950000     1.4325290000    -3.5368240000
   10      O       0.1810950000     0.5543290000    -4.3271240000
   11      O       0.9394950000     2.6372290000    -3.9812240000
   12      F      -0.4037050000    -1.0418710000    -2.2231240000
   13      C       1.0716950000     2.9708290000    -5.3118240000
   14      H       1.4501950000     4.0090290000    -5.3471240000
   15      H       0.1012950000     2.9097290000    -5.8524240000
   16      H       1.7829950000     2.2969290000    -5.8387240000
   17      C      -0.0666050000    -2.1974710000     1.0231760000
   18      H       0.9984950000    -2.0187710000     1.0146760000
   19      H       0.0524950000    -2.8708710000     1.8590760000
   20      H       0.0165950000    -2.7152710000     0.0790760000
   21      H       0.8463950000     2.4055290000     2.3446760000
 ----------------------------------------------------------------
 Nuclear Repulsion Energy =        1092.00934519 hartrees
 There are       59 alpha and       59 beta electrons
 Requested basis set is cc-pVTZ
 There are 186 shells and 526 basis functions

 Total QAlloc Memory Limit 110000 MB
 Mega-Array Size       188 MB
 MEM_STATIC part       192 MB
 Discretize the solute cavity surface with Lebedev spheres
	Using 110 Lebedev grid points for each H atom
	Using 194 Lebedev grid points for other atoms
	Atomic van der Waals radii will be scaled by 1.20
 Remove points where switching function is < 1.0e-08
 Keep 1554 surface tesserae and discard 1932 interior tesserae
 Molecular Surface Area = 242.046 Angst**2
 Requested basis set is rimp2-cc-pVTZ
 There are 410 shells and 1426 basis functions
 A cutoff of  1.0D-10 yielded  11652 shell pairs
 There are     91694 function pairs (    120062 Cartesian)
 Smallest overlap matrix eigenvalue = 5.95E-05

 Scale SEOQF with 1.000000e-01/1.000000e-01/1.000000e-02

 Standard Electronic Orientation quadrupole field applied
 Nucleus-field energy     =     0.0000000169 hartrees
 Guess from superposition of atomic densities
 Warning:  Energy on first SCF cycle will be non-variational
 SAD guess density has 118.000000 electrons

 -----------------------------------------------------------------------
  General SCF calculation program by
  Eric Jon Sundstrom, Paul Horn, Yuezhi Mao, Dmitri Zuev, Alec White,
  David Stuck, Shaama M.S., Shane Yost, Joonho Lee, David Small,
  Daniel Levine, Susi Lehtola, Hugh Burton, Evgeny Epifanovsky,
  Bang C. Huynh
 -----------------------------------------------------------------------
 Hartree-Fock
 using 64 threads for integral computing
 -------------------------------------------------------
 OpenMP Integral computing Module                
 Release: version 1.0, May 2013, Q-Chem Inc. Pittsburgh 
 -------------------------------------------------------
 A restricted SCF calculation will be
 performed using DIIS
 SCF converges when DIIS error is below 1.0e-06
 ---------------------------------------
  Cycle       Energy         DIIS error
 ---------------------------------------
    1   -1394.5857694850      2.53e-02  
    2   -1389.0011700279      2.50e-03  
    3   -1389.1738364384      1.57e-03  
    4   -1389.2352676480      3.47e-04  
    5   -1389.2409401388      1.10e-04  
    6   -1389.2415977117      3.62e-05  
    7   -1389.2417386833      1.81e-05  
    8   -1389.2417847755      7.12e-06  
    9   -1389.2417947208      3.22e-06  
   10   -1389.2417962937      1.22e-06  
   11   -1389.2417965526      4.71e-07  Convergence criterion met
 ---------------------------------------
 SCF time:   CPU 1692.99s  wall 48.00s 

************** Final PCM Free Energy Summary **************
 G_electrostatic  =      -0.01364271 hartree =      -8.56092736 kcal/mol
 G_cavitation     =       0.00000000 hartree =       0.00000000 kcal/mol
 G_dispersion     =       0.00000000 hartree =       0.00000000 kcal/mol
 G_repulsion      =       0.00000000 hartree =       0.00000000 kcal/mol
 --------------------------------------------------
 Non-electrostatic Free Energy =       0.00000000 hartree =       0.00000000 kcal/mol
 Total                         =      -0.01364271 hartree =      -8.56092736 kcal/mol
 --------------------------------------------------
 SCF Energy (H0 + V/2)                       =   -1389.24179655 
 Solute Internal Energy (H0)                 =   -1389.22815385 
 Total Free Energy (H0 + V/2 + non-elec)     =   -1389.24179655 hartree
                                             = -871762.38484581 kcal/mol
***********************************************************

 SCF   energy in the final basis set =    -1389.2417965526
 Total energy in the final basis set =    -1389.2417965526


 --------------------------------------------------------------
  Generalized many-body perturbation theory program
  by Joonho Lee, Fazle Rob, Xintian Feng, Evgeny Epifanovsky

 No regularization used 
 (reg. param. = 0.0000e+00)
  (P|Q)^-1/2 Time:  CPU 18.03 s  wall 0.29 s

 In RI-MP2 calculation: 
 # of frozen core orbitals: 22

 Components of the RIMP2 correlation energy:
        aaaa    correlation energy =        -0.3295190351 a.u.
        abab    correlation energy =        -1.8477423819 a.u.
        bbbb    correlation energy =        -0.3295190351 a.u.
        non-Brillouin singles      =        -0.0000000000 a.u.
        total same-spin energy     =        -0.6590380702 a.u.
        total opposite-spin energy =        -1.8477423819 a.u.

 Total  RIMP2   correlation energy =        -2.5067804521 a.u.
        RIMP2         total energy =     -1391.7485770047 a.u.

 RI-MP2 Energy Time:  CPU 170.12 s  wall 3.21 s
 
 --------------------------------------------------------------
 
                    Orbital Energies (a.u.)
 --------------------------------------------------------------
 
 Alpha MOs
 -- Occupied --
-92.0051 -91.9892 -26.3344 -20.6095 -20.5456 -11.4064 -11.3766 -11.3167
-11.2925 -11.2884 -11.2873 -11.2789 -11.2678 -11.2356  -9.0041  -8.9934
 -6.6850  -6.6843  -6.6839  -6.6747  -6.6740  -6.6727  -1.6473  -1.4690
 -1.3639  -1.2281  -1.1498  -1.0681  -1.0273  -1.0049  -0.9680  -0.9092
 -0.8631  -0.7961  -0.7848  -0.7669  -0.7264  -0.7151  -0.6962  -0.6772
 -0.6765  -0.6677  -0.6096  -0.6033  -0.6009  -0.5868  -0.5827  -0.5597
 -0.5293  -0.5265  -0.5190  -0.4954  -0.4789  -0.4609  -0.4580  -0.4566
 -0.3891  -0.3471  -0.2722
 -- Virtual --
  0.0373   0.1182   0.1377   0.1554   0.1578   0.1720   0.1890   0.1990
  0.2043   0.2068   0.2175   0.2242   0.2339   0.2418   0.2634   0.2753
  0.2880   0.3079   0.3263   0.3309   0.3439   0.3576   0.3699   0.3774
  0.3814   0.3878   0.4088   0.4105   0.4166   0.4270   0.4325   0.4390
  0.4549   0.4601   0.4683   0.4879   0.4919   0.5043   0.5130   0.5281
  0.5368   0.5427   0.5451   0.5534   0.5616   0.5666   0.5726   0.5847
  0.5887   0.6004   0.6019   0.6059   0.6130   0.6178   0.6230   0.6318
  0.6347   0.6446   0.6507   0.6621   0.6750   0.6877   0.6946   0.7072
  0.7146   0.7165   0.7409   0.7531   0.7676   0.7801   0.7853   0.7927
  0.8032   0.8116   0.8122   0.8525   0.8565   0.8649   0.8796   0.8836
  0.8966   0.9019   0.9210   0.9277   0.9363   0.9441   0.9704   0.9757
  0.9881   0.9998   1.0089   1.0169   1.0302   1.0381   1.0486   1.0628
  1.0686   1.0726   1.0876   1.0924   1.0988   1.1112   1.1147   1.1304
  1.1465   1.1567   1.1651   1.1694   1.1717   1.1849   1.2053   1.2100
  1.2186   1.2343   1.2428   1.2526   1.2665   1.2814   1.2920   1.3141
  1.3310   1.3367   1.3429   1.3473   1.3672   1.3743   1.3945   1.4052
  1.4254   1.4358   1.4519   1.4697   1.4792   1.4824   1.5003   1.5028
  1.5131   1.5186   1.5283   1.5498   1.5563   1.5630   1.5666   1.5957
  1.6214   1.6257   1.6589   1.6673   1.6728   1.7062   1.7147   1.7302
  1.7632   1.7735   1.7914   1.8132   1.8251   1.8358   1.8399   1.8594
  1.8698   1.8776   1.8869   1.9289   1.9314   1.9433   1.9539   1.9740
  2.0068   2.0275   2.0317   2.0496   2.0578   2.0991   2.1023   2.1301
  2.1460   2.1538   2.1625   2.1805   2.1981   2.2079   2.2191   2.2336
  2.2522   2.2633   2.2724   2.2826   2.2993   2.3047   2.3273   2.3457
  2.3657   2.3829   2.4009   2.4138   2.4452   2.4659   2.4789   2.4976
  2.5302   2.5381   2.5651   2.5707   2.5862   2.6061   2.6091   2.6326
  2.6407   2.6607   2.6668   2.6818   2.6880   2.7041   2.7248   2.7291
  2.7433   2.7489   2.7593   2.7740   2.7834   2.8027   2.8186   2.8308
  2.8559   2.8673   2.8865   2.8985   2.9169   2.9284   2.9468   2.9689
  2.9829   2.9937   3.0155   3.0366   3.0402   3.0460   3.0519   3.0746
  3.0852   3.0899   3.0964   3.1035   3.1115   3.1445   3.1473   3.1565
  3.1693   3.1790   3.1949   3.2083   3.2146   3.2202   3.2450   3.2551
  3.2599   3.2710   3.2813   3.2869   3.2947   3.2960   3.3091   3.3127
  3.3408   3.3480   3.3536   3.3674   3.3692   3.3915   3.4126   3.4218
  3.4338   3.4438   3.4580   3.4658   3.4740   3.4882   3.4976   3.5017
  3.5127   3.5255   3.5332   3.5504   3.5572   3.5747   3.5814   3.5861
  3.5974   3.6037   3.6079   3.6230   3.6383   3.6411   3.6573   3.6694
  3.6745   3.6918   3.7017   3.7112   3.7156   3.7285   3.7318   3.7449
  3.7497   3.7724   3.7957   3.7976   3.8205   3.8277   3.8378   3.8493
  3.8575   3.8732   3.8812   3.8888   3.9065   3.9185   3.9368   3.9441
  3.9534   3.9697   3.9828   4.0007   4.0283   4.0398   4.0484   4.0574
  4.0628   4.0932   4.0949   4.1116   4.1380   4.1497   4.1719   4.1792
  4.1928   4.2381   4.2497   4.2656   4.2797   4.3014   4.3092   4.3488
  4.3503   4.3656   4.3778   4.3929   4.4075   4.4132   4.4188   4.4373
  4.4624   4.4875   4.5015   4.5088   4.5314   4.5566   4.5693   4.5990
  4.6293   4.6421   4.6464   4.6596   4.6783   4.6886   4.7208   4.7354
  4.7499   4.7601   4.7971   4.8091   4.8366   4.8562   4.9142   4.9238
  4.9774   5.0076   5.0147   5.0343   5.0920   5.0954   5.1186   5.1333
  5.1672   5.1911   5.2037   5.2192   5.2555   5.2605   5.3111   5.3565
  5.3569   5.3648   5.4012   5.4112   5.4587   5.4742   5.4865   5.5369
  5.5632   5.5760   5.6029   5.6209   5.6240   5.6550   5.7378   5.8032
  5.8051   5.8189   5.8458   5.8714   5.9336   5.9722   5.9743   6.0295
  6.0749   6.1252   6.1353   6.1866   6.2012   6.3108   6.3643   6.4183
  6.4642   6.5086   6.5594   6.6616   6.6801   6.7364   6.7412   6.8642
  6.8836   6.9943   7.1810   7.2132   7.3301   7.3728   7.3756   7.4300
  7.4651   7.4867   7.5177   7.5520   7.6092   7.7704   7.8340   7.9067
  8.0017   8.1192   8.4063   8.9276   9.0059   9.3636   9.4941   9.6886
 10.1463  11.2156  11.7061  11.9335  12.2863  12.6402  13.1089  13.4389
 13.7742  14.0716  14.6033
 --------------------------------------------------------------
 
          Ground-State Mulliken Net Atomic Charges

     Atom                 Charge (a.u.)
  ----------------------------------------
      1 C                     0.057074
      2 S                     0.085970
      3 C                    -0.268993
      4 C                    -0.116201
      5 C                    -0.006997
      6 C                     0.370695
      7 C                    -0.167269
      8 S                     0.030384
      9 C                     0.457808
     10 O                    -0.457608
     11 O                    -0.299093
     12 F                    -0.211276
     13 C                    -0.054706
     14 H                     0.115965
     15 H                     0.083795
     16 H                     0.083402
     17 C                    -0.374913
     18 H                     0.152987
     19 H                     0.166507
     20 H                     0.142887
     21 H                     0.209583
  ----------------------------------------
  Sum of atomic charges =     0.000000

 -----------------------------------------------------------------
                    Cartesian Multipole Moments
 -----------------------------------------------------------------
    Charge (ESU x 10^10)
                -0.0000
    Dipole Moment (Debye)
         X       1.8810      Y       0.4922      Z       3.6709
       Tot       4.1541
    Quadrupole Moments (Debye-Ang)
        XX     -95.7099     XY       0.8899     YY     -83.8187
        XZ      -2.6001     YZ     -11.6976     ZZ     -96.6485
    Octopole Moments (Debye-Ang^2)
       XXX     -95.6045    XXY     -74.9207    XYY     -17.3948
       YYY    -221.1887    XXZ      76.8828    XYZ      -8.1853
       YYZ      68.2725    XZZ       0.8084    YZZ       4.0597
       ZZZ     260.1035
    Hexadecapole Moments (Debye-Ang^3)
      XXXX    -296.4624   XXXY    -246.4412   XXYY    -330.7957
      XYYY    -218.4986   YYYY   -1616.9462   XXXZ     231.3500
      XXYZ     225.2201   XYYZ      54.2859   YYYZ     612.3699
      XXZZ    -676.6187   XYZZ       7.7110   YYZZ    -680.8371
      XZZZ      95.4862   YZZZ     314.3834   ZZZZ   -3807.7729
 -----------------------------------------------------------------
 Total job time:  55.22s(wall), 1946.61s(cpu) 
 Sun Sep 24 16:46:40 2023

        *************************************************************
        *                                                           *
        *  Thank you very much for using Q-Chem.  Have a nice day.  *
        *                                                           *
        *************************************************************


0 sent ACK to 0 
now end server 0 ... 
cleanup process ... done
remove work dirs ./qchem631441.0 -- ./qchem631441.0
rm -rf ./qchem631441.0
rm -rf ./qchem631441
