You are running Q-Chem version: 5.4.0

#
# job setting
#
local host:  exp-10-41
current dir: /expanse/lustre/projects/csd626/rramji/aromodel/PTB7_fin/Hydrogenated_Impropers_Test
input file:  fin_bdt_Phi_60_Theta_60_fin_ftt_Hydrogenated_Improper.qcin
output file: 
nprocs     : 1
nthreads   : 64
#
# qchem installation setting
#
QC:          /cm/shared/apps/spack/cpu/opt/spack/linux-centos8-zen2/gcc-10.2.0/qchem-5.4-akfmr7b3t57bfs6qan3padb2wnb2i7cl
QCAUX:       /cm/shared/apps/spack/cpu/opt/spack/linux-centos8-zen2/gcc-10.2.0/qchem-5.4-akfmr7b3t57bfs6qan3padb2wnb2i7cl/qcaux
QCPROG:      /cm/shared/apps/spack/cpu/opt/spack/linux-centos8-zen2/gcc-10.2.0/qchem-5.4-akfmr7b3t57bfs6qan3padb2wnb2i7cl/exe/qcprog.exe
QCPROG_S:    /cm/shared/apps/spack/cpu/opt/spack/linux-centos8-zen2/gcc-10.2.0/qchem-5.4-akfmr7b3t57bfs6qan3padb2wnb2i7cl/exe/qcprog.exe_s
PARALLEL:    -DPARALLEL
QCMPI:       mpich
#
# qchem directory setting
#
qcrun:       qchem3719984
QCSCRATCH:   .
QCLOCALSCR:  
QCTMPDIR:    .
QCFILEPREF:  ./qchem3719984
QCSAVEDIR:   
workdirs:    ./qchem3719984
workdir0:    ./qchem3719984
partmpdirs =  
#
# parallel setting
#
QCRSH:           ssh
QCMPI:           mpich
QCMPIRUN:        /cm/shared/apps/spack/cpu/opt/spack/linux-centos8-zen2/gcc-10.2.0/qchem-5.4-akfmr7b3t57bfs6qan3padb2wnb2i7cl/bin/mpi/mpirun_qchem
QCMACHINEFILE:   ./qchem3719984/hostfile
exp-10-41

#
# env setting
#
exported envs:   QC QCAUX QCSCRATCH QCRUNNAME QCFILEPREF QCPROG QCPROG_S GUIFILE

Running Job 1 of 1 fin_bdt_Phi_60_Theta_60_fin_ftt_Hydrogenated_Improper.qcin
qchem fin_bdt_Phi_60_Theta_60_fin_ftt_Hydrogenated_Improper.qcin_3719984.0 ./qchem3719984/ 1
/cm/shared/apps/spack/cpu/opt/spack/linux-centos8-zen2/gcc-10.2.0/qchem-5.4-akfmr7b3t57bfs6qan3padb2wnb2i7cl/bin/mpi/mpirun_qchem -machinefile ./qchem3719984/hostfile -np 1 /cm/shared/apps/spack/cpu/opt/spack/linux-centos8-zen2/gcc-10.2.0/qchem-5.4-akfmr7b3t57bfs6qan3padb2wnb2i7cl/exe/qcprog.exe fin_bdt_Phi_60_Theta_60_fin_ftt_Hydrogenated_Improper.qcin_3719984.0 ./qchem3719984/

Process 0 of 1 is on exp-10-41 - thread support 0
initial socket setup ...start
initial socket setup ...done 
now start server 0 ... 
                  Welcome to Q-Chem
     A Quantum Leap Into The Future Of Chemistry


 Q-Chem 5.4, Q-Chem, Inc., Pleasanton, CA (2021)

 License issued to: University of California, San Diego (site)

 E. Epifanovsky,  A. T. B. Gilbert,  Xintian Feng,  Joonho Lee,  Yuezhi Mao,  
 N. Mardirossian,  P. Pokhilko,  A. White,  M. Wormit,  M. P. Coons,  
 A. L. Dempwolff,  Zhengting Gan,  D. Hait,  P. R. Horn,  L. D. Jacobson,  
 I. Kaliman,  J. Kussmann,  A. W. Lange,  Ka Un Lao,  D. S. Levine,  Jie Liu,  
 S. C. McKenzie,  A. F. Morrison,  K. Nanda,  F. Plasser,  D. R. Rehn,  
 M. L. Vidal,  Zhi-Qiang You,  Ying Zhu,  B. Alam,  B. Albrecht,  
 A. Aldossary,  E. Alguire,  J. H. Andersen,  D. Barton,  K. Begam,  A. Behn,  
 Y. A. Bernard,  E. J. Berquist,  H. Burton,  A. Carreras,  K. Carter-Fenk,  
 R. Chakraborty,  A. D. Chien,  K. D. Closser,  V. Cofer-Shabica,  
 S. Dasgupta,  Jia Deng,  M. de Wergifosse,  M. Diedenhofen,  Hainam Do,  
 S. Ehlert,  Po-Tung Fang,  S. Fatehi,  Qingguo Feng,  J. Gayvert,  
 Qinghui Ge,  G. Gidofalvi,  M. Goldey,  J. Gomes,  C. Gonzalez-Espinoza,  
 S. Gulania,  A. Gunina,  M. W. D. Hanson-Heine,  P. H. P. Harbach,  
 A. W. Hauser,  M. F. Herbst,  M. Hernandez Vera,  M. Hodecker,  
 Z. C. Holden,  S. Houck,  Xunkun Huang,  Kerwin Hui,  B. C. Huynh,  
 M. Ivanov,  Hyunjun Ji,  Hanjie Jiang,  B. Kaduk,  S. Kaehler,  
 K. Khistyaev,  Jaehoon Kim,  P. Klunzinger,  Z. Koczor-Benda,  
 Joong Hoon Koh,  D. Kosenkov,  L. Koulias,  T. Kowalczyk,  C. M. Krauter,  
 K. Kue,  A. Kunitsa,  T. Kus,  A. Landau,  K. V. Lawler,  D. Lefrancois,  
 S. Lehtola,  Rain Li,  Yi-Pei Li,  Jiashu Liang,  M. Liebenthal,  
 Hung-Hsuan Lin,  You-Sheng Lin,  Fenglai Liu,  Kuan-Yu Liu,  
 M. Loipersberger,  A. Luenser,  A. Manjanath,  P. Manohar,  E. Mansoor,  
 S. F. Manzer,  Shan-Ping Mao,  A. V. Marenich,  T. Markovich,  S. Mason,  
 S. A. Maurer,  P. F. McLaughlin,  M. F. S. J. Menger,  J.-M. Mewes,  
 S. A. Mewes,  P. Morgante,  J. W. Mullinax,  T. S. Nguyen-Beck,  
 K. J. Oosterbaan,  G. Paran,  Alexander C. Paul,  Suranjan K. Paul,  
 F. Pavosevic,  Zheng Pei,  S. Prager,  E. I. Proynov,  E. Ramos,  B. Rana,  
 A. E. Rask,  A. Rettig,  R. M. Richard,  F. Rob,  E. Rossomme,  T. Scheele,  
 M. Scheurer,  M. Schneider,  N. Sergueev,  S. M. Sharada,  W. Skomorowski,  
 D. W. Small,  C. J. Stein,  Yu-Chuan Su,  E. J. Sundstrom,  Zhen Tao,  
 J. Thirman,  T. Tsuchimochi,  N. M. Tubman,  S. P. Veccham,  O. Vydrov,  
 J. Wenzel,  J. Witte,  A. Yamada,  Kun Yao,  S. Yeganeh,  S. R. Yost,  
 A. Zech,  Igor Ying Zhang,  Xing Zhang,  Yu Zhang,  D. Zuev,  
 A. Aspuru-Guzik,  A. T. Bell,  N. A. Besley,  K. B. Bravaya,  B. R. Brooks,  
 D. Casanova,  Jeng-Da Chai,  S. Coriani,  C. J. Cramer,  
 A. E. DePrince, III,  R. A. DiStasio Jr.,  A. Dreuw,  B. D. Dunietz,  
 T. R. Furlani,  W. A. Goddard III,  S. Grimme,  S. Hammes-Schiffer,  
 T. Head-Gordon,  W. J. Hehre,  Chao-Ping Hsu,  T.-C. Jagau,  Yousung Jung,  
 A. Klamt,  Jing Kong,  D. S. Lambrecht,  WanZhen Liang,  N. J. Mayhall,  
 C. W. McCurdy,  J. B. Neaton,  C. Ochsenfeld,  J. A. Parkhill,  R. Peverati,  
 V. A. Rassolov,  Yihan Shao,  L. V. Slipchenko,  T. Stauch,  R. P. Steele,  
 J. E. Subotnik,  A. J. W. Thom,  A. Tkatchenko,  D. G. Truhlar,  
 T. Van Voorhis,  T. A. Wesolowski,  K. B. Whaley,  H. L. Woodcock III,  
 P. M. Zimmerman,  S. Faraji,  P. M. W. Gill,  M. Head-Gordon,  
 J. M. Herbert,  A. I. Krylov

 Contributors to earlier versions of Q-Chem not listed above: 
 R. D. Adamson,  B. Austin,  R. Baer,  J. Baker,  G. J. O. Beran,  
 K. Brandhorst,  S. T. Brown,  E. F. C. Byrd,  A. K. Chakraborty,  
 G. K. L. Chan,  Chun-Min Chang,  Yunqing Chen,  C.-L. Cheng,  
 Siu Hung Chien,  D. M. Chipman,  D. L. Crittenden,  H. Dachsel,  
 R. J. Doerksen,  A. D. Dutoi,  R. G. Edgar,  J. Fosso-Tande,  
 L. Fusti-Molnar,  D. Ghosh,  A. Ghysels,  A. Golubeva-Zadorozhnaya,  
 J. Gonthier,  M. S. Gordon,  S. R. Gwaltney,  G. Hawkins,  J. E. Herr,  
 A. Heyden,  S. Hirata,  E. G. Hohenstein,  G. Kedziora,  F. J. Keil,  
 C. Kelley,  Jihan Kim,  R. A. King,  R. Z. Khaliullin,  P. P. Korambath,  
 W. Kurlancheek,  A. Laurent,  A. M. Lee,  M. S. Lee,  S. V. Levchenko,  
 Ching Yeh Lin,  D. Liotard,  E. Livshits,  R. C. Lochan,  I. Lotan,  
 L. A. Martinez-Martinez,  P. E. Maslen,  N. Nair,  D. P. O'Neill,  
 D. Neuhauser,  E. Neuscamman,  C. M. Oana,  R. Olivares-Amaya,  R. Olson,  
 T. M. Perrine,  B. Peters,  P. A. Pieniazek,  A. Prociuk,  Y. M. Rhee,  
 J. Ritchie,  M. A. Rohrdanz,  E. Rosta,  N. J. Russ,  H. F. Schaefer III,  
 M. W. Schmidt,  N. E. Schultz,  S. Sharma,  N. Shenvi,  C. D. Sherrill,  
 A. C. Simmonett,  A. Sodt,  T. Stein,  D. Stuck,  K. S. Thanthiriwatte,  
 V. Vanovschi,  L. Vogt,  Tao Wang,  A. Warshel,  M. A. Watson,  
 C. F. Williams,  Q. Wu,  X. Xu,  Jun Yang,  W. Zhang,  Yan Zhao

 Please cite Q-Chem as follows:
 Y. Shao et al., Mol. Phys. 113, 184-215 (2015)
 DOI: 10.1080/00268976.2014.952696

 Q-Chem 5.4.0 for Intel X86 EM64T Linux

 Parts of Q-Chem use Armadillo 9.800.1 (Horizon Scraper).
 http://arma.sourceforge.net/

 Q-Chem begins on Sun Sep 24 16:56:36 2023  

 Host: 
0

     Scratch files written to ./qchem3719984//
 May1621 |scratch|qcdevops|jenkins|workspace|build_RNUM    
 Parallel job on  1  processors
 Processing $rem in /cm/shared/apps/spack/cpu/opt/spack/linux-centos8-zen2/gcc-10.2.0/qchem-5.4-akfmr7b3t57bfs6qan3padb2wnb2i7cl/config/preferences:
 Processing $rem in /home/rramji/.qchemrc:
 Symmetry turned off for PCM/SM12/SMD calculation
 Core orbitals will be frozen

 Checking the input file for inconsistencies... 	...done.

 Q-Chem warning in module forms1/BasisType.C, line 2236:

 You are not using the predefined 5D/6D in this basis set.


--------------------------------------------------------------
User input:
--------------------------------------------------------------
$molecule
0 1
C	-0.770038	-0.392188	1.021016
S	0.009962	0.055612	2.531716
C	1.373762	0.844212	1.748616
C	0.016462	0.061912	-0.043684
C	1.218462	0.757612	0.342716
C	-0.040138	0.027312	-1.465084
C	1.055162	0.659812	-2.085884
S	2.133862	1.286512	-0.944684
C	1.277862	0.783012	-3.538984
O	0.470962	0.313712	-4.329284
O	2.390762	1.421812	-3.983384
F	-1.003038	-0.533088	-2.225284
C	2.706462	1.592412	-5.313984
H	3.663662	2.144312	-5.349284
H	1.923762	2.169312	-5.854584
H	2.818162	0.618912	-5.840884
C	-0.770038	-1.827388	1.021016
H	-0.222738	-1.836388	1.952016
H	-1.493738	-2.511288	1.439216
H	0.043562	-2.351788	0.542016
H	2.170562	1.304112	2.342516
$end

$rem
JOBTYPE		SP
EXCHANGE	HF
CORRELATION	pRIMP2
BASIS		cc-pvtz
METHOD		rimp2
AUX_BASIS	rimp2-cc-pvtz
SOLVENT_METHOD	PCM
PURECART	11111
SYMMETRY	false
MEM_TOTAL	110000
SCF_CONVERGENCE = 6
THRESH=10
GUI = 2
$end



$solvent
dielectric 4.90
$end
--------------------------------------------------------------
 ----------------------------------------------------------------
             Standard Nuclear Orientation (Angstroms)
    I     Atom           X                Y                Z
 ----------------------------------------------------------------
    1      C      -0.7700380000    -0.3921880000     1.0210160000
    2      S       0.0099620000     0.0556120000     2.5317160000
    3      C       1.3737620000     0.8442120000     1.7486160000
    4      C       0.0164620000     0.0619120000    -0.0436840000
    5      C       1.2184620000     0.7576120000     0.3427160000
    6      C      -0.0401380000     0.0273120000    -1.4650840000
    7      C       1.0551620000     0.6598120000    -2.0858840000
    8      S       2.1338620000     1.2865120000    -0.9446840000
    9      C       1.2778620000     0.7830120000    -3.5389840000
   10      O       0.4709620000     0.3137120000    -4.3292840000
   11      O       2.3907620000     1.4218120000    -3.9833840000
   12      F      -1.0030380000    -0.5330880000    -2.2252840000
   13      C       2.7064620000     1.5924120000    -5.3139840000
   14      H       3.6636620000     2.1443120000    -5.3492840000
   15      H       1.9237620000     2.1693120000    -5.8545840000
   16      H       2.8181620000     0.6189120000    -5.8408840000
   17      C      -0.7700380000    -1.8273880000     1.0210160000
   18      H      -0.2227380000    -1.8363880000     1.9520160000
   19      H      -1.4937380000    -2.5112880000     1.4392160000
   20      H       0.0435620000    -2.3517880000     0.5420160000
   21      H       2.1705620000     1.3041120000     2.3425160000
 ----------------------------------------------------------------
 Nuclear Repulsion Energy =        1098.70718082 hartrees
 There are       59 alpha and       59 beta electrons
 Requested basis set is cc-pVTZ
 There are 186 shells and 526 basis functions

 Total QAlloc Memory Limit 110000 MB
 Mega-Array Size       188 MB
 MEM_STATIC part       192 MB
 Discretize the solute cavity surface with Lebedev spheres
	Using 110 Lebedev grid points for each H atom
	Using 194 Lebedev grid points for other atoms
	Atomic van der Waals radii will be scaled by 1.20
 Remove points where switching function is < 1.0e-08
 Keep 1531 surface tesserae and discard 1955 interior tesserae
 Molecular Surface Area = 238.919 Angst**2
 Requested basis set is rimp2-cc-pVTZ
 There are 410 shells and 1426 basis functions
 A cutoff of  1.0D-10 yielded  11760 shell pairs
 There are     92404 function pairs (    120923 Cartesian)
 Smallest overlap matrix eigenvalue = 6.13E-05

 Scale SEOQF with 1.000000e-01/1.000000e-01/1.000000e-02

 Standard Electronic Orientation quadrupole field applied
 Nucleus-field energy     =     0.0000000084 hartrees
 Guess from superposition of atomic densities
 Warning:  Energy on first SCF cycle will be non-variational
 SAD guess density has 118.000000 electrons

 -----------------------------------------------------------------------
  General SCF calculation program by
  Eric Jon Sundstrom, Paul Horn, Yuezhi Mao, Dmitri Zuev, Alec White,
  David Stuck, Shaama M.S., Shane Yost, Joonho Lee, David Small,
  Daniel Levine, Susi Lehtola, Hugh Burton, Evgeny Epifanovsky,
  Bang C. Huynh
 -----------------------------------------------------------------------
 Hartree-Fock
 using 64 threads for integral computing
 -------------------------------------------------------
 OpenMP Integral computing Module                
 Release: version 1.0, May 2013, Q-Chem Inc. Pittsburgh 
 -------------------------------------------------------
 A restricted SCF calculation will be
 performed using DIIS
 SCF converges when DIIS error is below 1.0e-06
 ---------------------------------------
  Cycle       Energy         DIIS error
 ---------------------------------------
    1   -1394.7362821980      2.55e-02  
    2   -1388.9101459647      2.56e-03  
    3   -1389.0864922448      1.67e-03  
    4   -1389.1577534760      3.56e-04  
    5   -1389.1639048073      1.16e-04  
    6   -1389.1646932370      3.95e-05  
    7   -1389.1648746364      2.06e-05  
    8   -1389.1649459073      9.05e-06  
    9   -1389.1649664019      4.74e-06  
   10   -1389.1649708978      1.89e-06  
   11   -1389.1649718129      8.43e-07  Convergence criterion met
 ---------------------------------------
 SCF time:   CPU 1721.27s  wall 50.00s 

************** Final PCM Free Energy Summary **************
 G_electrostatic  =      -0.01395298 hartree =      -8.75562538 kcal/mol
 G_cavitation     =       0.00000000 hartree =       0.00000000 kcal/mol
 G_dispersion     =       0.00000000 hartree =       0.00000000 kcal/mol
 G_repulsion      =       0.00000000 hartree =       0.00000000 kcal/mol
 --------------------------------------------------
 Non-electrostatic Free Energy =       0.00000000 hartree =       0.00000000 kcal/mol
 Total                         =      -0.01395298 hartree =      -8.75562538 kcal/mol
 --------------------------------------------------
 SCF Energy (H0 + V/2)                       =   -1389.16497181 
 Solute Internal Energy (H0)                 =   -1389.15101884 
 Total Free Energy (H0 + V/2 + non-elec)     =   -1389.16497181 hartree
                                             = -871714.17659407 kcal/mol
***********************************************************

 SCF   energy in the final basis set =    -1389.1649718129
 Total energy in the final basis set =    -1389.1649718129


 --------------------------------------------------------------
  Generalized many-body perturbation theory program
  by Joonho Lee, Fazle Rob, Xintian Feng, Evgeny Epifanovsky

 No regularization used 
 (reg. param. = 0.0000e+00)
  (P|Q)^-1/2 Time:  CPU 20.28 s  wall 0.32 s

 In RI-MP2 calculation: 
 # of frozen core orbitals: 22

 Components of the RIMP2 correlation energy:
        aaaa    correlation energy =        -0.3328875113 a.u.
        abab    correlation energy =        -1.8592729965 a.u.
        bbbb    correlation energy =        -0.3328875113 a.u.
        non-Brillouin singles      =        -0.0000000000 a.u.
        total same-spin energy     =        -0.6657750225 a.u.
        total opposite-spin energy =        -1.8592729965 a.u.

 Total  RIMP2   correlation energy =        -2.5250480190 a.u.
        RIMP2         total energy =     -1391.6900198320 a.u.

 RI-MP2 Energy Time:  CPU 169.71 s  wall 2.75 s
 
 --------------------------------------------------------------
 
                    Orbital Energies (a.u.)
 --------------------------------------------------------------
 
 Alpha MOs
 -- Occupied --
-91.9997 -91.9991 -26.3327 -20.6147 -20.5552 -11.4143 -11.3735 -11.3150
-11.3075 -11.2928 -11.2898 -11.2853 -11.2687 -11.2111  -9.0028  -9.0006
 -6.6841  -6.6834  -6.6821  -6.6811  -6.6801  -6.6800  -1.6457  -1.4748
 -1.3708  -1.2365  -1.1586  -1.0693  -1.0347  -1.0002  -0.9729  -0.8993
 -0.8704  -0.7999  -0.7874  -0.7751  -0.7305  -0.7149  -0.6978  -0.6806
 -0.6748  -0.6734  -0.6104  -0.6081  -0.6045  -0.5919  -0.5683  -0.5601
 -0.5364  -0.5285  -0.5143  -0.4896  -0.4819  -0.4646  -0.4634  -0.4298
 -0.3890  -0.3367  -0.2851
 -- Virtual --
  0.0070   0.1101   0.1379   0.1546   0.1576   0.1689   0.1826   0.1932
  0.2026   0.2120   0.2168   0.2280   0.2319   0.2410   0.2572   0.2613
  0.2819   0.2883   0.3061   0.3337   0.3487   0.3603   0.3688   0.3748
  0.3800   0.3827   0.3874   0.4051   0.4192   0.4270   0.4296   0.4334
  0.4502   0.4647   0.4676   0.4768   0.4973   0.4980   0.5106   0.5209
  0.5262   0.5338   0.5393   0.5487   0.5612   0.5663   0.5735   0.5871
  0.5902   0.5991   0.6018   0.6063   0.6152   0.6209   0.6258   0.6276
  0.6367   0.6418   0.6488   0.6644   0.6797   0.6877   0.6958   0.7021
  0.7088   0.7125   0.7338   0.7539   0.7554   0.7758   0.7892   0.7939
  0.8001   0.8110   0.8304   0.8464   0.8529   0.8668   0.8777   0.8931
  0.9040   0.9079   0.9208   0.9273   0.9340   0.9544   0.9600   0.9676
  0.9882   1.0047   1.0105   1.0177   1.0327   1.0371   1.0508   1.0620
  1.0653   1.0830   1.0837   1.0991   1.1082   1.1220   1.1278   1.1487
  1.1546   1.1558   1.1579   1.1765   1.1785   1.1911   1.1981   1.2185
  1.2230   1.2376   1.2519   1.2644   1.2772   1.2796   1.3032   1.3128
  1.3369   1.3417   1.3465   1.3539   1.3656   1.3771   1.3997   1.4108
  1.4275   1.4369   1.4543   1.4700   1.4763   1.4820   1.4925   1.4987
  1.5114   1.5191   1.5348   1.5485   1.5580   1.5784   1.5881   1.6023
  1.6140   1.6447   1.6650   1.6737   1.6822   1.7139   1.7161   1.7327
  1.7493   1.7591   1.7873   1.8151   1.8222   1.8308   1.8389   1.8482
  1.8618   1.8662   1.8825   1.9191   1.9208   1.9331   1.9418   1.9631
  1.9821   2.0129   2.0227   2.0390   2.0651   2.0933   2.1025   2.1239
  2.1284   2.1410   2.1544   2.1573   2.1921   2.1994   2.2086   2.2313
  2.2436   2.2539   2.2697   2.2789   2.2863   2.2939   2.3310   2.3559
  2.3649   2.3807   2.4007   2.4181   2.4334   2.4582   2.4872   2.5208
  2.5250   2.5325   2.5601   2.5749   2.5930   2.5973   2.6223   2.6344
  2.6452   2.6618   2.6715   2.6903   2.6972   2.7068   2.7162   2.7228
  2.7380   2.7507   2.7741   2.7927   2.8063   2.8161   2.8329   2.8355
  2.8490   2.8747   2.8885   2.8926   2.9073   2.9275   2.9397   2.9547
  2.9775   2.9964   3.0252   3.0310   3.0389   3.0473   3.0658   3.0820
  3.0891   3.0940   3.1039   3.1133   3.1317   3.1360   3.1478   3.1569
  3.1621   3.1920   3.2024   3.2092   3.2212   3.2235   3.2386   3.2510
  3.2627   3.2731   3.2836   3.2868   3.2985   3.3012   3.3114   3.3163
  3.3328   3.3502   3.3610   3.3749   3.3819   3.4004   3.4092   3.4305
  3.4338   3.4490   3.4570   3.4728   3.4758   3.4957   3.5024   3.5069
  3.5228   3.5264   3.5403   3.5540   3.5639   3.5792   3.5842   3.5937
  3.6035   3.6067   3.6256   3.6445   3.6585   3.6699   3.6836   3.6890
  3.7003   3.7038   3.7092   3.7130   3.7251   3.7304   3.7407   3.7732
  3.7816   3.7984   3.8077   3.8177   3.8266   3.8334   3.8415   3.8513
  3.8555   3.8660   3.8942   3.9001   3.9171   3.9212   3.9393   3.9577
  3.9838   3.9939   4.0020   4.0118   4.0267   4.0355   4.0555   4.0729
  4.0793   4.0868   4.1052   4.1159   4.1615   4.1699   4.1757   4.1916
  4.2137   4.2195   4.2560   4.2725   4.2861   4.3095   4.3336   4.3469
  4.3697   4.3754   4.3853   4.4030   4.4187   4.4261   4.4443   4.4787
  4.4958   4.5088   4.5200   4.5330   4.5391   4.5647   4.5920   4.6026
  4.6192   4.6284   4.6357   4.6579   4.6697   4.7093   4.7205   4.7360
  4.7664   4.7914   4.8247   4.8364   4.8500   4.9022   4.9223   4.9495
  4.9732   4.9942   5.0102   5.0257   5.0604   5.0815   5.1134   5.1357
  5.1668   5.1894   5.2002   5.2235   5.2518   5.2578   5.2868   5.3538
  5.3553   5.3664   5.3877   5.4465   5.4692   5.4721   5.4815   5.5328
  5.5677   5.5808   5.5989   5.6138   5.6353   5.6823   5.7368   5.7983
  5.8027   5.8245   5.8703   5.8764   5.9393   5.9640   5.9670   5.9912
  6.0528   6.1092   6.1188   6.1319   6.1837   6.3063   6.3548   6.4130
  6.4852   6.5026   6.5533   6.6594   6.6732   6.7270   6.7369   6.8562
  6.8778   6.9859   7.1758   7.2076   7.3225   7.3743   7.3765   7.4227
  7.4601   7.4881   7.5170   7.5449   7.6013   7.7718   7.8284   7.9034
  8.0024   8.1199   8.4278   8.9289   9.0100   9.3645   9.4946   9.6866
 10.2058  11.1977  11.9199  12.0179  12.2862  12.5959  12.9984  13.4178
 13.7796  14.0798  14.5516
 --------------------------------------------------------------
 
          Ground-State Mulliken Net Atomic Charges

     Atom                 Charge (a.u.)
  ----------------------------------------
      1 C                    -0.104790
      2 S                     0.092262
      3 C                    -0.166549
      4 C                    -0.028949
      5 C                    -0.037537
      6 C                     0.371884
      7 C                    -0.135550
      8 S                     0.052487
      9 C                     0.457454
     10 O                    -0.440828
     11 O                    -0.296401
     12 F                    -0.210050
     13 C                    -0.054717
     14 H                     0.117237
     15 H                     0.085493
     16 H                     0.085116
     17 C                    -0.390982
     18 H                     0.129564
     19 H                     0.131625
     20 H                     0.126757
     21 H                     0.216472
  ----------------------------------------
  Sum of atomic charges =     0.000000

 -----------------------------------------------------------------
                    Cartesian Multipole Moments
 -----------------------------------------------------------------
    Charge (ESU x 10^10)
                -0.0000
    Dipole Moment (Debye)
         X       4.7376      Y       1.1228      Z       3.2580
       Tot       5.8583
    Quadrupole Moments (Debye-Ang)
        XX     -89.6095     XY       4.4621     YY     -91.6385
        XZ      -8.3509     YZ      -7.3307     ZZ     -91.8303
    Octopole Moments (Debye-Ang^2)
       XXX    -203.4909    XXY     -23.1220    XYY     -67.8148
       YYY    -111.1702    XXZ      64.3159    XYZ      -6.3531
       YYZ      78.3651    XZZ       8.9745    YZZ       7.3250
       ZZZ     245.5461
    Hexadecapole Moments (Debye-Ang^3)
      XXXX   -1214.7251   XXXY    -323.7526   XXYY    -302.9347
      XYYY    -360.7937   YYYY    -683.7171   XXXZ     555.2740
      XXYZ      95.4489   XYYZ     180.8290   YYYZ     378.8091
      XXZZ    -645.9275   XYZZ      12.0575   YYZZ    -688.1047
      XZZZ     241.1030   YZZZ     176.0052   ZZZZ   -3735.0102
 -----------------------------------------------------------------
 Total job time:  54.13s(wall), 1958.18s(cpu) 
 Sun Sep 24 16:57:30 2023

        *************************************************************
        *                                                           *
        *  Thank you very much for using Q-Chem.  Have a nice day.  *
        *                                                           *
        *************************************************************


0 sent ACK to 0 
now end server 0 ... 
cleanup process ... done
remove work dirs ./qchem3719984.0 -- ./qchem3719984.0
rm -rf ./qchem3719984.0
rm -rf ./qchem3719984
