You are running Q-Chem version: 5.4.0

#
# job setting
#
local host:  exp-9-02
current dir: /expanse/lustre/projects/csd626/rramji/aromodel/PTB7_fin/Hydrogenated_Impropers_Test
input file:  fin_bdt_Phi_30_Theta_40_fin_ftt_Hydrogenated_Improper.qcin
output file: 
nprocs     : 1
nthreads   : 64
#
# qchem installation setting
#
QC:          /cm/shared/apps/spack/cpu/opt/spack/linux-centos8-zen2/gcc-10.2.0/qchem-5.4-akfmr7b3t57bfs6qan3padb2wnb2i7cl
QCAUX:       /cm/shared/apps/spack/cpu/opt/spack/linux-centos8-zen2/gcc-10.2.0/qchem-5.4-akfmr7b3t57bfs6qan3padb2wnb2i7cl/qcaux
QCPROG:      /cm/shared/apps/spack/cpu/opt/spack/linux-centos8-zen2/gcc-10.2.0/qchem-5.4-akfmr7b3t57bfs6qan3padb2wnb2i7cl/exe/qcprog.exe
QCPROG_S:    /cm/shared/apps/spack/cpu/opt/spack/linux-centos8-zen2/gcc-10.2.0/qchem-5.4-akfmr7b3t57bfs6qan3padb2wnb2i7cl/exe/qcprog.exe_s
PARALLEL:    -DPARALLEL
QCMPI:       mpich
#
# qchem directory setting
#
qcrun:       qchem633082
QCSCRATCH:   .
QCLOCALSCR:  
QCTMPDIR:    .
QCFILEPREF:  ./qchem633082
QCSAVEDIR:   
workdirs:    ./qchem633082
workdir0:    ./qchem633082
partmpdirs =  
#
# parallel setting
#
QCRSH:           ssh
QCMPI:           mpich
QCMPIRUN:        /cm/shared/apps/spack/cpu/opt/spack/linux-centos8-zen2/gcc-10.2.0/qchem-5.4-akfmr7b3t57bfs6qan3padb2wnb2i7cl/bin/mpi/mpirun_qchem
QCMACHINEFILE:   ./qchem633082/hostfile
exp-9-02

#
# env setting
#
exported envs:   QC QCAUX QCSCRATCH QCRUNNAME QCFILEPREF QCPROG QCPROG_S GUIFILE

Running Job 1 of 1 fin_bdt_Phi_30_Theta_40_fin_ftt_Hydrogenated_Improper.qcin
qchem fin_bdt_Phi_30_Theta_40_fin_ftt_Hydrogenated_Improper.qcin_633082.0 ./qchem633082/ 1
/cm/shared/apps/spack/cpu/opt/spack/linux-centos8-zen2/gcc-10.2.0/qchem-5.4-akfmr7b3t57bfs6qan3padb2wnb2i7cl/bin/mpi/mpirun_qchem -machinefile ./qchem633082/hostfile -np 1 /cm/shared/apps/spack/cpu/opt/spack/linux-centos8-zen2/gcc-10.2.0/qchem-5.4-akfmr7b3t57bfs6qan3padb2wnb2i7cl/exe/qcprog.exe fin_bdt_Phi_30_Theta_40_fin_ftt_Hydrogenated_Improper.qcin_633082.0 ./qchem633082/

Process 0 of 1 is on exp-9-02 - thread support 0
initial socket setup ...start
initial socket setup ...done 
now start server 0 ... 
                  Welcome to Q-Chem
     A Quantum Leap Into The Future Of Chemistry


 Q-Chem 5.4, Q-Chem, Inc., Pleasanton, CA (2021)

 License issued to: University of California, San Diego (site)

 E. Epifanovsky,  A. T. B. Gilbert,  Xintian Feng,  Joonho Lee,  Yuezhi Mao,  
 N. Mardirossian,  P. Pokhilko,  A. White,  M. Wormit,  M. P. Coons,  
 A. L. Dempwolff,  Zhengting Gan,  D. Hait,  P. R. Horn,  L. D. Jacobson,  
 I. Kaliman,  J. Kussmann,  A. W. Lange,  Ka Un Lao,  D. S. Levine,  Jie Liu,  
 S. C. McKenzie,  A. F. Morrison,  K. Nanda,  F. Plasser,  D. R. Rehn,  
 M. L. Vidal,  Zhi-Qiang You,  Ying Zhu,  B. Alam,  B. Albrecht,  
 A. Aldossary,  E. Alguire,  J. H. Andersen,  D. Barton,  K. Begam,  A. Behn,  
 Y. A. Bernard,  E. J. Berquist,  H. Burton,  A. Carreras,  K. Carter-Fenk,  
 R. Chakraborty,  A. D. Chien,  K. D. Closser,  V. Cofer-Shabica,  
 S. Dasgupta,  Jia Deng,  M. de Wergifosse,  M. Diedenhofen,  Hainam Do,  
 S. Ehlert,  Po-Tung Fang,  S. Fatehi,  Qingguo Feng,  J. Gayvert,  
 Qinghui Ge,  G. Gidofalvi,  M. Goldey,  J. Gomes,  C. Gonzalez-Espinoza,  
 S. Gulania,  A. Gunina,  M. W. D. Hanson-Heine,  P. H. P. Harbach,  
 A. W. Hauser,  M. F. Herbst,  M. Hernandez Vera,  M. Hodecker,  
 Z. C. Holden,  S. Houck,  Xunkun Huang,  Kerwin Hui,  B. C. Huynh,  
 M. Ivanov,  Hyunjun Ji,  Hanjie Jiang,  B. Kaduk,  S. Kaehler,  
 K. Khistyaev,  Jaehoon Kim,  P. Klunzinger,  Z. Koczor-Benda,  
 Joong Hoon Koh,  D. Kosenkov,  L. Koulias,  T. Kowalczyk,  C. M. Krauter,  
 K. Kue,  A. Kunitsa,  T. Kus,  A. Landau,  K. V. Lawler,  D. Lefrancois,  
 S. Lehtola,  Rain Li,  Yi-Pei Li,  Jiashu Liang,  M. Liebenthal,  
 Hung-Hsuan Lin,  You-Sheng Lin,  Fenglai Liu,  Kuan-Yu Liu,  
 M. Loipersberger,  A. Luenser,  A. Manjanath,  P. Manohar,  E. Mansoor,  
 S. F. Manzer,  Shan-Ping Mao,  A. V. Marenich,  T. Markovich,  S. Mason,  
 S. A. Maurer,  P. F. McLaughlin,  M. F. S. J. Menger,  J.-M. Mewes,  
 S. A. Mewes,  P. Morgante,  J. W. Mullinax,  T. S. Nguyen-Beck,  
 K. J. Oosterbaan,  G. Paran,  Alexander C. Paul,  Suranjan K. Paul,  
 F. Pavosevic,  Zheng Pei,  S. Prager,  E. I. Proynov,  E. Ramos,  B. Rana,  
 A. E. Rask,  A. Rettig,  R. M. Richard,  F. Rob,  E. Rossomme,  T. Scheele,  
 M. Scheurer,  M. Schneider,  N. Sergueev,  S. M. Sharada,  W. Skomorowski,  
 D. W. Small,  C. J. Stein,  Yu-Chuan Su,  E. J. Sundstrom,  Zhen Tao,  
 J. Thirman,  T. Tsuchimochi,  N. M. Tubman,  S. P. Veccham,  O. Vydrov,  
 J. Wenzel,  J. Witte,  A. Yamada,  Kun Yao,  S. Yeganeh,  S. R. Yost,  
 A. Zech,  Igor Ying Zhang,  Xing Zhang,  Yu Zhang,  D. Zuev,  
 A. Aspuru-Guzik,  A. T. Bell,  N. A. Besley,  K. B. Bravaya,  B. R. Brooks,  
 D. Casanova,  Jeng-Da Chai,  S. Coriani,  C. J. Cramer,  
 A. E. DePrince, III,  R. A. DiStasio Jr.,  A. Dreuw,  B. D. Dunietz,  
 T. R. Furlani,  W. A. Goddard III,  S. Grimme,  S. Hammes-Schiffer,  
 T. Head-Gordon,  W. J. Hehre,  Chao-Ping Hsu,  T.-C. Jagau,  Yousung Jung,  
 A. Klamt,  Jing Kong,  D. S. Lambrecht,  WanZhen Liang,  N. J. Mayhall,  
 C. W. McCurdy,  J. B. Neaton,  C. Ochsenfeld,  J. A. Parkhill,  R. Peverati,  
 V. A. Rassolov,  Yihan Shao,  L. V. Slipchenko,  T. Stauch,  R. P. Steele,  
 J. E. Subotnik,  A. J. W. Thom,  A. Tkatchenko,  D. G. Truhlar,  
 T. Van Voorhis,  T. A. Wesolowski,  K. B. Whaley,  H. L. Woodcock III,  
 P. M. Zimmerman,  S. Faraji,  P. M. W. Gill,  M. Head-Gordon,  
 J. M. Herbert,  A. I. Krylov

 Contributors to earlier versions of Q-Chem not listed above: 
 R. D. Adamson,  B. Austin,  R. Baer,  J. Baker,  G. J. O. Beran,  
 K. Brandhorst,  S. T. Brown,  E. F. C. Byrd,  A. K. Chakraborty,  
 G. K. L. Chan,  Chun-Min Chang,  Yunqing Chen,  C.-L. Cheng,  
 Siu Hung Chien,  D. M. Chipman,  D. L. Crittenden,  H. Dachsel,  
 R. J. Doerksen,  A. D. Dutoi,  R. G. Edgar,  J. Fosso-Tande,  
 L. Fusti-Molnar,  D. Ghosh,  A. Ghysels,  A. Golubeva-Zadorozhnaya,  
 J. Gonthier,  M. S. Gordon,  S. R. Gwaltney,  G. Hawkins,  J. E. Herr,  
 A. Heyden,  S. Hirata,  E. G. Hohenstein,  G. Kedziora,  F. J. Keil,  
 C. Kelley,  Jihan Kim,  R. A. King,  R. Z. Khaliullin,  P. P. Korambath,  
 W. Kurlancheek,  A. Laurent,  A. M. Lee,  M. S. Lee,  S. V. Levchenko,  
 Ching Yeh Lin,  D. Liotard,  E. Livshits,  R. C. Lochan,  I. Lotan,  
 L. A. Martinez-Martinez,  P. E. Maslen,  N. Nair,  D. P. O'Neill,  
 D. Neuhauser,  E. Neuscamman,  C. M. Oana,  R. Olivares-Amaya,  R. Olson,  
 T. M. Perrine,  B. Peters,  P. A. Pieniazek,  A. Prociuk,  Y. M. Rhee,  
 J. Ritchie,  M. A. Rohrdanz,  E. Rosta,  N. J. Russ,  H. F. Schaefer III,  
 M. W. Schmidt,  N. E. Schultz,  S. Sharma,  N. Shenvi,  C. D. Sherrill,  
 A. C. Simmonett,  A. Sodt,  T. Stein,  D. Stuck,  K. S. Thanthiriwatte,  
 V. Vanovschi,  L. Vogt,  Tao Wang,  A. Warshel,  M. A. Watson,  
 C. F. Williams,  Q. Wu,  X. Xu,  Jun Yang,  W. Zhang,  Yan Zhao

 Please cite Q-Chem as follows:
 Y. Shao et al., Mol. Phys. 113, 184-215 (2015)
 DOI: 10.1080/00268976.2014.952696

 Q-Chem 5.4.0 for Intel X86 EM64T Linux

 Parts of Q-Chem use Armadillo 9.800.1 (Horizon Scraper).
 http://arma.sourceforge.net/

 Q-Chem begins on Sun Sep 24 16:49:41 2023  

 Host: 
0

     Scratch files written to ./qchem633082//
 May1621 |scratch|qcdevops|jenkins|workspace|build_RNUM    
 Parallel job on  1  processors
 Processing $rem in /cm/shared/apps/spack/cpu/opt/spack/linux-centos8-zen2/gcc-10.2.0/qchem-5.4-akfmr7b3t57bfs6qan3padb2wnb2i7cl/config/preferences:
 Processing $rem in /home/rramji/.qchemrc:
 Symmetry turned off for PCM/SM12/SMD calculation
 Core orbitals will be frozen

 Checking the input file for inconsistencies... 	...done.

 Q-Chem warning in module forms1/BasisType.C, line 2236:

 You are not using the predefined 5D/6D in this basis set.


--------------------------------------------------------------
User input:
--------------------------------------------------------------
$molecule
0 1
C	-0.446769	-0.717327	1.021608
S	0.004831	0.060473	2.532308
C	0.791631	1.425273	1.749208
C	0.007331	0.069273	-0.043092
C	0.700431	1.272673	0.343308
C	-0.024469	0.010873	-1.464492
C	0.607831	1.106373	-2.085292
S	1.228731	2.188373	-0.944092
C	0.739131	1.324373	-3.538392
O	0.274931	0.514473	-4.328692
O	1.383531	2.434073	-3.982792
F	-0.578069	-0.955927	-2.224692
C	1.571731	2.739673	-5.313392
H	2.124731	3.696273	-5.348692
H	0.605431	2.847873	-5.853992
H	2.155131	1.952473	-5.840292
C	-0.446769	-2.152527	1.021608
H	0.385931	-2.161527	1.709308
H	-0.983769	-2.836427	1.662108
H	0.153931	-2.676927	0.293208
H	1.251631	2.221973	2.343108
$end

$rem
JOBTYPE		SP
EXCHANGE	HF
CORRELATION	pRIMP2
BASIS		cc-pvtz
METHOD		rimp2
AUX_BASIS	rimp2-cc-pvtz
SOLVENT_METHOD	PCM
PURECART	11111
SYMMETRY	false
MEM_TOTAL	110000
SCF_CONVERGENCE = 6
THRESH=10
GUI = 2
$end



$solvent
dielectric 4.90
$end
--------------------------------------------------------------
 ----------------------------------------------------------------
             Standard Nuclear Orientation (Angstroms)
    I     Atom           X                Y                Z
 ----------------------------------------------------------------
    1      C      -0.4467690000    -0.7173270000     1.0216080000
    2      S       0.0048310000     0.0604730000     2.5323080000
    3      C       0.7916310000     1.4252730000     1.7492080000
    4      C       0.0073310000     0.0692730000    -0.0430920000
    5      C       0.7004310000     1.2726730000     0.3433080000
    6      C      -0.0244690000     0.0108730000    -1.4644920000
    7      C       0.6078310000     1.1063730000    -2.0852920000
    8      S       1.2287310000     2.1883730000    -0.9440920000
    9      C       0.7391310000     1.3243730000    -3.5383920000
   10      O       0.2749310000     0.5144730000    -4.3286920000
   11      O       1.3835310000     2.4340730000    -3.9827920000
   12      F      -0.5780690000    -0.9559270000    -2.2246920000
   13      C       1.5717310000     2.7396730000    -5.3133920000
   14      H       2.1247310000     3.6962730000    -5.3486920000
   15      H       0.6054310000     2.8478730000    -5.8539920000
   16      H       2.1551310000     1.9524730000    -5.8402920000
   17      C      -0.4467690000    -2.1525270000     1.0216080000
   18      H       0.3859310000    -2.1615270000     1.7093080000
   19      H      -0.9837690000    -2.8364270000     1.6621080000
   20      H       0.1539310000    -2.6769270000     0.2932080000
   21      H       1.2516310000     2.2219730000     2.3431080000
 ----------------------------------------------------------------
 Nuclear Repulsion Energy =        1091.46662971 hartrees
 There are       59 alpha and       59 beta electrons
 Requested basis set is cc-pVTZ
 There are 186 shells and 526 basis functions

 Total QAlloc Memory Limit 110000 MB
 Mega-Array Size       188 MB
 MEM_STATIC part       192 MB
 Discretize the solute cavity surface with Lebedev spheres
	Using 110 Lebedev grid points for each H atom
	Using 194 Lebedev grid points for other atoms
	Atomic van der Waals radii will be scaled by 1.20
 Remove points where switching function is < 1.0e-08
 Keep 1559 surface tesserae and discard 1927 interior tesserae
 Molecular Surface Area = 241.207 Angst**2
 Requested basis set is rimp2-cc-pVTZ
 There are 410 shells and 1426 basis functions
 A cutoff of  1.0D-10 yielded  11597 shell pairs
 There are     91209 function pairs (    119429 Cartesian)
 Smallest overlap matrix eigenvalue = 6.07E-05

 Scale SEOQF with 1.000000e-01/1.000000e-01/1.000000e-02

 Standard Electronic Orientation quadrupole field applied
 Nucleus-field energy     =     0.0000000153 hartrees
 Guess from superposition of atomic densities
 Warning:  Energy on first SCF cycle will be non-variational
 SAD guess density has 118.000000 electrons

 -----------------------------------------------------------------------
  General SCF calculation program by
  Eric Jon Sundstrom, Paul Horn, Yuezhi Mao, Dmitri Zuev, Alec White,
  David Stuck, Shaama M.S., Shane Yost, Joonho Lee, David Small,
  Daniel Levine, Susi Lehtola, Hugh Burton, Evgeny Epifanovsky,
  Bang C. Huynh
 -----------------------------------------------------------------------
 Hartree-Fock
 using 64 threads for integral computing
 -------------------------------------------------------
 OpenMP Integral computing Module                
 Release: version 1.0, May 2013, Q-Chem Inc. Pittsburgh 
 -------------------------------------------------------
 A restricted SCF calculation will be
 performed using DIIS
 SCF converges when DIIS error is below 1.0e-06
 ---------------------------------------
  Cycle       Energy         DIIS error
 ---------------------------------------
    1   -1394.5955702145      2.53e-02  
    2   -1388.9945950363      2.51e-03  
    3   -1389.1675748055      1.58e-03  
    4   -1389.2296051617      3.48e-04  
    5   -1389.2353118360      1.11e-04  
    6   -1389.2359868557      3.67e-05  
    7   -1389.2361331165      1.84e-05  
    8   -1389.2361828043      7.34e-06  
    9   -1389.2361939338      3.34e-06  
   10   -1389.2361957261      1.27e-06  
   11   -1389.2361960116      4.96e-07  Convergence criterion met
 ---------------------------------------
 SCF time:   CPU 1680.77s  wall 48.00s 

************** Final PCM Free Energy Summary **************
 G_electrostatic  =      -0.01351143 hartree =      -8.47854829 kcal/mol
 G_cavitation     =       0.00000000 hartree =       0.00000000 kcal/mol
 G_dispersion     =       0.00000000 hartree =       0.00000000 kcal/mol
 G_repulsion      =       0.00000000 hartree =       0.00000000 kcal/mol
 --------------------------------------------------
 Non-electrostatic Free Energy =       0.00000000 hartree =       0.00000000 kcal/mol
 Total                         =      -0.01351143 hartree =      -8.47854829 kcal/mol
 --------------------------------------------------
 SCF Energy (H0 + V/2)                       =   -1389.23619601 
 Solute Internal Energy (H0)                 =   -1389.22268458 
 Total Free Energy (H0 + V/2 + non-elec)     =   -1389.23619601 hartree
                                             = -871758.87045331 kcal/mol
***********************************************************

 SCF   energy in the final basis set =    -1389.2361960116
 Total energy in the final basis set =    -1389.2361960116


 --------------------------------------------------------------
  Generalized many-body perturbation theory program
  by Joonho Lee, Fazle Rob, Xintian Feng, Evgeny Epifanovsky

 No regularization used 
 (reg. param. = 0.0000e+00)
  (P|Q)^-1/2 Time:  CPU 21.28 s  wall 0.34 s

 In RI-MP2 calculation: 
 # of frozen core orbitals: 22

 Components of the RIMP2 correlation energy:
        aaaa    correlation energy =        -0.3296418799 a.u.
        abab    correlation energy =        -1.8489180007 a.u.
        bbbb    correlation energy =        -0.3296418799 a.u.
        non-Brillouin singles      =        -0.0000000000 a.u.
        total same-spin energy     =        -0.6592837598 a.u.
        total opposite-spin energy =        -1.8489180007 a.u.

 Total  RIMP2   correlation energy =        -2.5082017604 a.u.
        RIMP2         total energy =     -1391.7443977720 a.u.

 RI-MP2 Energy Time:  CPU 171.98 s  wall 3.25 s
 
 --------------------------------------------------------------
 
                    Orbital Energies (a.u.)
 --------------------------------------------------------------
 
 Alpha MOs
 -- Occupied --
-92.0024 -91.9897 -26.3336 -20.6106 -20.5476 -11.4080 -11.3761 -11.3089
-11.2921 -11.2913 -11.2877 -11.2847 -11.2716 -11.2292  -9.0021  -8.9939
 -6.6828  -6.6822  -6.6817  -6.6752  -6.6746  -6.6732  -1.6465  -1.4702
 -1.3652  -1.2284  -1.1496  -1.0665  -1.0293  -1.0041  -0.9686  -0.9080
 -0.8644  -0.7968  -0.7847  -0.7682  -0.7268  -0.7145  -0.6956  -0.6772
 -0.6763  -0.6683  -0.6094  -0.6044  -0.6003  -0.5878  -0.5731  -0.5628
 -0.5416  -0.5256  -0.5124  -0.4899  -0.4793  -0.4606  -0.4587  -0.4521
 -0.3931  -0.3457  -0.2758
 -- Virtual --
  0.0328   0.1164   0.1368   0.1555   0.1589   0.1702   0.1912   0.1981
  0.2030   0.2123   0.2167   0.2297   0.2307   0.2439   0.2622   0.2714
  0.2860   0.3066   0.3175   0.3390   0.3447   0.3574   0.3700   0.3757
  0.3809   0.3897   0.4033   0.4101   0.4193   0.4313   0.4367   0.4399
  0.4559   0.4643   0.4710   0.4826   0.5013   0.5078   0.5148   0.5178
  0.5284   0.5353   0.5401   0.5515   0.5577   0.5636   0.5669   0.5878
  0.5928   0.5958   0.6029   0.6105   0.6150   0.6193   0.6275   0.6328
  0.6408   0.6443   0.6491   0.6616   0.6671   0.6898   0.6955   0.6995
  0.7139   0.7281   0.7449   0.7481   0.7629   0.7790   0.7858   0.7962
  0.8026   0.8152   0.8323   0.8420   0.8470   0.8630   0.8844   0.8913
  0.8982   0.9005   0.9231   0.9283   0.9377   0.9400   0.9629   0.9756
  0.9821   0.9995   1.0022   1.0150   1.0262   1.0349   1.0483   1.0503
  1.0629   1.0740   1.0875   1.0889   1.0969   1.1003   1.1260   1.1403
  1.1504   1.1545   1.1656   1.1721   1.1804   1.1922   1.2007   1.2177
  1.2262   1.2330   1.2476   1.2569   1.2667   1.2859   1.2989   1.3086
  1.3248   1.3401   1.3453   1.3526   1.3608   1.3698   1.3897   1.4127
  1.4173   1.4309   1.4498   1.4703   1.4816   1.4883   1.4977   1.5015
  1.5080   1.5135   1.5271   1.5410   1.5601   1.5618   1.5813   1.6037
  1.6174   1.6498   1.6665   1.6720   1.6875   1.7056   1.7167   1.7270
  1.7356   1.7634   1.7735   1.8144   1.8298   1.8347   1.8416   1.8689
  1.8736   1.8812   1.8958   1.9227   1.9319   1.9428   1.9542   1.9779
  2.0036   2.0194   2.0289   2.0398   2.0558   2.1000   2.1125   2.1278
  2.1420   2.1541   2.1605   2.1685   2.1907   2.1981   2.2150   2.2252
  2.2449   2.2654   2.2739   2.2812   2.2879   2.2987   2.3289   2.3616
  2.3738   2.3815   2.3990   2.4283   2.4407   2.4648   2.4819   2.4925
  2.5301   2.5526   2.5600   2.5770   2.5837   2.5955   2.6306   2.6337
  2.6437   2.6624   2.6688   2.6792   2.6971   2.7020   2.7253   2.7356
  2.7409   2.7470   2.7641   2.7725   2.7746   2.8056   2.8225   2.8385
  2.8498   2.8507   2.8696   2.8869   2.9072   2.9320   2.9412   2.9450
  2.9664   2.9879   3.0229   3.0383   3.0433   3.0473   3.0585   3.0676
  3.0819   3.0923   3.0941   3.1107   3.1303   3.1332   3.1490   3.1602
  3.1656   3.1794   3.1974   3.2036   3.2116   3.2180   3.2352   3.2546
  3.2581   3.2656   3.2791   3.2874   3.2955   3.3009   3.3098   3.3209
  3.3418   3.3550   3.3631   3.3701   3.3855   3.3944   3.4040   3.4197
  3.4348   3.4401   3.4476   3.4565   3.4705   3.4773   3.4899   3.4980
  3.5122   3.5237   3.5333   3.5418   3.5676   3.5854   3.5869   3.5954
  3.6037   3.6071   3.6210   3.6406   3.6436   3.6576   3.6652   3.6698
  3.6784   3.6995   3.7075   3.7122   3.7256   3.7294   3.7340   3.7397
  3.7571   3.7708   3.7922   3.8013   3.8248   3.8310   3.8367   3.8423
  3.8543   3.8638   3.8652   3.8825   3.8952   3.9096   3.9266   3.9451
  3.9571   3.9742   3.9856   3.9921   4.0081   4.0364   4.0539   4.0573
  4.0701   4.0805   4.0875   4.1126   4.1193   4.1495   4.1727   4.1798
  4.1932   4.2236   4.2554   4.2793   4.2891   4.2953   4.3146   4.3485
  4.3612   4.3661   4.3771   4.3917   4.4091   4.4201   4.4307   4.4368
  4.4395   4.4933   4.5037   4.5128   4.5278   4.5608   4.5771   4.5867
  4.6383   4.6431   4.6556   4.6631   4.6733   4.7010   4.7265   4.7361
  4.7457   4.7821   4.7954   4.8028   4.8163   4.8717   4.9136   4.9250
  4.9748   5.0124   5.0184   5.0465   5.0650   5.0776   5.1130   5.1332
  5.1534   5.1978   5.2182   5.2391   5.2550   5.2600   5.2884   5.3533
  5.3562   5.3675   5.4048   5.4222   5.4382   5.4738   5.4838   5.5348
  5.5558   5.5886   5.6152   5.6196   5.6406   5.6589   5.7340   5.7910
  5.8023   5.8330   5.8448   5.8664   5.9173   5.9695   5.9718   6.0302
  6.0822   6.1240   6.1347   6.1860   6.2276   6.3099   6.3691   6.4488
  6.4592   6.5095   6.5581   6.6604   6.6787   6.7369   6.7400   6.8625
  6.8824   6.9924   7.1800   7.2118   7.3286   7.3736   7.3763   7.4285
  7.4641   7.4874   7.5185   7.5504   7.6077   7.7710   7.8330   7.9069
  8.0017   8.1231   8.4146   8.9288   9.0062   9.3637   9.4963   9.6874
 10.1888  11.2215  11.6304  11.9294  12.2727  12.6150  13.0728  13.3632
 13.7571  14.0696  14.6095
 --------------------------------------------------------------
 
          Ground-State Mulliken Net Atomic Charges

     Atom                 Charge (a.u.)
  ----------------------------------------
      1 C                     0.053974
      2 S                     0.076992
      3 C                    -0.248918
      4 C                    -0.119189
      5 C                    -0.011740
      6 C                     0.376457
      7 C                    -0.163253
      8 S                     0.029474
      9 C                     0.458442
     10 O                    -0.453995
     11 O                    -0.298408
     12 F                    -0.210378
     13 C                    -0.054834
     14 H                     0.116298
     15 H                     0.084080
     16 H                     0.083899
     17 C                    -0.377778
     18 H                     0.143339
     19 H                     0.157375
     20 H                     0.147480
     21 H                     0.210683
  ----------------------------------------
  Sum of atomic charges =     0.000000

 -----------------------------------------------------------------
                    Cartesian Multipole Moments
 -----------------------------------------------------------------
    Charge (ESU x 10^10)
                -0.0000
    Dipole Moment (Debye)
         X       1.9882      Y       0.6356      Z       3.8657
       Tot       4.3933
    Quadrupole Moments (Debye-Ang)
        XX     -94.5709     XY       3.2259     YY     -84.9087
        XZ      -5.1222     YZ     -11.8386     ZZ     -95.2459
    Octopole Moments (Debye-Ang^2)
       XXX    -131.6252    XXY     -64.0704    XYY     -31.1412
       YYY    -205.4603    XXZ      74.2633    XYZ      -7.1575
       YYZ      72.6433    XZZ       1.7211    YZZ       4.4364
       ZZZ     256.5480
    Hexadecapole Moments (Debye-Ang^3)
      XXXX    -507.1358   XXXY    -346.7244   XXYY    -315.5638
      XYYY    -312.8299   YYYY   -1434.5761   XXXZ     343.8761
      XXYZ     197.5028   XYYZ      78.4465   YYYZ     576.4076
      XXZZ    -671.5366   XYZZ      10.9920   YYZZ    -680.6934
      XZZZ     146.8714   YZZZ     290.6533   ZZZZ   -3797.6060
 -----------------------------------------------------------------
 Total job time:  54.24s(wall), 1944.01s(cpu) 
 Sun Sep 24 16:50:35 2023

        *************************************************************
        *                                                           *
        *  Thank you very much for using Q-Chem.  Have a nice day.  *
        *                                                           *
        *************************************************************


0 sent ACK to 0 
now end server 0 ... 
cleanup process ... done
remove work dirs ./qchem633082.0 -- ./qchem633082.0
rm -rf ./qchem633082.0
rm -rf ./qchem633082
