You are running Q-Chem version: 5.4.0

#
# job setting
#
local host:  exp-8-29
current dir: /expanse/lustre/projects/csd626/rramji/aromodel/PTB7_fin/Hydrogenated_Impropers_Test
input file:  fin_bdt_Phi_25_Theta_260_fin_ftt_Hydrogenated_Improper.qcin
output file: 
nprocs     : 1
nthreads   : 64
#
# qchem installation setting
#
QC:          /cm/shared/apps/spack/cpu/opt/spack/linux-centos8-zen2/gcc-10.2.0/qchem-5.4-akfmr7b3t57bfs6qan3padb2wnb2i7cl
QCAUX:       /cm/shared/apps/spack/cpu/opt/spack/linux-centos8-zen2/gcc-10.2.0/qchem-5.4-akfmr7b3t57bfs6qan3padb2wnb2i7cl/qcaux
QCPROG:      /cm/shared/apps/spack/cpu/opt/spack/linux-centos8-zen2/gcc-10.2.0/qchem-5.4-akfmr7b3t57bfs6qan3padb2wnb2i7cl/exe/qcprog.exe
QCPROG_S:    /cm/shared/apps/spack/cpu/opt/spack/linux-centos8-zen2/gcc-10.2.0/qchem-5.4-akfmr7b3t57bfs6qan3padb2wnb2i7cl/exe/qcprog.exe_s
PARALLEL:    -DPARALLEL
QCMPI:       mpich
#
# qchem directory setting
#
qcrun:       qchem1192930
QCSCRATCH:   .
QCLOCALSCR:  
QCTMPDIR:    .
QCFILEPREF:  ./qchem1192930
QCSAVEDIR:   
workdirs:    ./qchem1192930
workdir0:    ./qchem1192930
partmpdirs =  
#
# parallel setting
#
QCRSH:           ssh
QCMPI:           mpich
QCMPIRUN:        /cm/shared/apps/spack/cpu/opt/spack/linux-centos8-zen2/gcc-10.2.0/qchem-5.4-akfmr7b3t57bfs6qan3padb2wnb2i7cl/bin/mpi/mpirun_qchem
QCMACHINEFILE:   ./qchem1192930/hostfile
exp-8-29

#
# env setting
#
exported envs:   QC QCAUX QCSCRATCH QCRUNNAME QCFILEPREF QCPROG QCPROG_S GUIFILE

Running Job 1 of 1 fin_bdt_Phi_25_Theta_260_fin_ftt_Hydrogenated_Improper.qcin
qchem fin_bdt_Phi_25_Theta_260_fin_ftt_Hydrogenated_Improper.qcin_1192930.0 ./qchem1192930/ 1
/cm/shared/apps/spack/cpu/opt/spack/linux-centos8-zen2/gcc-10.2.0/qchem-5.4-akfmr7b3t57bfs6qan3padb2wnb2i7cl/bin/mpi/mpirun_qchem -machinefile ./qchem1192930/hostfile -np 1 /cm/shared/apps/spack/cpu/opt/spack/linux-centos8-zen2/gcc-10.2.0/qchem-5.4-akfmr7b3t57bfs6qan3padb2wnb2i7cl/exe/qcprog.exe fin_bdt_Phi_25_Theta_260_fin_ftt_Hydrogenated_Improper.qcin_1192930.0 ./qchem1192930/

Process 0 of 1 is on exp-8-29 - thread support 0
initial socket setup ...start
initial socket setup ...done 
now start server 0 ... 
                  Welcome to Q-Chem
     A Quantum Leap Into The Future Of Chemistry


 Q-Chem 5.4, Q-Chem, Inc., Pleasanton, CA (2021)

 License issued to: University of California, San Diego (site)

 E. Epifanovsky,  A. T. B. Gilbert,  Xintian Feng,  Joonho Lee,  Yuezhi Mao,  
 N. Mardirossian,  P. Pokhilko,  A. White,  M. Wormit,  M. P. Coons,  
 A. L. Dempwolff,  Zhengting Gan,  D. Hait,  P. R. Horn,  L. D. Jacobson,  
 I. Kaliman,  J. Kussmann,  A. W. Lange,  Ka Un Lao,  D. S. Levine,  Jie Liu,  
 S. C. McKenzie,  A. F. Morrison,  K. Nanda,  F. Plasser,  D. R. Rehn,  
 M. L. Vidal,  Zhi-Qiang You,  Ying Zhu,  B. Alam,  B. Albrecht,  
 A. Aldossary,  E. Alguire,  J. H. Andersen,  D. Barton,  K. Begam,  A. Behn,  
 Y. A. Bernard,  E. J. Berquist,  H. Burton,  A. Carreras,  K. Carter-Fenk,  
 R. Chakraborty,  A. D. Chien,  K. D. Closser,  V. Cofer-Shabica,  
 S. Dasgupta,  Jia Deng,  M. de Wergifosse,  M. Diedenhofen,  Hainam Do,  
 S. Ehlert,  Po-Tung Fang,  S. Fatehi,  Qingguo Feng,  J. Gayvert,  
 Qinghui Ge,  G. Gidofalvi,  M. Goldey,  J. Gomes,  C. Gonzalez-Espinoza,  
 S. Gulania,  A. Gunina,  M. W. D. Hanson-Heine,  P. H. P. Harbach,  
 A. W. Hauser,  M. F. Herbst,  M. Hernandez Vera,  M. Hodecker,  
 Z. C. Holden,  S. Houck,  Xunkun Huang,  Kerwin Hui,  B. C. Huynh,  
 M. Ivanov,  Hyunjun Ji,  Hanjie Jiang,  B. Kaduk,  S. Kaehler,  
 K. Khistyaev,  Jaehoon Kim,  P. Klunzinger,  Z. Koczor-Benda,  
 Joong Hoon Koh,  D. Kosenkov,  L. Koulias,  T. Kowalczyk,  C. M. Krauter,  
 K. Kue,  A. Kunitsa,  T. Kus,  A. Landau,  K. V. Lawler,  D. Lefrancois,  
 S. Lehtola,  Rain Li,  Yi-Pei Li,  Jiashu Liang,  M. Liebenthal,  
 Hung-Hsuan Lin,  You-Sheng Lin,  Fenglai Liu,  Kuan-Yu Liu,  
 M. Loipersberger,  A. Luenser,  A. Manjanath,  P. Manohar,  E. Mansoor,  
 S. F. Manzer,  Shan-Ping Mao,  A. V. Marenich,  T. Markovich,  S. Mason,  
 S. A. Maurer,  P. F. McLaughlin,  M. F. S. J. Menger,  J.-M. Mewes,  
 S. A. Mewes,  P. Morgante,  J. W. Mullinax,  T. S. Nguyen-Beck,  
 K. J. Oosterbaan,  G. Paran,  Alexander C. Paul,  Suranjan K. Paul,  
 F. Pavosevic,  Zheng Pei,  S. Prager,  E. I. Proynov,  E. Ramos,  B. Rana,  
 A. E. Rask,  A. Rettig,  R. M. Richard,  F. Rob,  E. Rossomme,  T. Scheele,  
 M. Scheurer,  M. Schneider,  N. Sergueev,  S. M. Sharada,  W. Skomorowski,  
 D. W. Small,  C. J. Stein,  Yu-Chuan Su,  E. J. Sundstrom,  Zhen Tao,  
 J. Thirman,  T. Tsuchimochi,  N. M. Tubman,  S. P. Veccham,  O. Vydrov,  
 J. Wenzel,  J. Witte,  A. Yamada,  Kun Yao,  S. Yeganeh,  S. R. Yost,  
 A. Zech,  Igor Ying Zhang,  Xing Zhang,  Yu Zhang,  D. Zuev,  
 A. Aspuru-Guzik,  A. T. Bell,  N. A. Besley,  K. B. Bravaya,  B. R. Brooks,  
 D. Casanova,  Jeng-Da Chai,  S. Coriani,  C. J. Cramer,  
 A. E. DePrince, III,  R. A. DiStasio Jr.,  A. Dreuw,  B. D. Dunietz,  
 T. R. Furlani,  W. A. Goddard III,  S. Grimme,  S. Hammes-Schiffer,  
 T. Head-Gordon,  W. J. Hehre,  Chao-Ping Hsu,  T.-C. Jagau,  Yousung Jung,  
 A. Klamt,  Jing Kong,  D. S. Lambrecht,  WanZhen Liang,  N. J. Mayhall,  
 C. W. McCurdy,  J. B. Neaton,  C. Ochsenfeld,  J. A. Parkhill,  R. Peverati,  
 V. A. Rassolov,  Yihan Shao,  L. V. Slipchenko,  T. Stauch,  R. P. Steele,  
 J. E. Subotnik,  A. J. W. Thom,  A. Tkatchenko,  D. G. Truhlar,  
 T. Van Voorhis,  T. A. Wesolowski,  K. B. Whaley,  H. L. Woodcock III,  
 P. M. Zimmerman,  S. Faraji,  P. M. W. Gill,  M. Head-Gordon,  
 J. M. Herbert,  A. I. Krylov

 Contributors to earlier versions of Q-Chem not listed above: 
 R. D. Adamson,  B. Austin,  R. Baer,  J. Baker,  G. J. O. Beran,  
 K. Brandhorst,  S. T. Brown,  E. F. C. Byrd,  A. K. Chakraborty,  
 G. K. L. Chan,  Chun-Min Chang,  Yunqing Chen,  C.-L. Cheng,  
 Siu Hung Chien,  D. M. Chipman,  D. L. Crittenden,  H. Dachsel,  
 R. J. Doerksen,  A. D. Dutoi,  R. G. Edgar,  J. Fosso-Tande,  
 L. Fusti-Molnar,  D. Ghosh,  A. Ghysels,  A. Golubeva-Zadorozhnaya,  
 J. Gonthier,  M. S. Gordon,  S. R. Gwaltney,  G. Hawkins,  J. E. Herr,  
 A. Heyden,  S. Hirata,  E. G. Hohenstein,  G. Kedziora,  F. J. Keil,  
 C. Kelley,  Jihan Kim,  R. A. King,  R. Z. Khaliullin,  P. P. Korambath,  
 W. Kurlancheek,  A. Laurent,  A. M. Lee,  M. S. Lee,  S. V. Levchenko,  
 Ching Yeh Lin,  D. Liotard,  E. Livshits,  R. C. Lochan,  I. Lotan,  
 L. A. Martinez-Martinez,  P. E. Maslen,  N. Nair,  D. P. O'Neill,  
 D. Neuhauser,  E. Neuscamman,  C. M. Oana,  R. Olivares-Amaya,  R. Olson,  
 T. M. Perrine,  B. Peters,  P. A. Pieniazek,  A. Prociuk,  Y. M. Rhee,  
 J. Ritchie,  M. A. Rohrdanz,  E. Rosta,  N. J. Russ,  H. F. Schaefer III,  
 M. W. Schmidt,  N. E. Schultz,  S. Sharma,  N. Shenvi,  C. D. Sherrill,  
 A. C. Simmonett,  A. Sodt,  T. Stein,  D. Stuck,  K. S. Thanthiriwatte,  
 V. Vanovschi,  L. Vogt,  Tao Wang,  A. Warshel,  M. A. Watson,  
 C. F. Williams,  Q. Wu,  X. Xu,  Jun Yang,  W. Zhang,  Yan Zhao

 Please cite Q-Chem as follows:
 Y. Shao et al., Mol. Phys. 113, 184-215 (2015)
 DOI: 10.1080/00268976.2014.952696

 Q-Chem 5.4.0 for Intel X86 EM64T Linux

 Parts of Q-Chem use Armadillo 9.800.1 (Horizon Scraper).
 http://arma.sourceforge.net/

 Q-Chem begins on Tue Sep 26 18:15:29 2023  

 Host: 
0

     Scratch files written to ./qchem1192930//
 May1621 |scratch|qcdevops|jenkins|workspace|build_RNUM    
 Parallel job on  1  processors
 Processing $rem in /cm/shared/apps/spack/cpu/opt/spack/linux-centos8-zen2/gcc-10.2.0/qchem-5.4-akfmr7b3t57bfs6qan3padb2wnb2i7cl/config/preferences:
 Processing $rem in /home/rramji/.qchemrc:
 Symmetry turned off for PCM/SM12/SMD calculation
 Core orbitals will be frozen

 Checking the input file for inconsistencies... 	...done.

 Q-Chem warning in module forms1/BasisType.C, line 2236:

 You are not using the predefined 5D/6D in this basis set.


--------------------------------------------------------------
User input:
--------------------------------------------------------------
$molecule
0 1
C	-0.375620	-0.753180	1.025187
S	0.006480	0.061020	2.535887
C	0.671280	1.489220	1.752787
C	0.008180	0.069920	-0.039513
C	0.593780	1.329320	0.346887
C	-0.018420	0.009120	-1.460913
C	0.516080	1.155520	-2.081713
S	1.040280	2.287520	-0.940513
C	0.627880	1.384120	-3.534813
O	0.235980	0.536820	-4.325113
O	1.173080	2.545720	-3.979213
F	-0.485720	-1.002280	-2.221113
C	1.333880	2.866520	-5.309813
H	1.801380	3.867720	-5.345113
H	0.361780	2.890220	-5.850413
H	1.983780	2.133220	-5.836713
C	-0.375620	-2.188380	1.025187
H	-0.571520	-2.197380	-0.036913
H	0.447480	-2.872280	0.879687
H	-1.304020	-2.712780	1.196987
H	1.060180	2.323020	2.346687
$end

$rem
JOBTYPE		SP
EXCHANGE	HF
CORRELATION	pRIMP2
BASIS		cc-pvtz
METHOD		rimp2
AUX_BASIS	rimp2-cc-pvtz
SOLVENT_METHOD	PCM
PURECART	11111
SYMMETRY	false
MEM_TOTAL	110000
SCF_CONVERGENCE = 6
THRESH=10
GUI = 2
$end



$solvent
dielectric 4.90
$end
--------------------------------------------------------------
 ----------------------------------------------------------------
             Standard Nuclear Orientation (Angstroms)
    I     Atom           X                Y                Z
 ----------------------------------------------------------------
    1      C      -0.3756200000    -0.7531800000     1.0251870000
    2      S       0.0064800000     0.0610200000     2.5358870000
    3      C       0.6712800000     1.4892200000     1.7527870000
    4      C       0.0081800000     0.0699200000    -0.0395130000
    5      C       0.5937800000     1.3293200000     0.3468870000
    6      C      -0.0184200000     0.0091200000    -1.4609130000
    7      C       0.5160800000     1.1555200000    -2.0817130000
    8      S       1.0402800000     2.2875200000    -0.9405130000
    9      C       0.6278800000     1.3841200000    -3.5348130000
   10      O       0.2359800000     0.5368200000    -4.3251130000
   11      O       1.1730800000     2.5457200000    -3.9792130000
   12      F      -0.4857200000    -1.0022800000    -2.2211130000
   13      C       1.3338800000     2.8665200000    -5.3098130000
   14      H       1.8013800000     3.8677200000    -5.3451130000
   15      H       0.3617800000     2.8902200000    -5.8504130000
   16      H       1.9837800000     2.1332200000    -5.8367130000
   17      C      -0.3756200000    -2.1883800000     1.0251870000
   18      H      -0.5715200000    -2.1973800000    -0.0369130000
   19      H       0.4474800000    -2.8722800000     0.8796870000
   20      H      -1.3040200000    -2.7127800000     1.1969870000
   21      H       1.0601800000     2.3230200000     2.3466870000
 ----------------------------------------------------------------
 Nuclear Repulsion Energy =        1091.26582364 hartrees
 There are       59 alpha and       59 beta electrons
 Requested basis set is cc-pVTZ
 There are 186 shells and 526 basis functions

 Total QAlloc Memory Limit 110000 MB
 Mega-Array Size       188 MB
 MEM_STATIC part       192 MB
 Discretize the solute cavity surface with Lebedev spheres
	Using 110 Lebedev grid points for each H atom
	Using 194 Lebedev grid points for other atoms
	Atomic van der Waals radii will be scaled by 1.20
 Remove points where switching function is < 1.0e-08
 Keep 1547 surface tesserae and discard 1939 interior tesserae
 Molecular Surface Area = 240.593 Angst**2
 Requested basis set is rimp2-cc-pVTZ
 There are 410 shells and 1426 basis functions
 A cutoff of  1.0D-10 yielded  11639 shell pairs
 There are     91375 function pairs (    119616 Cartesian)
 Smallest overlap matrix eigenvalue = 5.78E-05

 Scale SEOQF with 1.000000e-01/1.000000e-01/1.000000e-02

 Standard Electronic Orientation quadrupole field applied
 Nucleus-field energy     =     0.0000000163 hartrees
 Guess from superposition of atomic densities
 Warning:  Energy on first SCF cycle will be non-variational
 SAD guess density has 118.000000 electrons

 -----------------------------------------------------------------------
  General SCF calculation program by
  Eric Jon Sundstrom, Paul Horn, Yuezhi Mao, Dmitri Zuev, Alec White,
  David Stuck, Shaama M.S., Shane Yost, Joonho Lee, David Small,
  Daniel Levine, Susi Lehtola, Hugh Burton, Evgeny Epifanovsky,
  Bang C. Huynh
 -----------------------------------------------------------------------
 Hartree-Fock
 using 64 threads for integral computing
 -------------------------------------------------------
 OpenMP Integral computing Module                
 Release: version 1.0, May 2013, Q-Chem Inc. Pittsburgh 
 -------------------------------------------------------
 A restricted SCF calculation will be
 performed using DIIS
 SCF converges when DIIS error is below 1.0e-06
 ---------------------------------------
  Cycle       Energy         DIIS error
 ---------------------------------------
    1   -1394.5800337302      2.53e-02  
    2   -1389.0009634319      2.51e-03  
    3   -1389.1726350059      1.59e-03  
    4   -1389.2355591046      3.48e-04  
    5   -1389.2412234483      1.09e-04  
    6   -1389.2418790507      3.63e-05  
    7   -1389.2420205570      1.84e-05  
    8   -1389.2420703540      7.60e-06  
    9   -1389.2420826056      3.60e-06  
   10   -1389.2420847348      1.43e-06  
   11   -1389.2420850947      5.53e-07  Convergence criterion met
 ---------------------------------------
 SCF time:   CPU 1708.77s  wall 50.00s 

************** Final PCM Free Energy Summary **************
 G_electrostatic  =      -0.01211327 hartree =      -7.60119396 kcal/mol
 G_cavitation     =       0.00000000 hartree =       0.00000000 kcal/mol
 G_dispersion     =       0.00000000 hartree =       0.00000000 kcal/mol
 G_repulsion      =       0.00000000 hartree =       0.00000000 kcal/mol
 --------------------------------------------------
 Non-electrostatic Free Energy =       0.00000000 hartree =       0.00000000 kcal/mol
 Total                         =      -0.01211327 hartree =      -7.60119396 kcal/mol
 --------------------------------------------------
 SCF Energy (H0 + V/2)                       =   -1389.24208509 
 Solute Internal Energy (H0)                 =   -1389.22997182 
 Total Free Energy (H0 + V/2 + non-elec)     =   -1389.24208509 hartree
                                             = -871762.56590869 kcal/mol
***********************************************************

 SCF   energy in the final basis set =    -1389.2420850947
 Total energy in the final basis set =    -1389.2420850947


 --------------------------------------------------------------
  Generalized many-body perturbation theory program
  by Joonho Lee, Fazle Rob, Xintian Feng, Evgeny Epifanovsky

 No regularization used 
 (reg. param. = 0.0000e+00)
  (P|Q)^-1/2 Time:  CPU 36.78 s  wall 0.60 s

 In RI-MP2 calculation: 
 # of frozen core orbitals: 22

 Components of the RIMP2 correlation energy:
        aaaa    correlation energy =        -0.3304085068 a.u.
        abab    correlation energy =        -1.8505084709 a.u.
        bbbb    correlation energy =        -0.3304085068 a.u.
        non-Brillouin singles      =        -0.0000000000 a.u.
        total same-spin energy     =        -0.6608170137 a.u.
        total opposite-spin energy =        -1.8505084709 a.u.

 Total  RIMP2   correlation energy =        -2.5113254846 a.u.
        RIMP2         total energy =     -1391.7534105793 a.u.

 RI-MP2 Energy Time:  CPU 189.11 s  wall 3.42 s
 
 --------------------------------------------------------------
 
                    Orbital Energies (a.u.)
 --------------------------------------------------------------
 
 Alpha MOs
 -- Occupied --
-92.0031 -91.9926 -26.3354 -20.6117 -20.5495 -11.4097 -11.3762 -11.3003
-11.2957 -11.2922 -11.2894 -11.2884 -11.2760 -11.2245  -9.0022  -8.9967
 -6.6829  -6.6822  -6.6819  -6.6780  -6.6773  -6.6760  -1.6487  -1.4714
 -1.3667  -1.2292  -1.1459  -1.0679  -1.0275  -1.0052  -0.9692  -0.9107
 -0.8645  -0.7961  -0.7870  -0.7681  -0.7272  -0.7167  -0.6971  -0.6783
 -0.6779  -0.6702  -0.6069  -0.6055  -0.5988  -0.5897  -0.5780  -0.5672
 -0.5429  -0.5254  -0.5061  -0.4821  -0.4727  -0.4620  -0.4609  -0.4481
 -0.3969  -0.3448  -0.2844
 -- Virtual --
  0.0304   0.1173   0.1384   0.1557   0.1591   0.1707   0.1859   0.1957
  0.2071   0.2189   0.2202   0.2283   0.2368   0.2423   0.2616   0.2715
  0.2917   0.3060   0.3236   0.3342   0.3517   0.3592   0.3722   0.3765
  0.3803   0.3919   0.3928   0.4090   0.4173   0.4273   0.4377   0.4458
  0.4573   0.4663   0.4686   0.4779   0.4861   0.5068   0.5152   0.5315
  0.5363   0.5381   0.5505   0.5523   0.5595   0.5629   0.5711   0.5867
  0.5895   0.5985   0.6054   0.6089   0.6169   0.6210   0.6264   0.6331
  0.6404   0.6451   0.6489   0.6626   0.6779   0.6856   0.6904   0.6989
  0.7111   0.7172   0.7437   0.7581   0.7695   0.7808   0.7868   0.8005
  0.8025   0.8113   0.8238   0.8481   0.8655   0.8770   0.8836   0.8892
  0.8968   0.9041   0.9145   0.9367   0.9424   0.9444   0.9503   0.9745
  0.9870   0.9942   1.0058   1.0129   1.0163   1.0293   1.0398   1.0503
  1.0634   1.0709   1.0803   1.0962   1.0987   1.1095   1.1239   1.1354
  1.1547   1.1578   1.1659   1.1699   1.1763   1.1862   1.1955   1.2093
  1.2195   1.2231   1.2400   1.2526   1.2573   1.2801   1.2858   1.3031
  1.3312   1.3338   1.3452   1.3499   1.3594   1.3752   1.3816   1.3912
  1.4024   1.4244   1.4423   1.4642   1.4736   1.4943   1.4994   1.5119
  1.5133   1.5148   1.5443   1.5505   1.5622   1.5857   1.5889   1.6050
  1.6252   1.6318   1.6570   1.6683   1.6802   1.7012   1.7252   1.7318
  1.7584   1.7639   1.7751   1.8150   1.8227   1.8336   1.8446   1.8571
  1.8691   1.8782   1.8835   1.9255   1.9308   1.9448   1.9511   1.9711
  1.9785   2.0081   2.0288   2.0321   2.0537   2.0927   2.1042   2.1235
  2.1425   2.1542   2.1588   2.1649   2.1907   2.1961   2.2153   2.2372
  2.2421   2.2676   2.2697   2.2788   2.2884   2.2977   2.3335   2.3385
  2.3675   2.3821   2.4081   2.4328   2.4611   2.4725   2.4831   2.5037
  2.5298   2.5640   2.5691   2.5809   2.5918   2.6038   2.6176   2.6224
  2.6498   2.6548   2.6583   2.6754   2.6908   2.7005   2.7198   2.7332
  2.7383   2.7472   2.7608   2.7727   2.7927   2.8145   2.8245   2.8366
  2.8420   2.8642   2.8724   2.8827   2.9064   2.9262   2.9386   2.9408
  2.9587   2.9840   2.9997   3.0277   3.0383   3.0440   3.0564   3.0711
  3.0849   3.0920   3.0947   3.1119   3.1168   3.1301   3.1439   3.1549
  3.1824   3.1890   3.1934   3.2085   3.2157   3.2283   3.2413   3.2599
  3.2639   3.2678   3.2839   3.2879   3.2990   3.3075   3.3107   3.3282
  3.3354   3.3452   3.3509   3.3631   3.3734   3.3808   3.3980   3.4202
  3.4313   3.4454   3.4525   3.4559   3.4587   3.4828   3.4914   3.5062
  3.5094   3.5268   3.5308   3.5488   3.5662   3.5735   3.5850   3.5891
  3.5934   3.6042   3.6230   3.6321   3.6455   3.6536   3.6626   3.6739
  3.6904   3.7027   3.7079   3.7170   3.7282   3.7299   3.7467   3.7482
  3.7598   3.7716   3.7860   3.8017   3.8220   3.8271   3.8372   3.8498
  3.8601   3.8640   3.8694   3.8829   3.9008   3.9171   3.9243   3.9347
  3.9446   3.9769   3.9842   3.9877   4.0030   4.0260   4.0295   4.0555
  4.0708   4.0759   4.0899   4.0929   4.1081   4.1549   4.1684   4.1730
  4.1911   4.2217   4.2248   4.2577   4.2761   4.2979   4.3069   4.3228
  4.3484   4.3761   4.3815   4.3878   4.3951   4.4044   4.4291   4.4339
  4.4782   4.4828   4.4973   4.5142   4.5420   4.5525   4.5859   4.6126
  4.6343   4.6426   4.6521   4.6602   4.6770   4.7016   4.7147   4.7399
  4.7663   4.7761   4.7927   4.8028   4.8241   4.8813   4.8965   4.9171
  4.9674   5.0090   5.0147   5.0249   5.0702   5.0803   5.1167   5.1602
  5.1799   5.2070   5.2243   5.2473   5.2591   5.2691   5.2786   5.3553
  5.3557   5.3609   5.3991   5.4239   5.4572   5.4732   5.4863   5.5331
  5.5467   5.5875   5.6180   5.6372   5.6405   5.6830   5.7384   5.8011
  5.8209   5.8296   5.8536   5.8947   5.9343   5.9567   5.9701   5.9851
  6.0419   6.1250   6.1338   6.1858   6.2169   6.3089   6.3543   6.4206
  6.4629   6.5067   6.5568   6.6672   6.6772   6.7351   6.7427   6.8608
  6.8823   6.9910   7.1788   7.2105   7.3269   7.3713   7.3756   7.4287
  7.4629   7.4851   7.5173   7.5488   7.6081   7.7686   7.8318   7.9047
  8.0011   8.1185   8.3852   8.9268   9.0103   9.3618   9.5030   9.7014
 10.1732  11.2287  11.7178  11.9395  12.3021  12.6592  13.1636  13.4968
 13.8247  14.0972  14.5247
 --------------------------------------------------------------
 
          Ground-State Mulliken Net Atomic Charges

     Atom                 Charge (a.u.)
  ----------------------------------------
      1 C                     0.007625
      2 S                     0.087686
      3 C                    -0.237083
      4 C                    -0.092462
      5 C                    -0.011807
      6 C                     0.363410
      7 C                    -0.145052
      8 S                     0.037273
      9 C                     0.457034
     10 O                    -0.451569
     11 O                    -0.297840
     12 F                    -0.212589
     13 C                    -0.054756
     14 H                     0.116592
     15 H                     0.084294
     16 H                     0.084171
     17 C                    -0.350653
     18 H                     0.111403
     19 H                     0.157020
     20 H                     0.136392
     21 H                     0.210911
  ----------------------------------------
  Sum of atomic charges =     0.000000

 -----------------------------------------------------------------
                    Cartesian Multipole Moments
 -----------------------------------------------------------------
    Charge (ESU x 10^10)
                -0.0000
    Dipole Moment (Debye)
         X       1.2741      Y       1.3421      Z       2.6610
       Tot       3.2412
    Quadrupole Moments (Debye-Ang)
        XX     -94.1163     XY       4.2189     YY     -84.1951
        XZ      -4.4338     YZ      -9.3680     ZZ     -97.1041
    Octopole Moments (Debye-Ang^2)
       XXX    -111.7150    XXY     -71.2054    XYY     -26.3717
       YYY    -210.1089    XXZ      76.4787    XYZ      -7.0280
       YYZ      64.2760    XZZ       2.7389    YZZ      13.1939
       ZZZ     250.7881
    Hexadecapole Moments (Debye-Ang^3)
      XXXX    -400.4032   XXXY    -310.5874   XXYY    -316.5581
      XYYY    -271.3025   YYYY   -1534.6135   XXXZ     293.3985
      XXYZ     208.9208   XYYZ      65.3830   YYYZ     607.4217
      XXZZ    -670.8080   XYZZ       7.4997   YYZZ    -694.0866
      XZZZ     124.5865   YZZZ     307.3664   ZZZZ   -3777.1961
 -----------------------------------------------------------------
 Total job time:  54.46s(wall), 1951.88s(cpu) 
 Tue Sep 26 18:16:24 2023

        *************************************************************
        *                                                           *
        *  Thank you very much for using Q-Chem.  Have a nice day.  *
        *                                                           *
        *************************************************************


0 sent ACK to 0 
now end server 0 ... 
cleanup process ... done
remove work dirs ./qchem1192930.0 -- ./qchem1192930.0
rm -rf ./qchem1192930.0
rm -rf ./qchem1192930
