You are running Q-Chem version: 5.4.0

#
# job setting
#
local host:  exp-2-46
current dir: /expanse/lustre/projects/csd626/rramji/aromodel/PTB7_fin/Hydrogenated_Impropers_Test
input file:  fin_bdt_Phi_40_Theta_50_fin_ftt_Hydrogenated_Improper.qcin
output file: 
nprocs     : 1
nthreads   : 64
#
# qchem installation setting
#
QC:          /cm/shared/apps/spack/cpu/opt/spack/linux-centos8-zen2/gcc-10.2.0/qchem-5.4-akfmr7b3t57bfs6qan3padb2wnb2i7cl
QCAUX:       /cm/shared/apps/spack/cpu/opt/spack/linux-centos8-zen2/gcc-10.2.0/qchem-5.4-akfmr7b3t57bfs6qan3padb2wnb2i7cl/qcaux
QCPROG:      /cm/shared/apps/spack/cpu/opt/spack/linux-centos8-zen2/gcc-10.2.0/qchem-5.4-akfmr7b3t57bfs6qan3padb2wnb2i7cl/exe/qcprog.exe
QCPROG_S:    /cm/shared/apps/spack/cpu/opt/spack/linux-centos8-zen2/gcc-10.2.0/qchem-5.4-akfmr7b3t57bfs6qan3padb2wnb2i7cl/exe/qcprog.exe_s
PARALLEL:    -DPARALLEL
QCMPI:       mpich
#
# qchem directory setting
#
qcrun:       qchem1927193
QCSCRATCH:   .
QCLOCALSCR:  
QCTMPDIR:    .
QCFILEPREF:  ./qchem1927193
QCSAVEDIR:   
workdirs:    ./qchem1927193
workdir0:    ./qchem1927193
partmpdirs =  
#
# parallel setting
#
QCRSH:           ssh
QCMPI:           mpich
QCMPIRUN:        /cm/shared/apps/spack/cpu/opt/spack/linux-centos8-zen2/gcc-10.2.0/qchem-5.4-akfmr7b3t57bfs6qan3padb2wnb2i7cl/bin/mpi/mpirun_qchem
QCMACHINEFILE:   ./qchem1927193/hostfile
exp-2-46

#
# env setting
#
exported envs:   QC QCAUX QCSCRATCH QCRUNNAME QCFILEPREF QCPROG QCPROG_S GUIFILE

Running Job 1 of 1 fin_bdt_Phi_40_Theta_50_fin_ftt_Hydrogenated_Improper.qcin
qchem fin_bdt_Phi_40_Theta_50_fin_ftt_Hydrogenated_Improper.qcin_1927193.0 ./qchem1927193/ 1
/cm/shared/apps/spack/cpu/opt/spack/linux-centos8-zen2/gcc-10.2.0/qchem-5.4-akfmr7b3t57bfs6qan3padb2wnb2i7cl/bin/mpi/mpirun_qchem -machinefile ./qchem1927193/hostfile -np 1 /cm/shared/apps/spack/cpu/opt/spack/linux-centos8-zen2/gcc-10.2.0/qchem-5.4-akfmr7b3t57bfs6qan3padb2wnb2i7cl/exe/qcprog.exe fin_bdt_Phi_40_Theta_50_fin_ftt_Hydrogenated_Improper.qcin_1927193.0 ./qchem1927193/

Process 0 of 1 is on exp-2-46 - thread support 0
initial socket setup ...start
initial socket setup ...done 
now start server 0 ... 
                  Welcome to Q-Chem
     A Quantum Leap Into The Future Of Chemistry


 Q-Chem 5.4, Q-Chem, Inc., Pleasanton, CA (2021)

 License issued to: University of California, San Diego (site)

 E. Epifanovsky,  A. T. B. Gilbert,  Xintian Feng,  Joonho Lee,  Yuezhi Mao,  
 N. Mardirossian,  P. Pokhilko,  A. White,  M. Wormit,  M. P. Coons,  
 A. L. Dempwolff,  Zhengting Gan,  D. Hait,  P. R. Horn,  L. D. Jacobson,  
 I. Kaliman,  J. Kussmann,  A. W. Lange,  Ka Un Lao,  D. S. Levine,  Jie Liu,  
 S. C. McKenzie,  A. F. Morrison,  K. Nanda,  F. Plasser,  D. R. Rehn,  
 M. L. Vidal,  Zhi-Qiang You,  Ying Zhu,  B. Alam,  B. Albrecht,  
 A. Aldossary,  E. Alguire,  J. H. Andersen,  D. Barton,  K. Begam,  A. Behn,  
 Y. A. Bernard,  E. J. Berquist,  H. Burton,  A. Carreras,  K. Carter-Fenk,  
 R. Chakraborty,  A. D. Chien,  K. D. Closser,  V. Cofer-Shabica,  
 S. Dasgupta,  Jia Deng,  M. de Wergifosse,  M. Diedenhofen,  Hainam Do,  
 S. Ehlert,  Po-Tung Fang,  S. Fatehi,  Qingguo Feng,  J. Gayvert,  
 Qinghui Ge,  G. Gidofalvi,  M. Goldey,  J. Gomes,  C. Gonzalez-Espinoza,  
 S. Gulania,  A. Gunina,  M. W. D. Hanson-Heine,  P. H. P. Harbach,  
 A. W. Hauser,  M. F. Herbst,  M. Hernandez Vera,  M. Hodecker,  
 Z. C. Holden,  S. Houck,  Xunkun Huang,  Kerwin Hui,  B. C. Huynh,  
 M. Ivanov,  Hyunjun Ji,  Hanjie Jiang,  B. Kaduk,  S. Kaehler,  
 K. Khistyaev,  Jaehoon Kim,  P. Klunzinger,  Z. Koczor-Benda,  
 Joong Hoon Koh,  D. Kosenkov,  L. Koulias,  T. Kowalczyk,  C. M. Krauter,  
 K. Kue,  A. Kunitsa,  T. Kus,  A. Landau,  K. V. Lawler,  D. Lefrancois,  
 S. Lehtola,  Rain Li,  Yi-Pei Li,  Jiashu Liang,  M. Liebenthal,  
 Hung-Hsuan Lin,  You-Sheng Lin,  Fenglai Liu,  Kuan-Yu Liu,  
 M. Loipersberger,  A. Luenser,  A. Manjanath,  P. Manohar,  E. Mansoor,  
 S. F. Manzer,  Shan-Ping Mao,  A. V. Marenich,  T. Markovich,  S. Mason,  
 S. A. Maurer,  P. F. McLaughlin,  M. F. S. J. Menger,  J.-M. Mewes,  
 S. A. Mewes,  P. Morgante,  J. W. Mullinax,  T. S. Nguyen-Beck,  
 K. J. Oosterbaan,  G. Paran,  Alexander C. Paul,  Suranjan K. Paul,  
 F. Pavosevic,  Zheng Pei,  S. Prager,  E. I. Proynov,  E. Ramos,  B. Rana,  
 A. E. Rask,  A. Rettig,  R. M. Richard,  F. Rob,  E. Rossomme,  T. Scheele,  
 M. Scheurer,  M. Schneider,  N. Sergueev,  S. M. Sharada,  W. Skomorowski,  
 D. W. Small,  C. J. Stein,  Yu-Chuan Su,  E. J. Sundstrom,  Zhen Tao,  
 J. Thirman,  T. Tsuchimochi,  N. M. Tubman,  S. P. Veccham,  O. Vydrov,  
 J. Wenzel,  J. Witte,  A. Yamada,  Kun Yao,  S. Yeganeh,  S. R. Yost,  
 A. Zech,  Igor Ying Zhang,  Xing Zhang,  Yu Zhang,  D. Zuev,  
 A. Aspuru-Guzik,  A. T. Bell,  N. A. Besley,  K. B. Bravaya,  B. R. Brooks,  
 D. Casanova,  Jeng-Da Chai,  S. Coriani,  C. J. Cramer,  
 A. E. DePrince, III,  R. A. DiStasio Jr.,  A. Dreuw,  B. D. Dunietz,  
 T. R. Furlani,  W. A. Goddard III,  S. Grimme,  S. Hammes-Schiffer,  
 T. Head-Gordon,  W. J. Hehre,  Chao-Ping Hsu,  T.-C. Jagau,  Yousung Jung,  
 A. Klamt,  Jing Kong,  D. S. Lambrecht,  WanZhen Liang,  N. J. Mayhall,  
 C. W. McCurdy,  J. B. Neaton,  C. Ochsenfeld,  J. A. Parkhill,  R. Peverati,  
 V. A. Rassolov,  Yihan Shao,  L. V. Slipchenko,  T. Stauch,  R. P. Steele,  
 J. E. Subotnik,  A. J. W. Thom,  A. Tkatchenko,  D. G. Truhlar,  
 T. Van Voorhis,  T. A. Wesolowski,  K. B. Whaley,  H. L. Woodcock III,  
 P. M. Zimmerman,  S. Faraji,  P. M. W. Gill,  M. Head-Gordon,  
 J. M. Herbert,  A. I. Krylov

 Contributors to earlier versions of Q-Chem not listed above: 
 R. D. Adamson,  B. Austin,  R. Baer,  J. Baker,  G. J. O. Beran,  
 K. Brandhorst,  S. T. Brown,  E. F. C. Byrd,  A. K. Chakraborty,  
 G. K. L. Chan,  Chun-Min Chang,  Yunqing Chen,  C.-L. Cheng,  
 Siu Hung Chien,  D. M. Chipman,  D. L. Crittenden,  H. Dachsel,  
 R. J. Doerksen,  A. D. Dutoi,  R. G. Edgar,  J. Fosso-Tande,  
 L. Fusti-Molnar,  D. Ghosh,  A. Ghysels,  A. Golubeva-Zadorozhnaya,  
 J. Gonthier,  M. S. Gordon,  S. R. Gwaltney,  G. Hawkins,  J. E. Herr,  
 A. Heyden,  S. Hirata,  E. G. Hohenstein,  G. Kedziora,  F. J. Keil,  
 C. Kelley,  Jihan Kim,  R. A. King,  R. Z. Khaliullin,  P. P. Korambath,  
 W. Kurlancheek,  A. Laurent,  A. M. Lee,  M. S. Lee,  S. V. Levchenko,  
 Ching Yeh Lin,  D. Liotard,  E. Livshits,  R. C. Lochan,  I. Lotan,  
 L. A. Martinez-Martinez,  P. E. Maslen,  N. Nair,  D. P. O'Neill,  
 D. Neuhauser,  E. Neuscamman,  C. M. Oana,  R. Olivares-Amaya,  R. Olson,  
 T. M. Perrine,  B. Peters,  P. A. Pieniazek,  A. Prociuk,  Y. M. Rhee,  
 J. Ritchie,  M. A. Rohrdanz,  E. Rosta,  N. J. Russ,  H. F. Schaefer III,  
 M. W. Schmidt,  N. E. Schultz,  S. Sharma,  N. Shenvi,  C. D. Sherrill,  
 A. C. Simmonett,  A. Sodt,  T. Stein,  D. Stuck,  K. S. Thanthiriwatte,  
 V. Vanovschi,  L. Vogt,  Tao Wang,  A. Warshel,  M. A. Watson,  
 C. F. Williams,  Q. Wu,  X. Xu,  Jun Yang,  W. Zhang,  Yan Zhao

 Please cite Q-Chem as follows:
 Y. Shao et al., Mol. Phys. 113, 184-215 (2015)
 DOI: 10.1080/00268976.2014.952696

 Q-Chem 5.4.0 for Intel X86 EM64T Linux

 Parts of Q-Chem use Armadillo 9.800.1 (Horizon Scraper).
 http://arma.sourceforge.net/

 Q-Chem begins on Sun Sep 24 16:54:16 2023  

 Host: 
0

     Scratch files written to ./qchem1927193//
 May1621 |scratch|qcdevops|jenkins|workspace|build_RNUM    
 Parallel job on  1  processors
 Processing $rem in /cm/shared/apps/spack/cpu/opt/spack/linux-centos8-zen2/gcc-10.2.0/qchem-5.4-akfmr7b3t57bfs6qan3padb2wnb2i7cl/config/preferences:
 Processing $rem in /home/rramji/.qchemrc:
 Symmetry turned off for PCM/SM12/SMD calculation
 Core orbitals will be frozen

 Checking the input file for inconsistencies... 	...done.

 Q-Chem warning in module forms1/BasisType.C, line 2236:

 You are not using the predefined 5D/6D in this basis set.


--------------------------------------------------------------
User input:
--------------------------------------------------------------
$molecule
0 1
C	-0.572919	-0.628442	1.021287
S	0.006981	0.059158	2.531987
C	1.018681	1.266558	1.748887
C	0.010881	0.067358	-0.043413
C	0.902381	1.132158	0.342987
C	-0.030519	0.015358	-1.464813
C	0.782381	0.984358	-2.085613
S	1.581681	1.942158	-0.944413
C	0.949481	1.176358	-3.538713
O	0.351781	0.459358	-4.329013
O	1.776781	2.157258	-3.983113
F	-0.743719	-0.840542	-2.225013
C	2.015181	2.425458	-5.313713
H	2.725881	3.271558	-5.349013
H	1.082381	2.699958	-5.854313
H	2.453081	1.548958	-5.840613
C	-0.572919	-2.063642	1.021287
H	0.127681	-2.072642	1.843087
H	-1.213019	-2.747542	1.558887
H	0.145181	-2.588042	0.408287
H	1.610181	1.971358	2.342787
$end

$rem
JOBTYPE		SP
EXCHANGE	HF
CORRELATION	pRIMP2
BASIS		cc-pvtz
METHOD		rimp2
AUX_BASIS	rimp2-cc-pvtz
SOLVENT_METHOD	PCM
PURECART	11111
SYMMETRY	false
MEM_TOTAL	110000
SCF_CONVERGENCE = 6
THRESH=10
GUI = 2
$end



$solvent
dielectric 4.90
$end
--------------------------------------------------------------
 ----------------------------------------------------------------
             Standard Nuclear Orientation (Angstroms)
    I     Atom           X                Y                Z
 ----------------------------------------------------------------
    1      C      -0.5729190000    -0.6284420000     1.0212870000
    2      S       0.0069810000     0.0591580000     2.5319870000
    3      C       1.0186810000     1.2665580000     1.7488870000
    4      C       0.0108810000     0.0673580000    -0.0434130000
    5      C       0.9023810000     1.1321580000     0.3429870000
    6      C      -0.0305190000     0.0153580000    -1.4648130000
    7      C       0.7823810000     0.9843580000    -2.0856130000
    8      S       1.5816810000     1.9421580000    -0.9444130000
    9      C       0.9494810000     1.1763580000    -3.5387130000
   10      O       0.3517810000     0.4593580000    -4.3290130000
   11      O       1.7767810000     2.1572580000    -3.9831130000
   12      F      -0.7437190000    -0.8405420000    -2.2250130000
   13      C       2.0151810000     2.4254580000    -5.3137130000
   14      H       2.7258810000     3.2715580000    -5.3490130000
   15      H       1.0823810000     2.6999580000    -5.8543130000
   16      H       2.4530810000     1.5489580000    -5.8406130000
   17      C      -0.5729190000    -2.0636420000     1.0212870000
   18      H       0.1276810000    -2.0726420000     1.8430870000
   19      H      -1.2130190000    -2.7475420000     1.5588870000
   20      H       0.1451810000    -2.5880420000     0.4082870000
   21      H       1.6101810000     1.9713580000     2.3427870000
 ----------------------------------------------------------------
 Nuclear Repulsion Energy =        1093.27053730 hartrees
 There are       59 alpha and       59 beta electrons
 Requested basis set is cc-pVTZ
 There are 186 shells and 526 basis functions

 Total QAlloc Memory Limit 110000 MB
 Mega-Array Size       188 MB
 MEM_STATIC part       192 MB
 Discretize the solute cavity surface with Lebedev spheres
	Using 110 Lebedev grid points for each H atom
	Using 194 Lebedev grid points for other atoms
	Atomic van der Waals radii will be scaled by 1.20
 Remove points where switching function is < 1.0e-08
 Keep 1538 surface tesserae and discard 1948 interior tesserae
 Molecular Surface Area = 240.892 Angst**2
 Requested basis set is rimp2-cc-pVTZ
 There are 410 shells and 1426 basis functions
 A cutoff of  1.0D-10 yielded  11641 shell pairs
 There are     91551 function pairs (    119884 Cartesian)
 Smallest overlap matrix eigenvalue = 6.16E-05

 Scale SEOQF with 1.000000e-01/1.000000e-01/1.000000e-02

 Standard Electronic Orientation quadrupole field applied
 Nucleus-field energy     =     0.0000000131 hartrees
 Guess from superposition of atomic densities
 Warning:  Energy on first SCF cycle will be non-variational
 SAD guess density has 118.000000 electrons

 -----------------------------------------------------------------------
  General SCF calculation program by
  Eric Jon Sundstrom, Paul Horn, Yuezhi Mao, Dmitri Zuev, Alec White,
  David Stuck, Shaama M.S., Shane Yost, Joonho Lee, David Small,
  Daniel Levine, Susi Lehtola, Hugh Burton, Evgeny Epifanovsky,
  Bang C. Huynh
 -----------------------------------------------------------------------
 Hartree-Fock
 using 64 threads for integral computing
 -------------------------------------------------------
 OpenMP Integral computing Module                
 Release: version 1.0, May 2013, Q-Chem Inc. Pittsburgh 
 -------------------------------------------------------
 A restricted SCF calculation will be
 performed using DIIS
 SCF converges when DIIS error is below 1.0e-06
 ---------------------------------------
  Cycle       Energy         DIIS error
 ---------------------------------------
    1   -1394.6284530978      2.54e-02  
    2   -1388.9739856678      2.51e-03  
    3   -1389.1475739415      1.60e-03  
    4   -1389.2109758838      3.51e-04  
    5   -1389.2167600329      1.12e-04  
    6   -1389.2174581070      3.71e-05  
    7   -1389.2176105244      1.89e-05  
    8   -1389.2176646513      7.74e-06  
    9   -1389.2176778032      3.68e-06  
   10   -1389.2176801566      1.42e-06  
   11   -1389.2176805611      5.79e-07  Convergence criterion met
 ---------------------------------------
 SCF time:   CPU 1634.25s  wall 49.00s 

************** Final PCM Free Energy Summary **************
 G_electrostatic  =      -0.01322367 hartree =      -8.29797542 kcal/mol
 G_cavitation     =       0.00000000 hartree =       0.00000000 kcal/mol
 G_dispersion     =       0.00000000 hartree =       0.00000000 kcal/mol
 G_repulsion      =       0.00000000 hartree =       0.00000000 kcal/mol
 --------------------------------------------------
 Non-electrostatic Free Energy =       0.00000000 hartree =       0.00000000 kcal/mol
 Total                         =      -0.01322367 hartree =      -8.29797542 kcal/mol
 --------------------------------------------------
 SCF Energy (H0 + V/2)                       =   -1389.21768056 
 Solute Internal Energy (H0)                 =   -1389.20445690 
 Total Free Energy (H0 + V/2 + non-elec)     =   -1389.21768056 hartree
                                             = -871747.25183274 kcal/mol
***********************************************************

 SCF   energy in the final basis set =    -1389.2176805611
 Total energy in the final basis set =    -1389.2176805611


 --------------------------------------------------------------
  Generalized many-body perturbation theory program
  by Joonho Lee, Fazle Rob, Xintian Feng, Evgeny Epifanovsky

 No regularization used 
 (reg. param. = 0.0000e+00)
  (P|Q)^-1/2 Time:  CPU 34.83 s  wall 0.57 s

 In RI-MP2 calculation: 
 # of frozen core orbitals: 22

 Components of the RIMP2 correlation energy:
        aaaa    correlation energy =        -0.3306418476 a.u.
        abab    correlation energy =        -1.8524281914 a.u.
        bbbb    correlation energy =        -0.3306418476 a.u.
        non-Brillouin singles      =        -0.0000000000 a.u.
        total same-spin energy     =        -0.6612836952 a.u.
        total opposite-spin energy =        -1.8524281914 a.u.

 Total  RIMP2   correlation energy =        -2.5137118865 a.u.
        RIMP2         total energy =     -1391.7313924476 a.u.

 RI-MP2 Energy Time:  CPU 187.97 s  wall 3.90 s
 
 --------------------------------------------------------------
 
                    Orbital Energies (a.u.)
 --------------------------------------------------------------
 
 Alpha MOs
 -- Occupied --
-92.0014 -91.9921 -26.3333 -20.6118 -20.5498 -11.4098 -11.3754 -11.2980
-11.2965 -11.2931 -11.2914 -11.2883 -11.2752 -11.2233  -9.0014  -8.9962
 -6.6821  -6.6814  -6.6810  -6.6775  -6.6768  -6.6755  -1.6463  -1.4715
 -1.3669  -1.2303  -1.1516  -1.0665  -1.0307  -1.0027  -0.9697  -0.9057
 -0.8660  -0.7975  -0.7853  -0.7700  -0.7276  -0.7146  -0.6958  -0.6782
 -0.6757  -0.6696  -0.6088  -0.6057  -0.6008  -0.5894  -0.5676  -0.5653
 -0.5420  -0.5262  -0.5114  -0.4883  -0.4801  -0.4614  -0.4604  -0.4456
 -0.3932  -0.3440  -0.2786
 -- Virtual --
  0.0242   0.1143   0.1378   0.1553   0.1584   0.1687   0.1882   0.1965
  0.2040   0.2128   0.2170   0.2289   0.2332   0.2425   0.2598   0.2678
  0.2854   0.2993   0.3125   0.3377   0.3475   0.3610   0.3738   0.3747
  0.3802   0.3874   0.3970   0.4083   0.4194   0.4324   0.4343   0.4386
  0.4529   0.4647   0.4704   0.4757   0.4998   0.5010   0.5164   0.5220
  0.5260   0.5344   0.5396   0.5524   0.5595   0.5642   0.5691   0.5892
  0.5910   0.5934   0.6015   0.6101   0.6155   0.6204   0.6276   0.6303
  0.6401   0.6442   0.6476   0.6623   0.6669   0.6874   0.6936   0.6977
  0.7131   0.7176   0.7443   0.7482   0.7595   0.7778   0.7864   0.7984
  0.8002   0.8141   0.8332   0.8429   0.8492   0.8579   0.8858   0.8902
  0.8971   0.9058   0.9261   0.9284   0.9378   0.9433   0.9582   0.9702
  0.9885   0.9974   1.0053   1.0158   1.0280   1.0354   1.0480   1.0570
  1.0651   1.0758   1.0860   1.0885   1.1002   1.1048   1.1295   1.1382
  1.1499   1.1540   1.1653   1.1731   1.1802   1.1932   1.2012   1.2138
  1.2236   1.2378   1.2432   1.2587   1.2686   1.2833   1.3006   1.3103
  1.3290   1.3435   1.3474   1.3580   1.3647   1.3666   1.3931   1.4073
  1.4254   1.4339   1.4475   1.4595   1.4769   1.4838   1.4973   1.5031
  1.5127   1.5182   1.5270   1.5410   1.5598   1.5689   1.5766   1.6022
  1.6175   1.6518   1.6672   1.6747   1.6874   1.7087   1.7146   1.7274
  1.7371   1.7616   1.7823   1.8164   1.8224   1.8333   1.8400   1.8656
  1.8687   1.8768   1.8861   1.9214   1.9294   1.9415   1.9483   1.9692
  1.9958   2.0196   2.0297   2.0352   2.0593   2.0992   2.1111   2.1275
  2.1409   2.1455   2.1564   2.1611   2.1854   2.1969   2.2120   2.2249
  2.2473   2.2585   2.2638   2.2803   2.2909   2.2961   2.3273   2.3601
  2.3680   2.3803   2.4020   2.4222   2.4394   2.4625   2.4881   2.5085
  2.5294   2.5518   2.5568   2.5742   2.5792   2.5881   2.6278   2.6327
  2.6474   2.6593   2.6676   2.6843   2.6978   2.7059   2.7201   2.7304
  2.7411   2.7497   2.7621   2.7760   2.7861   2.8098   2.8201   2.8320
  2.8428   2.8607   2.8761   2.8879   2.9029   2.9343   2.9416   2.9456
  2.9669   2.9945   3.0285   3.0382   3.0389   3.0460   3.0571   3.0726
  3.0816   3.0914   3.0934   3.1079   3.1310   3.1358   3.1502   3.1628
  3.1734   3.1922   3.2045   3.2087   3.2175   3.2218   3.2384   3.2504
  3.2572   3.2639   3.2787   3.2881   3.2934   3.3035   3.3089   3.3286
  3.3385   3.3524   3.3657   3.3762   3.3801   3.3910   3.3983   3.4238
  3.4248   3.4369   3.4437   3.4602   3.4714   3.4785   3.4958   3.5005
  3.5118   3.5255   3.5384   3.5528   3.5612   3.5832   3.5846   3.5927
  3.6038   3.6078   3.6237   3.6385   3.6524   3.6618   3.6677   3.6763
  3.6846   3.7006   3.7104   3.7156   3.7235   3.7300   3.7373   3.7441
  3.7654   3.7864   3.8021   3.8180   3.8269   3.8291   3.8409   3.8510
  3.8555   3.8601   3.8696   3.8808   3.9000   3.9156   3.9264   3.9357
  3.9550   3.9835   3.9952   3.9984   4.0122   4.0348   4.0515   4.0588
  4.0768   4.0801   4.0896   4.1088   4.1215   4.1617   4.1729   4.1869
  4.2063   4.2240   4.2394   4.2770   4.2915   4.3055   4.3107   4.3481
  4.3660   4.3693   4.3768   4.3925   4.4159   4.4221   4.4356   4.4372
  4.4582   4.5011   4.5044   4.5160   4.5471   4.5561   4.5771   4.5876
  4.6369   4.6376   4.6432   4.6517   4.6702   4.7079   4.7257   4.7391
  4.7431   4.7862   4.8035   4.8191   4.8253   4.8706   4.9117   4.9321
  4.9712   5.0119   5.0128   5.0463   5.0683   5.0774   5.1221   5.1227
  5.1523   5.1947   5.2141   5.2261   5.2520   5.2593   5.2823   5.3523
  5.3555   5.3673   5.3970   5.4306   5.4385   5.4733   5.4828   5.5347
  5.5640   5.5875   5.6077   5.6179   5.6386   5.6625   5.7336   5.7915
  5.8011   5.8345   5.8606   5.8756   5.9121   5.9601   5.9701   6.0149
  6.0856   6.1209   6.1339   6.1700   6.1858   6.3089   6.3661   6.4262
  6.4627   6.5059   6.5568   6.6580   6.6771   6.7335   6.7392   6.8606
  6.8808   6.9904   7.1788   7.2105   7.3268   7.3738   7.3764   7.4267
  7.4629   7.4878   7.5179   7.5487   7.6049   7.7715   7.8316   7.9049
  8.0015   8.1225   8.4140   8.9290   9.0068   9.3638   9.4947   9.6885
 10.2068  11.2132  11.7709  11.9267  12.2641  12.5922  13.0280  13.3648
 13.7678  14.0752  14.5234
 --------------------------------------------------------------
 
          Ground-State Mulliken Net Atomic Charges

     Atom                 Charge (a.u.)
  ----------------------------------------
      1 C                     0.014578
      2 S                     0.079688
      3 C                    -0.225698
      4 C                    -0.094576
      5 C                    -0.017344
      6 C                     0.373360
      7 C                    -0.156642
      8 S                     0.034875
      9 C                     0.457942
     10 O                    -0.450145
     11 O                    -0.297806
     12 F                    -0.209854
     13 C                    -0.054618
     14 H                     0.116529
     15 H                     0.084497
     16 H                     0.084191
     17 C                    -0.382667
     18 H                     0.138349
     19 H                     0.148554
     20 H                     0.144979
     21 H                     0.211808
  ----------------------------------------
  Sum of atomic charges =     0.000000

 -----------------------------------------------------------------
                    Cartesian Multipole Moments
 -----------------------------------------------------------------
    Charge (ESU x 10^10)
                -0.0000
    Dipole Moment (Debye)
         X       2.6852      Y       0.9550      Z       3.7223
       Tot       4.6880
    Quadrupole Moments (Debye-Ang)
        XX     -92.9960     XY       4.2031     YY     -87.0707
        XZ      -6.5998     YZ     -10.5767     ZZ     -94.2570
    Octopole Moments (Debye-Ang^2)
       XXX    -163.8438    XXY     -51.0010    XYY     -43.7948
       YYY    -180.1696    XXZ      71.1515    XYZ      -7.7892
       YYZ      74.6578    XZZ       3.4218    YZZ       5.9583
       ZZZ     253.1680
    Hexadecapole Moments (Debye-Ang^3)
      XXXX    -748.5444   XXXY    -383.6952   XXYY    -302.5112
      XYYY    -370.5153   YYYY   -1202.1618   XXXZ     431.8504
      XXYZ     164.0522   XYYZ     111.6263   YYYZ     528.7320
      XXZZ    -664.6416   XYZZ      12.8714   YYZZ    -683.1815
      XZZZ     186.1188   YZZZ     258.7022   ZZZZ   -3779.7697
 -----------------------------------------------------------------
 Total job time:  55.79s(wall), 1884.82s(cpu) 
 Sun Sep 24 16:55:12 2023

        *************************************************************
        *                                                           *
        *  Thank you very much for using Q-Chem.  Have a nice day.  *
        *                                                           *
        *************************************************************


0 sent ACK to 0 
now end server 0 ... 
cleanup process ... done
remove work dirs ./qchem1927193.0 -- ./qchem1927193.0
rm -rf ./qchem1927193.0
rm -rf ./qchem1927193
