You are running Q-Chem version: 5.4.0

#
# job setting
#
local host:  exp-9-02
current dir: /expanse/lustre/projects/csd626/rramji/aromodel/PTB7_fin/Hydrogenated_Impropers_Test
input file:  fin_bdt_Phi_30_Theta_30_fin_ftt_Hydrogenated_Improper.qcin
output file: 
nprocs     : 1
nthreads   : 64
#
# qchem installation setting
#
QC:          /cm/shared/apps/spack/cpu/opt/spack/linux-centos8-zen2/gcc-10.2.0/qchem-5.4-akfmr7b3t57bfs6qan3padb2wnb2i7cl
QCAUX:       /cm/shared/apps/spack/cpu/opt/spack/linux-centos8-zen2/gcc-10.2.0/qchem-5.4-akfmr7b3t57bfs6qan3padb2wnb2i7cl/qcaux
QCPROG:      /cm/shared/apps/spack/cpu/opt/spack/linux-centos8-zen2/gcc-10.2.0/qchem-5.4-akfmr7b3t57bfs6qan3padb2wnb2i7cl/exe/qcprog.exe
QCPROG_S:    /cm/shared/apps/spack/cpu/opt/spack/linux-centos8-zen2/gcc-10.2.0/qchem-5.4-akfmr7b3t57bfs6qan3padb2wnb2i7cl/exe/qcprog.exe_s
PARALLEL:    -DPARALLEL
QCMPI:       mpich
#
# qchem directory setting
#
qcrun:       qchem632746
QCSCRATCH:   .
QCLOCALSCR:  
QCTMPDIR:    .
QCFILEPREF:  ./qchem632746
QCSAVEDIR:   
workdirs:    ./qchem632746
workdir0:    ./qchem632746
partmpdirs =  
#
# parallel setting
#
QCRSH:           ssh
QCMPI:           mpich
QCMPIRUN:        /cm/shared/apps/spack/cpu/opt/spack/linux-centos8-zen2/gcc-10.2.0/qchem-5.4-akfmr7b3t57bfs6qan3padb2wnb2i7cl/bin/mpi/mpirun_qchem
QCMACHINEFILE:   ./qchem632746/hostfile
exp-9-02

#
# env setting
#
exported envs:   QC QCAUX QCSCRATCH QCRUNNAME QCFILEPREF QCPROG QCPROG_S GUIFILE

Running Job 1 of 1 fin_bdt_Phi_30_Theta_30_fin_ftt_Hydrogenated_Improper.qcin
qchem fin_bdt_Phi_30_Theta_30_fin_ftt_Hydrogenated_Improper.qcin_632746.0 ./qchem632746/ 1
/cm/shared/apps/spack/cpu/opt/spack/linux-centos8-zen2/gcc-10.2.0/qchem-5.4-akfmr7b3t57bfs6qan3padb2wnb2i7cl/bin/mpi/mpirun_qchem -machinefile ./qchem632746/hostfile -np 1 /cm/shared/apps/spack/cpu/opt/spack/linux-centos8-zen2/gcc-10.2.0/qchem-5.4-akfmr7b3t57bfs6qan3padb2wnb2i7cl/exe/qcprog.exe fin_bdt_Phi_30_Theta_30_fin_ftt_Hydrogenated_Improper.qcin_632746.0 ./qchem632746/

Process 0 of 1 is on exp-9-02 - thread support 0
initial socket setup ...start
initial socket setup ...done 
now start server 0 ... 
                  Welcome to Q-Chem
     A Quantum Leap Into The Future Of Chemistry


 Q-Chem 5.4, Q-Chem, Inc., Pleasanton, CA (2021)

 License issued to: University of California, San Diego (site)

 E. Epifanovsky,  A. T. B. Gilbert,  Xintian Feng,  Joonho Lee,  Yuezhi Mao,  
 N. Mardirossian,  P. Pokhilko,  A. White,  M. Wormit,  M. P. Coons,  
 A. L. Dempwolff,  Zhengting Gan,  D. Hait,  P. R. Horn,  L. D. Jacobson,  
 I. Kaliman,  J. Kussmann,  A. W. Lange,  Ka Un Lao,  D. S. Levine,  Jie Liu,  
 S. C. McKenzie,  A. F. Morrison,  K. Nanda,  F. Plasser,  D. R. Rehn,  
 M. L. Vidal,  Zhi-Qiang You,  Ying Zhu,  B. Alam,  B. Albrecht,  
 A. Aldossary,  E. Alguire,  J. H. Andersen,  D. Barton,  K. Begam,  A. Behn,  
 Y. A. Bernard,  E. J. Berquist,  H. Burton,  A. Carreras,  K. Carter-Fenk,  
 R. Chakraborty,  A. D. Chien,  K. D. Closser,  V. Cofer-Shabica,  
 S. Dasgupta,  Jia Deng,  M. de Wergifosse,  M. Diedenhofen,  Hainam Do,  
 S. Ehlert,  Po-Tung Fang,  S. Fatehi,  Qingguo Feng,  J. Gayvert,  
 Qinghui Ge,  G. Gidofalvi,  M. Goldey,  J. Gomes,  C. Gonzalez-Espinoza,  
 S. Gulania,  A. Gunina,  M. W. D. Hanson-Heine,  P. H. P. Harbach,  
 A. W. Hauser,  M. F. Herbst,  M. Hernandez Vera,  M. Hodecker,  
 Z. C. Holden,  S. Houck,  Xunkun Huang,  Kerwin Hui,  B. C. Huynh,  
 M. Ivanov,  Hyunjun Ji,  Hanjie Jiang,  B. Kaduk,  S. Kaehler,  
 K. Khistyaev,  Jaehoon Kim,  P. Klunzinger,  Z. Koczor-Benda,  
 Joong Hoon Koh,  D. Kosenkov,  L. Koulias,  T. Kowalczyk,  C. M. Krauter,  
 K. Kue,  A. Kunitsa,  T. Kus,  A. Landau,  K. V. Lawler,  D. Lefrancois,  
 S. Lehtola,  Rain Li,  Yi-Pei Li,  Jiashu Liang,  M. Liebenthal,  
 Hung-Hsuan Lin,  You-Sheng Lin,  Fenglai Liu,  Kuan-Yu Liu,  
 M. Loipersberger,  A. Luenser,  A. Manjanath,  P. Manohar,  E. Mansoor,  
 S. F. Manzer,  Shan-Ping Mao,  A. V. Marenich,  T. Markovich,  S. Mason,  
 S. A. Maurer,  P. F. McLaughlin,  M. F. S. J. Menger,  J.-M. Mewes,  
 S. A. Mewes,  P. Morgante,  J. W. Mullinax,  T. S. Nguyen-Beck,  
 K. J. Oosterbaan,  G. Paran,  Alexander C. Paul,  Suranjan K. Paul,  
 F. Pavosevic,  Zheng Pei,  S. Prager,  E. I. Proynov,  E. Ramos,  B. Rana,  
 A. E. Rask,  A. Rettig,  R. M. Richard,  F. Rob,  E. Rossomme,  T. Scheele,  
 M. Scheurer,  M. Schneider,  N. Sergueev,  S. M. Sharada,  W. Skomorowski,  
 D. W. Small,  C. J. Stein,  Yu-Chuan Su,  E. J. Sundstrom,  Zhen Tao,  
 J. Thirman,  T. Tsuchimochi,  N. M. Tubman,  S. P. Veccham,  O. Vydrov,  
 J. Wenzel,  J. Witte,  A. Yamada,  Kun Yao,  S. Yeganeh,  S. R. Yost,  
 A. Zech,  Igor Ying Zhang,  Xing Zhang,  Yu Zhang,  D. Zuev,  
 A. Aspuru-Guzik,  A. T. Bell,  N. A. Besley,  K. B. Bravaya,  B. R. Brooks,  
 D. Casanova,  Jeng-Da Chai,  S. Coriani,  C. J. Cramer,  
 A. E. DePrince, III,  R. A. DiStasio Jr.,  A. Dreuw,  B. D. Dunietz,  
 T. R. Furlani,  W. A. Goddard III,  S. Grimme,  S. Hammes-Schiffer,  
 T. Head-Gordon,  W. J. Hehre,  Chao-Ping Hsu,  T.-C. Jagau,  Yousung Jung,  
 A. Klamt,  Jing Kong,  D. S. Lambrecht,  WanZhen Liang,  N. J. Mayhall,  
 C. W. McCurdy,  J. B. Neaton,  C. Ochsenfeld,  J. A. Parkhill,  R. Peverati,  
 V. A. Rassolov,  Yihan Shao,  L. V. Slipchenko,  T. Stauch,  R. P. Steele,  
 J. E. Subotnik,  A. J. W. Thom,  A. Tkatchenko,  D. G. Truhlar,  
 T. Van Voorhis,  T. A. Wesolowski,  K. B. Whaley,  H. L. Woodcock III,  
 P. M. Zimmerman,  S. Faraji,  P. M. W. Gill,  M. Head-Gordon,  
 J. M. Herbert,  A. I. Krylov

 Contributors to earlier versions of Q-Chem not listed above: 
 R. D. Adamson,  B. Austin,  R. Baer,  J. Baker,  G. J. O. Beran,  
 K. Brandhorst,  S. T. Brown,  E. F. C. Byrd,  A. K. Chakraborty,  
 G. K. L. Chan,  Chun-Min Chang,  Yunqing Chen,  C.-L. Cheng,  
 Siu Hung Chien,  D. M. Chipman,  D. L. Crittenden,  H. Dachsel,  
 R. J. Doerksen,  A. D. Dutoi,  R. G. Edgar,  J. Fosso-Tande,  
 L. Fusti-Molnar,  D. Ghosh,  A. Ghysels,  A. Golubeva-Zadorozhnaya,  
 J. Gonthier,  M. S. Gordon,  S. R. Gwaltney,  G. Hawkins,  J. E. Herr,  
 A. Heyden,  S. Hirata,  E. G. Hohenstein,  G. Kedziora,  F. J. Keil,  
 C. Kelley,  Jihan Kim,  R. A. King,  R. Z. Khaliullin,  P. P. Korambath,  
 W. Kurlancheek,  A. Laurent,  A. M. Lee,  M. S. Lee,  S. V. Levchenko,  
 Ching Yeh Lin,  D. Liotard,  E. Livshits,  R. C. Lochan,  I. Lotan,  
 L. A. Martinez-Martinez,  P. E. Maslen,  N. Nair,  D. P. O'Neill,  
 D. Neuhauser,  E. Neuscamman,  C. M. Oana,  R. Olivares-Amaya,  R. Olson,  
 T. M. Perrine,  B. Peters,  P. A. Pieniazek,  A. Prociuk,  Y. M. Rhee,  
 J. Ritchie,  M. A. Rohrdanz,  E. Rosta,  N. J. Russ,  H. F. Schaefer III,  
 M. W. Schmidt,  N. E. Schultz,  S. Sharma,  N. Shenvi,  C. D. Sherrill,  
 A. C. Simmonett,  A. Sodt,  T. Stein,  D. Stuck,  K. S. Thanthiriwatte,  
 V. Vanovschi,  L. Vogt,  Tao Wang,  A. Warshel,  M. A. Watson,  
 C. F. Williams,  Q. Wu,  X. Xu,  Jun Yang,  W. Zhang,  Yan Zhao

 Please cite Q-Chem as follows:
 Y. Shao et al., Mol. Phys. 113, 184-215 (2015)
 DOI: 10.1080/00268976.2014.952696

 Q-Chem 5.4.0 for Intel X86 EM64T Linux

 Parts of Q-Chem use Armadillo 9.800.1 (Horizon Scraper).
 http://arma.sourceforge.net/

 Q-Chem begins on Sun Sep 24 16:48:44 2023  

 Host: 
0

     Scratch files written to ./qchem632746//
 May1621 |scratch|qcdevops|jenkins|workspace|build_RNUM    
 Parallel job on  1  processors
 Processing $rem in /cm/shared/apps/spack/cpu/opt/spack/linux-centos8-zen2/gcc-10.2.0/qchem-5.4-akfmr7b3t57bfs6qan3padb2wnb2i7cl/config/preferences:
 Processing $rem in /home/rramji/.qchemrc:
 Symmetry turned off for PCM/SM12/SMD calculation
 Core orbitals will be frozen

 Checking the input file for inconsistencies... 	...done.

 Q-Chem warning in module forms1/BasisType.C, line 2236:

 You are not using the predefined 5D/6D in this basis set.


--------------------------------------------------------------
User input:
--------------------------------------------------------------
$molecule
0 1
C	-0.446967	-0.717327	1.021968
S	0.004633	0.060473	2.532668
C	0.791433	1.425273	1.749568
C	0.007133	0.069273	-0.042732
C	0.700233	1.272673	0.343668
C	-0.024667	0.010873	-1.464132
C	0.607633	1.106373	-2.084932
S	1.228533	2.188373	-0.943732
C	0.738933	1.324373	-3.538032
O	0.274733	0.514473	-4.328332
O	1.383333	2.434073	-3.982432
F	-0.578267	-0.955927	-2.224332
C	1.571533	2.739673	-5.313032
H	2.124533	3.696273	-5.348332
H	0.605233	2.847873	-5.853632
H	2.154933	1.952473	-5.839932
C	-0.446967	-2.152527	1.021968
H	0.492533	-2.161527	1.554568
H	-0.864567	-2.836427	1.746068
H	0.018133	-2.676927	0.200368
H	1.251433	2.221973	2.343468
$end

$rem
JOBTYPE		SP
EXCHANGE	HF
CORRELATION	pRIMP2
BASIS		cc-pvtz
METHOD		rimp2
AUX_BASIS	rimp2-cc-pvtz
SOLVENT_METHOD	PCM
PURECART	11111
SYMMETRY	false
MEM_TOTAL	110000
SCF_CONVERGENCE = 6
THRESH=10
GUI = 2
$end



$solvent
dielectric 4.90
$end
--------------------------------------------------------------
 ----------------------------------------------------------------
             Standard Nuclear Orientation (Angstroms)
    I     Atom           X                Y                Z
 ----------------------------------------------------------------
    1      C      -0.4469670000    -0.7173270000     1.0219680000
    2      S       0.0046330000     0.0604730000     2.5326680000
    3      C       0.7914330000     1.4252730000     1.7495680000
    4      C       0.0071330000     0.0692730000    -0.0427320000
    5      C       0.7002330000     1.2726730000     0.3436680000
    6      C      -0.0246670000     0.0108730000    -1.4641320000
    7      C       0.6076330000     1.1063730000    -2.0849320000
    8      S       1.2285330000     2.1883730000    -0.9437320000
    9      C       0.7389330000     1.3243730000    -3.5380320000
   10      O       0.2747330000     0.5144730000    -4.3283320000
   11      O       1.3833330000     2.4340730000    -3.9824320000
   12      F      -0.5782670000    -0.9559270000    -2.2243320000
   13      C       1.5715330000     2.7396730000    -5.3130320000
   14      H       2.1245330000     3.6962730000    -5.3483320000
   15      H       0.6052330000     2.8478730000    -5.8536320000
   16      H       2.1549330000     1.9524730000    -5.8399320000
   17      C      -0.4469670000    -2.1525270000     1.0219680000
   18      H       0.4925330000    -2.1615270000     1.5545680000
   19      H      -0.8645670000    -2.8364270000     1.7460680000
   20      H       0.0181330000    -2.6769270000     0.2003680000
   21      H       1.2514330000     2.2219730000     2.3434680000
 ----------------------------------------------------------------
 Nuclear Repulsion Energy =        1091.61949731 hartrees
 There are       59 alpha and       59 beta electrons
 Requested basis set is cc-pVTZ
 There are 186 shells and 526 basis functions

 Total QAlloc Memory Limit 110000 MB
 Mega-Array Size       188 MB
 MEM_STATIC part       192 MB
 Discretize the solute cavity surface with Lebedev spheres
	Using 110 Lebedev grid points for each H atom
	Using 194 Lebedev grid points for other atoms
	Atomic van der Waals radii will be scaled by 1.20
 Remove points where switching function is < 1.0e-08
 Keep 1560 surface tesserae and discard 1926 interior tesserae
 Molecular Surface Area = 241.045 Angst**2
 Requested basis set is rimp2-cc-pVTZ
 There are 410 shells and 1426 basis functions
 A cutoff of  1.0D-10 yielded  11616 shell pairs
 There are     91410 function pairs (    119704 Cartesian)
 Smallest overlap matrix eigenvalue = 6.06E-05

 Scale SEOQF with 1.000000e-01/1.000000e-01/1.000000e-02

 Standard Electronic Orientation quadrupole field applied
 Nucleus-field energy     =     0.0000000153 hartrees
 Guess from superposition of atomic densities
 Warning:  Energy on first SCF cycle will be non-variational
 SAD guess density has 118.000000 electrons

 -----------------------------------------------------------------------
  General SCF calculation program by
  Eric Jon Sundstrom, Paul Horn, Yuezhi Mao, Dmitri Zuev, Alec White,
  David Stuck, Shaama M.S., Shane Yost, Joonho Lee, David Small,
  Daniel Levine, Susi Lehtola, Hugh Burton, Evgeny Epifanovsky,
  Bang C. Huynh
 -----------------------------------------------------------------------
 Hartree-Fock
 using 64 threads for integral computing
 -------------------------------------------------------
 OpenMP Integral computing Module                
 Release: version 1.0, May 2013, Q-Chem Inc. Pittsburgh 
 -------------------------------------------------------
 A restricted SCF calculation will be
 performed using DIIS
 SCF converges when DIIS error is below 1.0e-06
 ---------------------------------------
  Cycle       Energy         DIIS error
 ---------------------------------------
    1   -1394.5921088914      2.53e-02  
    2   -1388.9970038811      2.51e-03  
    3   -1389.1699077875      1.58e-03  
    4   -1389.2317781837      3.48e-04  
    5   -1389.2374752288      1.11e-04  
    6   -1389.2381456968      3.66e-05  
    7   -1389.2382907905      1.83e-05  
    8   -1389.2383394321      7.25e-06  
    9   -1389.2383501175      3.28e-06  
   10   -1389.2383518082      1.24e-06  
   11   -1389.2383520789      4.83e-07  Convergence criterion met
 ---------------------------------------
 SCF time:   CPU 1690.95s  wall 48.00s 

************** Final PCM Free Energy Summary **************
 G_electrostatic  =      -0.01362854 hartree =      -8.55203659 kcal/mol
 G_cavitation     =       0.00000000 hartree =       0.00000000 kcal/mol
 G_dispersion     =       0.00000000 hartree =       0.00000000 kcal/mol
 G_repulsion      =       0.00000000 hartree =       0.00000000 kcal/mol
 --------------------------------------------------
 Non-electrostatic Free Energy =       0.00000000 hartree =       0.00000000 kcal/mol
 Total                         =      -0.01362854 hartree =      -8.55203659 kcal/mol
 --------------------------------------------------
 SCF Energy (H0 + V/2)                       =   -1389.23835208 
 Solute Internal Energy (H0)                 =   -1389.22472354 
 Total Free Energy (H0 + V/2 + non-elec)     =   -1389.23835208 hartree
                                             = -871760.22340597 kcal/mol
***********************************************************

 SCF   energy in the final basis set =    -1389.2383520789
 Total energy in the final basis set =    -1389.2383520789


 --------------------------------------------------------------
  Generalized many-body perturbation theory program
  by Joonho Lee, Fazle Rob, Xintian Feng, Evgeny Epifanovsky

 No regularization used 
 (reg. param. = 0.0000e+00)
  (P|Q)^-1/2 Time:  CPU 19.33 s  wall 0.31 s

 In RI-MP2 calculation: 
 # of frozen core orbitals: 22

 Components of the RIMP2 correlation energy:
        aaaa    correlation energy =        -0.3294875038 a.u.
        abab    correlation energy =        -1.8483333752 a.u.
        bbbb    correlation energy =        -0.3294875038 a.u.
        non-Brillouin singles      =        -0.0000000000 a.u.
        total same-spin energy     =        -0.6589750077 a.u.
        total opposite-spin energy =        -1.8483333752 a.u.

 Total  RIMP2   correlation energy =        -2.5073083829 a.u.
        RIMP2         total energy =     -1391.7456604619 a.u.

 RI-MP2 Energy Time:  CPU 172.64 s  wall 3.02 s
 
 --------------------------------------------------------------
 
                    Orbital Energies (a.u.)
 --------------------------------------------------------------
 
 Alpha MOs
 -- Occupied --
-92.0023 -91.9893 -26.3338 -20.6103 -20.5470 -11.4075 -11.3764 -11.3119
-11.2915 -11.2909 -11.2876 -11.2829 -11.2708 -11.2316  -9.0019  -8.9935
 -6.6827  -6.6820  -6.6815  -6.6748  -6.6742  -6.6728  -1.6467  -1.4698
 -1.3648  -1.2284  -1.1498  -1.0669  -1.0287  -1.0043  -0.9684  -0.9084
 -0.8639  -0.7966  -0.7847  -0.7678  -0.7267  -0.7147  -0.6958  -0.6770
 -0.6766  -0.6681  -0.6096  -0.6040  -0.6009  -0.5874  -0.5754  -0.5611
 -0.5394  -0.5259  -0.5149  -0.4917  -0.4791  -0.4605  -0.4583  -0.4533
 -0.3922  -0.3463  -0.2741
 -- Virtual --
  0.0345   0.1168   0.1369   0.1555   0.1586   0.1715   0.1929   0.1976
  0.2010   0.2103   0.2164   0.2273   0.2311   0.2449   0.2628   0.2731
  0.2865   0.3079   0.3219   0.3366   0.3459   0.3532   0.3690   0.3761
  0.3809   0.3887   0.4059   0.4101   0.4193   0.4297   0.4357   0.4400
  0.4550   0.4634   0.4704   0.4844   0.5023   0.5078   0.5135   0.5208
  0.5275   0.5362   0.5417   0.5497   0.5576   0.5639   0.5671   0.5874
  0.5945   0.5965   0.6031   0.6090   0.6141   0.6186   0.6268   0.6346
  0.6389   0.6436   0.6495   0.6622   0.6703   0.6911   0.6962   0.7001
  0.7144   0.7299   0.7450   0.7515   0.7650   0.7756   0.7857   0.7940
  0.8022   0.8130   0.8356   0.8400   0.8469   0.8638   0.8814   0.8886
  0.8938   0.8999   0.9214   0.9291   0.9347   0.9404   0.9660   0.9799
  0.9806   0.9985   1.0054   1.0154   1.0270   1.0372   1.0479   1.0530
  1.0638   1.0737   1.0851   1.0884   1.0986   1.1003   1.1231   1.1453
  1.1493   1.1547   1.1639   1.1714   1.1812   1.1900   1.2004   1.2176
  1.2228   1.2363   1.2482   1.2533   1.2676   1.2853   1.3025   1.3080
  1.3231   1.3387   1.3462   1.3518   1.3605   1.3702   1.3903   1.4091
  1.4232   1.4359   1.4497   1.4728   1.4817   1.4846   1.4888   1.5012
  1.5093   1.5135   1.5187   1.5444   1.5592   1.5615   1.5856   1.5991
  1.6181   1.6455   1.6679   1.6715   1.6865   1.6998   1.7153   1.7284
  1.7385   1.7632   1.7684   1.8142   1.8348   1.8355   1.8426   1.8683
  1.8747   1.8882   1.8941   1.9245   1.9321   1.9429   1.9505   1.9808
  2.0112   2.0184   2.0280   2.0446   2.0537   2.1004   2.1116   2.1297
  2.1418   2.1551   2.1604   2.1718   2.1980   2.2016   2.2152   2.2241
  2.2452   2.2649   2.2791   2.2824   2.2861   2.3000   2.3286   2.3620
  2.3707   2.3814   2.3958   2.4226   2.4418   2.4656   2.4798   2.4938
  2.5302   2.5503   2.5571   2.5748   2.5843   2.5983   2.6280   2.6326
  2.6455   2.6633   2.6686   2.6735   2.6898   2.7014   2.7261   2.7337
  2.7416   2.7471   2.7666   2.7750   2.7863   2.8028   2.8181   2.8335
  2.8496   2.8609   2.8760   2.8865   2.9118   2.9314   2.9393   2.9460
  2.9712   2.9901   3.0194   3.0398   3.0416   3.0452   3.0531   3.0675
  3.0850   3.0933   3.0975   3.1032   3.1267   3.1343   3.1425   3.1607
  3.1676   3.1705   3.1960   3.2052   3.2099   3.2144   3.2305   3.2537
  3.2578   3.2668   3.2810   3.2845   3.2948   3.3022   3.3072   3.3190
  3.3444   3.3562   3.3611   3.3695   3.3788   3.4008   3.4033   3.4220
  3.4373   3.4446   3.4487   3.4605   3.4702   3.4826   3.4953   3.4979
  3.5138   3.5198   3.5323   3.5426   3.5660   3.5846   3.5865   3.5896
  3.6024   3.6053   3.6211   3.6371   3.6412   3.6496   3.6643   3.6727
  3.6745   3.6948   3.6997   3.7118   3.7235   3.7306   3.7313   3.7444
  3.7580   3.7613   3.7899   3.8041   3.8236   3.8321   3.8365   3.8454
  3.8556   3.8617   3.8690   3.8797   3.9000   3.9050   3.9316   3.9473
  3.9558   3.9783   3.9866   3.9946   4.0105   4.0420   4.0544   4.0587
  4.0670   4.0757   4.0890   4.1167   4.1259   4.1479   4.1725   4.1790
  4.1933   4.2306   4.2614   4.2714   4.2900   4.2981   4.3139   4.3487
  4.3663   4.3761   4.3776   4.3942   4.4047   4.4152   4.4224   4.4370
  4.4401   4.4941   4.5029   4.5148   4.5306   4.5612   4.5742   4.5887
  4.6363   4.6421   4.6532   4.6602   4.6737   4.7010   4.7215   4.7359
  4.7493   4.7819   4.7958   4.7975   4.8189   4.8727   4.9147   4.9225
  4.9747   5.0121   5.0192   5.0283   5.0698   5.0796   5.1192   5.1447
  5.1490   5.1972   5.2182   5.2296   5.2549   5.2601   5.2956   5.3556
  5.3566   5.3712   5.4065   5.4229   5.4349   5.4739   5.4812   5.5352
  5.5544   5.5856   5.6141   5.6201   5.6402   5.6567   5.7351   5.7899
  5.8026   5.8237   5.8460   5.8669   5.9262   5.9719   5.9743   6.0344
  6.0828   6.1246   6.1349   6.1862   6.2337   6.3102   6.3643   6.4504
  6.4586   6.5095   6.5585   6.6606   6.6791   6.7374   6.7402   6.8630
  6.8828   6.9930   7.1803   7.2123   7.3290   7.3733   7.3760   7.4288
  7.4644   7.4872   7.5181   7.5509   7.6083   7.7709   7.8333   7.9073
  8.0022   8.1222   8.4121   8.9286   9.0058   9.3637   9.4958   9.6859
 10.1816  11.2200  11.6261  11.9296  12.2810  12.6179  13.0839  13.3667
 13.7514  14.0678  14.6271
 --------------------------------------------------------------
 
          Ground-State Mulliken Net Atomic Charges

     Atom                 Charge (a.u.)
  ----------------------------------------
      1 C                     0.063309
      2 S                     0.076317
      3 C                    -0.254851
      4 C                    -0.126697
      5 C                    -0.010234
      6 C                     0.373725
      7 C                    -0.163419
      8 S                     0.029034
      9 C                     0.458354
     10 O                    -0.455156
     11 O                    -0.298629
     12 F                    -0.210411
     13 C                    -0.054836
     14 H                     0.116224
     15 H                     0.083973
     16 H                     0.083778
     17 C                    -0.375035
     18 H                     0.147444
     19 H                     0.160386
     20 H                     0.146362
     21 H                     0.210364
  ----------------------------------------
  Sum of atomic charges =     0.000000

 -----------------------------------------------------------------
                    Cartesian Multipole Moments
 -----------------------------------------------------------------
    Charge (ESU x 10^10)
                -0.0000
    Dipole Moment (Debye)
         X       1.9846      Y       0.4435      Z       3.8278
       Tot       4.3345
    Quadrupole Moments (Debye-Ang)
        XX     -94.7620     XY       3.0805     YY     -84.7336
        XZ      -4.9931     YZ     -11.7321     ZZ     -95.6633
    Octopole Moments (Debye-Ang^2)
       XXX    -131.7480    XXY     -63.7903    XYY     -31.0425
       YYY    -206.7484    XXZ      74.1577    XYZ      -7.5111
       YYZ      72.5286    XZZ       1.6012    YZZ       3.8676
       ZZZ     257.4398
    Hexadecapole Moments (Debye-Ang^3)
      XXXX    -506.8456   XXXY    -347.0600   XXYY    -317.1675
      XYYY    -313.4080   YYYY   -1432.5804   XXXZ     343.8393
      XXYZ     197.8632   XYYZ      79.3482   YYYZ     575.9623
      XXZZ    -672.2429   XYZZ      10.2287   YYZZ    -680.6806
      XZZZ     147.1959   YZZZ     290.7822   ZZZZ   -3802.4404
 -----------------------------------------------------------------
 Total job time:  54.14s(wall), 1962.56s(cpu) 
 Sun Sep 24 16:49:38 2023

        *************************************************************
        *                                                           *
        *  Thank you very much for using Q-Chem.  Have a nice day.  *
        *                                                           *
        *************************************************************


0 sent ACK to 0 
now end server 0 ... 
cleanup process ... done
remove work dirs ./qchem632746.0 -- ./qchem632746.0
rm -rf ./qchem632746.0
rm -rf ./qchem632746
