You are running Q-Chem version: 5.4.0

#
# job setting
#
local host:  exp-9-02
current dir: /expanse/lustre/projects/csd626/rramji/aromodel/PTB7_fin/Hydrogenated_Impropers_Test
input file:  fin_bdt_Phi_30_Theta_350_fin_ftt_Hydrogenated_Improper.qcin
output file: 
nprocs     : 1
nthreads   : 64
#
# qchem installation setting
#
QC:          /cm/shared/apps/spack/cpu/opt/spack/linux-centos8-zen2/gcc-10.2.0/qchem-5.4-akfmr7b3t57bfs6qan3padb2wnb2i7cl
QCAUX:       /cm/shared/apps/spack/cpu/opt/spack/linux-centos8-zen2/gcc-10.2.0/qchem-5.4-akfmr7b3t57bfs6qan3padb2wnb2i7cl/qcaux
QCPROG:      /cm/shared/apps/spack/cpu/opt/spack/linux-centos8-zen2/gcc-10.2.0/qchem-5.4-akfmr7b3t57bfs6qan3padb2wnb2i7cl/exe/qcprog.exe
QCPROG_S:    /cm/shared/apps/spack/cpu/opt/spack/linux-centos8-zen2/gcc-10.2.0/qchem-5.4-akfmr7b3t57bfs6qan3padb2wnb2i7cl/exe/qcprog.exe_s
PARALLEL:    -DPARALLEL
QCMPI:       mpich
#
# qchem directory setting
#
qcrun:       qchem645533
QCSCRATCH:   .
QCLOCALSCR:  
QCTMPDIR:    .
QCFILEPREF:  ./qchem645533
QCSAVEDIR:   
workdirs:    ./qchem645533
workdir0:    ./qchem645533
partmpdirs =  
#
# parallel setting
#
QCRSH:           ssh
QCMPI:           mpich
QCMPIRUN:        /cm/shared/apps/spack/cpu/opt/spack/linux-centos8-zen2/gcc-10.2.0/qchem-5.4-akfmr7b3t57bfs6qan3padb2wnb2i7cl/bin/mpi/mpirun_qchem
QCMACHINEFILE:   ./qchem645533/hostfile
exp-9-02

#
# env setting
#
exported envs:   QC QCAUX QCSCRATCH QCRUNNAME QCFILEPREF QCPROG QCPROG_S GUIFILE

Running Job 1 of 1 fin_bdt_Phi_30_Theta_350_fin_ftt_Hydrogenated_Improper.qcin
qchem fin_bdt_Phi_30_Theta_350_fin_ftt_Hydrogenated_Improper.qcin_645533.0 ./qchem645533/ 1
/cm/shared/apps/spack/cpu/opt/spack/linux-centos8-zen2/gcc-10.2.0/qchem-5.4-akfmr7b3t57bfs6qan3padb2wnb2i7cl/bin/mpi/mpirun_qchem -machinefile ./qchem645533/hostfile -np 1 /cm/shared/apps/spack/cpu/opt/spack/linux-centos8-zen2/gcc-10.2.0/qchem-5.4-akfmr7b3t57bfs6qan3padb2wnb2i7cl/exe/qcprog.exe fin_bdt_Phi_30_Theta_350_fin_ftt_Hydrogenated_Improper.qcin_645533.0 ./qchem645533/

Process 0 of 1 is on exp-9-02 - thread support 0
initial socket setup ...start
initial socket setup ...done 
now start server 0 ... 
                  Welcome to Q-Chem
     A Quantum Leap Into The Future Of Chemistry


 Q-Chem 5.4, Q-Chem, Inc., Pleasanton, CA (2021)

 License issued to: University of California, San Diego (site)

 E. Epifanovsky,  A. T. B. Gilbert,  Xintian Feng,  Joonho Lee,  Yuezhi Mao,  
 N. Mardirossian,  P. Pokhilko,  A. White,  M. Wormit,  M. P. Coons,  
 A. L. Dempwolff,  Zhengting Gan,  D. Hait,  P. R. Horn,  L. D. Jacobson,  
 I. Kaliman,  J. Kussmann,  A. W. Lange,  Ka Un Lao,  D. S. Levine,  Jie Liu,  
 S. C. McKenzie,  A. F. Morrison,  K. Nanda,  F. Plasser,  D. R. Rehn,  
 M. L. Vidal,  Zhi-Qiang You,  Ying Zhu,  B. Alam,  B. Albrecht,  
 A. Aldossary,  E. Alguire,  J. H. Andersen,  D. Barton,  K. Begam,  A. Behn,  
 Y. A. Bernard,  E. J. Berquist,  H. Burton,  A. Carreras,  K. Carter-Fenk,  
 R. Chakraborty,  A. D. Chien,  K. D. Closser,  V. Cofer-Shabica,  
 S. Dasgupta,  Jia Deng,  M. de Wergifosse,  M. Diedenhofen,  Hainam Do,  
 S. Ehlert,  Po-Tung Fang,  S. Fatehi,  Qingguo Feng,  J. Gayvert,  
 Qinghui Ge,  G. Gidofalvi,  M. Goldey,  J. Gomes,  C. Gonzalez-Espinoza,  
 S. Gulania,  A. Gunina,  M. W. D. Hanson-Heine,  P. H. P. Harbach,  
 A. W. Hauser,  M. F. Herbst,  M. Hernandez Vera,  M. Hodecker,  
 Z. C. Holden,  S. Houck,  Xunkun Huang,  Kerwin Hui,  B. C. Huynh,  
 M. Ivanov,  Hyunjun Ji,  Hanjie Jiang,  B. Kaduk,  S. Kaehler,  
 K. Khistyaev,  Jaehoon Kim,  P. Klunzinger,  Z. Koczor-Benda,  
 Joong Hoon Koh,  D. Kosenkov,  L. Koulias,  T. Kowalczyk,  C. M. Krauter,  
 K. Kue,  A. Kunitsa,  T. Kus,  A. Landau,  K. V. Lawler,  D. Lefrancois,  
 S. Lehtola,  Rain Li,  Yi-Pei Li,  Jiashu Liang,  M. Liebenthal,  
 Hung-Hsuan Lin,  You-Sheng Lin,  Fenglai Liu,  Kuan-Yu Liu,  
 M. Loipersberger,  A. Luenser,  A. Manjanath,  P. Manohar,  E. Mansoor,  
 S. F. Manzer,  Shan-Ping Mao,  A. V. Marenich,  T. Markovich,  S. Mason,  
 S. A. Maurer,  P. F. McLaughlin,  M. F. S. J. Menger,  J.-M. Mewes,  
 S. A. Mewes,  P. Morgante,  J. W. Mullinax,  T. S. Nguyen-Beck,  
 K. J. Oosterbaan,  G. Paran,  Alexander C. Paul,  Suranjan K. Paul,  
 F. Pavosevic,  Zheng Pei,  S. Prager,  E. I. Proynov,  E. Ramos,  B. Rana,  
 A. E. Rask,  A. Rettig,  R. M. Richard,  F. Rob,  E. Rossomme,  T. Scheele,  
 M. Scheurer,  M. Schneider,  N. Sergueev,  S. M. Sharada,  W. Skomorowski,  
 D. W. Small,  C. J. Stein,  Yu-Chuan Su,  E. J. Sundstrom,  Zhen Tao,  
 J. Thirman,  T. Tsuchimochi,  N. M. Tubman,  S. P. Veccham,  O. Vydrov,  
 J. Wenzel,  J. Witte,  A. Yamada,  Kun Yao,  S. Yeganeh,  S. R. Yost,  
 A. Zech,  Igor Ying Zhang,  Xing Zhang,  Yu Zhang,  D. Zuev,  
 A. Aspuru-Guzik,  A. T. Bell,  N. A. Besley,  K. B. Bravaya,  B. R. Brooks,  
 D. Casanova,  Jeng-Da Chai,  S. Coriani,  C. J. Cramer,  
 A. E. DePrince, III,  R. A. DiStasio Jr.,  A. Dreuw,  B. D. Dunietz,  
 T. R. Furlani,  W. A. Goddard III,  S. Grimme,  S. Hammes-Schiffer,  
 T. Head-Gordon,  W. J. Hehre,  Chao-Ping Hsu,  T.-C. Jagau,  Yousung Jung,  
 A. Klamt,  Jing Kong,  D. S. Lambrecht,  WanZhen Liang,  N. J. Mayhall,  
 C. W. McCurdy,  J. B. Neaton,  C. Ochsenfeld,  J. A. Parkhill,  R. Peverati,  
 V. A. Rassolov,  Yihan Shao,  L. V. Slipchenko,  T. Stauch,  R. P. Steele,  
 J. E. Subotnik,  A. J. W. Thom,  A. Tkatchenko,  D. G. Truhlar,  
 T. Van Voorhis,  T. A. Wesolowski,  K. B. Whaley,  H. L. Woodcock III,  
 P. M. Zimmerman,  S. Faraji,  P. M. W. Gill,  M. Head-Gordon,  
 J. M. Herbert,  A. I. Krylov

 Contributors to earlier versions of Q-Chem not listed above: 
 R. D. Adamson,  B. Austin,  R. Baer,  J. Baker,  G. J. O. Beran,  
 K. Brandhorst,  S. T. Brown,  E. F. C. Byrd,  A. K. Chakraborty,  
 G. K. L. Chan,  Chun-Min Chang,  Yunqing Chen,  C.-L. Cheng,  
 Siu Hung Chien,  D. M. Chipman,  D. L. Crittenden,  H. Dachsel,  
 R. J. Doerksen,  A. D. Dutoi,  R. G. Edgar,  J. Fosso-Tande,  
 L. Fusti-Molnar,  D. Ghosh,  A. Ghysels,  A. Golubeva-Zadorozhnaya,  
 J. Gonthier,  M. S. Gordon,  S. R. Gwaltney,  G. Hawkins,  J. E. Herr,  
 A. Heyden,  S. Hirata,  E. G. Hohenstein,  G. Kedziora,  F. J. Keil,  
 C. Kelley,  Jihan Kim,  R. A. King,  R. Z. Khaliullin,  P. P. Korambath,  
 W. Kurlancheek,  A. Laurent,  A. M. Lee,  M. S. Lee,  S. V. Levchenko,  
 Ching Yeh Lin,  D. Liotard,  E. Livshits,  R. C. Lochan,  I. Lotan,  
 L. A. Martinez-Martinez,  P. E. Maslen,  N. Nair,  D. P. O'Neill,  
 D. Neuhauser,  E. Neuscamman,  C. M. Oana,  R. Olivares-Amaya,  R. Olson,  
 T. M. Perrine,  B. Peters,  P. A. Pieniazek,  A. Prociuk,  Y. M. Rhee,  
 J. Ritchie,  M. A. Rohrdanz,  E. Rosta,  N. J. Russ,  H. F. Schaefer III,  
 M. W. Schmidt,  N. E. Schultz,  S. Sharma,  N. Shenvi,  C. D. Sherrill,  
 A. C. Simmonett,  A. Sodt,  T. Stein,  D. Stuck,  K. S. Thanthiriwatte,  
 V. Vanovschi,  L. Vogt,  Tao Wang,  A. Warshel,  M. A. Watson,  
 C. F. Williams,  Q. Wu,  X. Xu,  Jun Yang,  W. Zhang,  Yan Zhao

 Please cite Q-Chem as follows:
 Y. Shao et al., Mol. Phys. 113, 184-215 (2015)
 DOI: 10.1080/00268976.2014.952696

 Q-Chem 5.4.0 for Intel X86 EM64T Linux

 Parts of Q-Chem use Armadillo 9.800.1 (Horizon Scraper).
 http://arma.sourceforge.net/

 Q-Chem begins on Sun Sep 24 17:19:39 2023  

 Host: 
0

     Scratch files written to ./qchem645533//
 May1621 |scratch|qcdevops|jenkins|workspace|build_RNUM    
 Parallel job on  1  processors
 Processing $rem in /cm/shared/apps/spack/cpu/opt/spack/linux-centos8-zen2/gcc-10.2.0/qchem-5.4-akfmr7b3t57bfs6qan3padb2wnb2i7cl/config/preferences:
 Processing $rem in /home/rramji/.qchemrc:
 Symmetry turned off for PCM/SM12/SMD calculation
 Core orbitals will be frozen

 Checking the input file for inconsistencies... 	...done.

 Q-Chem warning in module forms1/BasisType.C, line 2236:

 You are not using the predefined 5D/6D in this basis set.


--------------------------------------------------------------
User input:
--------------------------------------------------------------
$molecule
0 1
C	-0.447074	-0.717327	1.023580
S	0.004526	0.060473	2.534280
C	0.791326	1.425273	1.751180
C	0.007026	0.069273	-0.041120
C	0.700126	1.272673	0.345280
C	-0.024774	0.010873	-1.462520
C	0.607526	1.106373	-2.083320
S	1.228426	2.188373	-0.942120
C	0.738826	1.324373	-3.536420
O	0.274626	0.514473	-4.326720
O	1.383226	2.434073	-3.980820
F	-0.578374	-0.955927	-2.222720
C	1.571426	2.739673	-5.311420
H	2.124426	3.696273	-5.346720
H	0.605126	2.847873	-5.852020
H	2.154826	1.952473	-5.838320
C	-0.447074	-2.152527	1.023580
H	0.615026	-2.161527	0.827680
H	-0.301574	-2.836427	1.846680
H	-0.618874	-2.676927	0.095180
H	1.251326	2.221973	2.345080
$end

$rem
JOBTYPE		SP
EXCHANGE	HF
CORRELATION	pRIMP2
BASIS		cc-pvtz
METHOD		rimp2
AUX_BASIS	rimp2-cc-pvtz
SOLVENT_METHOD	PCM
PURECART	11111
SYMMETRY	false
MEM_TOTAL	110000
SCF_CONVERGENCE = 6
THRESH=10
GUI = 2
$end



$solvent
dielectric 4.90
$end
--------------------------------------------------------------
 ----------------------------------------------------------------
             Standard Nuclear Orientation (Angstroms)
    I     Atom           X                Y                Z
 ----------------------------------------------------------------
    1      C      -0.4470740000    -0.7173270000     1.0235800000
    2      S       0.0045260000     0.0604730000     2.5342800000
    3      C       0.7913260000     1.4252730000     1.7511800000
    4      C       0.0070260000     0.0692730000    -0.0411200000
    5      C       0.7001260000     1.2726730000     0.3452800000
    6      C      -0.0247740000     0.0108730000    -1.4625200000
    7      C       0.6075260000     1.1063730000    -2.0833200000
    8      S       1.2284260000     2.1883730000    -0.9421200000
    9      C       0.7388260000     1.3243730000    -3.5364200000
   10      O       0.2746260000     0.5144730000    -4.3267200000
   11      O       1.3832260000     2.4340730000    -3.9808200000
   12      F      -0.5783740000    -0.9559270000    -2.2227200000
   13      C       1.5714260000     2.7396730000    -5.3114200000
   14      H       2.1244260000     3.6962730000    -5.3467200000
   15      H       0.6051260000     2.8478730000    -5.8520200000
   16      H       2.1548260000     1.9524730000    -5.8383200000
   17      C      -0.4470740000    -2.1525270000     1.0235800000
   18      H       0.6150260000    -2.1615270000     0.8276800000
   19      H      -0.3015740000    -2.8364270000     1.8466800000
   20      H      -0.6188740000    -2.6769270000     0.0951800000
   21      H       1.2513260000     2.2219730000     2.3450800000
 ----------------------------------------------------------------
 Nuclear Repulsion Energy =        1092.10489449 hartrees
 There are       59 alpha and       59 beta electrons
 Requested basis set is cc-pVTZ
 There are 186 shells and 526 basis functions

 Total QAlloc Memory Limit 110000 MB
 Mega-Array Size       188 MB
 MEM_STATIC part       192 MB
 Discretize the solute cavity surface with Lebedev spheres
	Using 110 Lebedev grid points for each H atom
	Using 194 Lebedev grid points for other atoms
	Atomic van der Waals radii will be scaled by 1.20
 Remove points where switching function is < 1.0e-08
 Keep 1558 surface tesserae and discard 1928 interior tesserae
 Molecular Surface Area = 241.129 Angst**2
 Requested basis set is rimp2-cc-pVTZ
 There are 410 shells and 1426 basis functions
 A cutoff of  1.0D-10 yielded  11665 shell pairs
 There are     91761 function pairs (    120144 Cartesian)
 Smallest overlap matrix eigenvalue = 5.95E-05

 Scale SEOQF with 1.000000e-01/1.000000e-01/1.000000e-02

 Standard Electronic Orientation quadrupole field applied
 Nucleus-field energy     =     0.0000000153 hartrees
 Guess from superposition of atomic densities
 Warning:  Energy on first SCF cycle will be non-variational
 SAD guess density has 118.000000 electrons

 -----------------------------------------------------------------------
  General SCF calculation program by
  Eric Jon Sundstrom, Paul Horn, Yuezhi Mao, Dmitri Zuev, Alec White,
  David Stuck, Shaama M.S., Shane Yost, Joonho Lee, David Small,
  Daniel Levine, Susi Lehtola, Hugh Burton, Evgeny Epifanovsky,
  Bang C. Huynh
 -----------------------------------------------------------------------
 Hartree-Fock
 using 64 threads for integral computing
 -------------------------------------------------------
 OpenMP Integral computing Module                
 Release: version 1.0, May 2013, Q-Chem Inc. Pittsburgh 
 -------------------------------------------------------
 A restricted SCF calculation will be
 performed using DIIS
 SCF converges when DIIS error is below 1.0e-06
 ---------------------------------------
  Cycle       Energy         DIIS error
 ---------------------------------------
    1   -1394.5854185834      2.53e-02  
    2   -1389.0005847018      2.50e-03  
    3   -1389.1731352791      1.57e-03  
    4   -1389.2344999227      3.47e-04  
    5   -1389.2401669135      1.10e-04  
    6   -1389.2408219494      3.61e-05  
    7   -1389.2409620251      1.80e-05  
    8   -1389.2410079037      7.13e-06  
    9   -1389.2410179095      3.24e-06  
   10   -1389.2410195173      1.23e-06  
   11   -1389.2410197841      4.77e-07  Convergence criterion met
 ---------------------------------------
 SCF time:   CPU 1696.14s  wall 49.00s 

************** Final PCM Free Energy Summary **************
 G_electrostatic  =      -0.01352229 hartree =      -8.48536644 kcal/mol
 G_cavitation     =       0.00000000 hartree =       0.00000000 kcal/mol
 G_dispersion     =       0.00000000 hartree =       0.00000000 kcal/mol
 G_repulsion      =       0.00000000 hartree =       0.00000000 kcal/mol
 --------------------------------------------------
 Non-electrostatic Free Energy =       0.00000000 hartree =       0.00000000 kcal/mol
 Total                         =      -0.01352229 hartree =      -8.48536644 kcal/mol
 --------------------------------------------------
 SCF Energy (H0 + V/2)                       =   -1389.24101978 
 Solute Internal Energy (H0)                 =   -1389.22749749 
 Total Free Energy (H0 + V/2 + non-elec)     =   -1389.24101978 hartree
                                             = -871761.89741619 kcal/mol
***********************************************************

 SCF   energy in the final basis set =    -1389.2410197841
 Total energy in the final basis set =    -1389.2410197841


 --------------------------------------------------------------
  Generalized many-body perturbation theory program
  by Joonho Lee, Fazle Rob, Xintian Feng, Evgeny Epifanovsky

 No regularization used 
 (reg. param. = 0.0000e+00)
  (P|Q)^-1/2 Time:  CPU 32.13 s  wall 0.52 s

 In RI-MP2 calculation: 
 # of frozen core orbitals: 22

 Components of the RIMP2 correlation energy:
        aaaa    correlation energy =        -0.3296980165 a.u.
        abab    correlation energy =        -1.8481010720 a.u.
        bbbb    correlation energy =        -0.3296980165 a.u.
        non-Brillouin singles      =        -0.0000000000 a.u.
        total same-spin energy     =        -0.6593960329 a.u.
        total opposite-spin energy =        -1.8481010720 a.u.

 Total  RIMP2   correlation energy =        -2.5074971049 a.u.
        RIMP2         total energy =     -1391.7485168890 a.u.

 RI-MP2 Energy Time:  CPU 185.57 s  wall 3.57 s
 
 --------------------------------------------------------------
 
                    Orbital Energies (a.u.)
 --------------------------------------------------------------
 
 Alpha MOs
 -- Occupied --
-92.0063 -91.9895 -26.3344 -20.6095 -20.5456 -11.4064 -11.3765 -11.3163
-11.2927 -11.2884 -11.2873 -11.2786 -11.2673 -11.2351  -9.0052  -8.9937
 -6.6860  -6.6854  -6.6850  -6.6750  -6.6743  -6.6730  -1.6474  -1.4690
 -1.3639  -1.2281  -1.1496  -1.0682  -1.0269  -1.0050  -0.9680  -0.9093
 -0.8630  -0.7959  -0.7849  -0.7667  -0.7263  -0.7152  -0.6964  -0.6773
 -0.6765  -0.6677  -0.6095  -0.6032  -0.6000  -0.5873  -0.5845  -0.5601
 -0.5306  -0.5241  -0.5163  -0.4957  -0.4790  -0.4617  -0.4585  -0.4569
 -0.3883  -0.3470  -0.2725
 -- Virtual --
  0.0369   0.1185   0.1382   0.1555   0.1578   0.1716   0.1872   0.1987
  0.2039   0.2087   0.2184   0.2238   0.2349   0.2401   0.2629   0.2750
  0.2890   0.3074   0.3228   0.3319   0.3444   0.3575   0.3708   0.3775
  0.3815   0.3878   0.4081   0.4115   0.4171   0.4276   0.4315   0.4385
  0.4568   0.4591   0.4680   0.4839   0.4922   0.5039   0.5133   0.5295
  0.5369   0.5433   0.5499   0.5520   0.5631   0.5649   0.5743   0.5834
  0.5884   0.6006   0.6034   0.6048   0.6149   0.6183   0.6224   0.6313
  0.6343   0.6438   0.6504   0.6594   0.6735   0.6867   0.6914   0.7094
  0.7113   0.7166   0.7397   0.7516   0.7687   0.7815   0.7831   0.7958
  0.8016   0.8124   0.8137   0.8525   0.8561   0.8686   0.8778   0.8837
  0.8976   0.9063   0.9209   0.9291   0.9373   0.9448   0.9695   0.9734
  0.9883   1.0022   1.0043   1.0178   1.0268   1.0408   1.0488   1.0633
  1.0683   1.0702   1.0861   1.0915   1.0993   1.1086   1.1174   1.1355
  1.1461   1.1548   1.1695   1.1714   1.1721   1.1815   1.2046   1.2111
  1.2186   1.2344   1.2431   1.2524   1.2708   1.2831   1.2900   1.3099
  1.3293   1.3361   1.3426   1.3455   1.3617   1.3764   1.3909   1.3948
  1.4239   1.4382   1.4538   1.4699   1.4817   1.4922   1.5012   1.5032
  1.5130   1.5169   1.5240   1.5467   1.5556   1.5644   1.5684   1.5983
  1.6224   1.6282   1.6578   1.6676   1.6726   1.7102   1.7159   1.7311
  1.7643   1.7738   1.7971   1.8157   1.8202   1.8358   1.8424   1.8557
  1.8677   1.8739   1.8865   1.9280   1.9314   1.9441   1.9561   1.9781
  2.0026   2.0299   2.0326   2.0495   2.0580   2.0957   2.1027   2.1305
  2.1475   2.1524   2.1634   2.1792   2.1978   2.2113   2.2198   2.2362
  2.2543   2.2608   2.2665   2.2820   2.2910   2.3047   2.3273   2.3422
  2.3659   2.3829   2.4036   2.4123   2.4478   2.4651   2.4803   2.4996
  2.5299   2.5380   2.5715   2.5738   2.5863   2.5970   2.6108   2.6333
  2.6392   2.6604   2.6680   2.6865   2.6900   2.7053   2.7198   2.7292
  2.7398   2.7475   2.7545   2.7740   2.7779   2.8017   2.8201   2.8299
  2.8577   2.8693   2.8877   2.9040   2.9106   2.9279   2.9477   2.9727
  2.9814   3.0014   3.0189   3.0229   3.0415   3.0454   3.0537   3.0687
  3.0894   3.0929   3.1007   3.1071   3.1126   3.1420   3.1464   3.1562
  3.1727   3.1833   3.1925   3.2087   3.2140   3.2226   3.2395   3.2539
  3.2603   3.2774   3.2800   3.2901   3.2955   3.2986   3.3078   3.3130
  3.3370   3.3483   3.3556   3.3670   3.3709   3.3965   3.4139   3.4192
  3.4337   3.4406   3.4564   3.4620   3.4761   3.4823   3.4947   3.5019
  3.5140   3.5272   3.5349   3.5443   3.5598   3.5780   3.5804   3.5873
  3.5916   3.6027   3.6074   3.6207   3.6318   3.6443   3.6540   3.6698
  3.6789   3.6832   3.7047   3.7116   3.7228   3.7282   3.7312   3.7456
  3.7501   3.7784   3.7868   3.8038   3.8187   3.8273   3.8365   3.8440
  3.8597   3.8704   3.8833   3.8898   3.9092   3.9223   3.9378   3.9410
  3.9578   3.9704   3.9864   3.9988   4.0245   4.0384   4.0468   4.0646
  4.0675   4.0925   4.0980   4.1106   4.1393   4.1498   4.1732   4.1829
  4.1941   4.2261   4.2481   4.2675   4.2806   4.3015   4.3115   4.3439
  4.3491   4.3681   4.3781   4.3929   4.4044   4.4205   4.4279   4.4331
  4.4598   4.4859   4.5045   4.5111   4.5336   4.5524   4.5720   4.5948
  4.6289   4.6391   4.6485   4.6629   4.6712   4.6915   4.7235   4.7305
  4.7525   4.7697   4.7989   4.8123   4.8424   4.8565   4.9120   4.9268
  4.9768   5.0047   5.0138   5.0407   5.0810   5.0997   5.1138   5.1363
  5.1776   5.1878   5.2068   5.2196   5.2559   5.2604   5.3026   5.3519
  5.3566   5.3646   5.4046   5.4116   5.4702   5.4742   5.4852   5.5367
  5.5585   5.5780   5.6001   5.6212   5.6225   5.6545   5.7352   5.8032
  5.8094   5.8347   5.8473   5.8745   5.9322   5.9722   5.9742   6.0298
  6.0686   6.1251   6.1353   6.1735   6.1869   6.3108   6.3667   6.4063
  6.4642   6.5080   6.5593   6.6612   6.6801   6.7358   6.7413   6.8641
  6.8840   6.9942   7.1810   7.2130   7.3301   7.3727   7.3758   7.4299
  7.4650   7.4867   7.5178   7.5519   7.6097   7.7704   7.8339   7.9065
  8.0015   8.1180   8.4032   8.9274   9.0063   9.3633   9.4943   9.6899
 10.1453  11.2168  11.7211  11.9334  12.2869  12.6374  13.1222  13.4686
 13.7912  14.0742  14.5608
 --------------------------------------------------------------
 
          Ground-State Mulliken Net Atomic Charges

     Atom                 Charge (a.u.)
  ----------------------------------------
      1 C                     0.044779
      2 S                     0.090617
      3 C                    -0.270469
      4 C                    -0.105674
      5 C                    -0.006677
      6 C                     0.371818
      7 C                    -0.168643
      8 S                     0.031556
      9 C                     0.457950
     10 O                    -0.457816
     11 O                    -0.299175
     12 F                    -0.211620
     13 C                    -0.054858
     14 H                     0.116028
     15 H                     0.083728
     16 H                     0.083503
     17 C                    -0.377863
     18 H                     0.152401
     19 H                     0.168254
     20 H                     0.142609
     21 H                     0.209551
  ----------------------------------------
  Sum of atomic charges =     0.000000

 -----------------------------------------------------------------
                    Cartesian Multipole Moments
 -----------------------------------------------------------------
    Charge (ESU x 10^10)
                -0.0000
    Dipole Moment (Debye)
         X       1.9269      Y       0.1897      Z       3.5825
       Tot       4.0722
    Quadrupole Moments (Debye-Ang)
        XX     -95.0082     XY       2.8725     YY     -84.5335
        XZ      -4.4889     YZ     -10.7672     ZZ     -96.8257
    Octopole Moments (Debye-Ang^2)
       XXX    -131.8349    XXY     -63.3562    XYY     -30.6842
       YYY    -208.3568    XXZ      73.7211    XYZ      -9.7815
       YYZ      70.6422    XZZ       1.6976    YZZ       4.5215
       ZZZ     260.4192
    Hexadecapole Moments (Debye-Ang^3)
      XXXX    -506.5219   XXXY    -347.7632   XXYY    -319.5154
      XYYY    -315.4380   YYYY   -1429.5105   XXXZ     342.2791
      XXYZ     199.0989   XYYZ      85.5854   YYYZ     577.0681
      XXZZ    -673.9765   XYZZ       5.2886   YYZZ    -684.9225
      XZZZ     148.7607   YZZZ     293.8672   ZZZZ   -3805.8933
 -----------------------------------------------------------------
 Total job time:  54.44s(wall), 1933.66s(cpu) 
 Sun Sep 24 17:20:34 2023

        *************************************************************
        *                                                           *
        *  Thank you very much for using Q-Chem.  Have a nice day.  *
        *                                                           *
        *************************************************************


0 sent ACK to 0 
now end server 0 ... 
cleanup process ... done
remove work dirs ./qchem645533.0 -- ./qchem645533.0
rm -rf ./qchem645533.0
rm -rf ./qchem645533
