You are running Q-Chem version: 5.4.0

#
# job setting
#
local host:  exp-9-02
current dir: /expanse/lustre/projects/csd626/rramji/aromodel/PTB7_fin/Hydrogenated_Impropers_Test
input file:  fin_bdt_Phi_20_Theta_270_fin_ftt_Hydrogenated_Improper.qcin
output file: 
nprocs     : 1
nthreads   : 64
#
# qchem installation setting
#
QC:          /cm/shared/apps/spack/cpu/opt/spack/linux-centos8-zen2/gcc-10.2.0/qchem-5.4-akfmr7b3t57bfs6qan3padb2wnb2i7cl
QCAUX:       /cm/shared/apps/spack/cpu/opt/spack/linux-centos8-zen2/gcc-10.2.0/qchem-5.4-akfmr7b3t57bfs6qan3padb2wnb2i7cl/qcaux
QCPROG:      /cm/shared/apps/spack/cpu/opt/spack/linux-centos8-zen2/gcc-10.2.0/qchem-5.4-akfmr7b3t57bfs6qan3padb2wnb2i7cl/exe/qcprog.exe
QCPROG_S:    /cm/shared/apps/spack/cpu/opt/spack/linux-centos8-zen2/gcc-10.2.0/qchem-5.4-akfmr7b3t57bfs6qan3padb2wnb2i7cl/exe/qcprog.exe_s
PARALLEL:    -DPARALLEL
QCMPI:       mpich
#
# qchem directory setting
#
qcrun:       qchem640113
QCSCRATCH:   .
QCLOCALSCR:  
QCTMPDIR:    .
QCFILEPREF:  ./qchem640113
QCSAVEDIR:   
workdirs:    ./qchem640113
workdir0:    ./qchem640113
partmpdirs =  
#
# parallel setting
#
QCRSH:           ssh
QCMPI:           mpich
QCMPIRUN:        /cm/shared/apps/spack/cpu/opt/spack/linux-centos8-zen2/gcc-10.2.0/qchem-5.4-akfmr7b3t57bfs6qan3padb2wnb2i7cl/bin/mpi/mpirun_qchem
QCMACHINEFILE:   ./qchem640113/hostfile
exp-9-02

#
# env setting
#
exported envs:   QC QCAUX QCSCRATCH QCRUNNAME QCFILEPREF QCPROG QCPROG_S GUIFILE

Running Job 1 of 1 fin_bdt_Phi_20_Theta_270_fin_ftt_Hydrogenated_Improper.qcin
qchem fin_bdt_Phi_20_Theta_270_fin_ftt_Hydrogenated_Improper.qcin_640113.0 ./qchem640113/ 1
/cm/shared/apps/spack/cpu/opt/spack/linux-centos8-zen2/gcc-10.2.0/qchem-5.4-akfmr7b3t57bfs6qan3padb2wnb2i7cl/bin/mpi/mpirun_qchem -machinefile ./qchem640113/hostfile -np 1 /cm/shared/apps/spack/cpu/opt/spack/linux-centos8-zen2/gcc-10.2.0/qchem-5.4-akfmr7b3t57bfs6qan3padb2wnb2i7cl/exe/qcprog.exe fin_bdt_Phi_20_Theta_270_fin_ftt_Hydrogenated_Improper.qcin_640113.0 ./qchem640113/

Process 0 of 1 is on exp-9-02 - thread support 0
initial socket setup ...start
initial socket setup ...done 
now start server 0 ... 
                  Welcome to Q-Chem
     A Quantum Leap Into The Future Of Chemistry


 Q-Chem 5.4, Q-Chem, Inc., Pleasanton, CA (2021)

 License issued to: University of California, San Diego (site)

 E. Epifanovsky,  A. T. B. Gilbert,  Xintian Feng,  Joonho Lee,  Yuezhi Mao,  
 N. Mardirossian,  P. Pokhilko,  A. White,  M. Wormit,  M. P. Coons,  
 A. L. Dempwolff,  Zhengting Gan,  D. Hait,  P. R. Horn,  L. D. Jacobson,  
 I. Kaliman,  J. Kussmann,  A. W. Lange,  Ka Un Lao,  D. S. Levine,  Jie Liu,  
 S. C. McKenzie,  A. F. Morrison,  K. Nanda,  F. Plasser,  D. R. Rehn,  
 M. L. Vidal,  Zhi-Qiang You,  Ying Zhu,  B. Alam,  B. Albrecht,  
 A. Aldossary,  E. Alguire,  J. H. Andersen,  D. Barton,  K. Begam,  A. Behn,  
 Y. A. Bernard,  E. J. Berquist,  H. Burton,  A. Carreras,  K. Carter-Fenk,  
 R. Chakraborty,  A. D. Chien,  K. D. Closser,  V. Cofer-Shabica,  
 S. Dasgupta,  Jia Deng,  M. de Wergifosse,  M. Diedenhofen,  Hainam Do,  
 S. Ehlert,  Po-Tung Fang,  S. Fatehi,  Qingguo Feng,  J. Gayvert,  
 Qinghui Ge,  G. Gidofalvi,  M. Goldey,  J. Gomes,  C. Gonzalez-Espinoza,  
 S. Gulania,  A. Gunina,  M. W. D. Hanson-Heine,  P. H. P. Harbach,  
 A. W. Hauser,  M. F. Herbst,  M. Hernandez Vera,  M. Hodecker,  
 Z. C. Holden,  S. Houck,  Xunkun Huang,  Kerwin Hui,  B. C. Huynh,  
 M. Ivanov,  Hyunjun Ji,  Hanjie Jiang,  B. Kaduk,  S. Kaehler,  
 K. Khistyaev,  Jaehoon Kim,  P. Klunzinger,  Z. Koczor-Benda,  
 Joong Hoon Koh,  D. Kosenkov,  L. Koulias,  T. Kowalczyk,  C. M. Krauter,  
 K. Kue,  A. Kunitsa,  T. Kus,  A. Landau,  K. V. Lawler,  D. Lefrancois,  
 S. Lehtola,  Rain Li,  Yi-Pei Li,  Jiashu Liang,  M. Liebenthal,  
 Hung-Hsuan Lin,  You-Sheng Lin,  Fenglai Liu,  Kuan-Yu Liu,  
 M. Loipersberger,  A. Luenser,  A. Manjanath,  P. Manohar,  E. Mansoor,  
 S. F. Manzer,  Shan-Ping Mao,  A. V. Marenich,  T. Markovich,  S. Mason,  
 S. A. Maurer,  P. F. McLaughlin,  M. F. S. J. Menger,  J.-M. Mewes,  
 S. A. Mewes,  P. Morgante,  J. W. Mullinax,  T. S. Nguyen-Beck,  
 K. J. Oosterbaan,  G. Paran,  Alexander C. Paul,  Suranjan K. Paul,  
 F. Pavosevic,  Zheng Pei,  S. Prager,  E. I. Proynov,  E. Ramos,  B. Rana,  
 A. E. Rask,  A. Rettig,  R. M. Richard,  F. Rob,  E. Rossomme,  T. Scheele,  
 M. Scheurer,  M. Schneider,  N. Sergueev,  S. M. Sharada,  W. Skomorowski,  
 D. W. Small,  C. J. Stein,  Yu-Chuan Su,  E. J. Sundstrom,  Zhen Tao,  
 J. Thirman,  T. Tsuchimochi,  N. M. Tubman,  S. P. Veccham,  O. Vydrov,  
 J. Wenzel,  J. Witte,  A. Yamada,  Kun Yao,  S. Yeganeh,  S. R. Yost,  
 A. Zech,  Igor Ying Zhang,  Xing Zhang,  Yu Zhang,  D. Zuev,  
 A. Aspuru-Guzik,  A. T. Bell,  N. A. Besley,  K. B. Bravaya,  B. R. Brooks,  
 D. Casanova,  Jeng-Da Chai,  S. Coriani,  C. J. Cramer,  
 A. E. DePrince, III,  R. A. DiStasio Jr.,  A. Dreuw,  B. D. Dunietz,  
 T. R. Furlani,  W. A. Goddard III,  S. Grimme,  S. Hammes-Schiffer,  
 T. Head-Gordon,  W. J. Hehre,  Chao-Ping Hsu,  T.-C. Jagau,  Yousung Jung,  
 A. Klamt,  Jing Kong,  D. S. Lambrecht,  WanZhen Liang,  N. J. Mayhall,  
 C. W. McCurdy,  J. B. Neaton,  C. Ochsenfeld,  J. A. Parkhill,  R. Peverati,  
 V. A. Rassolov,  Yihan Shao,  L. V. Slipchenko,  T. Stauch,  R. P. Steele,  
 J. E. Subotnik,  A. J. W. Thom,  A. Tkatchenko,  D. G. Truhlar,  
 T. Van Voorhis,  T. A. Wesolowski,  K. B. Whaley,  H. L. Woodcock III,  
 P. M. Zimmerman,  S. Faraji,  P. M. W. Gill,  M. Head-Gordon,  
 J. M. Herbert,  A. I. Krylov

 Contributors to earlier versions of Q-Chem not listed above: 
 R. D. Adamson,  B. Austin,  R. Baer,  J. Baker,  G. J. O. Beran,  
 K. Brandhorst,  S. T. Brown,  E. F. C. Byrd,  A. K. Chakraborty,  
 G. K. L. Chan,  Chun-Min Chang,  Yunqing Chen,  C.-L. Cheng,  
 Siu Hung Chien,  D. M. Chipman,  D. L. Crittenden,  H. Dachsel,  
 R. J. Doerksen,  A. D. Dutoi,  R. G. Edgar,  J. Fosso-Tande,  
 L. Fusti-Molnar,  D. Ghosh,  A. Ghysels,  A. Golubeva-Zadorozhnaya,  
 J. Gonthier,  M. S. Gordon,  S. R. Gwaltney,  G. Hawkins,  J. E. Herr,  
 A. Heyden,  S. Hirata,  E. G. Hohenstein,  G. Kedziora,  F. J. Keil,  
 C. Kelley,  Jihan Kim,  R. A. King,  R. Z. Khaliullin,  P. P. Korambath,  
 W. Kurlancheek,  A. Laurent,  A. M. Lee,  M. S. Lee,  S. V. Levchenko,  
 Ching Yeh Lin,  D. Liotard,  E. Livshits,  R. C. Lochan,  I. Lotan,  
 L. A. Martinez-Martinez,  P. E. Maslen,  N. Nair,  D. P. O'Neill,  
 D. Neuhauser,  E. Neuscamman,  C. M. Oana,  R. Olivares-Amaya,  R. Olson,  
 T. M. Perrine,  B. Peters,  P. A. Pieniazek,  A. Prociuk,  Y. M. Rhee,  
 J. Ritchie,  M. A. Rohrdanz,  E. Rosta,  N. J. Russ,  H. F. Schaefer III,  
 M. W. Schmidt,  N. E. Schultz,  S. Sharma,  N. Shenvi,  C. D. Sherrill,  
 A. C. Simmonett,  A. Sodt,  T. Stein,  D. Stuck,  K. S. Thanthiriwatte,  
 V. Vanovschi,  L. Vogt,  Tao Wang,  A. Warshel,  M. A. Watson,  
 C. F. Williams,  Q. Wu,  X. Xu,  Jun Yang,  W. Zhang,  Yan Zhao

 Please cite Q-Chem as follows:
 Y. Shao et al., Mol. Phys. 113, 184-215 (2015)
 DOI: 10.1080/00268976.2014.952696

 Q-Chem 5.4.0 for Intel X86 EM64T Linux

 Parts of Q-Chem use Armadillo 9.800.1 (Horizon Scraper).
 http://arma.sourceforge.net/

 Q-Chem begins on Sun Sep 24 17:05:59 2023  

 Host: 
0

     Scratch files written to ./qchem640113//
 May1621 |scratch|qcdevops|jenkins|workspace|build_RNUM    
 Parallel job on  1  processors
 Processing $rem in /cm/shared/apps/spack/cpu/opt/spack/linux-centos8-zen2/gcc-10.2.0/qchem-5.4-akfmr7b3t57bfs6qan3padb2wnb2i7cl/config/preferences:
 Processing $rem in /home/rramji/.qchemrc:
 Symmetry turned off for PCM/SM12/SMD calculation
 Core orbitals will be frozen

 Checking the input file for inconsistencies... 	...done.

 Q-Chem warning in module forms1/BasisType.C, line 2236:

 You are not using the predefined 5D/6D in this basis set.


--------------------------------------------------------------
User input:
--------------------------------------------------------------
$molecule
0 1
C	-0.304640	-0.782911	1.025267
S	0.005060	0.061489	2.535967
C	0.542860	1.542189	1.752867
C	0.005960	0.070589	-0.039433
C	0.479560	1.376089	0.346967
C	-0.015140	0.007589	-1.460833
C	0.417260	1.196189	-2.081633
S	0.840860	2.369589	-0.940433
C	0.508760	1.433689	-3.534733
O	0.192260	0.555489	-4.325033
O	0.950660	2.638389	-3.979133
F	-0.392540	-1.040711	-2.221033
C	1.082860	2.971989	-5.309733
H	1.461360	4.010189	-5.345033
H	0.112460	2.910889	-5.850333
H	1.794160	2.298089	-5.836633
C	-0.304640	-2.218111	1.025267
H	-0.313140	-2.227111	-0.054633
H	0.531260	-2.902011	1.024867
H	-1.248740	-2.742511	1.033267
H	0.857560	2.406689	2.346767
$end

$rem
JOBTYPE		SP
EXCHANGE	HF
CORRELATION	pRIMP2
BASIS		cc-pvtz
METHOD		rimp2
AUX_BASIS	rimp2-cc-pvtz
SOLVENT_METHOD	PCM
PURECART	11111
SYMMETRY	false
MEM_TOTAL	110000
SCF_CONVERGENCE = 6
THRESH=10
GUI = 2
$end



$solvent
dielectric 4.90
$end
--------------------------------------------------------------
 ----------------------------------------------------------------
             Standard Nuclear Orientation (Angstroms)
    I     Atom           X                Y                Z
 ----------------------------------------------------------------
    1      C      -0.3046400000    -0.7829110000     1.0252670000
    2      S       0.0050600000     0.0614890000     2.5359670000
    3      C       0.5428600000     1.5421890000     1.7528670000
    4      C       0.0059600000     0.0705890000    -0.0394330000
    5      C       0.4795600000     1.3760890000     0.3469670000
    6      C      -0.0151400000     0.0075890000    -1.4608330000
    7      C       0.4172600000     1.1961890000    -2.0816330000
    8      S       0.8408600000     2.3695890000    -0.9404330000
    9      C       0.5087600000     1.4336890000    -3.5347330000
   10      O       0.1922600000     0.5554890000    -4.3250330000
   11      O       0.9506600000     2.6383890000    -3.9791330000
   12      F      -0.3925400000    -1.0407110000    -2.2210330000
   13      C       1.0828600000     2.9719890000    -5.3097330000
   14      H       1.4613600000     4.0101890000    -5.3450330000
   15      H       0.1124600000     2.9108890000    -5.8503330000
   16      H       1.7941600000     2.2980890000    -5.8366330000
   17      C      -0.3046400000    -2.2181110000     1.0252670000
   18      H      -0.3131400000    -2.2271110000    -0.0546330000
   19      H       0.5312600000    -2.9020110000     1.0248670000
   20      H      -1.2487400000    -2.7425110000     1.0332670000
   21      H       0.8575600000     2.4066890000     2.3467670000
 ----------------------------------------------------------------
 Nuclear Repulsion Energy =        1090.86228265 hartrees
 There are       59 alpha and       59 beta electrons
 Requested basis set is cc-pVTZ
 There are 186 shells and 526 basis functions

 Total QAlloc Memory Limit 110000 MB
 Mega-Array Size       188 MB
 MEM_STATIC part       192 MB
 Discretize the solute cavity surface with Lebedev spheres
	Using 110 Lebedev grid points for each H atom
	Using 194 Lebedev grid points for other atoms
	Atomic van der Waals radii will be scaled by 1.20
 Remove points where switching function is < 1.0e-08
 Keep 1547 surface tesserae and discard 1939 interior tesserae
 Molecular Surface Area = 240.756 Angst**2
 Requested basis set is rimp2-cc-pVTZ
 There are 410 shells and 1426 basis functions
 A cutoff of  1.0D-10 yielded  11628 shell pairs
 There are     91206 function pairs (    119371 Cartesian)
 Smallest overlap matrix eigenvalue = 5.76E-05

 Scale SEOQF with 1.000000e-01/1.000000e-01/1.000000e-02

 Standard Electronic Orientation quadrupole field applied
 Nucleus-field energy     =     0.0000000171 hartrees
 Guess from superposition of atomic densities
 Warning:  Energy on first SCF cycle will be non-variational
 SAD guess density has 118.000000 electrons

 -----------------------------------------------------------------------
  General SCF calculation program by
  Eric Jon Sundstrom, Paul Horn, Yuezhi Mao, Dmitri Zuev, Alec White,
  David Stuck, Shaama M.S., Shane Yost, Joonho Lee, David Small,
  Daniel Levine, Susi Lehtola, Hugh Burton, Evgeny Epifanovsky,
  Bang C. Huynh
 -----------------------------------------------------------------------
 Hartree-Fock
 using 64 threads for integral computing
 -------------------------------------------------------
 OpenMP Integral computing Module                
 Release: version 1.0, May 2013, Q-Chem Inc. Pittsburgh 
 -------------------------------------------------------
 A restricted SCF calculation will be
 performed using DIIS
 SCF converges when DIIS error is below 1.0e-06
 ---------------------------------------
  Cycle       Energy         DIIS error
 ---------------------------------------
    1   -1394.5775661498      2.53e-02  
    2   -1389.0052486691      2.51e-03  
    3   -1389.1769244392      1.59e-03  
    4   -1389.2395496648      3.47e-04  
    5   -1389.2452053456      1.09e-04  
    6   -1389.2458587015      3.63e-05  
    7   -1389.2459999911      1.83e-05  
    8   -1389.2460493462      7.53e-06  
    9   -1389.2460612518      3.52e-06  
   10   -1389.2460632562      1.39e-06  
   11   -1389.2460635851      5.34e-07  Convergence criterion met
 ---------------------------------------
 SCF time:   CPU 1717.71s  wall 49.00s 

************** Final PCM Free Energy Summary **************
 G_electrostatic  =      -0.01216450 hartree =      -7.63333915 kcal/mol
 G_cavitation     =       0.00000000 hartree =       0.00000000 kcal/mol
 G_dispersion     =       0.00000000 hartree =       0.00000000 kcal/mol
 G_repulsion      =       0.00000000 hartree =       0.00000000 kcal/mol
 --------------------------------------------------
 Non-electrostatic Free Energy =       0.00000000 hartree =       0.00000000 kcal/mol
 Total                         =      -0.01216450 hartree =      -7.63333915 kcal/mol
 --------------------------------------------------
 SCF Energy (H0 + V/2)                       =   -1389.24606359 
 Solute Internal Energy (H0)                 =   -1389.23389908 
 Total Free Energy (H0 + V/2 + non-elec)     =   -1389.24606359 hartree
                                             = -871765.06244910 kcal/mol
***********************************************************

 SCF   energy in the final basis set =    -1389.2460635851
 Total energy in the final basis set =    -1389.2460635851


 --------------------------------------------------------------
  Generalized many-body perturbation theory program
  by Joonho Lee, Fazle Rob, Xintian Feng, Evgeny Epifanovsky

 No regularization used 
 (reg. param. = 0.0000e+00)
  (P|Q)^-1/2 Time:  CPU 21.73 s  wall 0.35 s

 In RI-MP2 calculation: 
 # of frozen core orbitals: 22

 Components of the RIMP2 correlation energy:
        aaaa    correlation energy =        -0.3301731096 a.u.
        abab    correlation energy =        -1.8496559305 a.u.
        bbbb    correlation energy =        -0.3301731096 a.u.
        non-Brillouin singles      =        -0.0000000000 a.u.
        total same-spin energy     =        -0.6603462193 a.u.
        total opposite-spin energy =        -1.8496559305 a.u.

 Total  RIMP2   correlation energy =        -2.5100021497 a.u.
        RIMP2         total energy =     -1391.7560657348 a.u.

 RI-MP2 Energy Time:  CPU 176.76 s  wall 3.48 s
 
 --------------------------------------------------------------
 
                    Orbital Energies (a.u.)
 --------------------------------------------------------------
 
 Alpha MOs
 -- Occupied --
-92.0035 -91.9920 -26.3357 -20.6115 -20.5491 -11.4094 -11.3764 -11.3033
-11.2949 -11.2919 -11.2883 -11.2874 -11.2753 -11.2255  -9.0025  -8.9961
 -6.6832  -6.6826  -6.6823  -6.6774  -6.6767  -6.6754  -1.6489  -1.4712
 -1.3665  -1.2289  -1.1457  -1.0680  -1.0273  -1.0055  -0.9691  -0.9110
 -0.8643  -0.7961  -0.7870  -0.7678  -0.7271  -0.7169  -0.6973  -0.6782
 -0.6780  -0.6700  -0.6073  -0.6053  -0.5986  -0.5892  -0.5798  -0.5675
 -0.5431  -0.5253  -0.5055  -0.4819  -0.4707  -0.4626  -0.4608  -0.4507
 -0.3973  -0.3449  -0.2840
 -- Virtual --
  0.0328   0.1182   0.1382   0.1558   0.1595   0.1709   0.1877   0.1940
  0.2070   0.2192   0.2205   0.2311   0.2361   0.2408   0.2622   0.2719
  0.2935   0.3059   0.3290   0.3331   0.3531   0.3584   0.3728   0.3769
  0.3802   0.3901   0.3921   0.4091   0.4169   0.4261   0.4386   0.4461
  0.4581   0.4653   0.4705   0.4832   0.4881   0.5078   0.5159   0.5297
  0.5361   0.5389   0.5523   0.5576   0.5594   0.5621   0.5716   0.5873
  0.5914   0.5985   0.6045   0.6094   0.6172   0.6240   0.6287   0.6337
  0.6407   0.6465   0.6499   0.6646   0.6759   0.6835   0.6919   0.6998
  0.7107   0.7212   0.7418   0.7615   0.7726   0.7773   0.7847   0.7971
  0.7999   0.8115   0.8220   0.8484   0.8686   0.8766   0.8825   0.8886
  0.8958   0.9032   0.9140   0.9340   0.9414   0.9443   0.9577   0.9767
  0.9908   0.9938   1.0064   1.0084   1.0161   1.0312   1.0382   1.0523
  1.0636   1.0774   1.0850   1.0954   1.0999   1.1094   1.1209   1.1391
  1.1548   1.1569   1.1618   1.1705   1.1760   1.1870   1.2028   1.2043
  1.2166   1.2237   1.2380   1.2486   1.2532   1.2802   1.2877   1.3104
  1.3287   1.3323   1.3451   1.3542   1.3608   1.3813   1.3840   1.3896
  1.4013   1.4283   1.4473   1.4635   1.4818   1.4905   1.5001   1.5085
  1.5131   1.5135   1.5405   1.5494   1.5622   1.5753   1.5891   1.5994
  1.6179   1.6378   1.6569   1.6657   1.6746   1.7055   1.7252   1.7384
  1.7539   1.7665   1.7765   1.8185   1.8257   1.8340   1.8463   1.8612
  1.8701   1.8784   1.8839   1.9246   1.9335   1.9449   1.9491   1.9654
  1.9837   2.0136   2.0317   2.0352   2.0557   2.0920   2.1042   2.1250
  2.1427   2.1550   2.1593   2.1696   2.1949   2.1971   2.2162   2.2421
  2.2426   2.2676   2.2763   2.2791   2.2912   2.2982   2.3321   2.3406
  2.3676   2.3821   2.4101   2.4325   2.4621   2.4795   2.4826   2.5028
  2.5299   2.5626   2.5672   2.5828   2.5916   2.6119   2.6231   2.6259
  2.6500   2.6552   2.6575   2.6738   2.6907   2.7011   2.7201   2.7295
  2.7392   2.7435   2.7617   2.7730   2.7940   2.8135   2.8237   2.8303
  2.8390   2.8636   2.8720   2.8846   2.9024   2.9323   2.9338   2.9439
  2.9615   2.9890   2.9911   3.0313   3.0386   3.0440   3.0483   3.0652
  3.0909   3.0952   3.1010   3.1120   3.1196   3.1254   3.1438   3.1556
  3.1840   3.1868   3.1971   3.2060   3.2143   3.2308   3.2483   3.2626
  3.2652   3.2727   3.2814   3.2860   3.3051   3.3070   3.3101   3.3219
  3.3354   3.3431   3.3542   3.3634   3.3702   3.3799   3.3961   3.4188
  3.4301   3.4425   3.4490   3.4572   3.4605   3.4862   3.4923   3.5067
  3.5100   3.5214   3.5336   3.5421   3.5637   3.5758   3.5832   3.5903
  3.5967   3.6033   3.6209   3.6276   3.6465   3.6571   3.6621   3.6675
  3.6862   3.7018   3.7096   3.7250   3.7279   3.7295   3.7395   3.7497
  3.7604   3.7668   3.7853   3.8064   3.8229   3.8272   3.8429   3.8446
  3.8564   3.8662   3.8759   3.8894   3.9013   3.9181   3.9235   3.9332
  3.9417   3.9796   3.9841   3.9917   4.0033   4.0147   4.0368   4.0530
  4.0634   4.0736   4.0871   4.0929   4.1106   4.1433   4.1714   4.1768
  4.1908   4.2189   4.2224   4.2440   4.2748   4.2895   4.3081   4.3181
  4.3483   4.3767   4.3807   4.3859   4.3880   4.4003   4.4256   4.4376
  4.4751   4.4831   4.5007   4.5174   4.5413   4.5528   4.5878   4.6103
  4.6310   4.6465   4.6553   4.6645   4.6751   4.6914   4.7211   4.7394
  4.7707   4.7748   4.7827   4.8057   4.8197   4.8921   4.8991   4.9192
  4.9677   5.0103   5.0156   5.0283   5.0726   5.0872   5.1176   5.1529
  5.1794   5.2150   5.2245   5.2493   5.2593   5.2734   5.2847   5.3554
  5.3590   5.3591   5.4024   5.4219   5.4671   5.4733   5.4847   5.5314
  5.5452   5.5879   5.6183   5.6381   5.6471   5.6917   5.7399   5.8014
  5.8214   5.8282   5.8590   5.8753   5.9327   5.9667   5.9705   5.9824
  6.0505   6.1266   6.1340   6.1860   6.2127   6.3091   6.3561   6.4165
  6.4444   6.5062   6.5571   6.6691   6.6776   6.7355   6.7435   6.8612
  6.8832   6.9915   7.1791   7.2108   7.3272   7.3712   7.3758   7.4291
  7.4631   7.4848   7.5177   7.5490   7.6114   7.7684   7.8320   7.9067
  8.0014   8.1167   8.3957   8.9274   9.0092   9.3621   9.5031   9.7024
 10.1520  11.2289  11.6832  11.9408  12.3089  12.6812  13.1574  13.5210
 13.8505  14.1111  14.5485
 --------------------------------------------------------------
 
          Ground-State Mulliken Net Atomic Charges

     Atom                 Charge (a.u.)
  ----------------------------------------
      1 C                     0.020296
      2 S                     0.086187
      3 C                    -0.242804
      4 C                    -0.095050
      5 C                    -0.011188
      6 C                     0.361742
      7 C                    -0.141815
      8 S                     0.035290
      9 C                     0.456909
     10 O                    -0.452258
     11 O                    -0.297934
     12 F                    -0.212915
     13 C                    -0.054806
     14 H                     0.116529
     15 H                     0.084289
     16 H                     0.084058
     17 C                    -0.353335
     18 H                     0.113218
     19 H                     0.156859
     20 H                     0.136073
     21 H                     0.210656
  ----------------------------------------
  Sum of atomic charges =     0.000000

 -----------------------------------------------------------------
                    Cartesian Multipole Moments
 -----------------------------------------------------------------
    Charge (ESU x 10^10)
                -0.0000
    Dipole Moment (Debye)
         X       1.0680      Y       1.2905      Z       2.6895
       Tot       3.1685
    Quadrupole Moments (Debye-Ang)
        XX     -94.7523     XY       3.2593     YY     -83.4842
        XZ      -3.4346     YZ      -9.7873     ZZ     -97.2922
    Octopole Moments (Debye-Ang^2)
       XXX     -91.5762    XXY     -76.2200    XYY     -20.0264
       YYY    -217.3712    XXZ      77.5741    XYZ      -6.5955
       YYZ      63.2404    XZZ       2.3413    YZZ      13.0981
       ZZZ     251.3683
    Hexadecapole Moments (Debye-Ang^3)
      XXXX    -304.6356   XXXY    -263.3154   XXYY    -324.6009
      XYYY    -225.6812   YYYY   -1619.0511   XXXZ     239.9984
      XXYZ     222.1809   XYYZ      52.6671   YYYZ     621.7867
      XXZZ    -673.2358   XYZZ       5.5292   YYZZ    -693.6923
      XZZZ     101.4073   YZZZ     318.0870   ZZZZ   -3779.6728
 -----------------------------------------------------------------
 Total job time:  54.31s(wall), 1950.92s(cpu) 
 Sun Sep 24 17:06:53 2023

        *************************************************************
        *                                                           *
        *  Thank you very much for using Q-Chem.  Have a nice day.  *
        *                                                           *
        *************************************************************


0 sent ACK to 0 
now end server 0 ... 
cleanup process ... done
remove work dirs ./qchem640113.0 -- ./qchem640113.0
rm -rf ./qchem640113.0
rm -rf ./qchem640113
