LAMMPS data file Created by LigParGen - (Written by Leela S. Dodda)

      10 atoms
      10 bonds
      15 angles
      16 dihedrals
       4 impropers
 
      10 atom types
      10 bond types
      15 angle types
      16 dihedral types
       4 improper types
 
   -3.028760    46.971240 xlo xhi
    0.104920    50.104920 ylo yhi
   -0.932320    49.067680 zlo zhi

Masses

       1     12.011  
       2     12.011  
       3     12.011  
       4      1.008  
       5     12.011  
       6     32.060  
       7     12.011  
       8      1.008  
       9      1.008  
      10      1.008  

Pair Coeffs 

       1      0.066  3.3000000 
       2      0.076  3.5500000 
       3      0.076  3.5500000 
       4      0.030  2.4200000 
       5      0.066  3.3000000 
       6      0.355  3.6000000 
       7      0.066  3.5000000 
       8      0.030  2.5000000 
       9      0.030  2.5000000 
      10      0.030  2.5000000 

Bond Coeffs 

       1   700.0000     1.3050 
       2   549.0000     1.3400 
       3   367.0000     1.0800 
       4   700.0000     1.3050 
       5   300.0000     1.6850 
       6   317.0000     1.5100 
       7   340.0000     1.0900 
       8   340.0000     1.0900 
       9   340.0000     1.0900 
      10   300.0000     1.6850 

Angle Coeffs 

       1     70.000    124.000
       2     60.430    118.760
       3     80.000    122.000
       4    160.000    180.000
       5     70.000    124.000
       6     35.000    109.500
       7     35.000    109.500
       8     35.000    109.500
       9     33.000    107.800
      10    160.000    180.000
      11     33.000    107.800
      12     35.000    120.000
      13     63.000    112.400
      14     33.000    107.800
      15     80.000    122.000

Dihedral Coeffs  

       1      0.000     14.000      0.000      0.000 
       2      1.241      3.353     -0.286      0.000 
       3      0.000      0.000     -0.372      0.000 
       4      0.000      0.000     -0.372      0.000 
       5      0.000      0.000     -0.250      0.000 
       6      0.000     14.000      0.000      0.000 
       7      0.000     14.000      0.000      0.000 
       8      0.000      0.000      0.000      0.000 
       9      0.000      0.000      0.000      0.000 
      10      1.241      3.353     -0.286      0.000 
      11      0.000      0.000      0.000      0.000 
      12      0.000     14.000      0.000      0.000 
      13      0.000      0.000     -0.372      0.000 
      14      0.000      0.000     -0.250      0.000 
      15      0.000      0.000      0.000      0.000 
      16      0.000      0.000     -0.250      0.000 

Improper Coeffs 

       1      2.500      -1       2 
       2      2.500      -1       2 
       3      0.000      -1       2 
       4      0.000      -1       2 

Atoms 

     1      1      1 0.02690000    1.000  1.00000  0.00000
     2      1      2 -0.24980000   -0.397  1.00000  0.00000
     3      1      3 -0.07860000   -1.005  1.00000  1.28515
     4      1      4 0.20890000   -0.982  0.99882 -0.93232
     5      1      5 0.01150000   -0.050  1.00000  2.31812
     6      1      6 -0.08930000    1.579  1.00000  1.65909
     7      1      7 -0.19330000   -2.494  0.99841  1.49145
     8      1      8 0.12120000   -3.029  0.99727  0.52186
     9      1      9 0.12120000   -2.831  1.89174  2.05731
    10      1     10 0.12120000   -2.829  0.10492  2.05827

Bonds 

     1      1      2      1
     2      2      3      2
     3      3      4      2
     4      4      5      3
     5      5      6      1
     6      6      7      3
     7      7      8      7
     8      8      9      7
     9      9     10      7
    10     10      6      5

Angles 

     1      1      1      2      3
     2      2      1      2      4
     3      3      2      3      5
     4      4      2      1      6
     5      5      2      3      7
     6      6      3      7      8
     7      7      3      7      9
     8      8      3      7     10
     9      9      9      7     10
    10     10      3      5      6
    11     11      8      7      9
    12     12      3      2      4
    13     13      1      6      5
    14     14      8      7     10
    15     15      5      3      7

Dihedrals

     1      1      5      3      2      1 
     2      2      6      1      2      3 
     3      3      8      7      3      2 
     4      4     10      7      3      2 
     5      5      9      7      3      5 
     6      6      5      3      2      4 
     7      7      7      3      2      1 
     8      8      5      6      1      2 
     9      9      7      3      5      6 
    10     10      6      5      3      2 
    11     11      3      5      6      1 
    12     12      7      3      2      4 
    13     13      9      7      3      2 
    14     14      8      7      3      5 
    15     15      6      1      2      4 
    16     16     10      7      3      5 

Impropers

     1      1      2      1      3      4 
     2      2      3      2      5      7 
     3      3      7      9      3      8 
     4      4      7     10      3      8 

