You are running Q-Chem version: 5.4.0

#
# job setting
#
local host:  exp-7-18
current dir: /home/rramji/project-csd799/aromodel/p3ht-qchem/hydrogenated-rotation-run
input file:  Methylthiophene_Phi_10_Theta_140_Methylthiophene_Hydrogenated.qcin
output file: 
nprocs     : 1
nthreads   : 64
#
# qchem installation setting
#
QC:          /cm/shared/apps/spack/cpu/opt/spack/linux-centos8-zen2/gcc-10.2.0/qchem-5.4-akfmr7b3t57bfs6qan3padb2wnb2i7cl
QCAUX:       /cm/shared/apps/spack/cpu/opt/spack/linux-centos8-zen2/gcc-10.2.0/qchem-5.4-akfmr7b3t57bfs6qan3padb2wnb2i7cl/qcaux
QCPROG:      /cm/shared/apps/spack/cpu/opt/spack/linux-centos8-zen2/gcc-10.2.0/qchem-5.4-akfmr7b3t57bfs6qan3padb2wnb2i7cl/exe/qcprog.exe
QCPROG_S:    /cm/shared/apps/spack/cpu/opt/spack/linux-centos8-zen2/gcc-10.2.0/qchem-5.4-akfmr7b3t57bfs6qan3padb2wnb2i7cl/exe/qcprog.exe_s
PARALLEL:    -DPARALLEL
QCMPI:       mpich
#
# qchem directory setting
#
qcrun:       qchem2326161
QCSCRATCH:   .
QCLOCALSCR:  
QCTMPDIR:    .
QCFILEPREF:  ./qchem2326161
QCSAVEDIR:   
workdirs:    ./qchem2326161
workdir0:    ./qchem2326161
partmpdirs =  
#
# parallel setting
#
QCRSH:           ssh
QCMPI:           mpich
QCMPIRUN:        /cm/shared/apps/spack/cpu/opt/spack/linux-centos8-zen2/gcc-10.2.0/qchem-5.4-akfmr7b3t57bfs6qan3padb2wnb2i7cl/bin/mpi/mpirun_qchem
QCMACHINEFILE:   ./qchem2326161/hostfile
exp-7-18

#
# env setting
#
exported envs:   QC QCAUX QCSCRATCH QCRUNNAME QCFILEPREF QCPROG QCPROG_S GUIFILE

Running Job 1 of 1 Methylthiophene_Phi_10_Theta_140_Methylthiophene_Hydrogenated.qcin
qchem Methylthiophene_Phi_10_Theta_140_Methylthiophene_Hydrogenated.qcin_2326161.0 ./qchem2326161/ 1
/cm/shared/apps/spack/cpu/opt/spack/linux-centos8-zen2/gcc-10.2.0/qchem-5.4-akfmr7b3t57bfs6qan3padb2wnb2i7cl/bin/mpi/mpirun_qchem -machinefile ./qchem2326161/hostfile -np 1 /cm/shared/apps/spack/cpu/opt/spack/linux-centos8-zen2/gcc-10.2.0/qchem-5.4-akfmr7b3t57bfs6qan3padb2wnb2i7cl/exe/qcprog.exe Methylthiophene_Phi_10_Theta_140_Methylthiophene_Hydrogenated.qcin_2326161.0 ./qchem2326161/

Process 0 of 1 is on exp-7-18 - thread support 0
initial socket setup ...start
initial socket setup ...done 
now start server 0 ... 
                  Welcome to Q-Chem
     A Quantum Leap Into The Future Of Chemistry


 Q-Chem 5.4, Q-Chem, Inc., Pleasanton, CA (2021)

 License issued to: University of California, San Diego (site)

 E. Epifanovsky,  A. T. B. Gilbert,  Xintian Feng,  Joonho Lee,  Yuezhi Mao,  
 N. Mardirossian,  P. Pokhilko,  A. White,  M. Wormit,  M. P. Coons,  
 A. L. Dempwolff,  Zhengting Gan,  D. Hait,  P. R. Horn,  L. D. Jacobson,  
 I. Kaliman,  J. Kussmann,  A. W. Lange,  Ka Un Lao,  D. S. Levine,  Jie Liu,  
 S. C. McKenzie,  A. F. Morrison,  K. Nanda,  F. Plasser,  D. R. Rehn,  
 M. L. Vidal,  Zhi-Qiang You,  Ying Zhu,  B. Alam,  B. Albrecht,  
 A. Aldossary,  E. Alguire,  J. H. Andersen,  D. Barton,  K. Begam,  A. Behn,  
 Y. A. Bernard,  E. J. Berquist,  H. Burton,  A. Carreras,  K. Carter-Fenk,  
 R. Chakraborty,  A. D. Chien,  K. D. Closser,  V. Cofer-Shabica,  
 S. Dasgupta,  Jia Deng,  M. de Wergifosse,  M. Diedenhofen,  Hainam Do,  
 S. Ehlert,  Po-Tung Fang,  S. Fatehi,  Qingguo Feng,  J. Gayvert,  
 Qinghui Ge,  G. Gidofalvi,  M. Goldey,  J. Gomes,  C. Gonzalez-Espinoza,  
 S. Gulania,  A. Gunina,  M. W. D. Hanson-Heine,  P. H. P. Harbach,  
 A. W. Hauser,  M. F. Herbst,  M. Hernandez Vera,  M. Hodecker,  
 Z. C. Holden,  S. Houck,  Xunkun Huang,  Kerwin Hui,  B. C. Huynh,  
 M. Ivanov,  Hyunjun Ji,  Hanjie Jiang,  B. Kaduk,  S. Kaehler,  
 K. Khistyaev,  Jaehoon Kim,  P. Klunzinger,  Z. Koczor-Benda,  
 Joong Hoon Koh,  D. Kosenkov,  L. Koulias,  T. Kowalczyk,  C. M. Krauter,  
 K. Kue,  A. Kunitsa,  T. Kus,  A. Landau,  K. V. Lawler,  D. Lefrancois,  
 S. Lehtola,  Rain Li,  Yi-Pei Li,  Jiashu Liang,  M. Liebenthal,  
 Hung-Hsuan Lin,  You-Sheng Lin,  Fenglai Liu,  Kuan-Yu Liu,  
 M. Loipersberger,  A. Luenser,  A. Manjanath,  P. Manohar,  E. Mansoor,  
 S. F. Manzer,  Shan-Ping Mao,  A. V. Marenich,  T. Markovich,  S. Mason,  
 S. A. Maurer,  P. F. McLaughlin,  M. F. S. J. Menger,  J.-M. Mewes,  
 S. A. Mewes,  P. Morgante,  J. W. Mullinax,  T. S. Nguyen-Beck,  
 K. J. Oosterbaan,  G. Paran,  Alexander C. Paul,  Suranjan K. Paul,  
 F. Pavosevic,  Zheng Pei,  S. Prager,  E. I. Proynov,  E. Ramos,  B. Rana,  
 A. E. Rask,  A. Rettig,  R. M. Richard,  F. Rob,  E. Rossomme,  T. Scheele,  
 M. Scheurer,  M. Schneider,  N. Sergueev,  S. M. Sharada,  W. Skomorowski,  
 D. W. Small,  C. J. Stein,  Yu-Chuan Su,  E. J. Sundstrom,  Zhen Tao,  
 J. Thirman,  T. Tsuchimochi,  N. M. Tubman,  S. P. Veccham,  O. Vydrov,  
 J. Wenzel,  J. Witte,  A. Yamada,  Kun Yao,  S. Yeganeh,  S. R. Yost,  
 A. Zech,  Igor Ying Zhang,  Xing Zhang,  Yu Zhang,  D. Zuev,  
 A. Aspuru-Guzik,  A. T. Bell,  N. A. Besley,  K. B. Bravaya,  B. R. Brooks,  
 D. Casanova,  Jeng-Da Chai,  S. Coriani,  C. J. Cramer,  
 A. E. DePrince, III,  R. A. DiStasio Jr.,  A. Dreuw,  B. D. Dunietz,  
 T. R. Furlani,  W. A. Goddard III,  S. Grimme,  S. Hammes-Schiffer,  
 T. Head-Gordon,  W. J. Hehre,  Chao-Ping Hsu,  T.-C. Jagau,  Yousung Jung,  
 A. Klamt,  Jing Kong,  D. S. Lambrecht,  WanZhen Liang,  N. J. Mayhall,  
 C. W. McCurdy,  J. B. Neaton,  C. Ochsenfeld,  J. A. Parkhill,  R. Peverati,  
 V. A. Rassolov,  Yihan Shao,  L. V. Slipchenko,  T. Stauch,  R. P. Steele,  
 J. E. Subotnik,  A. J. W. Thom,  A. Tkatchenko,  D. G. Truhlar,  
 T. Van Voorhis,  T. A. Wesolowski,  K. B. Whaley,  H. L. Woodcock III,  
 P. M. Zimmerman,  S. Faraji,  P. M. W. Gill,  M. Head-Gordon,  
 J. M. Herbert,  A. I. Krylov

 Contributors to earlier versions of Q-Chem not listed above: 
 R. D. Adamson,  B. Austin,  R. Baer,  J. Baker,  G. J. O. Beran,  
 K. Brandhorst,  S. T. Brown,  E. F. C. Byrd,  A. K. Chakraborty,  
 G. K. L. Chan,  Chun-Min Chang,  Yunqing Chen,  C.-L. Cheng,  
 Siu Hung Chien,  D. M. Chipman,  D. L. Crittenden,  H. Dachsel,  
 R. J. Doerksen,  A. D. Dutoi,  R. G. Edgar,  J. Fosso-Tande,  
 L. Fusti-Molnar,  D. Ghosh,  A. Ghysels,  A. Golubeva-Zadorozhnaya,  
 J. Gonthier,  M. S. Gordon,  S. R. Gwaltney,  G. Hawkins,  J. E. Herr,  
 A. Heyden,  S. Hirata,  E. G. Hohenstein,  G. Kedziora,  F. J. Keil,  
 C. Kelley,  Jihan Kim,  R. A. King,  R. Z. Khaliullin,  P. P. Korambath,  
 W. Kurlancheek,  A. Laurent,  A. M. Lee,  M. S. Lee,  S. V. Levchenko,  
 Ching Yeh Lin,  D. Liotard,  E. Livshits,  R. C. Lochan,  I. Lotan,  
 L. A. Martinez-Martinez,  P. E. Maslen,  N. Nair,  D. P. O'Neill,  
 D. Neuhauser,  E. Neuscamman,  C. M. Oana,  R. Olivares-Amaya,  R. Olson,  
 T. M. Perrine,  B. Peters,  P. A. Pieniazek,  A. Prociuk,  Y. M. Rhee,  
 J. Ritchie,  M. A. Rohrdanz,  E. Rosta,  N. J. Russ,  H. F. Schaefer III,  
 M. W. Schmidt,  N. E. Schultz,  S. Sharma,  N. Shenvi,  C. D. Sherrill,  
 A. C. Simmonett,  A. Sodt,  T. Stein,  D. Stuck,  K. S. Thanthiriwatte,  
 V. Vanovschi,  L. Vogt,  Tao Wang,  A. Warshel,  M. A. Watson,  
 C. F. Williams,  Q. Wu,  X. Xu,  Jun Yang,  W. Zhang,  Yan Zhao

 Please cite Q-Chem as follows:
 Y. Shao et al., Mol. Phys. 113, 184-215 (2015)
 DOI: 10.1080/00268976.2014.952696

 Q-Chem 5.4.0 for Intel X86 EM64T Linux

 Parts of Q-Chem use Armadillo 9.800.1 (Horizon Scraper).
 http://arma.sourceforge.net/

 Q-Chem begins on Fri Dec 15 14:07:37 2023  

 Host: 
0

     Scratch files written to ./qchem2326161//
 May1621 |scratch|qcdevops|jenkins|workspace|build_RNUM    
 Parallel job on  1  processors
 Processing $rem in /cm/shared/apps/spack/cpu/opt/spack/linux-centos8-zen2/gcc-10.2.0/qchem-5.4-akfmr7b3t57bfs6qan3padb2wnb2i7cl/config/preferences:
 Processing $rem in /home/rramji/.qchemrc:
 Symmetry turned off for PCM/SM12/SMD calculation
 Core orbitals will be frozen

 Checking the input file for inconsistencies... 	...done.

 Q-Chem warning in module forms1/BasisType.C, line 2236:

 You are not using the predefined 5D/6D in this basis set.


--------------------------------------------------------------
User input:
--------------------------------------------------------------
$molecule
0 1
C	-0.464838	-3.887800	-0.555670
C	0.425760	-3.701456	0.505790
C	0.697866	-2.345170	0.831053
H	0.879984	-4.545233	1.046496
C	0.000000	-1.450135	0.000000
S	-0.981588	-2.321334	-1.170382
C	1.627381	-1.934439	1.939074
H	2.055015	-2.819799	2.448051
H	1.107991	-1.326210	2.708853
H	2.475210	-1.325374	1.561590
C	0.000000	0.000000	0.000000
C	0.143630	0.832309	1.113020
C	0.380550	2.202961	0.820578
H	0.077556	0.449877	2.142881
C	0.422995	2.447456	-0.563588
S	0.164909	0.956502	-1.464748
C	0.561888	3.252016	1.882380
H	0.485513	2.810624	2.894974
H	-0.205711	4.050482	1.808137
H	1.553045	3.746365	1.808230
H	0.586105	3.391501	-1.097114
H	-1.367361	-4.420219	-0.235206
H	0.007834	-4.419395	-1.389159
H	-0.827319	-1.450628	0.694221
$end

$rem
JOBTYPE		SP
EXCHANGE	HF
CORRELATION	pRIMP2
BASIS		cc-pvtz
METHOD		rimp2
AUX_BASIS	rimp2-cc-pvtz
SOLVENT_METHOD	PCM
PURECART	11111
SYMMETRY	false
MEM_TOTAL	110000
SCF_CONVERGENCE = 6
THRESH=10
GUI = 2
$end



$solvent
dielectric 4.90
$end
--------------------------------------------------------------
 ----------------------------------------------------------------
             Standard Nuclear Orientation (Angstroms)
    I     Atom           X                Y                Z
 ----------------------------------------------------------------
    1      C      -0.4648380000    -3.8878000000    -0.5556700000
    2      C       0.4257600000    -3.7014560000     0.5057900000
    3      C       0.6978660000    -2.3451700000     0.8310530000
    4      H       0.8799840000    -4.5452330000     1.0464960000
    5      C       0.0000000000    -1.4501350000     0.0000000000
    6      S      -0.9815880000    -2.3213340000    -1.1703820000
    7      C       1.6273810000    -1.9344390000     1.9390740000
    8      H       2.0550150000    -2.8197990000     2.4480510000
    9      H       1.1079910000    -1.3262100000     2.7088530000
   10      H       2.4752100000    -1.3253740000     1.5615900000
   11      C       0.0000000000     0.0000000000     0.0000000000
   12      C       0.1436300000     0.8323090000     1.1130200000
   13      C       0.3805500000     2.2029610000     0.8205780000
   14      H       0.0775560000     0.4498770000     2.1428810000
   15      C       0.4229950000     2.4474560000    -0.5635880000
   16      S       0.1649090000     0.9565020000    -1.4647480000
   17      C       0.5618880000     3.2520160000     1.8823800000
   18      H       0.4855130000     2.8106240000     2.8949740000
   19      H      -0.2057110000     4.0504820000     1.8081370000
   20      H       1.5530450000     3.7463650000     1.8082300000
   21      H       0.5861050000     3.3915010000    -1.0971140000
   22      H      -1.3673610000    -4.4202190000    -0.2352060000
   23      H       0.0078340000    -4.4193950000    -1.3891590000
   24      H      -0.8273190000    -1.4506280000     0.6942210000
 ----------------------------------------------------------------
 Nuclear Repulsion Energy =         873.78430163 hartrees
 There are       52 alpha and       52 beta electrons
 Requested basis set is cc-pVTZ
 There are 196 shells and 536 basis functions

 Total QAlloc Memory Limit 110000 MB
 Mega-Array Size       188 MB
 MEM_STATIC part       192 MB
 Discretize the solute cavity surface with Lebedev spheres
	Using 110 Lebedev grid points for each H atom
	Using 194 Lebedev grid points for other atoms
	Atomic van der Waals radii will be scaled by 1.20
 Remove points where switching function is < 1.0e-08
 Keep 1592 surface tesserae and discard 2056 interior tesserae
 Molecular Surface Area = 233.995 Angst**2
 Requested basis set is rimp2-cc-pVTZ
 There are 414 shells and 1414 basis functions
 A cutoff of  1.0D-10 yielded  14062 shell pairs
 There are    101846 function pairs (    130511 Cartesian)
 Smallest overlap matrix eigenvalue = 5.22E-05

 Scale SEOQF with 1.000000e-01/1.000000e-01/1.000000e-01

 Standard Electronic Orientation quadrupole field applied
 Nucleus-field energy     =     0.0000000276 hartrees
 Guess from superposition of atomic densities
 Warning:  Energy on first SCF cycle will be non-variational
 SAD guess density has 104.000000 electrons

 -----------------------------------------------------------------------
  General SCF calculation program by
  Eric Jon Sundstrom, Paul Horn, Yuezhi Mao, Dmitri Zuev, Alec White,
  David Stuck, Shaama M.S., Shane Yost, Joonho Lee, David Small,
  Daniel Levine, Susi Lehtola, Hugh Burton, Evgeny Epifanovsky,
  Bang C. Huynh
 -----------------------------------------------------------------------
 Hartree-Fock
 using 64 threads for integral computing
 -------------------------------------------------------
 OpenMP Integral computing Module                
 Release: version 1.0, May 2013, Q-Chem Inc. Pittsburgh 
 -------------------------------------------------------
 A restricted SCF calculation will be
 performed using DIIS
 SCF converges when DIIS error is below 1.0e-06
 ---------------------------------------
  Cycle       Energy         DIIS error
 ---------------------------------------
    1   -1186.0161789806      2.38e-02  
    2   -1180.6130676974      1.57e-03  
    3   -1180.7382928346      6.27e-04  
    4   -1180.7531911321      3.41e-04  
    5   -1180.7585169574      5.91e-05  
    6   -1180.7587551855      2.41e-05  
    7   -1180.7588097200      8.50e-06  
    8   -1180.7588213411      4.06e-06  
    9   -1180.7588239272      1.41e-06  
   10   -1180.7588243534      5.01e-07  Convergence criterion met
 ---------------------------------------
 SCF time:   CPU 1700.40s  wall 59.00s 

************** Final PCM Free Energy Summary **************
 G_electrostatic  =      -0.00954561 hartree =      -5.98995931 kcal/mol
 G_cavitation     =       0.00000000 hartree =       0.00000000 kcal/mol
 G_dispersion     =       0.00000000 hartree =       0.00000000 kcal/mol
 G_repulsion      =       0.00000000 hartree =       0.00000000 kcal/mol
 --------------------------------------------------
 Non-electrostatic Free Energy =       0.00000000 hartree =       0.00000000 kcal/mol
 Total                         =      -0.00954561 hartree =      -5.98995931 kcal/mol
 --------------------------------------------------
 SCF Energy (H0 + V/2)                       =   -1180.75882435 
 Solute Internal Energy (H0)                 =   -1180.74927875 
 Total Free Energy (H0 + V/2 + non-elec)     =   -1180.75882435 hartree
                                             = -740937.34524857 kcal/mol
***********************************************************

 SCF   energy in the final basis set =    -1180.7588243534
 Total energy in the final basis set =    -1180.7588243534


 --------------------------------------------------------------
  Generalized many-body perturbation theory program
  by Joonho Lee, Fazle Rob, Xintian Feng, Evgeny Epifanovsky

 No regularization used 
 (reg. param. = 0.0000e+00)
  (P|Q)^-1/2 Time:  CPU 24.65 s  wall 0.40 s

 In RI-MP2 calculation: 
 # of frozen core orbitals: 20

 Components of the RIMP2 correlation energy:
        aaaa    correlation energy =        -0.2514617442 a.u.
        abab    correlation energy =        -1.5033176981 a.u.
        bbbb    correlation energy =        -0.2514617442 a.u.
        non-Brillouin singles      =        -0.0000000000 a.u.
        total same-spin energy     =        -0.5029234885 a.u.
        total opposite-spin energy =        -1.5033176981 a.u.

 Total  RIMP2   correlation energy =        -2.0062411866 a.u.
        RIMP2         total energy =     -1182.7650655400 a.u.

 RI-MP2 Energy Time:  CPU 172.74 s  wall 3.48 s
 
 --------------------------------------------------------------
 
                    Orbital Energies (a.u.)
 --------------------------------------------------------------
 
 Alpha MOs
 -- Occupied --
-91.9825 -91.9445 -11.2859 -11.2647 -11.2591 -11.2591 -11.2510 -11.2431
-11.2358 -11.2323 -11.2291 -11.2214  -8.9822  -8.9491  -6.6631  -6.6625
 -6.6620  -6.6305  -6.6295  -6.6282  -1.1995  -1.1531  -1.0583  -1.0288
 -1.0031  -0.9613  -0.9137  -0.9007  -0.8165  -0.7609  -0.7289  -0.7070
 -0.6587  -0.6452  -0.6112  -0.5915  -0.5857  -0.5703  -0.5597  -0.5539
 -0.5417  -0.5323  -0.5189  -0.5049  -0.4852  -0.4831  -0.4641  -0.4470
 -0.3574  -0.3424  -0.3217  -0.2703
 -- Virtual --
  0.1009   0.1308   0.1438   0.1491   0.1570   0.1695   0.1729   0.1858
  0.1975   0.1980   0.2035   0.2153   0.2186   0.2343   0.2400   0.2421
  0.2544   0.2677   0.2811   0.2991   0.3173   0.3350   0.3480   0.3558
  0.3693   0.3744   0.3853   0.3913   0.3983   0.4120   0.4161   0.4253
  0.4313   0.4479   0.4494   0.4629   0.4721   0.4792   0.4847   0.4951
  0.5001   0.5109   0.5176   0.5275   0.5352   0.5428   0.5473   0.5515
  0.5640   0.5798   0.5879   0.5900   0.5968   0.6048   0.6134   0.6196
  0.6223   0.6271   0.6340   0.6386   0.6435   0.6500   0.6513   0.6585
  0.6641   0.6718   0.6813   0.6932   0.6970   0.7168   0.7208   0.7251
  0.7377   0.7464   0.7574   0.7778   0.7790   0.7873   0.8106   0.8173
  0.8310   0.8352   0.8597   0.8687   0.8811   0.8923   0.9060   0.9165
  0.9306   0.9440   0.9491   0.9565   0.9737   0.9852   1.0056   1.0128
  1.0198   1.0318   1.0394   1.0496   1.0516   1.0604   1.0772   1.0891
  1.0930   1.0966   1.1162   1.1226   1.1326   1.1378   1.1624   1.1739
  1.1883   1.1930   1.2033   1.2083   1.2134   1.2283   1.2321   1.2421
  1.2541   1.2596   1.2708   1.2781   1.2808   1.2969   1.3052   1.3200
  1.3207   1.3425   1.3591   1.3628   1.3741   1.3879   1.3897   1.4137
  1.4212   1.4385   1.4415   1.4602   1.4633   1.4787   1.4854   1.4915
  1.5040   1.5101   1.5214   1.5248   1.5378   1.5433   1.5454   1.5537
  1.5768   1.5869   1.5970   1.6128   1.6167   1.6284   1.6396   1.6477
  1.6507   1.6655   1.6775   1.6894   1.7093   1.7232   1.7335   1.7394
  1.7480   1.7552   1.7695   1.7932   1.8056   1.8146   1.8568   1.8766
  1.8854   1.9134   1.9265   1.9378   1.9450   1.9601   1.9916   2.0007
  2.0140   2.0398   2.0464   2.0584   2.0658   2.1169   2.1414   2.1651
  2.1859   2.2016   2.2094   2.2249   2.2439   2.2530   2.2747   2.2874
  2.2933   2.3064   2.3190   2.3576   2.3985   2.4358   2.4658   2.4745
  2.4961   2.5190   2.5364   2.5634   2.5681   2.5860   2.6020   2.6293
  2.6400   2.6491   2.6542   2.6638   2.6695   2.6926   2.6990   2.7329
  2.7425   2.7504   2.7639   2.7675   2.7736   2.7899   2.8033   2.8166
  2.8376   2.8508   2.8536   2.8592   2.8859   2.8994   2.9198   2.9224
  2.9314   2.9553   2.9713   2.9895   2.9967   3.0138   3.0336   3.0396
  3.0454   3.0601   3.0882   3.0978   3.1111   3.1205   3.1308   3.1404
  3.1519   3.1552   3.1666   3.1787   3.1906   3.1968   3.2099   3.2175
  3.2305   3.2422   3.2523   3.2614   3.2783   3.2879   3.2944   3.2976
  3.3115   3.3209   3.3247   3.3317   3.3474   3.3549   3.3595   3.3615
  3.3742   3.3883   3.3991   3.3995   3.4089   3.4186   3.4308   3.4411
  3.4425   3.4437   3.4576   3.4599   3.4792   3.4826   3.4898   3.5063
  3.5136   3.5146   3.5284   3.5409   3.5459   3.5558   3.5723   3.5819
  3.5859   3.5981   3.6126   3.6251   3.6324   3.6372   3.6516   3.6546
  3.6651   3.6705   3.6941   3.7016   3.7139   3.7264   3.7337   3.7419
  3.7424   3.7539   3.7846   3.7872   3.7883   3.8003   3.8123   3.8298
  3.8382   3.8420   3.8574   3.8688   3.8832   3.8861   3.8991   3.9127
  3.9204   3.9361   3.9498   3.9668   3.9820   3.9947   4.0085   4.0209
  4.0308   4.0437   4.0493   4.0551   4.0627   4.0773   4.0811   4.1024
  4.1212   4.1366   4.1444   4.1525   4.1595   4.1827   4.1873   4.1947
  4.2110   4.2160   4.2299   4.2346   4.2436   4.2632   4.2718   4.2902
  4.2992   4.3040   4.3084   4.3378   4.3507   4.3543   4.3637   4.3748
  4.3803   4.3944   4.4016   4.4146   4.4280   4.4329   4.4421   4.4534
  4.4541   4.4702   4.4826   4.4961   4.5149   4.5259   4.5488   4.5517
  4.5763   4.5957   4.6097   4.6291   4.6396   4.6485   4.6597   4.6813
  4.6842   4.7255   4.7410   4.7441   4.7772   4.8098   4.8320   4.8444
  4.8607   4.8842   4.8971   4.9253   4.9369   4.9529   4.9731   4.9798
  5.0369   5.0725   5.0808   5.1079   5.1177   5.1295   5.1418   5.1813
  5.2054   5.2146   5.2462   5.2587   5.2748   5.2885   5.3064   5.3255
  5.3476   5.3559   5.3849   5.3938   5.4088   5.4267   5.4343   5.4434
  5.4615   5.5230   5.5251   5.5388   5.5500   5.5679   5.5717   5.6022
  5.6144   5.6232   5.6371   5.6502   5.6609   5.7002   5.7107   5.7478
  5.7681   5.7878   5.8317   5.9718   6.0450   6.0913   6.1324   6.1828
  6.2089   6.2278   6.2354   6.2495   6.2735   6.2751   6.3037   6.3296
  6.3971   6.5693   9.3628  10.6421  12.0070  12.9700  13.1710  13.8887
 14.0760  14.2007  14.4010  15.0649
 --------------------------------------------------------------
 
          Ground-State Mulliken Net Atomic Charges

     Atom                 Charge (a.u.)
  ----------------------------------------
      1 C                    -0.074148
      2 C                    -0.320597
      3 C                    -0.055921
      4 H                     0.178657
      5 C                     0.120464
      6 S                    -0.177471
      7 C                    -0.280427
      8 H                     0.118798
      9 H                     0.096732
     10 H                     0.115157
     11 C                    -0.064581
     12 C                    -0.274413
     13 C                     0.030267
     14 H                     0.189977
     15 C                    -0.259178
     16 S                     0.010927
     17 C                    -0.273029
     18 H                     0.101262
     19 H                     0.108852
     20 H                     0.108503
     21 H                     0.196400
     22 H                     0.112096
     23 H                     0.111559
     24 H                     0.180115
  ----------------------------------------
  Sum of atomic charges =     0.000000

 -----------------------------------------------------------------
                    Cartesian Multipole Moments
 -----------------------------------------------------------------
    Charge (ESU x 10^10)
                -0.0000
    Dipole Moment (Debye)
         X       1.1918      Y       0.0429      Z       3.8496
       Tot       4.0301
    Quadrupole Moments (Debye-Ang)
        XX     -91.0920     XY       0.6142     YY     -73.6911
        XZ       0.4038     YZ      -2.4618     ZZ     -86.2553
    Octopole Moments (Debye-Ang^2)
       XXX     -39.5551    XXY      44.0283    XYY      -8.2254
       YYY     121.4223    XXZ      -1.2479    XYZ      -2.8241
       YYZ      -3.9968    XZZ      -8.1478    YZZ      53.8684
       ZZZ      -2.7124
    Hexadecapole Moments (Debye-Ang^3)
      XXXX    -403.7010   XXXY     -88.2400   XXYY    -576.0955
      XYYY     -57.7313   YYYY   -2751.2372   XXXZ    -155.5212
      XXYZ     -42.8431   XYYZ     -39.3506   YYYZ    -109.8048
      XXZZ    -216.0412   XYZZ     -36.9265   YYZZ    -635.7796
      XZZZ    -154.8961   YZZZ    -111.2222   ZZZZ    -886.5027
 -----------------------------------------------------------------
 Total job time:  74.38s(wall), 2549.52s(cpu) 
 Fri Dec 15 14:08:52 2023

        *************************************************************
        *                                                           *
        *  Thank you very much for using Q-Chem.  Have a nice day.  *
        *                                                           *
        *************************************************************


0 sent ACK to 0 
now end server 0 ... 
cleanup process ... done
remove work dirs ./qchem2326161.0 -- ./qchem2326161.0
rm -rf ./qchem2326161.0
rm -rf ./qchem2326161
