You are running Q-Chem version: 5.4.0

#
# job setting
#
local host:  exp-9-54
current dir: /home/rramji/project-csd799/aromodel/p3ht-qchem/hydrogenated-rotation-run
input file:  Methylthiophene_Phi_25_Theta_260_Methylthiophene_Hydrogenated.qcin
output file: 
nprocs     : 1
nthreads   : 64
#
# qchem installation setting
#
QC:          /cm/shared/apps/spack/cpu/opt/spack/linux-centos8-zen2/gcc-10.2.0/qchem-5.4-akfmr7b3t57bfs6qan3padb2wnb2i7cl
QCAUX:       /cm/shared/apps/spack/cpu/opt/spack/linux-centos8-zen2/gcc-10.2.0/qchem-5.4-akfmr7b3t57bfs6qan3padb2wnb2i7cl/qcaux
QCPROG:      /cm/shared/apps/spack/cpu/opt/spack/linux-centos8-zen2/gcc-10.2.0/qchem-5.4-akfmr7b3t57bfs6qan3padb2wnb2i7cl/exe/qcprog.exe
QCPROG_S:    /cm/shared/apps/spack/cpu/opt/spack/linux-centos8-zen2/gcc-10.2.0/qchem-5.4-akfmr7b3t57bfs6qan3padb2wnb2i7cl/exe/qcprog.exe_s
PARALLEL:    -DPARALLEL
QCMPI:       mpich
#
# qchem directory setting
#
qcrun:       qchem3698808
QCSCRATCH:   .
QCLOCALSCR:  
QCTMPDIR:    .
QCFILEPREF:  ./qchem3698808
QCSAVEDIR:   
workdirs:    ./qchem3698808
workdir0:    ./qchem3698808
partmpdirs =  
#
# parallel setting
#
QCRSH:           ssh
QCMPI:           mpich
QCMPIRUN:        /cm/shared/apps/spack/cpu/opt/spack/linux-centos8-zen2/gcc-10.2.0/qchem-5.4-akfmr7b3t57bfs6qan3padb2wnb2i7cl/bin/mpi/mpirun_qchem
QCMACHINEFILE:   ./qchem3698808/hostfile
exp-9-54

#
# env setting
#
exported envs:   QC QCAUX QCSCRATCH QCRUNNAME QCFILEPREF QCPROG QCPROG_S GUIFILE

Running Job 1 of 1 Methylthiophene_Phi_25_Theta_260_Methylthiophene_Hydrogenated.qcin
qchem Methylthiophene_Phi_25_Theta_260_Methylthiophene_Hydrogenated.qcin_3698808.0 ./qchem3698808/ 1
/cm/shared/apps/spack/cpu/opt/spack/linux-centos8-zen2/gcc-10.2.0/qchem-5.4-akfmr7b3t57bfs6qan3padb2wnb2i7cl/bin/mpi/mpirun_qchem -machinefile ./qchem3698808/hostfile -np 1 /cm/shared/apps/spack/cpu/opt/spack/linux-centos8-zen2/gcc-10.2.0/qchem-5.4-akfmr7b3t57bfs6qan3padb2wnb2i7cl/exe/qcprog.exe Methylthiophene_Phi_25_Theta_260_Methylthiophene_Hydrogenated.qcin_3698808.0 ./qchem3698808/

Process 0 of 1 is on exp-9-54 - thread support 0
initial socket setup ...start
initial socket setup ...done 
now start server 0 ... 
                  Welcome to Q-Chem
     A Quantum Leap Into The Future Of Chemistry


 Q-Chem 5.4, Q-Chem, Inc., Pleasanton, CA (2021)

 License issued to: University of California, San Diego (site)

 E. Epifanovsky,  A. T. B. Gilbert,  Xintian Feng,  Joonho Lee,  Yuezhi Mao,  
 N. Mardirossian,  P. Pokhilko,  A. White,  M. Wormit,  M. P. Coons,  
 A. L. Dempwolff,  Zhengting Gan,  D. Hait,  P. R. Horn,  L. D. Jacobson,  
 I. Kaliman,  J. Kussmann,  A. W. Lange,  Ka Un Lao,  D. S. Levine,  Jie Liu,  
 S. C. McKenzie,  A. F. Morrison,  K. Nanda,  F. Plasser,  D. R. Rehn,  
 M. L. Vidal,  Zhi-Qiang You,  Ying Zhu,  B. Alam,  B. Albrecht,  
 A. Aldossary,  E. Alguire,  J. H. Andersen,  D. Barton,  K. Begam,  A. Behn,  
 Y. A. Bernard,  E. J. Berquist,  H. Burton,  A. Carreras,  K. Carter-Fenk,  
 R. Chakraborty,  A. D. Chien,  K. D. Closser,  V. Cofer-Shabica,  
 S. Dasgupta,  Jia Deng,  M. de Wergifosse,  M. Diedenhofen,  Hainam Do,  
 S. Ehlert,  Po-Tung Fang,  S. Fatehi,  Qingguo Feng,  J. Gayvert,  
 Qinghui Ge,  G. Gidofalvi,  M. Goldey,  J. Gomes,  C. Gonzalez-Espinoza,  
 S. Gulania,  A. Gunina,  M. W. D. Hanson-Heine,  P. H. P. Harbach,  
 A. W. Hauser,  M. F. Herbst,  M. Hernandez Vera,  M. Hodecker,  
 Z. C. Holden,  S. Houck,  Xunkun Huang,  Kerwin Hui,  B. C. Huynh,  
 M. Ivanov,  Hyunjun Ji,  Hanjie Jiang,  B. Kaduk,  S. Kaehler,  
 K. Khistyaev,  Jaehoon Kim,  P. Klunzinger,  Z. Koczor-Benda,  
 Joong Hoon Koh,  D. Kosenkov,  L. Koulias,  T. Kowalczyk,  C. M. Krauter,  
 K. Kue,  A. Kunitsa,  T. Kus,  A. Landau,  K. V. Lawler,  D. Lefrancois,  
 S. Lehtola,  Rain Li,  Yi-Pei Li,  Jiashu Liang,  M. Liebenthal,  
 Hung-Hsuan Lin,  You-Sheng Lin,  Fenglai Liu,  Kuan-Yu Liu,  
 M. Loipersberger,  A. Luenser,  A. Manjanath,  P. Manohar,  E. Mansoor,  
 S. F. Manzer,  Shan-Ping Mao,  A. V. Marenich,  T. Markovich,  S. Mason,  
 S. A. Maurer,  P. F. McLaughlin,  M. F. S. J. Menger,  J.-M. Mewes,  
 S. A. Mewes,  P. Morgante,  J. W. Mullinax,  T. S. Nguyen-Beck,  
 K. J. Oosterbaan,  G. Paran,  Alexander C. Paul,  Suranjan K. Paul,  
 F. Pavosevic,  Zheng Pei,  S. Prager,  E. I. Proynov,  E. Ramos,  B. Rana,  
 A. E. Rask,  A. Rettig,  R. M. Richard,  F. Rob,  E. Rossomme,  T. Scheele,  
 M. Scheurer,  M. Schneider,  N. Sergueev,  S. M. Sharada,  W. Skomorowski,  
 D. W. Small,  C. J. Stein,  Yu-Chuan Su,  E. J. Sundstrom,  Zhen Tao,  
 J. Thirman,  T. Tsuchimochi,  N. M. Tubman,  S. P. Veccham,  O. Vydrov,  
 J. Wenzel,  J. Witte,  A. Yamada,  Kun Yao,  S. Yeganeh,  S. R. Yost,  
 A. Zech,  Igor Ying Zhang,  Xing Zhang,  Yu Zhang,  D. Zuev,  
 A. Aspuru-Guzik,  A. T. Bell,  N. A. Besley,  K. B. Bravaya,  B. R. Brooks,  
 D. Casanova,  Jeng-Da Chai,  S. Coriani,  C. J. Cramer,  
 A. E. DePrince, III,  R. A. DiStasio Jr.,  A. Dreuw,  B. D. Dunietz,  
 T. R. Furlani,  W. A. Goddard III,  S. Grimme,  S. Hammes-Schiffer,  
 T. Head-Gordon,  W. J. Hehre,  Chao-Ping Hsu,  T.-C. Jagau,  Yousung Jung,  
 A. Klamt,  Jing Kong,  D. S. Lambrecht,  WanZhen Liang,  N. J. Mayhall,  
 C. W. McCurdy,  J. B. Neaton,  C. Ochsenfeld,  J. A. Parkhill,  R. Peverati,  
 V. A. Rassolov,  Yihan Shao,  L. V. Slipchenko,  T. Stauch,  R. P. Steele,  
 J. E. Subotnik,  A. J. W. Thom,  A. Tkatchenko,  D. G. Truhlar,  
 T. Van Voorhis,  T. A. Wesolowski,  K. B. Whaley,  H. L. Woodcock III,  
 P. M. Zimmerman,  S. Faraji,  P. M. W. Gill,  M. Head-Gordon,  
 J. M. Herbert,  A. I. Krylov

 Contributors to earlier versions of Q-Chem not listed above: 
 R. D. Adamson,  B. Austin,  R. Baer,  J. Baker,  G. J. O. Beran,  
 K. Brandhorst,  S. T. Brown,  E. F. C. Byrd,  A. K. Chakraborty,  
 G. K. L. Chan,  Chun-Min Chang,  Yunqing Chen,  C.-L. Cheng,  
 Siu Hung Chien,  D. M. Chipman,  D. L. Crittenden,  H. Dachsel,  
 R. J. Doerksen,  A. D. Dutoi,  R. G. Edgar,  J. Fosso-Tande,  
 L. Fusti-Molnar,  D. Ghosh,  A. Ghysels,  A. Golubeva-Zadorozhnaya,  
 J. Gonthier,  M. S. Gordon,  S. R. Gwaltney,  G. Hawkins,  J. E. Herr,  
 A. Heyden,  S. Hirata,  E. G. Hohenstein,  G. Kedziora,  F. J. Keil,  
 C. Kelley,  Jihan Kim,  R. A. King,  R. Z. Khaliullin,  P. P. Korambath,  
 W. Kurlancheek,  A. Laurent,  A. M. Lee,  M. S. Lee,  S. V. Levchenko,  
 Ching Yeh Lin,  D. Liotard,  E. Livshits,  R. C. Lochan,  I. Lotan,  
 L. A. Martinez-Martinez,  P. E. Maslen,  N. Nair,  D. P. O'Neill,  
 D. Neuhauser,  E. Neuscamman,  C. M. Oana,  R. Olivares-Amaya,  R. Olson,  
 T. M. Perrine,  B. Peters,  P. A. Pieniazek,  A. Prociuk,  Y. M. Rhee,  
 J. Ritchie,  M. A. Rohrdanz,  E. Rosta,  N. J. Russ,  H. F. Schaefer III,  
 M. W. Schmidt,  N. E. Schultz,  S. Sharma,  N. Shenvi,  C. D. Sherrill,  
 A. C. Simmonett,  A. Sodt,  T. Stein,  D. Stuck,  K. S. Thanthiriwatte,  
 V. Vanovschi,  L. Vogt,  Tao Wang,  A. Warshel,  M. A. Watson,  
 C. F. Williams,  Q. Wu,  X. Xu,  Jun Yang,  W. Zhang,  Yan Zhao

 Please cite Q-Chem as follows:
 Y. Shao et al., Mol. Phys. 113, 184-215 (2015)
 DOI: 10.1080/00268976.2014.952696

 Q-Chem 5.4.0 for Intel X86 EM64T Linux

 Parts of Q-Chem use Armadillo 9.800.1 (Horizon Scraper).
 http://arma.sourceforge.net/

 Q-Chem begins on Fri Dec 15 14:19:51 2023  

 Host: 
0

     Scratch files written to ./qchem3698808//
 May1621 |scratch|qcdevops|jenkins|workspace|build_RNUM    
 Parallel job on  1  processors
 Processing $rem in /cm/shared/apps/spack/cpu/opt/spack/linux-centos8-zen2/gcc-10.2.0/qchem-5.4-akfmr7b3t57bfs6qan3padb2wnb2i7cl/config/preferences:
 Processing $rem in /home/rramji/.qchemrc:
 Symmetry turned off for PCM/SM12/SMD calculation
 Core orbitals will be frozen

 Checking the input file for inconsistencies... 	...done.

 Q-Chem warning in module forms1/BasisType.C, line 2236:

 You are not using the predefined 5D/6D in this basis set.


--------------------------------------------------------------
User input:
--------------------------------------------------------------
$molecule
0 1
C	0.713644	-3.887800	-0.124726
C	-0.650907	-3.701456	0.115824
C	-1.068646	-2.345170	0.188844
H	-1.346284	-4.545233	0.238841
C	0.000000	-1.450135	0.000000
S	1.504375	-2.321334	-0.264890
C	-2.492978	-1.934439	0.439816
H	-3.147582	-2.819799	0.555669
H	-2.899931	-1.326210	-0.394879
H	-2.589982	-1.325374	1.362799
C	0.000000	0.000000	0.000000
C	0.354153	0.766774	1.113020
C	0.937751	2.029404	0.820578
H	0.191350	0.414475	2.142881
C	1.042030	2.254581	-0.563588
S	0.406851	0.881228	-1.464748
C	1.384426	2.995779	1.882380
H	1.196413	2.589194	2.894974
H	0.849641	3.965707	1.808137
H	2.469756	3.216753	1.808230
H	1.443919	3.124243	-1.097114
H	0.887375	-4.420219	-1.066566
H	1.199130	-4.419395	0.701364
H	-0.187554	-1.450628	-1.063590
$end

$rem
JOBTYPE		SP
EXCHANGE	HF
CORRELATION	pRIMP2
BASIS		cc-pvtz
METHOD		rimp2
AUX_BASIS	rimp2-cc-pvtz
SOLVENT_METHOD	PCM
PURECART	11111
SYMMETRY	false
MEM_TOTAL	110000
SCF_CONVERGENCE = 6
THRESH=10
GUI = 2
$end



$solvent
dielectric 4.90
$end
--------------------------------------------------------------
 ----------------------------------------------------------------
             Standard Nuclear Orientation (Angstroms)
    I     Atom           X                Y                Z
 ----------------------------------------------------------------
    1      C       0.7136440000    -3.8878000000    -0.1247260000
    2      C      -0.6509070000    -3.7014560000     0.1158240000
    3      C      -1.0686460000    -2.3451700000     0.1888440000
    4      H      -1.3462840000    -4.5452330000     0.2388410000
    5      C       0.0000000000    -1.4501350000     0.0000000000
    6      S       1.5043750000    -2.3213340000    -0.2648900000
    7      C      -2.4929780000    -1.9344390000     0.4398160000
    8      H      -3.1475820000    -2.8197990000     0.5556690000
    9      H      -2.8999310000    -1.3262100000    -0.3948790000
   10      H      -2.5899820000    -1.3253740000     1.3627990000
   11      C       0.0000000000     0.0000000000     0.0000000000
   12      C       0.3541530000     0.7667740000     1.1130200000
   13      C       0.9377510000     2.0294040000     0.8205780000
   14      H       0.1913500000     0.4144750000     2.1428810000
   15      C       1.0420300000     2.2545810000    -0.5635880000
   16      S       0.4068510000     0.8812280000    -1.4647480000
   17      C       1.3844260000     2.9957790000     1.8823800000
   18      H       1.1964130000     2.5891940000     2.8949740000
   19      H       0.8496410000     3.9657070000     1.8081370000
   20      H       2.4697560000     3.2167530000     1.8082300000
   21      H       1.4439190000     3.1242430000    -1.0971140000
   22      H       0.8873750000    -4.4202190000    -1.0665660000
   23      H       1.1991300000    -4.4193950000     0.7013640000
   24      H      -0.1875540000    -1.4506280000    -1.0635900000
 ----------------------------------------------------------------
 Nuclear Repulsion Energy =         875.49945693 hartrees
 There are       52 alpha and       52 beta electrons
 Requested basis set is cc-pVTZ
 There are 196 shells and 536 basis functions

 Total QAlloc Memory Limit 110000 MB
 Mega-Array Size       188 MB
 MEM_STATIC part       192 MB
 Discretize the solute cavity surface with Lebedev spheres
	Using 110 Lebedev grid points for each H atom
	Using 194 Lebedev grid points for other atoms
	Atomic van der Waals radii will be scaled by 1.20
 Remove points where switching function is < 1.0e-08
 Keep 1631 surface tesserae and discard 2017 interior tesserae
 Molecular Surface Area = 237.723 Angst**2
 Requested basis set is rimp2-cc-pVTZ
 There are 414 shells and 1414 basis functions
 A cutoff of  1.0D-10 yielded  13911 shell pairs
 There are    100549 function pairs (    128893 Cartesian)
 Smallest overlap matrix eigenvalue = 7.35E-05

 Scale SEOQF with 1.000000e-01/1.000000e-01/1.000000e-01

 Standard Electronic Orientation quadrupole field applied
 Nucleus-field energy     =     0.0000000356 hartrees
 Guess from superposition of atomic densities
 Warning:  Energy on first SCF cycle will be non-variational
 SAD guess density has 104.000000 electrons

 -----------------------------------------------------------------------
  General SCF calculation program by
  Eric Jon Sundstrom, Paul Horn, Yuezhi Mao, Dmitri Zuev, Alec White,
  David Stuck, Shaama M.S., Shane Yost, Joonho Lee, David Small,
  Daniel Levine, Susi Lehtola, Hugh Burton, Evgeny Epifanovsky,
  Bang C. Huynh
 -----------------------------------------------------------------------
 Hartree-Fock
 using 64 threads for integral computing
 -------------------------------------------------------
 OpenMP Integral computing Module                
 Release: version 1.0, May 2013, Q-Chem Inc. Pittsburgh 
 -------------------------------------------------------
 A restricted SCF calculation will be
 performed using DIIS
 SCF converges when DIIS error is below 1.0e-06
 ---------------------------------------
  Cycle       Energy         DIIS error
 ---------------------------------------
    1   -1186.0129708665      2.39e-02  
    2   -1180.6063985859      1.55e-03  
    3   -1180.7313554803      5.84e-04  
    4   -1180.7451026717      3.13e-04  
    5   -1180.7496179752      6.08e-05  
    6   -1180.7498657161      2.48e-05  
    7   -1180.7499275906      9.51e-06  
    8   -1180.7499424636      4.62e-06  
    9   -1180.7499460660      1.58e-06  
   10   -1180.7499466214      5.32e-07  Convergence criterion met
 ---------------------------------------
 SCF time:   CPU 1643.55s  wall 51.00s 

************** Final PCM Free Energy Summary **************
 G_electrostatic  =      -0.00908896 hartree =      -5.70340618 kcal/mol
 G_cavitation     =       0.00000000 hartree =       0.00000000 kcal/mol
 G_dispersion     =       0.00000000 hartree =       0.00000000 kcal/mol
 G_repulsion      =       0.00000000 hartree =       0.00000000 kcal/mol
 --------------------------------------------------
 Non-electrostatic Free Energy =       0.00000000 hartree =       0.00000000 kcal/mol
 Total                         =      -0.00908896 hartree =      -5.70340618 kcal/mol
 --------------------------------------------------
 SCF Energy (H0 + V/2)                       =   -1180.74994662 
 Solute Internal Energy (H0)                 =   -1180.74085767 
 Total Free Energy (H0 + V/2 + non-elec)     =   -1180.74994662 hartree
                                             = -740931.77438767 kcal/mol
***********************************************************

 SCF   energy in the final basis set =    -1180.7499466214
 Total energy in the final basis set =    -1180.7499466214


 --------------------------------------------------------------
  Generalized many-body perturbation theory program
  by Joonho Lee, Fazle Rob, Xintian Feng, Evgeny Epifanovsky

 No regularization used 
 (reg. param. = 0.0000e+00)
  (P|Q)^-1/2 Time:  CPU 20.25 s  wall 0.32 s

 In RI-MP2 calculation: 
 # of frozen core orbitals: 20

 Components of the RIMP2 correlation energy:
        aaaa    correlation energy =        -0.2512950329 a.u.
        abab    correlation energy =        -1.5039411736 a.u.
        bbbb    correlation energy =        -0.2512950329 a.u.
        non-Brillouin singles      =        -0.0000000000 a.u.
        total same-spin energy     =        -0.5025900657 a.u.
        total opposite-spin energy =        -1.5039411736 a.u.

 Total  RIMP2   correlation energy =        -2.0065312393 a.u.
        RIMP2         total energy =     -1182.7564778607 a.u.

 RI-MP2 Energy Time:  CPU 167.87 s  wall 3.22 s
 
 --------------------------------------------------------------
 
                    Orbital Energies (a.u.)
 --------------------------------------------------------------
 
 Alpha MOs
 -- Occupied --
-91.9858 -91.9405 -11.2736 -11.2695 -11.2607 -11.2540 -11.2510 -11.2410
-11.2403 -11.2309 -11.2289 -11.2169  -8.9855  -8.9452  -6.6664  -6.6659
 -6.6652  -6.6265  -6.6255  -6.6242  -1.1971  -1.1538  -1.0568  -1.0261
 -1.0014  -0.9629  -0.9119  -0.9006  -0.8118  -0.7598  -0.7424  -0.7029
 -0.6525  -0.6322  -0.6115  -0.5870  -0.5782  -0.5720  -0.5672  -0.5528
 -0.5418  -0.5298  -0.5091  -0.5062  -0.4915  -0.4789  -0.4635  -0.4488
 -0.3572  -0.3383  -0.3130  -0.2805
 -- Virtual --
  0.0852   0.1272   0.1420   0.1530   0.1599   0.1683   0.1751   0.1829
  0.1876   0.1975   0.2049   0.2186   0.2259   0.2328   0.2345   0.2442
  0.2461   0.2601   0.2702   0.2948   0.3108   0.3347   0.3402   0.3496
  0.3642   0.3765   0.3799   0.3856   0.3872   0.3972   0.4145   0.4199
  0.4300   0.4407   0.4465   0.4610   0.4675   0.4720   0.4849   0.4869
  0.4933   0.5104   0.5174   0.5300   0.5359   0.5380   0.5421   0.5538
  0.5726   0.5776   0.5831   0.6011   0.6025   0.6113   0.6133   0.6218
  0.6264   0.6278   0.6297   0.6325   0.6378   0.6442   0.6512   0.6581
  0.6613   0.6714   0.6735   0.6866   0.6962   0.6995   0.7078   0.7242
  0.7371   0.7433   0.7477   0.7644   0.7930   0.8023   0.8095   0.8114
  0.8271   0.8410   0.8462   0.8587   0.8733   0.8873   0.9026   0.9137
  0.9279   0.9373   0.9469   0.9576   0.9795   0.9820   1.0068   1.0102
  1.0180   1.0247   1.0308   1.0370   1.0470   1.0600   1.0653   1.0817
  1.0909   1.0958   1.1127   1.1199   1.1385   1.1512   1.1631   1.1683
  1.1769   1.1851   1.1926   1.2026   1.2078   1.2290   1.2325   1.2393
  1.2529   1.2596   1.2679   1.2733   1.2801   1.2872   1.3079   1.3201
  1.3311   1.3389   1.3401   1.3530   1.3764   1.3920   1.4060   1.4099
  1.4223   1.4363   1.4432   1.4512   1.4569   1.4792   1.4844   1.4968
  1.5029   1.5110   1.5168   1.5285   1.5331   1.5355   1.5579   1.5613
  1.5660   1.5714   1.5783   1.5867   1.6153   1.6196   1.6336   1.6401
  1.6573   1.6736   1.6863   1.6909   1.6961   1.7119   1.7218   1.7282
  1.7462   1.7544   1.7576   1.7836   1.7927   1.8139   1.8332   1.8495
  1.8712   1.9139   1.9249   1.9427   1.9541   1.9563   1.9916   2.0085
  2.0121   2.0160   2.0351   2.0701   2.0807   2.1170   2.1304   2.1380
  2.1715   2.1917   2.1952   2.2114   2.2302   2.2540   2.2590   2.2719
  2.3100   2.3311   2.3370   2.3740   2.4185   2.4426   2.4583   2.4812
  2.4917   2.5088   2.5241   2.5465   2.5628   2.5828   2.6012   2.6227
  2.6362   2.6433   2.6576   2.6657   2.6761   2.6811   2.6935   2.7239
  2.7408   2.7492   2.7617   2.7737   2.7808   2.7941   2.8106   2.8321
  2.8400   2.8539   2.8663   2.8801   2.8951   2.9041   2.9072   2.9178
  2.9336   2.9409   2.9727   2.9839   3.0067   3.0146   3.0324   3.0348
  3.0590   3.0692   3.0773   3.1096   3.1139   3.1187   3.1222   3.1340
  3.1434   3.1547   3.1670   3.1749   3.1900   3.1938   3.2098   3.2242
  3.2272   3.2398   3.2496   3.2540   3.2768   3.2886   3.2979   3.3033
  3.3118   3.3254   3.3318   3.3408   3.3434   3.3533   3.3591   3.3715
  3.3742   3.3837   3.3853   3.3919   3.4060   3.4163   3.4219   3.4280
  3.4311   3.4508   3.4635   3.4654   3.4789   3.4935   3.5023   3.5091
  3.5124   3.5236   3.5319   3.5388   3.5476   3.5533   3.5748   3.5907
  3.5981   3.6135   3.6233   3.6266   3.6321   3.6479   3.6581   3.6607
  3.6680   3.6783   3.6907   3.7004   3.7130   3.7202   3.7318   3.7382
  3.7429   3.7596   3.7644   3.7772   3.7831   3.7900   3.8018   3.8121
  3.8279   3.8401   3.8566   3.8682   3.8747   3.8782   3.9082   3.9155
  3.9305   3.9436   3.9441   3.9624   3.9702   3.9822   4.0029   4.0198
  4.0296   4.0379   4.0469   4.0535   4.0571   4.0952   4.0964   4.1063
  4.1150   4.1244   4.1361   4.1507   4.1653   4.1695   4.1841   4.2025
  4.2122   4.2232   4.2297   4.2441   4.2530   4.2609   4.2712   4.2746
  4.2940   4.2981   4.3111   4.3226   4.3336   4.3439   4.3583   4.3700
  4.3821   4.3879   4.3999   4.4015   4.4147   4.4204   4.4314   4.4470
  4.4556   4.4645   4.4731   4.4801   4.5041   4.5128   4.5217   4.5465
  4.5710   4.5824   4.6124   4.6264   4.6394   4.6421   4.6473   4.6578
  4.7075   4.7170   4.7365   4.7411   4.7583   4.8054   4.8287   4.8346
  4.8525   4.8857   4.8970   4.9011   4.9368   4.9442   4.9798   4.9909
  4.9994   5.0331   5.0649   5.0979   5.1127   5.1291   5.1571   5.1659
  5.1798   5.2069   5.2231   5.2600   5.2830   5.2893   5.3102   5.3194
  5.3464   5.3629   5.3781   5.3953   5.4057   5.4149   5.4407   5.4483
  5.4783   5.5097   5.5305   5.5390   5.5511   5.5587   5.5757   5.5815
  5.6223   5.6246   5.6454   5.6635   5.6725   5.7006   5.7086   5.7501
  5.7562   5.7849   5.8317   5.9427   5.9874   6.0384   6.1185   6.1307
  6.2042   6.2168   6.2253   6.2343   6.2419   6.2775   6.2993   6.3108
  6.3704   6.4626   9.3451  10.6357  12.1454  12.9016  13.1682  13.9597
 14.0362  14.2138  14.2934  14.5614
 --------------------------------------------------------------
 
          Ground-State Mulliken Net Atomic Charges

     Atom                 Charge (a.u.)
  ----------------------------------------
      1 C                    -0.072392
      2 C                    -0.327043
      3 C                    -0.036852
      4 H                     0.175857
      5 C                     0.079091
      6 S                    -0.173032
      7 C                    -0.269510
      8 H                     0.112469
      9 H                     0.103272
     10 H                     0.103972
     11 C                    -0.100565
     12 C                    -0.212668
     13 C                     0.024002
     14 H                     0.183460
     15 C                    -0.232883
     16 S                     0.013465
     17 C                    -0.270719
     18 H                     0.102869
     19 H                     0.107343
     20 H                     0.108042
     21 H                     0.199509
     22 H                     0.108495
     23 H                     0.111345
     24 H                     0.162470
  ----------------------------------------
  Sum of atomic charges =     0.000000

 -----------------------------------------------------------------
                    Cartesian Multipole Moments
 -----------------------------------------------------------------
    Charge (ESU x 10^10)
                -0.0000
    Dipole Moment (Debye)
         X      -1.5951      Y       0.8631      Z       1.2138
       Tot       2.1824
    Quadrupole Moments (Debye-Ang)
        XX     -89.8876     XY       8.1660     YY     -75.8670
        XZ       0.1343     YZ       1.6159     ZZ     -85.6953
    Octopole Moments (Debye-Ang^2)
       XXX     -90.3809    XXY      55.4123    XYY     -14.3934
       YYY     139.9392    XXZ      -1.4184    XYZ       0.4699
       YYZ      -7.3041    XZZ     -23.3658    YZZ      61.7121
       ZZZ      -0.8320
    Hexadecapole Moments (Debye-Ang^3)
      XXXX    -860.6079   XXXY    -153.5485   XXYY    -600.5880
      XYYY    -153.1895   YYYY   -2660.4989   XXXZ       1.1672
      XXYZ     -38.7251   XYYZ     -11.5710   YYYZ     -99.1104
      XXZZ    -243.9930   XYZZ     -55.3204   YYZZ    -577.5017
      XZZZ       7.0420   YZZZ     -91.2844   ZZZZ    -560.4331
 -----------------------------------------------------------------
 Total job time:  56.06s(wall), 1884.40s(cpu) 
 Fri Dec 15 14:20:47 2023

        *************************************************************
        *                                                           *
        *  Thank you very much for using Q-Chem.  Have a nice day.  *
        *                                                           *
        *************************************************************


0 sent ACK to 0 
now end server 0 ... 
cleanup process ... done
remove work dirs ./qchem3698808.0 -- ./qchem3698808.0
rm -rf ./qchem3698808.0
rm -rf ./qchem3698808
