You are running Q-Chem version: 5.4.0

#
# job setting
#
local host:  exp-6-19
current dir: /home/rramji/project-csd799/aromodel/p3ht-qchem/hydrogenated-rotation-run
input file:  Methylthiophene_Phi_50_Theta_80_Methylthiophene_Hydrogenated.qcin
output file: 
nprocs     : 1
nthreads   : 64
#
# qchem installation setting
#
QC:          /cm/shared/apps/spack/cpu/opt/spack/linux-centos8-zen2/gcc-10.2.0/qchem-5.4-akfmr7b3t57bfs6qan3padb2wnb2i7cl
QCAUX:       /cm/shared/apps/spack/cpu/opt/spack/linux-centos8-zen2/gcc-10.2.0/qchem-5.4-akfmr7b3t57bfs6qan3padb2wnb2i7cl/qcaux
QCPROG:      /cm/shared/apps/spack/cpu/opt/spack/linux-centos8-zen2/gcc-10.2.0/qchem-5.4-akfmr7b3t57bfs6qan3padb2wnb2i7cl/exe/qcprog.exe
QCPROG_S:    /cm/shared/apps/spack/cpu/opt/spack/linux-centos8-zen2/gcc-10.2.0/qchem-5.4-akfmr7b3t57bfs6qan3padb2wnb2i7cl/exe/qcprog.exe_s
PARALLEL:    -DPARALLEL
QCMPI:       mpich
#
# qchem directory setting
#
qcrun:       qchem2712949
QCSCRATCH:   .
QCLOCALSCR:  
QCTMPDIR:    .
QCFILEPREF:  ./qchem2712949
QCSAVEDIR:   
workdirs:    ./qchem2712949
workdir0:    ./qchem2712949
partmpdirs =  
#
# parallel setting
#
QCRSH:           ssh
QCMPI:           mpich
QCMPIRUN:        /cm/shared/apps/spack/cpu/opt/spack/linux-centos8-zen2/gcc-10.2.0/qchem-5.4-akfmr7b3t57bfs6qan3padb2wnb2i7cl/bin/mpi/mpirun_qchem
QCMACHINEFILE:   ./qchem2712949/hostfile
exp-6-19

#
# env setting
#
exported envs:   QC QCAUX QCSCRATCH QCRUNNAME QCFILEPREF QCPROG QCPROG_S GUIFILE

Running Job 1 of 1 Methylthiophene_Phi_50_Theta_80_Methylthiophene_Hydrogenated.qcin
qchem Methylthiophene_Phi_50_Theta_80_Methylthiophene_Hydrogenated.qcin_2712949.0 ./qchem2712949/ 1
/cm/shared/apps/spack/cpu/opt/spack/linux-centos8-zen2/gcc-10.2.0/qchem-5.4-akfmr7b3t57bfs6qan3padb2wnb2i7cl/bin/mpi/mpirun_qchem -machinefile ./qchem2712949/hostfile -np 1 /cm/shared/apps/spack/cpu/opt/spack/linux-centos8-zen2/gcc-10.2.0/qchem-5.4-akfmr7b3t57bfs6qan3padb2wnb2i7cl/exe/qcprog.exe Methylthiophene_Phi_50_Theta_80_Methylthiophene_Hydrogenated.qcin_2712949.0 ./qchem2712949/

Process 0 of 1 is on exp-6-19 - thread support 0
initial socket setup ...start
initial socket setup ...done 
now start server 0 ... 
                  Welcome to Q-Chem
     A Quantum Leap Into The Future Of Chemistry


 Q-Chem 5.4, Q-Chem, Inc., Pleasanton, CA (2021)

 License issued to: University of California, San Diego (site)

 E. Epifanovsky,  A. T. B. Gilbert,  Xintian Feng,  Joonho Lee,  Yuezhi Mao,  
 N. Mardirossian,  P. Pokhilko,  A. White,  M. Wormit,  M. P. Coons,  
 A. L. Dempwolff,  Zhengting Gan,  D. Hait,  P. R. Horn,  L. D. Jacobson,  
 I. Kaliman,  J. Kussmann,  A. W. Lange,  Ka Un Lao,  D. S. Levine,  Jie Liu,  
 S. C. McKenzie,  A. F. Morrison,  K. Nanda,  F. Plasser,  D. R. Rehn,  
 M. L. Vidal,  Zhi-Qiang You,  Ying Zhu,  B. Alam,  B. Albrecht,  
 A. Aldossary,  E. Alguire,  J. H. Andersen,  D. Barton,  K. Begam,  A. Behn,  
 Y. A. Bernard,  E. J. Berquist,  H. Burton,  A. Carreras,  K. Carter-Fenk,  
 R. Chakraborty,  A. D. Chien,  K. D. Closser,  V. Cofer-Shabica,  
 S. Dasgupta,  Jia Deng,  M. de Wergifosse,  M. Diedenhofen,  Hainam Do,  
 S. Ehlert,  Po-Tung Fang,  S. Fatehi,  Qingguo Feng,  J. Gayvert,  
 Qinghui Ge,  G. Gidofalvi,  M. Goldey,  J. Gomes,  C. Gonzalez-Espinoza,  
 S. Gulania,  A. Gunina,  M. W. D. Hanson-Heine,  P. H. P. Harbach,  
 A. W. Hauser,  M. F. Herbst,  M. Hernandez Vera,  M. Hodecker,  
 Z. C. Holden,  S. Houck,  Xunkun Huang,  Kerwin Hui,  B. C. Huynh,  
 M. Ivanov,  Hyunjun Ji,  Hanjie Jiang,  B. Kaduk,  S. Kaehler,  
 K. Khistyaev,  Jaehoon Kim,  P. Klunzinger,  Z. Koczor-Benda,  
 Joong Hoon Koh,  D. Kosenkov,  L. Koulias,  T. Kowalczyk,  C. M. Krauter,  
 K. Kue,  A. Kunitsa,  T. Kus,  A. Landau,  K. V. Lawler,  D. Lefrancois,  
 S. Lehtola,  Rain Li,  Yi-Pei Li,  Jiashu Liang,  M. Liebenthal,  
 Hung-Hsuan Lin,  You-Sheng Lin,  Fenglai Liu,  Kuan-Yu Liu,  
 M. Loipersberger,  A. Luenser,  A. Manjanath,  P. Manohar,  E. Mansoor,  
 S. F. Manzer,  Shan-Ping Mao,  A. V. Marenich,  T. Markovich,  S. Mason,  
 S. A. Maurer,  P. F. McLaughlin,  M. F. S. J. Menger,  J.-M. Mewes,  
 S. A. Mewes,  P. Morgante,  J. W. Mullinax,  T. S. Nguyen-Beck,  
 K. J. Oosterbaan,  G. Paran,  Alexander C. Paul,  Suranjan K. Paul,  
 F. Pavosevic,  Zheng Pei,  S. Prager,  E. I. Proynov,  E. Ramos,  B. Rana,  
 A. E. Rask,  A. Rettig,  R. M. Richard,  F. Rob,  E. Rossomme,  T. Scheele,  
 M. Scheurer,  M. Schneider,  N. Sergueev,  S. M. Sharada,  W. Skomorowski,  
 D. W. Small,  C. J. Stein,  Yu-Chuan Su,  E. J. Sundstrom,  Zhen Tao,  
 J. Thirman,  T. Tsuchimochi,  N. M. Tubman,  S. P. Veccham,  O. Vydrov,  
 J. Wenzel,  J. Witte,  A. Yamada,  Kun Yao,  S. Yeganeh,  S. R. Yost,  
 A. Zech,  Igor Ying Zhang,  Xing Zhang,  Yu Zhang,  D. Zuev,  
 A. Aspuru-Guzik,  A. T. Bell,  N. A. Besley,  K. B. Bravaya,  B. R. Brooks,  
 D. Casanova,  Jeng-Da Chai,  S. Coriani,  C. J. Cramer,  
 A. E. DePrince, III,  R. A. DiStasio Jr.,  A. Dreuw,  B. D. Dunietz,  
 T. R. Furlani,  W. A. Goddard III,  S. Grimme,  S. Hammes-Schiffer,  
 T. Head-Gordon,  W. J. Hehre,  Chao-Ping Hsu,  T.-C. Jagau,  Yousung Jung,  
 A. Klamt,  Jing Kong,  D. S. Lambrecht,  WanZhen Liang,  N. J. Mayhall,  
 C. W. McCurdy,  J. B. Neaton,  C. Ochsenfeld,  J. A. Parkhill,  R. Peverati,  
 V. A. Rassolov,  Yihan Shao,  L. V. Slipchenko,  T. Stauch,  R. P. Steele,  
 J. E. Subotnik,  A. J. W. Thom,  A. Tkatchenko,  D. G. Truhlar,  
 T. Van Voorhis,  T. A. Wesolowski,  K. B. Whaley,  H. L. Woodcock III,  
 P. M. Zimmerman,  S. Faraji,  P. M. W. Gill,  M. Head-Gordon,  
 J. M. Herbert,  A. I. Krylov

 Contributors to earlier versions of Q-Chem not listed above: 
 R. D. Adamson,  B. Austin,  R. Baer,  J. Baker,  G. J. O. Beran,  
 K. Brandhorst,  S. T. Brown,  E. F. C. Byrd,  A. K. Chakraborty,  
 G. K. L. Chan,  Chun-Min Chang,  Yunqing Chen,  C.-L. Cheng,  
 Siu Hung Chien,  D. M. Chipman,  D. L. Crittenden,  H. Dachsel,  
 R. J. Doerksen,  A. D. Dutoi,  R. G. Edgar,  J. Fosso-Tande,  
 L. Fusti-Molnar,  D. Ghosh,  A. Ghysels,  A. Golubeva-Zadorozhnaya,  
 J. Gonthier,  M. S. Gordon,  S. R. Gwaltney,  G. Hawkins,  J. E. Herr,  
 A. Heyden,  S. Hirata,  E. G. Hohenstein,  G. Kedziora,  F. J. Keil,  
 C. Kelley,  Jihan Kim,  R. A. King,  R. Z. Khaliullin,  P. P. Korambath,  
 W. Kurlancheek,  A. Laurent,  A. M. Lee,  M. S. Lee,  S. V. Levchenko,  
 Ching Yeh Lin,  D. Liotard,  E. Livshits,  R. C. Lochan,  I. Lotan,  
 L. A. Martinez-Martinez,  P. E. Maslen,  N. Nair,  D. P. O'Neill,  
 D. Neuhauser,  E. Neuscamman,  C. M. Oana,  R. Olivares-Amaya,  R. Olson,  
 T. M. Perrine,  B. Peters,  P. A. Pieniazek,  A. Prociuk,  Y. M. Rhee,  
 J. Ritchie,  M. A. Rohrdanz,  E. Rosta,  N. J. Russ,  H. F. Schaefer III,  
 M. W. Schmidt,  N. E. Schultz,  S. Sharma,  N. Shenvi,  C. D. Sherrill,  
 A. C. Simmonett,  A. Sodt,  T. Stein,  D. Stuck,  K. S. Thanthiriwatte,  
 V. Vanovschi,  L. Vogt,  Tao Wang,  A. Warshel,  M. A. Watson,  
 C. F. Williams,  Q. Wu,  X. Xu,  Jun Yang,  W. Zhang,  Yan Zhao

 Please cite Q-Chem as follows:
 Y. Shao et al., Mol. Phys. 113, 184-215 (2015)
 DOI: 10.1080/00268976.2014.952696

 Q-Chem 5.4.0 for Intel X86 EM64T Linux

 Parts of Q-Chem use Armadillo 9.800.1 (Horizon Scraper).
 http://arma.sourceforge.net/

 Q-Chem begins on Fri Dec 15 14:03:18 2023  

 Host: 
0

     Scratch files written to ./qchem2712949//
 May1621 |scratch|qcdevops|jenkins|workspace|build_RNUM    
 Parallel job on  1  processors
 Processing $rem in /cm/shared/apps/spack/cpu/opt/spack/linux-centos8-zen2/gcc-10.2.0/qchem-5.4-akfmr7b3t57bfs6qan3padb2wnb2i7cl/config/preferences:
 Processing $rem in /home/rramji/.qchemrc:
 Symmetry turned off for PCM/SM12/SMD calculation
 Core orbitals will be frozen

 Checking the input file for inconsistencies... 	...done.

 Q-Chem warning in module forms1/BasisType.C, line 2236:

 You are not using the predefined 5D/6D in this basis set.


--------------------------------------------------------------
User input:
--------------------------------------------------------------
$molecule
0 1
C	-0.713644	-3.887800	0.124726
C	0.650907	-3.701456	-0.115824
C	1.068646	-2.345170	-0.188844
H	1.346284	-4.545233	-0.238841
C	0.000000	-1.450135	0.000000
S	-1.504375	-2.321334	0.264890
C	2.492978	-1.934439	-0.439816
H	3.147582	-2.819799	-0.555669
H	2.899931	-1.326210	0.394879
H	2.589982	-1.325374	-1.362799
C	0.000000	0.000000	0.000000
C	0.645024	0.545262	1.113020
C	1.707554	1.442954	0.820578
H	0.348587	0.294774	2.142881
C	1.897227	1.602964	-0.563588
S	0.741155	0.626722	-1.464748
C	2.520787	2.130014	1.882380
H	2.178559	1.840981	2.894974
H	2.446016	3.235078	1.808137
H	3.597818	1.871604	1.808230
H	2.628997	2.221299	-1.097114
H	-0.887375	-4.420219	1.066566
H	-1.199130	-4.419395	-0.701364
H	0.187554	-1.450628	1.063590
$end

$rem
JOBTYPE		SP
EXCHANGE	HF
CORRELATION	pRIMP2
BASIS		cc-pvtz
METHOD		rimp2
AUX_BASIS	rimp2-cc-pvtz
SOLVENT_METHOD	PCM
PURECART	11111
SYMMETRY	false
MEM_TOTAL	110000
SCF_CONVERGENCE = 6
THRESH=10
GUI = 2
$end



$solvent
dielectric 4.90
$end
--------------------------------------------------------------
 ----------------------------------------------------------------
             Standard Nuclear Orientation (Angstroms)
    I     Atom           X                Y                Z
 ----------------------------------------------------------------
    1      C      -0.7136440000    -3.8878000000     0.1247260000
    2      C       0.6509070000    -3.7014560000    -0.1158240000
    3      C       1.0686460000    -2.3451700000    -0.1888440000
    4      H       1.3462840000    -4.5452330000    -0.2388410000
    5      C       0.0000000000    -1.4501350000     0.0000000000
    6      S      -1.5043750000    -2.3213340000     0.2648900000
    7      C       2.4929780000    -1.9344390000    -0.4398160000
    8      H       3.1475820000    -2.8197990000    -0.5556690000
    9      H       2.8999310000    -1.3262100000     0.3948790000
   10      H       2.5899820000    -1.3253740000    -1.3627990000
   11      C       0.0000000000     0.0000000000     0.0000000000
   12      C       0.6450240000     0.5452620000     1.1130200000
   13      C       1.7075540000     1.4429540000     0.8205780000
   14      H       0.3485870000     0.2947740000     2.1428810000
   15      C       1.8972270000     1.6029640000    -0.5635880000
   16      S       0.7411550000     0.6267220000    -1.4647480000
   17      C       2.5207870000     2.1300140000     1.8823800000
   18      H       2.1785590000     1.8409810000     2.8949740000
   19      H       2.4460160000     3.2350780000     1.8081370000
   20      H       3.5978180000     1.8716040000     1.8082300000
   21      H       2.6289970000     2.2212990000    -1.0971140000
   22      H      -0.8873750000    -4.4202190000     1.0665660000
   23      H      -1.1991300000    -4.4193950000    -0.7013640000
   24      H       0.1875540000    -1.4506280000     1.0635900000
 ----------------------------------------------------------------
 Nuclear Repulsion Energy =         894.42306349 hartrees
 There are       52 alpha and       52 beta electrons
 Requested basis set is cc-pVTZ
 There are 196 shells and 536 basis functions

 Total QAlloc Memory Limit 110000 MB
 Mega-Array Size       188 MB
 MEM_STATIC part       192 MB
 Discretize the solute cavity surface with Lebedev spheres
	Using 110 Lebedev grid points for each H atom
	Using 194 Lebedev grid points for other atoms
	Atomic van der Waals radii will be scaled by 1.20
 Remove points where switching function is < 1.0e-08
 Keep 1564 surface tesserae and discard 2084 interior tesserae
 Molecular Surface Area = 228.144 Angst**2
 Requested basis set is rimp2-cc-pVTZ
 There are 414 shells and 1414 basis functions
 A cutoff of  1.0D-10 yielded  14788 shell pairs
 There are    107842 function pairs (    138495 Cartesian)
 Smallest overlap matrix eigenvalue = 7.37E-05

 Scale SEOQF with 1.000000e-01/1.000000e-01/1.000000e-01

 Standard Electronic Orientation quadrupole field applied
 Nucleus-field energy     =     0.0000000326 hartrees
 Guess from superposition of atomic densities
 Warning:  Energy on first SCF cycle will be non-variational
 SAD guess density has 104.000000 electrons

 -----------------------------------------------------------------------
  General SCF calculation program by
  Eric Jon Sundstrom, Paul Horn, Yuezhi Mao, Dmitri Zuev, Alec White,
  David Stuck, Shaama M.S., Shane Yost, Joonho Lee, David Small,
  Daniel Levine, Susi Lehtola, Hugh Burton, Evgeny Epifanovsky,
  Bang C. Huynh
 -----------------------------------------------------------------------
 Hartree-Fock
 using 64 threads for integral computing
 -------------------------------------------------------
 OpenMP Integral computing Module                
 Release: version 1.0, May 2013, Q-Chem Inc. Pittsburgh 
 -------------------------------------------------------
 A restricted SCF calculation will be
 performed using DIIS
 SCF converges when DIIS error is below 1.0e-06
 ---------------------------------------
  Cycle       Energy         DIIS error
 ---------------------------------------
    1   -1186.1216356240      2.40e-02  
    2   -1180.5634391982      1.53e-03  
    3   -1180.6891187160      5.33e-04  
    4   -1180.7020559531      2.87e-04  
    5   -1180.7058555973      6.09e-05  
    6   -1180.7061296282      2.54e-05  
    7   -1180.7062076803      1.21e-05  
    8   -1180.7062328534      5.70e-06  
    9   -1180.7062403834      2.49e-06  
   10   -1180.7062417074      8.85e-07  Convergence criterion met
 ---------------------------------------
 SCF time:   CPU 1755.29s  wall 52.00s 

************** Final PCM Free Energy Summary **************
 G_electrostatic  =      -0.01022865 hartree =      -6.41857310 kcal/mol
 G_cavitation     =       0.00000000 hartree =       0.00000000 kcal/mol
 G_dispersion     =       0.00000000 hartree =       0.00000000 kcal/mol
 G_repulsion      =       0.00000000 hartree =       0.00000000 kcal/mol
 --------------------------------------------------
 Non-electrostatic Free Energy =       0.00000000 hartree =       0.00000000 kcal/mol
 Total                         =      -0.01022865 hartree =      -6.41857310 kcal/mol
 --------------------------------------------------
 SCF Energy (H0 + V/2)                       =   -1180.70624171 
 Solute Internal Energy (H0)                 =   -1180.69601306 
 Total Free Energy (H0 + V/2 + non-elec)     =   -1180.70624171 hartree
                                             = -740904.34914019 kcal/mol
***********************************************************

 SCF   energy in the final basis set =    -1180.7062417074
 Total energy in the final basis set =    -1180.7062417074


 --------------------------------------------------------------
  Generalized many-body perturbation theory program
  by Joonho Lee, Fazle Rob, Xintian Feng, Evgeny Epifanovsky

 No regularization used 
 (reg. param. = 0.0000e+00)
  (P|Q)^-1/2 Time:  CPU 20.94 s  wall 0.33 s

 In RI-MP2 calculation: 
 # of frozen core orbitals: 20

 Components of the RIMP2 correlation energy:
        aaaa    correlation energy =        -0.2542302248 a.u.
        abab    correlation energy =        -1.5120009983 a.u.
        bbbb    correlation energy =        -0.2542302248 a.u.
        non-Brillouin singles      =        -0.0000000000 a.u.
        total same-spin energy     =        -0.5084604496 a.u.
        total opposite-spin energy =        -1.5120009983 a.u.

 Total  RIMP2   correlation energy =        -2.0204614478 a.u.
        RIMP2         total energy =     -1182.7267031552 a.u.

 RI-MP2 Energy Time:  CPU 169.58 s  wall 3.15 s
 
 --------------------------------------------------------------
 
                    Orbital Energies (a.u.)
 --------------------------------------------------------------
 
 Alpha MOs
 -- Occupied --
-91.9802 -91.9323 -11.2811 -11.2626 -11.2592 -11.2567 -11.2531 -11.2497
-11.2364 -11.2317 -11.2264 -11.2153  -8.9808  -8.9373  -6.6616  -6.6609
 -6.6606  -6.6187  -6.6176  -6.6164  -1.2026  -1.1538  -1.0580  -1.0211
 -1.0094  -0.9600  -0.9097  -0.9024  -0.8073  -0.7615  -0.7427  -0.7007
 -0.6579  -0.6368  -0.6118  -0.5908  -0.5813  -0.5740  -0.5654  -0.5513
 -0.5417  -0.5251  -0.5218  -0.5023  -0.4933  -0.4625  -0.4550  -0.4415
 -0.3506  -0.3445  -0.3173  -0.2702
 -- Virtual --
  0.0649   0.1335   0.1399   0.1534   0.1619   0.1705   0.1759   0.1790
  0.1924   0.1940   0.2052   0.2106   0.2296   0.2341   0.2393   0.2524
  0.2543   0.2561   0.2633   0.2870   0.3029   0.3268   0.3448   0.3548
  0.3639   0.3719   0.3784   0.3871   0.4001   0.4053   0.4075   0.4263
  0.4304   0.4397   0.4495   0.4603   0.4648   0.4715   0.4841   0.4895
  0.4999   0.5036   0.5128   0.5340   0.5370   0.5471   0.5524   0.5625
  0.5674   0.5771   0.5821   0.5977   0.6029   0.6113   0.6160   0.6204
  0.6270   0.6305   0.6359   0.6398   0.6440   0.6496   0.6524   0.6662
  0.6681   0.6775   0.6889   0.6933   0.6980   0.7084   0.7182   0.7297
  0.7380   0.7482   0.7551   0.7711   0.7814   0.7962   0.8092   0.8190
  0.8383   0.8505   0.8573   0.8649   0.8766   0.8865   0.8903   0.9135
  0.9329   0.9434   0.9462   0.9596   0.9767   0.9913   1.0085   1.0145
  1.0312   1.0367   1.0476   1.0510   1.0593   1.0717   1.0770   1.0834
  1.0901   1.1090   1.1102   1.1399   1.1506   1.1700   1.1731   1.1793
  1.1808   1.1887   1.2050   1.2159   1.2197   1.2281   1.2369   1.2417
  1.2557   1.2599   1.2699   1.2809   1.2890   1.2966   1.3044   1.3101
  1.3292   1.3336   1.3600   1.3776   1.3943   1.3997   1.4186   1.4239
  1.4293   1.4470   1.4511   1.4586   1.4732   1.4783   1.4925   1.4973
  1.5115   1.5122   1.5220   1.5308   1.5373   1.5544   1.5566   1.5616
  1.5689   1.5817   1.5909   1.5976   1.6087   1.6241   1.6259   1.6426
  1.6489   1.6605   1.6701   1.6829   1.6999   1.7209   1.7338   1.7392
  1.7448   1.7590   1.7759   1.7862   1.8180   1.8309   1.8494   1.8741
  1.8905   1.9215   1.9417   1.9519   1.9745   1.9805   1.9949   1.9985
  2.0224   2.0304   2.0387   2.0521   2.0917   2.1163   2.1229   2.1551
  2.1773   2.1967   2.2009   2.2145   2.2285   2.2435   2.2634   2.2750
  2.3143   2.3272   2.3330   2.3544   2.4061   2.4313   2.4527   2.4727
  2.4925   2.5002   2.5386   2.5401   2.5717   2.6007   2.6216   2.6371
  2.6466   2.6618   2.6730   2.6804   2.6932   2.7042   2.7135   2.7464
  2.7559   2.7607   2.7670   2.7732   2.8044   2.8104   2.8196   2.8241
  2.8406   2.8503   2.8697   2.8885   2.8912   2.8992   2.9145   2.9328
  2.9364   2.9572   2.9783   3.0002   3.0113   3.0188   3.0382   3.0427
  3.0565   3.0646   3.0957   3.1088   3.1218   3.1310   3.1409   3.1511
  3.1575   3.1647   3.1728   3.1823   3.1937   3.2044   3.2128   3.2270
  3.2362   3.2472   3.2531   3.2633   3.2742   3.2820   3.2943   3.3132
  3.3200   3.3318   3.3388   3.3458   3.3535   3.3550   3.3643   3.3726
  3.3758   3.3820   3.3934   3.4026   3.4062   3.4287   3.4362   3.4408
  3.4536   3.4588   3.4665   3.4727   3.4848   3.4944   3.5112   3.5144
  3.5215   3.5266   3.5393   3.5480   3.5658   3.5780   3.5858   3.5925
  3.5982   3.6148   3.6170   3.6251   3.6381   3.6554   3.6639   3.6763
  3.6829   3.6947   3.6972   3.7043   3.7273   3.7344   3.7358   3.7436
  3.7572   3.7637   3.7728   3.7890   3.7910   3.7976   3.8080   3.8301
  3.8431   3.8547   3.8676   3.8739   3.8838   3.8949   3.9155   3.9369
  3.9395   3.9538   3.9607   3.9788   3.9941   4.0040   4.0122   4.0237
  4.0297   4.0416   4.0558   4.0617   4.0786   4.0936   4.1023   4.1232
  4.1302   4.1520   4.1558   4.1699   4.1756   4.1844   4.2007   4.2109
  4.2206   4.2390   4.2452   4.2548   4.2595   4.2699   4.2739   4.2805
  4.2923   4.3122   4.3256   4.3366   4.3506   4.3621   4.3753   4.3777
  4.3854   4.3983   4.4028   4.4107   4.4216   4.4414   4.4482   4.4558
  4.4678   4.4830   4.4876   4.4978   4.5074   4.5316   4.5518   4.5562
  4.5760   4.5880   4.6136   4.6281   4.6451   4.6578   4.6707   4.6884
  4.7067   4.7151   4.7437   4.7789   4.8009   4.8186   4.8330   4.8514
  4.8858   4.8908   4.9098   4.9169   4.9289   4.9632   4.9821   5.0045
  5.0415   5.0640   5.0735   5.0982   5.1220   5.1353   5.1420   5.1614
  5.1902   5.2033   5.2332   5.2764   5.2821   5.2896   5.3117   5.3229
  5.3408   5.3717   5.3832   5.4022   5.4103   5.4390   5.4445   5.4583
  5.4669   5.5121   5.5378   5.5463   5.5490   5.5646   5.5780   5.5917
  5.6122   5.6284   5.6300   5.6559   5.6897   5.7003   5.7189   5.7349
  5.7705   5.8074   5.8185   5.9783   6.0040   6.0945   6.1261   6.1525
  6.2041   6.2206   6.2342   6.2404   6.2574   6.2919   6.3125   6.3246
  6.3919   6.4187   9.6229  10.3926  12.4986  12.8613  13.1693  13.9493
 14.0696  14.2334  14.3929  14.7849
 --------------------------------------------------------------
 
          Ground-State Mulliken Net Atomic Charges

     Atom                 Charge (a.u.)
  ----------------------------------------
      1 C                    -0.072041
      2 C                    -0.334091
      3 C                    -0.027151
      4 H                     0.175640
      5 C                     0.078957
      6 S                    -0.216150
      7 C                    -0.300749
      8 H                     0.122017
      9 H                     0.107500
     10 H                     0.116985
     11 C                    -0.106613
     12 C                    -0.190561
     13 C                     0.006207
     14 H                     0.184460
     15 C                    -0.186162
     16 S                     0.008472
     17 C                    -0.268904
     18 H                     0.103283
     19 H                     0.110954
     20 H                     0.105602
     21 H                     0.199824
     22 H                     0.105829
     23 H                     0.107226
     24 H                     0.169465
  ----------------------------------------
  Sum of atomic charges =     0.000000

 -----------------------------------------------------------------
                    Cartesian Multipole Moments
 -----------------------------------------------------------------
    Charge (ESU x 10^10)
                -0.0000
    Dipole Moment (Debye)
         X       4.7829      Y       1.0449      Z       1.9677
       Tot       5.2763
    Quadrupole Moments (Debye-Ang)
        XX     -85.3456     XY       1.6835     YY     -81.9388
        XZ       0.3882     YZ       0.2242     ZZ     -85.2841
    Octopole Moments (Debye-Ang^2)
       XXX    -142.2084    XXY      87.2816    XYY     -40.5760
       YYY     185.6597    XXZ      -6.5482    XYZ      -0.1859
       YYZ      -1.3712    XZZ     -49.9604    YZZ      78.1684
       ZZZ       2.0419
    Hexadecapole Moments (Debye-Ang^3)
      XXXX   -1231.9497   XXXY    -237.9071   XXYY    -593.2841
      XYYY    -221.9044   YYYY   -2344.9685   XXXZ     -41.9482
      XXYZ     -22.7958   XYYZ     -22.0635   YYYZ     -71.5504
      XXZZ    -299.5811   XYZZ     -65.7863   YYZZ    -523.3215
      XZZZ     -27.5070   YZZZ     -65.0142   ZZZZ    -558.4003
 -----------------------------------------------------------------
 Total job time:  57.28s(wall), 1978.87s(cpu) 
 Fri Dec 15 14:04:16 2023

        *************************************************************
        *                                                           *
        *  Thank you very much for using Q-Chem.  Have a nice day.  *
        *                                                           *
        *************************************************************


0 sent ACK to 0 
now end server 0 ... 
cleanup process ... done
remove work dirs ./qchem2712949.0 -- ./qchem2712949.0
rm -rf ./qchem2712949.0
rm -rf ./qchem2712949
