You are running Q-Chem version: 5.4.0

#
# job setting
#
local host:  exp-6-17
current dir: /home/rramji/project-csd799/aromodel/p3ht-qchem/hydrogenated-rotation-run
input file:  Methylthiophene_Phi_0_Theta_120_Methylthiophene_Hydrogenated.qcin
output file: 
nprocs     : 1
nthreads   : 64
#
# qchem installation setting
#
QC:          /cm/shared/apps/spack/cpu/opt/spack/linux-centos8-zen2/gcc-10.2.0/qchem-5.4-akfmr7b3t57bfs6qan3padb2wnb2i7cl
QCAUX:       /cm/shared/apps/spack/cpu/opt/spack/linux-centos8-zen2/gcc-10.2.0/qchem-5.4-akfmr7b3t57bfs6qan3padb2wnb2i7cl/qcaux
QCPROG:      /cm/shared/apps/spack/cpu/opt/spack/linux-centos8-zen2/gcc-10.2.0/qchem-5.4-akfmr7b3t57bfs6qan3padb2wnb2i7cl/exe/qcprog.exe
QCPROG_S:    /cm/shared/apps/spack/cpu/opt/spack/linux-centos8-zen2/gcc-10.2.0/qchem-5.4-akfmr7b3t57bfs6qan3padb2wnb2i7cl/exe/qcprog.exe_s
PARALLEL:    -DPARALLEL
QCMPI:       mpich
#
# qchem directory setting
#
qcrun:       qchem968823
QCSCRATCH:   .
QCLOCALSCR:  
QCTMPDIR:    .
QCFILEPREF:  ./qchem968823
QCSAVEDIR:   
workdirs:    ./qchem968823
workdir0:    ./qchem968823
partmpdirs =  
#
# parallel setting
#
QCRSH:           ssh
QCMPI:           mpich
QCMPIRUN:        /cm/shared/apps/spack/cpu/opt/spack/linux-centos8-zen2/gcc-10.2.0/qchem-5.4-akfmr7b3t57bfs6qan3padb2wnb2i7cl/bin/mpi/mpirun_qchem
QCMACHINEFILE:   ./qchem968823/hostfile
exp-6-17

#
# env setting
#
exported envs:   QC QCAUX QCSCRATCH QCRUNNAME QCFILEPREF QCPROG QCPROG_S GUIFILE

Running Job 1 of 1 Methylthiophene_Phi_0_Theta_120_Methylthiophene_Hydrogenated.qcin
qchem Methylthiophene_Phi_0_Theta_120_Methylthiophene_Hydrogenated.qcin_968823.0 ./qchem968823/ 1
/cm/shared/apps/spack/cpu/opt/spack/linux-centos8-zen2/gcc-10.2.0/qchem-5.4-akfmr7b3t57bfs6qan3padb2wnb2i7cl/bin/mpi/mpirun_qchem -machinefile ./qchem968823/hostfile -np 1 /cm/shared/apps/spack/cpu/opt/spack/linux-centos8-zen2/gcc-10.2.0/qchem-5.4-akfmr7b3t57bfs6qan3padb2wnb2i7cl/exe/qcprog.exe Methylthiophene_Phi_0_Theta_120_Methylthiophene_Hydrogenated.qcin_968823.0 ./qchem968823/

Process 0 of 1 is on exp-6-17 - thread support 0
initial socket setup ...start
initial socket setup ...done 
now start server 0 ... 
                  Welcome to Q-Chem
     A Quantum Leap Into The Future Of Chemistry


 Q-Chem 5.4, Q-Chem, Inc., Pleasanton, CA (2021)

 License issued to: University of California, San Diego (site)

 E. Epifanovsky,  A. T. B. Gilbert,  Xintian Feng,  Joonho Lee,  Yuezhi Mao,  
 N. Mardirossian,  P. Pokhilko,  A. White,  M. Wormit,  M. P. Coons,  
 A. L. Dempwolff,  Zhengting Gan,  D. Hait,  P. R. Horn,  L. D. Jacobson,  
 I. Kaliman,  J. Kussmann,  A. W. Lange,  Ka Un Lao,  D. S. Levine,  Jie Liu,  
 S. C. McKenzie,  A. F. Morrison,  K. Nanda,  F. Plasser,  D. R. Rehn,  
 M. L. Vidal,  Zhi-Qiang You,  Ying Zhu,  B. Alam,  B. Albrecht,  
 A. Aldossary,  E. Alguire,  J. H. Andersen,  D. Barton,  K. Begam,  A. Behn,  
 Y. A. Bernard,  E. J. Berquist,  H. Burton,  A. Carreras,  K. Carter-Fenk,  
 R. Chakraborty,  A. D. Chien,  K. D. Closser,  V. Cofer-Shabica,  
 S. Dasgupta,  Jia Deng,  M. de Wergifosse,  M. Diedenhofen,  Hainam Do,  
 S. Ehlert,  Po-Tung Fang,  S. Fatehi,  Qingguo Feng,  J. Gayvert,  
 Qinghui Ge,  G. Gidofalvi,  M. Goldey,  J. Gomes,  C. Gonzalez-Espinoza,  
 S. Gulania,  A. Gunina,  M. W. D. Hanson-Heine,  P. H. P. Harbach,  
 A. W. Hauser,  M. F. Herbst,  M. Hernandez Vera,  M. Hodecker,  
 Z. C. Holden,  S. Houck,  Xunkun Huang,  Kerwin Hui,  B. C. Huynh,  
 M. Ivanov,  Hyunjun Ji,  Hanjie Jiang,  B. Kaduk,  S. Kaehler,  
 K. Khistyaev,  Jaehoon Kim,  P. Klunzinger,  Z. Koczor-Benda,  
 Joong Hoon Koh,  D. Kosenkov,  L. Koulias,  T. Kowalczyk,  C. M. Krauter,  
 K. Kue,  A. Kunitsa,  T. Kus,  A. Landau,  K. V. Lawler,  D. Lefrancois,  
 S. Lehtola,  Rain Li,  Yi-Pei Li,  Jiashu Liang,  M. Liebenthal,  
 Hung-Hsuan Lin,  You-Sheng Lin,  Fenglai Liu,  Kuan-Yu Liu,  
 M. Loipersberger,  A. Luenser,  A. Manjanath,  P. Manohar,  E. Mansoor,  
 S. F. Manzer,  Shan-Ping Mao,  A. V. Marenich,  T. Markovich,  S. Mason,  
 S. A. Maurer,  P. F. McLaughlin,  M. F. S. J. Menger,  J.-M. Mewes,  
 S. A. Mewes,  P. Morgante,  J. W. Mullinax,  T. S. Nguyen-Beck,  
 K. J. Oosterbaan,  G. Paran,  Alexander C. Paul,  Suranjan K. Paul,  
 F. Pavosevic,  Zheng Pei,  S. Prager,  E. I. Proynov,  E. Ramos,  B. Rana,  
 A. E. Rask,  A. Rettig,  R. M. Richard,  F. Rob,  E. Rossomme,  T. Scheele,  
 M. Scheurer,  M. Schneider,  N. Sergueev,  S. M. Sharada,  W. Skomorowski,  
 D. W. Small,  C. J. Stein,  Yu-Chuan Su,  E. J. Sundstrom,  Zhen Tao,  
 J. Thirman,  T. Tsuchimochi,  N. M. Tubman,  S. P. Veccham,  O. Vydrov,  
 J. Wenzel,  J. Witte,  A. Yamada,  Kun Yao,  S. Yeganeh,  S. R. Yost,  
 A. Zech,  Igor Ying Zhang,  Xing Zhang,  Yu Zhang,  D. Zuev,  
 A. Aspuru-Guzik,  A. T. Bell,  N. A. Besley,  K. B. Bravaya,  B. R. Brooks,  
 D. Casanova,  Jeng-Da Chai,  S. Coriani,  C. J. Cramer,  
 A. E. DePrince, III,  R. A. DiStasio Jr.,  A. Dreuw,  B. D. Dunietz,  
 T. R. Furlani,  W. A. Goddard III,  S. Grimme,  S. Hammes-Schiffer,  
 T. Head-Gordon,  W. J. Hehre,  Chao-Ping Hsu,  T.-C. Jagau,  Yousung Jung,  
 A. Klamt,  Jing Kong,  D. S. Lambrecht,  WanZhen Liang,  N. J. Mayhall,  
 C. W. McCurdy,  J. B. Neaton,  C. Ochsenfeld,  J. A. Parkhill,  R. Peverati,  
 V. A. Rassolov,  Yihan Shao,  L. V. Slipchenko,  T. Stauch,  R. P. Steele,  
 J. E. Subotnik,  A. J. W. Thom,  A. Tkatchenko,  D. G. Truhlar,  
 T. Van Voorhis,  T. A. Wesolowski,  K. B. Whaley,  H. L. Woodcock III,  
 P. M. Zimmerman,  S. Faraji,  P. M. W. Gill,  M. Head-Gordon,  
 J. M. Herbert,  A. I. Krylov

 Contributors to earlier versions of Q-Chem not listed above: 
 R. D. Adamson,  B. Austin,  R. Baer,  J. Baker,  G. J. O. Beran,  
 K. Brandhorst,  S. T. Brown,  E. F. C. Byrd,  A. K. Chakraborty,  
 G. K. L. Chan,  Chun-Min Chang,  Yunqing Chen,  C.-L. Cheng,  
 Siu Hung Chien,  D. M. Chipman,  D. L. Crittenden,  H. Dachsel,  
 R. J. Doerksen,  A. D. Dutoi,  R. G. Edgar,  J. Fosso-Tande,  
 L. Fusti-Molnar,  D. Ghosh,  A. Ghysels,  A. Golubeva-Zadorozhnaya,  
 J. Gonthier,  M. S. Gordon,  S. R. Gwaltney,  G. Hawkins,  J. E. Herr,  
 A. Heyden,  S. Hirata,  E. G. Hohenstein,  G. Kedziora,  F. J. Keil,  
 C. Kelley,  Jihan Kim,  R. A. King,  R. Z. Khaliullin,  P. P. Korambath,  
 W. Kurlancheek,  A. Laurent,  A. M. Lee,  M. S. Lee,  S. V. Levchenko,  
 Ching Yeh Lin,  D. Liotard,  E. Livshits,  R. C. Lochan,  I. Lotan,  
 L. A. Martinez-Martinez,  P. E. Maslen,  N. Nair,  D. P. O'Neill,  
 D. Neuhauser,  E. Neuscamman,  C. M. Oana,  R. Olivares-Amaya,  R. Olson,  
 T. M. Perrine,  B. Peters,  P. A. Pieniazek,  A. Prociuk,  Y. M. Rhee,  
 J. Ritchie,  M. A. Rohrdanz,  E. Rosta,  N. J. Russ,  H. F. Schaefer III,  
 M. W. Schmidt,  N. E. Schultz,  S. Sharma,  N. Shenvi,  C. D. Sherrill,  
 A. C. Simmonett,  A. Sodt,  T. Stein,  D. Stuck,  K. S. Thanthiriwatte,  
 V. Vanovschi,  L. Vogt,  Tao Wang,  A. Warshel,  M. A. Watson,  
 C. F. Williams,  Q. Wu,  X. Xu,  Jun Yang,  W. Zhang,  Yan Zhao

 Please cite Q-Chem as follows:
 Y. Shao et al., Mol. Phys. 113, 184-215 (2015)
 DOI: 10.1080/00268976.2014.952696

 Q-Chem 5.4.0 for Intel X86 EM64T Linux

 Parts of Q-Chem use Armadillo 9.800.1 (Horizon Scraper).
 http://arma.sourceforge.net/

 Q-Chem begins on Fri Dec 15 14:06:56 2023  

 Host: 
0

     Scratch files written to ./qchem968823//
 May1621 |scratch|qcdevops|jenkins|workspace|build_RNUM    
 Parallel job on  1  processors
 Processing $rem in /cm/shared/apps/spack/cpu/opt/spack/linux-centos8-zen2/gcc-10.2.0/qchem-5.4-akfmr7b3t57bfs6qan3padb2wnb2i7cl/config/preferences:
 Processing $rem in /home/rramji/.qchemrc:
 Symmetry turned off for PCM/SM12/SMD calculation
 Core orbitals will be frozen

 Checking the input file for inconsistencies... 	...done.

 Q-Chem warning in module forms1/BasisType.C, line 2236:

 You are not using the predefined 5D/6D in this basis set.


--------------------------------------------------------------
User input:
--------------------------------------------------------------
$molecule
0 1
C	-0.626855	-3.887800	-0.363176
C	0.573074	-3.701456	0.329669
C	0.940016	-2.345170	0.542250
H	1.184837	-4.545233	0.682412
C	0.000000	-1.450135	0.000000
S	-1.322686	-2.321334	-0.764076
C	2.192440	-1.934439	1.265537
H	2.768365	-2.819799	1.597559
H	1.967653	-1.326210	2.166534
H	2.860032	-1.325374	0.620843
C	0.000000	0.000000	0.000000
C	-0.003081	0.844605	1.113020
C	-0.007772	2.235575	0.820578
H	-0.001743	0.456510	2.142881
C	-0.008427	2.483726	-0.563588
S	-0.003691	0.970607	-1.464748
C	-0.011355	3.300181	1.882380
H	-0.009922	2.852233	2.894974
H	-0.905944	3.953225	1.808137
H	0.878901	3.959133	1.808230
H	-0.011727	3.441752	-1.097114
H	-1.365344	-4.420219	0.246643
H	-0.467758	-4.419395	-1.308062
H	-0.539988	-1.450628	0.935314
$end

$rem
JOBTYPE		SP
EXCHANGE	HF
CORRELATION	pRIMP2
BASIS		cc-pvtz
METHOD		rimp2
AUX_BASIS	rimp2-cc-pvtz
SOLVENT_METHOD	PCM
PURECART	11111
SYMMETRY	false
MEM_TOTAL	110000
SCF_CONVERGENCE = 6
THRESH=10
GUI = 2
$end



$solvent
dielectric 4.90
$end
--------------------------------------------------------------
 ----------------------------------------------------------------
             Standard Nuclear Orientation (Angstroms)
    I     Atom           X                Y                Z
 ----------------------------------------------------------------
    1      C      -0.6268550000    -3.8878000000    -0.3631760000
    2      C       0.5730740000    -3.7014560000     0.3296690000
    3      C       0.9400160000    -2.3451700000     0.5422500000
    4      H       1.1848370000    -4.5452330000     0.6824120000
    5      C       0.0000000000    -1.4501350000     0.0000000000
    6      S      -1.3226860000    -2.3213340000    -0.7640760000
    7      C       2.1924400000    -1.9344390000     1.2655370000
    8      H       2.7683650000    -2.8197990000     1.5975590000
    9      H       1.9676530000    -1.3262100000     2.1665340000
   10      H       2.8600320000    -1.3253740000     0.6208430000
   11      C       0.0000000000     0.0000000000     0.0000000000
   12      C      -0.0030810000     0.8446050000     1.1130200000
   13      C      -0.0077720000     2.2355750000     0.8205780000
   14      H      -0.0017430000     0.4565100000     2.1428810000
   15      C      -0.0084270000     2.4837260000    -0.5635880000
   16      S      -0.0036910000     0.9706070000    -1.4647480000
   17      C      -0.0113550000     3.3001810000     1.8823800000
   18      H      -0.0099220000     2.8522330000     2.8949740000
   19      H      -0.9059440000     3.9532250000     1.8081370000
   20      H       0.8789010000     3.9591330000     1.8082300000
   21      H      -0.0117270000     3.4417520000    -1.0971140000
   22      H      -1.3653440000    -4.4202190000     0.2466430000
   23      H      -0.4677580000    -4.4193950000    -1.3080620000
   24      H      -0.5399880000    -1.4506280000     0.9353140000
 ----------------------------------------------------------------
 Nuclear Repulsion Energy =         871.43983751 hartrees
 There are       52 alpha and       52 beta electrons
 Requested basis set is cc-pVTZ
 There are 196 shells and 536 basis functions

 Total QAlloc Memory Limit 110000 MB
 Mega-Array Size       188 MB
 MEM_STATIC part       192 MB
 Discretize the solute cavity surface with Lebedev spheres
	Using 110 Lebedev grid points for each H atom
	Using 194 Lebedev grid points for other atoms
	Atomic van der Waals radii will be scaled by 1.20
 Remove points where switching function is < 1.0e-08
 Keep 1617 surface tesserae and discard 2031 interior tesserae
 Molecular Surface Area = 238.622 Angst**2
 Requested basis set is rimp2-cc-pVTZ
 There are 414 shells and 1414 basis functions
 A cutoff of  1.0D-10 yielded  13982 shell pairs
 There are    101360 function pairs (    129993 Cartesian)
 Smallest overlap matrix eigenvalue = 6.22E-05

 Scale SEOQF with 1.000000e-01/1.000000e-01/1.000000e-01

 Standard Electronic Orientation quadrupole field applied
 Nucleus-field energy     =     0.0000000333 hartrees
 Guess from superposition of atomic densities
 Warning:  Energy on first SCF cycle will be non-variational
 SAD guess density has 104.000000 electrons

 -----------------------------------------------------------------------
  General SCF calculation program by
  Eric Jon Sundstrom, Paul Horn, Yuezhi Mao, Dmitri Zuev, Alec White,
  David Stuck, Shaama M.S., Shane Yost, Joonho Lee, David Small,
  Daniel Levine, Susi Lehtola, Hugh Burton, Evgeny Epifanovsky,
  Bang C. Huynh
 -----------------------------------------------------------------------
 Hartree-Fock
 using 64 threads for integral computing
 -------------------------------------------------------
 OpenMP Integral computing Module                
 Release: version 1.0, May 2013, Q-Chem Inc. Pittsburgh 
 -------------------------------------------------------
 A restricted SCF calculation will be
 performed using DIIS
 SCF converges when DIIS error is below 1.0e-06
 ---------------------------------------
  Cycle       Energy         DIIS error
 ---------------------------------------
    1   -1186.0003990803      2.38e-02  
    2   -1180.6205291328      1.56e-03  
    3   -1180.7447565892      6.05e-04  
    4   -1180.7588639350      3.34e-04  
    5   -1180.7639378171      5.85e-05  
    6   -1180.7641721652      2.38e-05  
    7   -1180.7642264326      8.53e-06  
    8   -1180.7642384774      4.12e-06  
    9   -1180.7642411705      1.42e-06  
   10   -1180.7642416085      4.98e-07  Convergence criterion met
 ---------------------------------------
 SCF time:   CPU 1544.05s  wall 49.00s 

************** Final PCM Free Energy Summary **************
 G_electrostatic  =      -0.00945734 hartree =      -5.93457150 kcal/mol
 G_cavitation     =       0.00000000 hartree =       0.00000000 kcal/mol
 G_dispersion     =       0.00000000 hartree =       0.00000000 kcal/mol
 G_repulsion      =       0.00000000 hartree =       0.00000000 kcal/mol
 --------------------------------------------------
 Non-electrostatic Free Energy =       0.00000000 hartree =       0.00000000 kcal/mol
 Total                         =      -0.00945734 hartree =      -5.93457150 kcal/mol
 --------------------------------------------------
 SCF Energy (H0 + V/2)                       =   -1180.76424161 
 Solute Internal Energy (H0)                 =   -1180.75478427 
 Total Free Energy (H0 + V/2 + non-elec)     =   -1180.76424161 hartree
                                             = -740940.74462746 kcal/mol
***********************************************************

 SCF   energy in the final basis set =    -1180.7642416085
 Total energy in the final basis set =    -1180.7642416085


 --------------------------------------------------------------
  Generalized many-body perturbation theory program
  by Joonho Lee, Fazle Rob, Xintian Feng, Evgeny Epifanovsky

 No regularization used 
 (reg. param. = 0.0000e+00)
  (P|Q)^-1/2 Time:  CPU 39.17 s  wall 0.71 s

 In RI-MP2 calculation: 
 # of frozen core orbitals: 20

 Components of the RIMP2 correlation energy:
        aaaa    correlation energy =        -0.2510336249 a.u.
        abab    correlation energy =        -1.5023106621 a.u.
        bbbb    correlation energy =        -0.2510336249 a.u.
        non-Brillouin singles      =        -0.0000000000 a.u.
        total same-spin energy     =        -0.5020672498 a.u.
        total opposite-spin energy =        -1.5023106621 a.u.

 Total  RIMP2   correlation energy =        -2.0043779120 a.u.
        RIMP2         total energy =     -1182.7686195205 a.u.

 RI-MP2 Energy Time:  CPU 182.85 s  wall 3.91 s
 
 --------------------------------------------------------------
 
                    Orbital Energies (a.u.)
 --------------------------------------------------------------
 
 Alpha MOs
 -- Occupied --
-91.9818 -91.9434 -11.2841 -11.2632 -11.2621 -11.2574 -11.2510 -11.2420
-11.2398 -11.2318 -11.2293 -11.2199  -8.9815  -8.9479  -6.6624  -6.6619
 -6.6614  -6.6293  -6.6283  -6.6270  -1.1982  -1.1535  -1.0575  -1.0271
 -1.0043  -0.9608  -0.9123  -0.9011  -0.8159  -0.7597  -0.7324  -0.7044
 -0.6603  -0.6427  -0.6108  -0.5899  -0.5824  -0.5706  -0.5629  -0.5522
 -0.5415  -0.5303  -0.5149  -0.5055  -0.4903  -0.4829  -0.4618  -0.4482
 -0.3563  -0.3416  -0.3176  -0.2764
 -- Virtual --
  0.0985   0.1323   0.1429   0.1505   0.1581   0.1711   0.1732   0.1851
  0.1922   0.1966   0.2035   0.2165   0.2214   0.2321   0.2352   0.2429
  0.2515   0.2606   0.2772   0.2978   0.3127   0.3406   0.3426   0.3585
  0.3674   0.3724   0.3825   0.3891   0.3981   0.4023   0.4106   0.4131
  0.4317   0.4389   0.4465   0.4651   0.4704   0.4809   0.4857   0.4920
  0.4972   0.5101   0.5164   0.5237   0.5335   0.5373   0.5459   0.5609
  0.5689   0.5742   0.5865   0.5953   0.6019   0.6077   0.6091   0.6170
  0.6243   0.6282   0.6307   0.6401   0.6432   0.6489   0.6512   0.6524
  0.6605   0.6685   0.6830   0.6834   0.6943   0.7021   0.7126   0.7231
  0.7313   0.7429   0.7646   0.7672   0.7832   0.7896   0.8130   0.8232
  0.8327   0.8340   0.8548   0.8688   0.8756   0.8925   0.9036   0.9192
  0.9237   0.9383   0.9439   0.9602   0.9691   0.9850   1.0022   1.0078
  1.0140   1.0275   1.0400   1.0435   1.0527   1.0619   1.0787   1.0800
  1.0878   1.0962   1.1163   1.1217   1.1266   1.1476   1.1598   1.1771
  1.1812   1.1924   1.1982   1.2021   1.2175   1.2197   1.2305   1.2429
  1.2534   1.2594   1.2641   1.2716   1.2763   1.2781   1.3088   1.3261
  1.3396   1.3465   1.3543   1.3776   1.3854   1.3863   1.3964   1.4108
  1.4141   1.4331   1.4521   1.4636   1.4740   1.4802   1.4857   1.4935
  1.5094   1.5150   1.5216   1.5272   1.5372   1.5446   1.5472   1.5525
  1.5756   1.5787   1.5916   1.6025   1.6086   1.6176   1.6244   1.6342
  1.6518   1.6614   1.6819   1.6911   1.7017   1.7118   1.7255   1.7425
  1.7487   1.7581   1.7721   1.7907   1.8122   1.8205   1.8367   1.8648
  1.8749   1.9134   1.9162   1.9396   1.9412   1.9569   1.9990   2.0055
  2.0172   2.0315   2.0384   2.0501   2.0647   2.1289   2.1408   2.1486
  2.1861   2.2010   2.2078   2.2226   2.2370   2.2570   2.2650   2.2841
  2.2903   2.3162   2.3240   2.3747   2.4014   2.4488   2.4698   2.4780
  2.4899   2.5228   2.5258   2.5370   2.5750   2.5902   2.6068   2.6204
  2.6328   2.6400   2.6559   2.6633   2.6736   2.6832   2.7039   2.7252
  2.7341   2.7473   2.7579   2.7667   2.7808   2.7872   2.8004   2.8242
  2.8461   2.8502   2.8528   2.8719   2.8977   2.9001   2.9096   2.9191
  2.9234   2.9431   2.9623   2.9705   3.0050   3.0097   3.0216   3.0389
  3.0527   3.0721   3.0919   3.1043   3.1124   3.1174   3.1334   3.1439
  3.1535   3.1600   3.1664   3.1788   3.1821   3.1855   3.1971   3.2198
  3.2300   3.2362   3.2491   3.2615   3.2781   3.2856   3.3039   3.3079
  3.3082   3.3251   3.3288   3.3338   3.3446   3.3499   3.3553   3.3653
  3.3770   3.3846   3.3863   3.3944   3.3999   3.4181   3.4281   3.4292
  3.4395   3.4484   3.4560   3.4665   3.4781   3.4860   3.4980   3.5001
  3.5215   3.5248   3.5308   3.5420   3.5511   3.5590   3.5680   3.5780
  3.5879   3.5958   3.6135   3.6163   3.6321   3.6387   3.6484   3.6502
  3.6640   3.6705   3.6855   3.7029   3.7104   3.7271   3.7309   3.7352
  3.7474   3.7587   3.7609   3.7826   3.7920   3.7949   3.8048   3.8200
  3.8350   3.8433   3.8569   3.8696   3.8752   3.8940   3.9048   3.9181
  3.9306   3.9392   3.9419   3.9587   3.9787   3.9951   4.0071   4.0139
  4.0233   4.0335   4.0458   4.0561   4.0683   4.0795   4.0934   4.1001
  4.1274   4.1319   4.1411   4.1504   4.1560   4.1728   4.1871   4.1905
  4.2119   4.2138   4.2295   4.2335   4.2426   4.2614   4.2749   4.2891
  4.2994   4.3040   4.3130   4.3198   4.3366   4.3508   4.3652   4.3768
  4.3790   4.3840   4.4003   4.4051   4.4117   4.4261   4.4306   4.4463
  4.4555   4.4692   4.4778   4.4852   4.5134   4.5187   4.5311   4.5365
  4.5787   4.5994   4.6130   4.6179   4.6353   4.6476   4.6559   4.6732
  4.6775   4.7182   4.7378   4.7511   4.7826   4.8124   4.8296   4.8345
  4.8505   4.8693   4.8973   4.9183   4.9288   4.9682   4.9748   4.9811
  5.0106   5.0586   5.0918   5.1133   5.1214   5.1247   5.1396   5.1762
  5.2056   5.2127   5.2347   5.2676   5.2778   5.2859   5.3069   5.3278
  5.3396   5.3586   5.3772   5.3890   5.4089   5.4294   5.4385   5.4465
  5.4746   5.5214   5.5251   5.5421   5.5494   5.5617   5.5690   5.5971
  5.6193   5.6230   5.6257   5.6555   5.6675   5.6944   5.7073   5.7324
  5.7745   5.7963   5.8326   5.9628   6.0235   6.1115   6.1319   6.1680
  6.2139   6.2224   6.2272   6.2293   6.2534   6.2807   6.3092   6.3232
  6.3814   6.5222   9.3571  10.6174  11.9921  12.9680  13.1990  13.9013
 14.0833  14.1920  14.3746  14.8252
 --------------------------------------------------------------
 
          Ground-State Mulliken Net Atomic Charges

     Atom                 Charge (a.u.)
  ----------------------------------------
      1 C                    -0.075955
      2 C                    -0.327927
      3 C                    -0.033273
      4 H                     0.177593
      5 C                     0.092334
      6 S                    -0.175421
      7 C                    -0.268132
      8 H                     0.115293
      9 H                     0.098783
     10 H                     0.110657
     11 C                    -0.075884
     12 C                    -0.247011
     13 C                     0.016607
     14 H                     0.185728
     15 C                    -0.244244
     16 S                     0.007177
     17 C                    -0.272423
     18 H                     0.101737
     19 H                     0.108858
     20 H                     0.108135
     21 H                     0.196957
     22 H                     0.112070
     23 H                     0.111712
     24 H                     0.176628
  ----------------------------------------
  Sum of atomic charges =     0.000000

 -----------------------------------------------------------------
                    Cartesian Multipole Moments
 -----------------------------------------------------------------
    Charge (ESU x 10^10)
                -0.0000
    Dipole Moment (Debye)
         X       1.6924      Y       0.3559      Z       3.3871
       Tot       3.8031
    Quadrupole Moments (Debye-Ang)
        XX     -91.4299     XY      -2.3959     YY     -73.6383
        XZ      -0.0848     YZ      -1.8130     ZZ     -86.2926
    Octopole Moments (Debye-Ang^2)
       XXX       0.7891    XXY      40.5889    XYY      -2.3032
       YYY     123.7544    XXZ       0.1624    XYZ      -1.6723
       YYZ      -3.1804    XZZ       0.1279    YZZ      54.8386
       ZZZ      -3.8813
    Hexadecapole Moments (Debye-Ang^3)
      XXXX    -561.6014   XXXY     -15.3383   XXYY    -602.4432
      XYYY       6.9682   YYYY   -2781.0007   XXXZ    -117.9195
      XXYZ     -46.9356   XYYZ     -29.1075   YYYZ    -115.1615
      XXZZ    -215.1839   XYZZ      -5.6370   YYZZ    -618.5857
      XZZZ    -126.7738   YZZZ    -101.4292   ZZZZ    -694.4755
 -----------------------------------------------------------------
 Total job time:  59.02s(wall), 1908.24s(cpu) 
 Fri Dec 15 14:07:55 2023

        *************************************************************
        *                                                           *
        *  Thank you very much for using Q-Chem.  Have a nice day.  *
        *                                                           *
        *************************************************************


0 sent ACK to 0 
now end server 0 ... 
cleanup process ... done
remove work dirs ./qchem968823.0 -- ./qchem968823.0
rm -rf ./qchem968823.0
rm -rf ./qchem968823
