You are running Q-Chem version: 5.4.0

#
# job setting
#
local host:  exp-6-19
current dir: /home/rramji/project-csd799/aromodel/p3ht-qchem/hydrogenated-rotation-run
input file:  Methylthiophene_Phi_50_Theta_20_Methylthiophene_Hydrogenated.qcin
output file: 
nprocs     : 1
nthreads   : 64
#
# qchem installation setting
#
QC:          /cm/shared/apps/spack/cpu/opt/spack/linux-centos8-zen2/gcc-10.2.0/qchem-5.4-akfmr7b3t57bfs6qan3padb2wnb2i7cl
QCAUX:       /cm/shared/apps/spack/cpu/opt/spack/linux-centos8-zen2/gcc-10.2.0/qchem-5.4-akfmr7b3t57bfs6qan3padb2wnb2i7cl/qcaux
QCPROG:      /cm/shared/apps/spack/cpu/opt/spack/linux-centos8-zen2/gcc-10.2.0/qchem-5.4-akfmr7b3t57bfs6qan3padb2wnb2i7cl/exe/qcprog.exe
QCPROG_S:    /cm/shared/apps/spack/cpu/opt/spack/linux-centos8-zen2/gcc-10.2.0/qchem-5.4-akfmr7b3t57bfs6qan3padb2wnb2i7cl/exe/qcprog.exe_s
PARALLEL:    -DPARALLEL
QCMPI:       mpich
#
# qchem directory setting
#
qcrun:       qchem2709630
QCSCRATCH:   .
QCLOCALSCR:  
QCTMPDIR:    .
QCFILEPREF:  ./qchem2709630
QCSAVEDIR:   
workdirs:    ./qchem2709630
workdir0:    ./qchem2709630
partmpdirs =  
#
# parallel setting
#
QCRSH:           ssh
QCMPI:           mpich
QCMPIRUN:        /cm/shared/apps/spack/cpu/opt/spack/linux-centos8-zen2/gcc-10.2.0/qchem-5.4-akfmr7b3t57bfs6qan3padb2wnb2i7cl/bin/mpi/mpirun_qchem
QCMACHINEFILE:   ./qchem2709630/hostfile
exp-6-19

#
# env setting
#
exported envs:   QC QCAUX QCSCRATCH QCRUNNAME QCFILEPREF QCPROG QCPROG_S GUIFILE

Running Job 1 of 1 Methylthiophene_Phi_50_Theta_20_Methylthiophene_Hydrogenated.qcin
qchem Methylthiophene_Phi_50_Theta_20_Methylthiophene_Hydrogenated.qcin_2709630.0 ./qchem2709630/ 1
/cm/shared/apps/spack/cpu/opt/spack/linux-centos8-zen2/gcc-10.2.0/qchem-5.4-akfmr7b3t57bfs6qan3padb2wnb2i7cl/bin/mpi/mpirun_qchem -machinefile ./qchem2709630/hostfile -np 1 /cm/shared/apps/spack/cpu/opt/spack/linux-centos8-zen2/gcc-10.2.0/qchem-5.4-akfmr7b3t57bfs6qan3padb2wnb2i7cl/exe/qcprog.exe Methylthiophene_Phi_50_Theta_20_Methylthiophene_Hydrogenated.qcin_2709630.0 ./qchem2709630/

Process 0 of 1 is on exp-6-19 - thread support 0
initial socket setup ...start
initial socket setup ...done 
now start server 0 ... 
                  Welcome to Q-Chem
     A Quantum Leap Into The Future Of Chemistry


 Q-Chem 5.4, Q-Chem, Inc., Pleasanton, CA (2021)

 License issued to: University of California, San Diego (site)

 E. Epifanovsky,  A. T. B. Gilbert,  Xintian Feng,  Joonho Lee,  Yuezhi Mao,  
 N. Mardirossian,  P. Pokhilko,  A. White,  M. Wormit,  M. P. Coons,  
 A. L. Dempwolff,  Zhengting Gan,  D. Hait,  P. R. Horn,  L. D. Jacobson,  
 I. Kaliman,  J. Kussmann,  A. W. Lange,  Ka Un Lao,  D. S. Levine,  Jie Liu,  
 S. C. McKenzie,  A. F. Morrison,  K. Nanda,  F. Plasser,  D. R. Rehn,  
 M. L. Vidal,  Zhi-Qiang You,  Ying Zhu,  B. Alam,  B. Albrecht,  
 A. Aldossary,  E. Alguire,  J. H. Andersen,  D. Barton,  K. Begam,  A. Behn,  
 Y. A. Bernard,  E. J. Berquist,  H. Burton,  A. Carreras,  K. Carter-Fenk,  
 R. Chakraborty,  A. D. Chien,  K. D. Closser,  V. Cofer-Shabica,  
 S. Dasgupta,  Jia Deng,  M. de Wergifosse,  M. Diedenhofen,  Hainam Do,  
 S. Ehlert,  Po-Tung Fang,  S. Fatehi,  Qingguo Feng,  J. Gayvert,  
 Qinghui Ge,  G. Gidofalvi,  M. Goldey,  J. Gomes,  C. Gonzalez-Espinoza,  
 S. Gulania,  A. Gunina,  M. W. D. Hanson-Heine,  P. H. P. Harbach,  
 A. W. Hauser,  M. F. Herbst,  M. Hernandez Vera,  M. Hodecker,  
 Z. C. Holden,  S. Houck,  Xunkun Huang,  Kerwin Hui,  B. C. Huynh,  
 M. Ivanov,  Hyunjun Ji,  Hanjie Jiang,  B. Kaduk,  S. Kaehler,  
 K. Khistyaev,  Jaehoon Kim,  P. Klunzinger,  Z. Koczor-Benda,  
 Joong Hoon Koh,  D. Kosenkov,  L. Koulias,  T. Kowalczyk,  C. M. Krauter,  
 K. Kue,  A. Kunitsa,  T. Kus,  A. Landau,  K. V. Lawler,  D. Lefrancois,  
 S. Lehtola,  Rain Li,  Yi-Pei Li,  Jiashu Liang,  M. Liebenthal,  
 Hung-Hsuan Lin,  You-Sheng Lin,  Fenglai Liu,  Kuan-Yu Liu,  
 M. Loipersberger,  A. Luenser,  A. Manjanath,  P. Manohar,  E. Mansoor,  
 S. F. Manzer,  Shan-Ping Mao,  A. V. Marenich,  T. Markovich,  S. Mason,  
 S. A. Maurer,  P. F. McLaughlin,  M. F. S. J. Menger,  J.-M. Mewes,  
 S. A. Mewes,  P. Morgante,  J. W. Mullinax,  T. S. Nguyen-Beck,  
 K. J. Oosterbaan,  G. Paran,  Alexander C. Paul,  Suranjan K. Paul,  
 F. Pavosevic,  Zheng Pei,  S. Prager,  E. I. Proynov,  E. Ramos,  B. Rana,  
 A. E. Rask,  A. Rettig,  R. M. Richard,  F. Rob,  E. Rossomme,  T. Scheele,  
 M. Scheurer,  M. Schneider,  N. Sergueev,  S. M. Sharada,  W. Skomorowski,  
 D. W. Small,  C. J. Stein,  Yu-Chuan Su,  E. J. Sundstrom,  Zhen Tao,  
 J. Thirman,  T. Tsuchimochi,  N. M. Tubman,  S. P. Veccham,  O. Vydrov,  
 J. Wenzel,  J. Witte,  A. Yamada,  Kun Yao,  S. Yeganeh,  S. R. Yost,  
 A. Zech,  Igor Ying Zhang,  Xing Zhang,  Yu Zhang,  D. Zuev,  
 A. Aspuru-Guzik,  A. T. Bell,  N. A. Besley,  K. B. Bravaya,  B. R. Brooks,  
 D. Casanova,  Jeng-Da Chai,  S. Coriani,  C. J. Cramer,  
 A. E. DePrince, III,  R. A. DiStasio Jr.,  A. Dreuw,  B. D. Dunietz,  
 T. R. Furlani,  W. A. Goddard III,  S. Grimme,  S. Hammes-Schiffer,  
 T. Head-Gordon,  W. J. Hehre,  Chao-Ping Hsu,  T.-C. Jagau,  Yousung Jung,  
 A. Klamt,  Jing Kong,  D. S. Lambrecht,  WanZhen Liang,  N. J. Mayhall,  
 C. W. McCurdy,  J. B. Neaton,  C. Ochsenfeld,  J. A. Parkhill,  R. Peverati,  
 V. A. Rassolov,  Yihan Shao,  L. V. Slipchenko,  T. Stauch,  R. P. Steele,  
 J. E. Subotnik,  A. J. W. Thom,  A. Tkatchenko,  D. G. Truhlar,  
 T. Van Voorhis,  T. A. Wesolowski,  K. B. Whaley,  H. L. Woodcock III,  
 P. M. Zimmerman,  S. Faraji,  P. M. W. Gill,  M. Head-Gordon,  
 J. M. Herbert,  A. I. Krylov

 Contributors to earlier versions of Q-Chem not listed above: 
 R. D. Adamson,  B. Austin,  R. Baer,  J. Baker,  G. J. O. Beran,  
 K. Brandhorst,  S. T. Brown,  E. F. C. Byrd,  A. K. Chakraborty,  
 G. K. L. Chan,  Chun-Min Chang,  Yunqing Chen,  C.-L. Cheng,  
 Siu Hung Chien,  D. M. Chipman,  D. L. Crittenden,  H. Dachsel,  
 R. J. Doerksen,  A. D. Dutoi,  R. G. Edgar,  J. Fosso-Tande,  
 L. Fusti-Molnar,  D. Ghosh,  A. Ghysels,  A. Golubeva-Zadorozhnaya,  
 J. Gonthier,  M. S. Gordon,  S. R. Gwaltney,  G. Hawkins,  J. E. Herr,  
 A. Heyden,  S. Hirata,  E. G. Hohenstein,  G. Kedziora,  F. J. Keil,  
 C. Kelley,  Jihan Kim,  R. A. King,  R. Z. Khaliullin,  P. P. Korambath,  
 W. Kurlancheek,  A. Laurent,  A. M. Lee,  M. S. Lee,  S. V. Levchenko,  
 Ching Yeh Lin,  D. Liotard,  E. Livshits,  R. C. Lochan,  I. Lotan,  
 L. A. Martinez-Martinez,  P. E. Maslen,  N. Nair,  D. P. O'Neill,  
 D. Neuhauser,  E. Neuscamman,  C. M. Oana,  R. Olivares-Amaya,  R. Olson,  
 T. M. Perrine,  B. Peters,  P. A. Pieniazek,  A. Prociuk,  Y. M. Rhee,  
 J. Ritchie,  M. A. Rohrdanz,  E. Rosta,  N. J. Russ,  H. F. Schaefer III,  
 M. W. Schmidt,  N. E. Schultz,  S. Sharma,  N. Shenvi,  C. D. Sherrill,  
 A. C. Simmonett,  A. Sodt,  T. Stein,  D. Stuck,  K. S. Thanthiriwatte,  
 V. Vanovschi,  L. Vogt,  Tao Wang,  A. Warshel,  M. A. Watson,  
 C. F. Williams,  Q. Wu,  X. Xu,  Jun Yang,  W. Zhang,  Yan Zhao

 Please cite Q-Chem as follows:
 Y. Shao et al., Mol. Phys. 113, 184-215 (2015)
 DOI: 10.1080/00268976.2014.952696

 Q-Chem 5.4.0 for Intel X86 EM64T Linux

 Parts of Q-Chem use Armadillo 9.800.1 (Horizon Scraper).
 http://arma.sourceforge.net/

 Q-Chem begins on Fri Dec 15 13:55:59 2023  

 Host: 
0

     Scratch files written to ./qchem2709630//
 May1621 |scratch|qcdevops|jenkins|workspace|build_RNUM    
 Parallel job on  1  processors
 Processing $rem in /cm/shared/apps/spack/cpu/opt/spack/linux-centos8-zen2/gcc-10.2.0/qchem-5.4-akfmr7b3t57bfs6qan3padb2wnb2i7cl/config/preferences:
 Processing $rem in /home/rramji/.qchemrc:
 Symmetry turned off for PCM/SM12/SMD calculation
 Core orbitals will be frozen

 Checking the input file for inconsistencies... 	...done.

 Q-Chem warning in module forms1/BasisType.C, line 2236:

 You are not using the predefined 5D/6D in this basis set.


--------------------------------------------------------------
User input:
--------------------------------------------------------------
$molecule
0 1
C	-0.248806	-3.887800	0.680396
C	0.225147	-3.701456	-0.621614
C	0.370780	-2.345170	-1.019896
H	0.466300	-4.545233	-1.285337
C	0.000000	-1.450135	0.000000
S	-0.522786	-2.321334	1.435271
C	0.865597	-1.934439	-2.378891
H	1.092567	-2.819799	-3.003720
H	1.791940	-1.326210	-2.313975
H	0.114772	-1.325374	-2.924390
C	0.000000	0.000000	0.000000
C	0.645024	0.545262	1.113020
C	1.707554	1.442954	0.820578
H	0.348587	0.294774	2.142881
C	1.897227	1.602964	-0.563588
S	0.741155	0.626722	-1.464748
C	2.520787	2.130014	1.882380
H	2.178559	1.840981	2.894974
H	2.446016	3.235078	1.808137
H	3.597818	1.871604	1.808230
H	2.628997	2.221299	-1.097114
H	0.479986	-4.420219	1.301772
H	-1.206964	-4.419395	0.687795
H	1.014873	-1.450628	0.369368
$end

$rem
JOBTYPE		SP
EXCHANGE	HF
CORRELATION	pRIMP2
BASIS		cc-pvtz
METHOD		rimp2
AUX_BASIS	rimp2-cc-pvtz
SOLVENT_METHOD	PCM
PURECART	11111
SYMMETRY	false
MEM_TOTAL	110000
SCF_CONVERGENCE = 6
THRESH=10
GUI = 2
$end



$solvent
dielectric 4.90
$end
--------------------------------------------------------------
 ----------------------------------------------------------------
             Standard Nuclear Orientation (Angstroms)
    I     Atom           X                Y                Z
 ----------------------------------------------------------------
    1      C      -0.2488060000    -3.8878000000     0.6803960000
    2      C       0.2251470000    -3.7014560000    -0.6216140000
    3      C       0.3707800000    -2.3451700000    -1.0198960000
    4      H       0.4663000000    -4.5452330000    -1.2853370000
    5      C       0.0000000000    -1.4501350000     0.0000000000
    6      S      -0.5227860000    -2.3213340000     1.4352710000
    7      C       0.8655970000    -1.9344390000    -2.3788910000
    8      H       1.0925670000    -2.8197990000    -3.0037200000
    9      H       1.7919400000    -1.3262100000    -2.3139750000
   10      H       0.1147720000    -1.3253740000    -2.9243900000
   11      C       0.0000000000     0.0000000000     0.0000000000
   12      C       0.6450240000     0.5452620000     1.1130200000
   13      C       1.7075540000     1.4429540000     0.8205780000
   14      H       0.3485870000     0.2947740000     2.1428810000
   15      C       1.8972270000     1.6029640000    -0.5635880000
   16      S       0.7411550000     0.6267220000    -1.4647480000
   17      C       2.5207870000     2.1300140000     1.8823800000
   18      H       2.1785590000     1.8409810000     2.8949740000
   19      H       2.4460160000     3.2350780000     1.8081370000
   20      H       3.5978180000     1.8716040000     1.8082300000
   21      H       2.6289970000     2.2212990000    -1.0971140000
   22      H       0.4799860000    -4.4202190000     1.3017720000
   23      H      -1.2069640000    -4.4193950000     0.6877950000
   24      H       1.0148730000    -1.4506280000     0.3693680000
 ----------------------------------------------------------------
 Nuclear Repulsion Energy =         896.94090624 hartrees
 There are       52 alpha and       52 beta electrons
 Requested basis set is cc-pVTZ
 There are 196 shells and 536 basis functions

 Total QAlloc Memory Limit 110000 MB
 Mega-Array Size       188 MB
 MEM_STATIC part       192 MB
 Discretize the solute cavity surface with Lebedev spheres
	Using 110 Lebedev grid points for each H atom
	Using 194 Lebedev grid points for other atoms
	Atomic van der Waals radii will be scaled by 1.20
 Remove points where switching function is < 1.0e-08
 Keep 1550 surface tesserae and discard 2098 interior tesserae
 Molecular Surface Area = 225.621 Angst**2
 Requested basis set is rimp2-cc-pVTZ
 There are 414 shells and 1414 basis functions
 A cutoff of  1.0D-10 yielded  14525 shell pairs
 There are    105159 function pairs (    134738 Cartesian)
 Smallest overlap matrix eigenvalue = 6.59E-05

 Scale SEOQF with 1.000000e-01/1.000000e-01/1.000000e-01

 Standard Electronic Orientation quadrupole field applied
 Nucleus-field energy     =     0.0000000187 hartrees
 Guess from superposition of atomic densities
 Warning:  Energy on first SCF cycle will be non-variational
 SAD guess density has 104.000000 electrons

 -----------------------------------------------------------------------
  General SCF calculation program by
  Eric Jon Sundstrom, Paul Horn, Yuezhi Mao, Dmitri Zuev, Alec White,
  David Stuck, Shaama M.S., Shane Yost, Joonho Lee, David Small,
  Daniel Levine, Susi Lehtola, Hugh Burton, Evgeny Epifanovsky,
  Bang C. Huynh
 -----------------------------------------------------------------------
 Hartree-Fock
 using 64 threads for integral computing
 -------------------------------------------------------
 OpenMP Integral computing Module                
 Release: version 1.0, May 2013, Q-Chem Inc. Pittsburgh 
 -------------------------------------------------------
 A restricted SCF calculation will be
 performed using DIIS
 SCF converges when DIIS error is below 1.0e-06
 ---------------------------------------
  Cycle       Energy         DIIS error
 ---------------------------------------
    1   -1186.2051522779      2.41e-02  
    2   -1180.5398079845      1.56e-03  
    3   -1180.6676917738      6.02e-04  
    4   -1180.6823064857      3.30e-04  
    5   -1180.6873832388      6.65e-05  
    6   -1180.6876857007      2.69e-05  
    7   -1180.6877671115      1.14e-05  
    8   -1180.6877884179      5.59e-06  
    9   -1180.6877948445      2.65e-06  
   10   -1180.6877963947      1.08e-06  
   11   -1180.6877966671      5.26e-07  Convergence criterion met
 ---------------------------------------
 SCF time:   CPU 1858.86s  wall 55.00s 

************** Final PCM Free Energy Summary **************
 G_electrostatic  =      -0.00861839 hartree =      -5.40811952 kcal/mol
 G_cavitation     =       0.00000000 hartree =       0.00000000 kcal/mol
 G_dispersion     =       0.00000000 hartree =       0.00000000 kcal/mol
 G_repulsion      =       0.00000000 hartree =       0.00000000 kcal/mol
 --------------------------------------------------
 Non-electrostatic Free Energy =       0.00000000 hartree =       0.00000000 kcal/mol
 Total                         =      -0.00861839 hartree =      -5.40811952 kcal/mol
 --------------------------------------------------
 SCF Energy (H0 + V/2)                       =   -1180.68779667 
 Solute Internal Energy (H0)                 =   -1180.67917828 
 Total Free Energy (H0 + V/2 + non-elec)     =   -1180.68779667 hartree
                                             = -740892.77470275 kcal/mol
***********************************************************

 SCF   energy in the final basis set =    -1180.6877966671
 Total energy in the final basis set =    -1180.6877966671


 --------------------------------------------------------------
  Generalized many-body perturbation theory program
  by Joonho Lee, Fazle Rob, Xintian Feng, Evgeny Epifanovsky

 No regularization used 
 (reg. param. = 0.0000e+00)
  (P|Q)^-1/2 Time:  CPU 21.87 s  wall 0.35 s

 In RI-MP2 calculation: 
 # of frozen core orbitals: 20

 Components of the RIMP2 correlation energy:
        aaaa    correlation energy =        -0.2555367874 a.u.
        abab    correlation energy =        -1.5148348280 a.u.
        bbbb    correlation energy =        -0.2555367874 a.u.
        non-Brillouin singles      =        -0.0000000000 a.u.
        total same-spin energy     =        -0.5110735748 a.u.
        total opposite-spin energy =        -1.5148348280 a.u.

 Total  RIMP2   correlation energy =        -2.0259084028 a.u.
        RIMP2         total energy =     -1182.7137050700 a.u.

 RI-MP2 Energy Time:  CPU 167.79 s  wall 2.74 s
 
 --------------------------------------------------------------
 
                    Orbital Energies (a.u.)
 --------------------------------------------------------------
 
 Alpha MOs
 -- Occupied --
-91.9788 -91.9404 -11.2717 -11.2711 -11.2614 -11.2564 -11.2516 -11.2408
-11.2396 -11.2292 -11.2274 -11.2165  -8.9802  -8.9452  -6.6607  -6.6601
 -6.6597  -6.6266  -6.6255  -6.6243  -1.2066  -1.1524  -1.0599  -1.0281
 -1.0069  -0.9547  -0.9127  -0.9052  -0.8053  -0.7722  -0.7236  -0.7015
 -0.6631  -0.6436  -0.6117  -0.5861  -0.5838  -0.5748  -0.5693  -0.5544
 -0.5409  -0.5314  -0.5184  -0.5172  -0.4915  -0.4623  -0.4479  -0.4403
 -0.3544  -0.3359  -0.3256  -0.2597
 -- Virtual --
  0.0736   0.1323   0.1449   0.1541   0.1616   0.1688   0.1748   0.1833
  0.1930   0.1954   0.1997   0.2042   0.2216   0.2363   0.2387   0.2428
  0.2548   0.2691   0.2771   0.3075   0.3165   0.3311   0.3481   0.3556
  0.3627   0.3673   0.3771   0.3864   0.4012   0.4090   0.4181   0.4280
  0.4424   0.4577   0.4617   0.4693   0.4754   0.4776   0.4852   0.4881
  0.4983   0.5144   0.5209   0.5306   0.5364   0.5484   0.5508   0.5664
  0.5802   0.5840   0.5890   0.5913   0.6018   0.6111   0.6178   0.6191
  0.6234   0.6241   0.6281   0.6403   0.6413   0.6497   0.6589   0.6608
  0.6658   0.6786   0.6858   0.6931   0.6967   0.7082   0.7121   0.7294
  0.7492   0.7528   0.7667   0.7697   0.7788   0.7916   0.8130   0.8204
  0.8380   0.8508   0.8521   0.8574   0.8647   0.8969   0.9078   0.9211
  0.9297   0.9445   0.9549   0.9553   0.9677   0.9773   0.9965   1.0122
  1.0320   1.0335   1.0389   1.0454   1.0585   1.0682   1.0808   1.0869
  1.0979   1.1107   1.1298   1.1361   1.1496   1.1517   1.1764   1.1799
  1.1837   1.1886   1.2037   1.2057   1.2250   1.2308   1.2368   1.2453
  1.2557   1.2617   1.2722   1.2807   1.2908   1.3039   1.3088   1.3220
  1.3338   1.3398   1.3536   1.3541   1.3810   1.4006   1.4080   1.4181
  1.4310   1.4453   1.4490   1.4600   1.4725   1.4754   1.4844   1.4985
  1.5126   1.5155   1.5237   1.5278   1.5341   1.5394   1.5494   1.5608
  1.5642   1.5798   1.5884   1.5928   1.6087   1.6267   1.6379   1.6470
  1.6574   1.6699   1.6840   1.6899   1.7000   1.7101   1.7237   1.7400
  1.7409   1.7667   1.7808   1.7924   1.8081   1.8398   1.8460   1.8731
  1.8884   1.9248   1.9401   1.9524   1.9578   1.9943   2.0160   2.0270
  2.0370   2.0468   2.0544   2.0787   2.0946   2.1145   2.1391   2.1640
  2.1857   2.1867   2.2084   2.2111   2.2319   2.2379   2.2818   2.2963
  2.3070   2.3217   2.3392   2.3876   2.4124   2.4345   2.4734   2.4857
  2.5094   2.5227   2.5432   2.5471   2.5620   2.6047   2.6138   2.6306
  2.6354   2.6545   2.6711   2.6777   2.6912   2.6959   2.7053   2.7323
  2.7337   2.7587   2.7651   2.7849   2.7905   2.8094   2.8204   2.8375
  2.8450   2.8494   2.8507   2.8865   2.8961   2.9215   2.9310   2.9347
  2.9670   2.9725   2.9897   3.0032   3.0150   3.0322   3.0325   3.0357
  3.0571   3.0985   3.1053   3.1132   3.1163   3.1292   3.1434   3.1486
  3.1577   3.1681   3.1737   3.1802   3.1921   3.2107   3.2121   3.2173
  3.2380   3.2494   3.2538   3.2580   3.2649   3.2827   3.2916   3.2973
  3.3052   3.3174   3.3343   3.3381   3.3467   3.3529   3.3588   3.3695
  3.3722   3.3838   3.3970   3.4089   3.4130   3.4241   3.4335   3.4393
  3.4438   3.4486   3.4596   3.4679   3.4779   3.4924   3.5002   3.5130
  3.5270   3.5297   3.5355   3.5441   3.5612   3.5705   3.5735   3.5905
  3.6017   3.6038   3.6276   3.6292   3.6319   3.6466   3.6628   3.6795
  3.6874   3.6954   3.7082   3.7255   3.7284   3.7379   3.7409   3.7537
  3.7615   3.7758   3.7795   3.7973   3.8010   3.8146   3.8260   3.8433
  3.8543   3.8595   3.8634   3.8766   3.8924   3.8959   3.9102   3.9340
  3.9463   3.9592   3.9699   3.9732   3.9843   3.9918   4.0177   4.0346
  4.0393   4.0446   4.0484   4.0681   4.0727   4.0984   4.1143   4.1218
  4.1355   4.1438   4.1621   4.1659   4.1788   4.1843   4.2004   4.2122
  4.2249   4.2282   4.2334   4.2588   4.2623   4.2716   4.2761   4.2901
  4.3095   4.3168   4.3311   4.3409   4.3480   4.3514   4.3660   4.3814
  4.3958   4.4019   4.4032   4.4154   4.4303   4.4438   4.4530   4.4574
  4.4770   4.4851   4.4951   4.5040   4.5391   4.5413   4.5740   4.5831
  4.5950   4.5993   4.6204   4.6321   4.6402   4.6542   4.6691   4.6868
  4.6925   4.7379   4.7428   4.7686   4.7862   4.8197   4.8311   4.8550
  4.8687   4.8746   4.9023   4.9215   4.9249   4.9468   4.9620   4.9944
  5.0178   5.0585   5.0790   5.1147   5.1198   5.1315   5.1508   5.1837
  5.1851   5.2034   5.2271   5.2759   5.2819   5.2894   5.3061   5.3149
  5.3529   5.3635   5.3901   5.4027   5.4142   5.4386   5.4442   5.4529
  5.4805   5.5020   5.5348   5.5446   5.5561   5.5660   5.5847   5.5946
  5.6275   5.6335   5.6410   5.6538   5.6925   5.7020   5.7133   5.7235
  5.7663   5.7953   5.8264   5.9732   6.0207   6.1059   6.1286   6.1678
  6.2150   6.2276   6.2518   6.2639   6.2756   6.2842   6.2987   6.3098
  6.3786   6.4308   9.4027  10.5333  12.4816  12.8661  13.1718  13.8624
 14.1309  14.2351  14.3734  14.7783
 --------------------------------------------------------------
 
          Ground-State Mulliken Net Atomic Charges

     Atom                 Charge (a.u.)
  ----------------------------------------
      1 C                    -0.071494
      2 C                    -0.329598
      3 C                    -0.043651
      4 H                     0.177844
      5 C                     0.068731
      6 S                    -0.204886
      7 C                    -0.274735
      8 H                     0.108734
      9 H                     0.109916
     10 H                     0.109201
     11 C                    -0.077453
     12 C                    -0.204848
     13 C                     0.004837
     14 H                     0.184570
     15 C                    -0.239998
     16 S                     0.033809
     17 C                    -0.267565
     18 H                     0.103641
     19 H                     0.107806
     20 H                     0.105000
     21 H                     0.199634
     22 H                     0.109040
     23 H                     0.111821
     24 H                     0.179645
  ----------------------------------------
  Sum of atomic charges =     0.000000

 -----------------------------------------------------------------
                    Cartesian Multipole Moments
 -----------------------------------------------------------------
    Charge (ESU x 10^10)
                -0.0000
    Dipole Moment (Debye)
         X       3.3545      Y       0.1511      Z      -0.8576
       Tot       3.4657
    Quadrupole Moments (Debye-Ang)
        XX     -85.4047     XY       2.9644     YY     -81.3480
        XZ       0.6647     YZ       3.3626     ZZ     -84.9104
    Octopole Moments (Debye-Ang^2)
       XXX    -150.5908    XXY      87.2776    XYY     -40.7443
       YYY     178.6630    XXZ      -3.4686    XYZ      -0.7109
       YYZ      -0.3230    XZZ     -44.5684    YZZ      74.6397
       ZZZ      -3.8657
    Hexadecapole Moments (Debye-Ang^3)
      XXXX    -753.0965   XXXY    -208.6686   XXYY    -533.4569
      XYYY    -222.7223   YYYY   -2325.2458   XXXZ      10.9236
      XXYZ     -27.2418   XYYZ      -6.4920   YYYZ     -78.8754
      XXZZ    -297.2676   XYZZ     -80.1382   YYZZ    -583.0127
      XZZZ       7.0238   YZZZ     -43.4420   ZZZZ   -1036.1723
 -----------------------------------------------------------------
 Total job time:  81.34s(wall), 3449.58s(cpu) 
 Fri Dec 15 13:57:21 2023

        *************************************************************
        *                                                           *
        *  Thank you very much for using Q-Chem.  Have a nice day.  *
        *                                                           *
        *************************************************************


0 sent ACK to 0 
now end server 0 ... 
cleanup process ... done
remove work dirs ./qchem2709630.0 -- ./qchem2709630.0
rm -rf ./qchem2709630.0
rm -rf ./qchem2709630
