You are running Q-Chem version: 5.4.0

#
# job setting
#
local host:  exp-9-54
current dir: /home/rramji/project-csd799/aromodel/p3ht-qchem/hydrogenated-rotation-run
input file:  Methylthiophene_Phi_30_Theta_280_Methylthiophene_Hydrogenated.qcin
output file: 
nprocs     : 1
nthreads   : 64
#
# qchem installation setting
#
QC:          /cm/shared/apps/spack/cpu/opt/spack/linux-centos8-zen2/gcc-10.2.0/qchem-5.4-akfmr7b3t57bfs6qan3padb2wnb2i7cl
QCAUX:       /cm/shared/apps/spack/cpu/opt/spack/linux-centos8-zen2/gcc-10.2.0/qchem-5.4-akfmr7b3t57bfs6qan3padb2wnb2i7cl/qcaux
QCPROG:      /cm/shared/apps/spack/cpu/opt/spack/linux-centos8-zen2/gcc-10.2.0/qchem-5.4-akfmr7b3t57bfs6qan3padb2wnb2i7cl/exe/qcprog.exe
QCPROG_S:    /cm/shared/apps/spack/cpu/opt/spack/linux-centos8-zen2/gcc-10.2.0/qchem-5.4-akfmr7b3t57bfs6qan3padb2wnb2i7cl/exe/qcprog.exe_s
PARALLEL:    -DPARALLEL
QCMPI:       mpich
#
# qchem directory setting
#
qcrun:       qchem3699956
QCSCRATCH:   .
QCLOCALSCR:  
QCTMPDIR:    .
QCFILEPREF:  ./qchem3699956
QCSAVEDIR:   
workdirs:    ./qchem3699956
workdir0:    ./qchem3699956
partmpdirs =  
#
# parallel setting
#
QCRSH:           ssh
QCMPI:           mpich
QCMPIRUN:        /cm/shared/apps/spack/cpu/opt/spack/linux-centos8-zen2/gcc-10.2.0/qchem-5.4-akfmr7b3t57bfs6qan3padb2wnb2i7cl/bin/mpi/mpirun_qchem
QCMACHINEFILE:   ./qchem3699956/hostfile
exp-9-54

#
# env setting
#
exported envs:   QC QCAUX QCSCRATCH QCRUNNAME QCFILEPREF QCPROG QCPROG_S GUIFILE

Running Job 1 of 1 Methylthiophene_Phi_30_Theta_280_Methylthiophene_Hydrogenated.qcin
qchem Methylthiophene_Phi_30_Theta_280_Methylthiophene_Hydrogenated.qcin_3699956.0 ./qchem3699956/ 1
/cm/shared/apps/spack/cpu/opt/spack/linux-centos8-zen2/gcc-10.2.0/qchem-5.4-akfmr7b3t57bfs6qan3padb2wnb2i7cl/bin/mpi/mpirun_qchem -machinefile ./qchem3699956/hostfile -np 1 /cm/shared/apps/spack/cpu/opt/spack/linux-centos8-zen2/gcc-10.2.0/qchem-5.4-akfmr7b3t57bfs6qan3padb2wnb2i7cl/exe/qcprog.exe Methylthiophene_Phi_30_Theta_280_Methylthiophene_Hydrogenated.qcin_3699956.0 ./qchem3699956/

Process 0 of 1 is on exp-9-54 - thread support 0
initial socket setup ...start
initial socket setup ...done 
now start server 0 ... 
                  Welcome to Q-Chem
     A Quantum Leap Into The Future Of Chemistry


 Q-Chem 5.4, Q-Chem, Inc., Pleasanton, CA (2021)

 License issued to: University of California, San Diego (site)

 E. Epifanovsky,  A. T. B. Gilbert,  Xintian Feng,  Joonho Lee,  Yuezhi Mao,  
 N. Mardirossian,  P. Pokhilko,  A. White,  M. Wormit,  M. P. Coons,  
 A. L. Dempwolff,  Zhengting Gan,  D. Hait,  P. R. Horn,  L. D. Jacobson,  
 I. Kaliman,  J. Kussmann,  A. W. Lange,  Ka Un Lao,  D. S. Levine,  Jie Liu,  
 S. C. McKenzie,  A. F. Morrison,  K. Nanda,  F. Plasser,  D. R. Rehn,  
 M. L. Vidal,  Zhi-Qiang You,  Ying Zhu,  B. Alam,  B. Albrecht,  
 A. Aldossary,  E. Alguire,  J. H. Andersen,  D. Barton,  K. Begam,  A. Behn,  
 Y. A. Bernard,  E. J. Berquist,  H. Burton,  A. Carreras,  K. Carter-Fenk,  
 R. Chakraborty,  A. D. Chien,  K. D. Closser,  V. Cofer-Shabica,  
 S. Dasgupta,  Jia Deng,  M. de Wergifosse,  M. Diedenhofen,  Hainam Do,  
 S. Ehlert,  Po-Tung Fang,  S. Fatehi,  Qingguo Feng,  J. Gayvert,  
 Qinghui Ge,  G. Gidofalvi,  M. Goldey,  J. Gomes,  C. Gonzalez-Espinoza,  
 S. Gulania,  A. Gunina,  M. W. D. Hanson-Heine,  P. H. P. Harbach,  
 A. W. Hauser,  M. F. Herbst,  M. Hernandez Vera,  M. Hodecker,  
 Z. C. Holden,  S. Houck,  Xunkun Huang,  Kerwin Hui,  B. C. Huynh,  
 M. Ivanov,  Hyunjun Ji,  Hanjie Jiang,  B. Kaduk,  S. Kaehler,  
 K. Khistyaev,  Jaehoon Kim,  P. Klunzinger,  Z. Koczor-Benda,  
 Joong Hoon Koh,  D. Kosenkov,  L. Koulias,  T. Kowalczyk,  C. M. Krauter,  
 K. Kue,  A. Kunitsa,  T. Kus,  A. Landau,  K. V. Lawler,  D. Lefrancois,  
 S. Lehtola,  Rain Li,  Yi-Pei Li,  Jiashu Liang,  M. Liebenthal,  
 Hung-Hsuan Lin,  You-Sheng Lin,  Fenglai Liu,  Kuan-Yu Liu,  
 M. Loipersberger,  A. Luenser,  A. Manjanath,  P. Manohar,  E. Mansoor,  
 S. F. Manzer,  Shan-Ping Mao,  A. V. Marenich,  T. Markovich,  S. Mason,  
 S. A. Maurer,  P. F. McLaughlin,  M. F. S. J. Menger,  J.-M. Mewes,  
 S. A. Mewes,  P. Morgante,  J. W. Mullinax,  T. S. Nguyen-Beck,  
 K. J. Oosterbaan,  G. Paran,  Alexander C. Paul,  Suranjan K. Paul,  
 F. Pavosevic,  Zheng Pei,  S. Prager,  E. I. Proynov,  E. Ramos,  B. Rana,  
 A. E. Rask,  A. Rettig,  R. M. Richard,  F. Rob,  E. Rossomme,  T. Scheele,  
 M. Scheurer,  M. Schneider,  N. Sergueev,  S. M. Sharada,  W. Skomorowski,  
 D. W. Small,  C. J. Stein,  Yu-Chuan Su,  E. J. Sundstrom,  Zhen Tao,  
 J. Thirman,  T. Tsuchimochi,  N. M. Tubman,  S. P. Veccham,  O. Vydrov,  
 J. Wenzel,  J. Witte,  A. Yamada,  Kun Yao,  S. Yeganeh,  S. R. Yost,  
 A. Zech,  Igor Ying Zhang,  Xing Zhang,  Yu Zhang,  D. Zuev,  
 A. Aspuru-Guzik,  A. T. Bell,  N. A. Besley,  K. B. Bravaya,  B. R. Brooks,  
 D. Casanova,  Jeng-Da Chai,  S. Coriani,  C. J. Cramer,  
 A. E. DePrince, III,  R. A. DiStasio Jr.,  A. Dreuw,  B. D. Dunietz,  
 T. R. Furlani,  W. A. Goddard III,  S. Grimme,  S. Hammes-Schiffer,  
 T. Head-Gordon,  W. J. Hehre,  Chao-Ping Hsu,  T.-C. Jagau,  Yousung Jung,  
 A. Klamt,  Jing Kong,  D. S. Lambrecht,  WanZhen Liang,  N. J. Mayhall,  
 C. W. McCurdy,  J. B. Neaton,  C. Ochsenfeld,  J. A. Parkhill,  R. Peverati,  
 V. A. Rassolov,  Yihan Shao,  L. V. Slipchenko,  T. Stauch,  R. P. Steele,  
 J. E. Subotnik,  A. J. W. Thom,  A. Tkatchenko,  D. G. Truhlar,  
 T. Van Voorhis,  T. A. Wesolowski,  K. B. Whaley,  H. L. Woodcock III,  
 P. M. Zimmerman,  S. Faraji,  P. M. W. Gill,  M. Head-Gordon,  
 J. M. Herbert,  A. I. Krylov

 Contributors to earlier versions of Q-Chem not listed above: 
 R. D. Adamson,  B. Austin,  R. Baer,  J. Baker,  G. J. O. Beran,  
 K. Brandhorst,  S. T. Brown,  E. F. C. Byrd,  A. K. Chakraborty,  
 G. K. L. Chan,  Chun-Min Chang,  Yunqing Chen,  C.-L. Cheng,  
 Siu Hung Chien,  D. M. Chipman,  D. L. Crittenden,  H. Dachsel,  
 R. J. Doerksen,  A. D. Dutoi,  R. G. Edgar,  J. Fosso-Tande,  
 L. Fusti-Molnar,  D. Ghosh,  A. Ghysels,  A. Golubeva-Zadorozhnaya,  
 J. Gonthier,  M. S. Gordon,  S. R. Gwaltney,  G. Hawkins,  J. E. Herr,  
 A. Heyden,  S. Hirata,  E. G. Hohenstein,  G. Kedziora,  F. J. Keil,  
 C. Kelley,  Jihan Kim,  R. A. King,  R. Z. Khaliullin,  P. P. Korambath,  
 W. Kurlancheek,  A. Laurent,  A. M. Lee,  M. S. Lee,  S. V. Levchenko,  
 Ching Yeh Lin,  D. Liotard,  E. Livshits,  R. C. Lochan,  I. Lotan,  
 L. A. Martinez-Martinez,  P. E. Maslen,  N. Nair,  D. P. O'Neill,  
 D. Neuhauser,  E. Neuscamman,  C. M. Oana,  R. Olivares-Amaya,  R. Olson,  
 T. M. Perrine,  B. Peters,  P. A. Pieniazek,  A. Prociuk,  Y. M. Rhee,  
 J. Ritchie,  M. A. Rohrdanz,  E. Rosta,  N. J. Russ,  H. F. Schaefer III,  
 M. W. Schmidt,  N. E. Schultz,  S. Sharma,  N. Shenvi,  C. D. Sherrill,  
 A. C. Simmonett,  A. Sodt,  T. Stein,  D. Stuck,  K. S. Thanthiriwatte,  
 V. Vanovschi,  L. Vogt,  Tao Wang,  A. Warshel,  M. A. Watson,  
 C. F. Williams,  Q. Wu,  X. Xu,  Jun Yang,  W. Zhang,  Yan Zhao

 Please cite Q-Chem as follows:
 Y. Shao et al., Mol. Phys. 113, 184-215 (2015)
 DOI: 10.1080/00268976.2014.952696

 Q-Chem 5.4.0 for Intel X86 EM64T Linux

 Parts of Q-Chem use Armadillo 9.800.1 (Horizon Scraper).
 http://arma.sourceforge.net/

 Q-Chem begins on Fri Dec 15 14:22:13 2023  

 Host: 
0

     Scratch files written to ./qchem3699956//
 May1621 |scratch|qcdevops|jenkins|workspace|build_RNUM    
 Parallel job on  1  processors
 Processing $rem in /cm/shared/apps/spack/cpu/opt/spack/linux-centos8-zen2/gcc-10.2.0/qchem-5.4-akfmr7b3t57bfs6qan3padb2wnb2i7cl/config/preferences:
 Processing $rem in /home/rramji/.qchemrc:
 Symmetry turned off for PCM/SM12/SMD calculation
 Core orbitals will be frozen

 Checking the input file for inconsistencies... 	...done.

 Q-Chem warning in module forms1/BasisType.C, line 2236:

 You are not using the predefined 5D/6D in this basis set.


--------------------------------------------------------------
User input:
--------------------------------------------------------------
$molecule
0 1
C	0.713264	-3.887800	0.126876
C	-0.651267	-3.701456	-0.113784
C	-1.068787	-2.345170	-0.188043
H	-1.346782	-4.545233	-0.236019
C	0.000000	-1.450135	0.000000
S	1.504247	-2.321334	0.265612
C	-2.493059	-1.934439	-0.439357
H	-3.147809	-2.819799	-0.554378
H	-2.589987	-1.326210	-1.362899
H	-2.899892	-1.325374	0.394786
C	0.000000	0.000000	0.000000
C	0.419634	0.732990	1.113020
C	1.111057	1.939951	0.820578
H	0.226746	0.396221	2.142881
C	1.234565	2.155183	-0.563588
S	0.482106	0.842416	-1.464748
C	1.640257	2.863718	1.882380
H	1.417524	2.475067	2.894974
H	1.192042	3.876565	1.808137
H	2.740717	2.989259	1.808230
H	1.710720	2.986508	-1.097114
H	1.198647	-4.420219	-0.698744
H	0.886933	-4.419395	1.069193
H	0.187526	-1.450628	-1.063595
$end

$rem
JOBTYPE		SP
EXCHANGE	HF
CORRELATION	pRIMP2
BASIS		cc-pvtz
METHOD		rimp2
AUX_BASIS	rimp2-cc-pvtz
SOLVENT_METHOD	PCM
PURECART	11111
SYMMETRY	false
MEM_TOTAL	110000
SCF_CONVERGENCE = 6
THRESH=10
GUI = 2
$end



$solvent
dielectric 4.90
$end
--------------------------------------------------------------
 ----------------------------------------------------------------
             Standard Nuclear Orientation (Angstroms)
    I     Atom           X                Y                Z
 ----------------------------------------------------------------
    1      C       0.7132640000    -3.8878000000     0.1268760000
    2      C      -0.6512670000    -3.7014560000    -0.1137840000
    3      C      -1.0687870000    -2.3451700000    -0.1880430000
    4      H      -1.3467820000    -4.5452330000    -0.2360190000
    5      C       0.0000000000    -1.4501350000     0.0000000000
    6      S       1.5042470000    -2.3213340000     0.2656120000
    7      C      -2.4930590000    -1.9344390000    -0.4393570000
    8      H      -3.1478090000    -2.8197990000    -0.5543780000
    9      H      -2.5899870000    -1.3262100000    -1.3628990000
   10      H      -2.8998920000    -1.3253740000     0.3947860000
   11      C       0.0000000000     0.0000000000     0.0000000000
   12      C       0.4196340000     0.7329900000     1.1130200000
   13      C       1.1110570000     1.9399510000     0.8205780000
   14      H       0.2267460000     0.3962210000     2.1428810000
   15      C       1.2345650000     2.1551830000    -0.5635880000
   16      S       0.4821060000     0.8424160000    -1.4647480000
   17      C       1.6402570000     2.8637180000     1.8823800000
   18      H       1.4175240000     2.4750670000     2.8949740000
   19      H       1.1920420000     3.8765650000     1.8081370000
   20      H       2.7407170000     2.9892590000     1.8082300000
   21      H       1.7107200000     2.9865080000    -1.0971140000
   22      H       1.1986470000    -4.4202190000    -0.6987440000
   23      H       0.8869330000    -4.4193950000     1.0691930000
   24      H       0.1875260000    -1.4506280000    -1.0635950000
 ----------------------------------------------------------------
 Nuclear Repulsion Energy =         877.77581963 hartrees
 There are       52 alpha and       52 beta electrons
 Requested basis set is cc-pVTZ
 There are 196 shells and 536 basis functions

 Total QAlloc Memory Limit 110000 MB
 Mega-Array Size       188 MB
 MEM_STATIC part       192 MB
 Discretize the solute cavity surface with Lebedev spheres
	Using 110 Lebedev grid points for each H atom
	Using 194 Lebedev grid points for other atoms
	Atomic van der Waals radii will be scaled by 1.20
 Remove points where switching function is < 1.0e-08
 Keep 1614 surface tesserae and discard 2034 interior tesserae
 Molecular Surface Area = 237.579 Angst**2
 Requested basis set is rimp2-cc-pVTZ
 There are 414 shells and 1414 basis functions
 A cutoff of  1.0D-10 yielded  13968 shell pairs
 There are    100904 function pairs (    129368 Cartesian)
 Smallest overlap matrix eigenvalue = 7.12E-05

 Scale SEOQF with 1.000000e-01/1.000000e-01/1.000000e-01

 Standard Electronic Orientation quadrupole field applied
 Nucleus-field energy     =     0.0000000351 hartrees
 Guess from superposition of atomic densities
 Warning:  Energy on first SCF cycle will be non-variational
 SAD guess density has 104.000000 electrons

 -----------------------------------------------------------------------
  General SCF calculation program by
  Eric Jon Sundstrom, Paul Horn, Yuezhi Mao, Dmitri Zuev, Alec White,
  David Stuck, Shaama M.S., Shane Yost, Joonho Lee, David Small,
  Daniel Levine, Susi Lehtola, Hugh Burton, Evgeny Epifanovsky,
  Bang C. Huynh
 -----------------------------------------------------------------------
 Hartree-Fock
 using 64 threads for integral computing
 -------------------------------------------------------
 OpenMP Integral computing Module                
 Release: version 1.0, May 2013, Q-Chem Inc. Pittsburgh 
 -------------------------------------------------------
 A restricted SCF calculation will be
 performed using DIIS
 SCF converges when DIIS error is below 1.0e-06
 ---------------------------------------
  Cycle       Energy         DIIS error
 ---------------------------------------
    1   -1186.0278722920      2.39e-02  
    2   -1180.6009454849      1.55e-03  
    3   -1180.7260865965      5.78e-04  
    4   -1180.7397290212      3.12e-04  
    5   -1180.7441962000      6.09e-05  
    6   -1180.7444468757      2.49e-05  
    7   -1180.7445105550      9.70e-06  
    8   -1180.7445261450      4.71e-06  
    9   -1180.7445299828      1.64e-06  
   10   -1180.7445305918      5.45e-07  Convergence criterion met
 ---------------------------------------
 SCF time:   CPU 1618.12s  wall 48.00s 

************** Final PCM Free Energy Summary **************
 G_electrostatic  =      -0.00877368 hartree =      -5.50556424 kcal/mol
 G_cavitation     =       0.00000000 hartree =       0.00000000 kcal/mol
 G_dispersion     =       0.00000000 hartree =       0.00000000 kcal/mol
 G_repulsion      =       0.00000000 hartree =       0.00000000 kcal/mol
 --------------------------------------------------
 Non-electrostatic Free Energy =       0.00000000 hartree =       0.00000000 kcal/mol
 Total                         =      -0.00877368 hartree =      -5.50556424 kcal/mol
 --------------------------------------------------
 SCF Energy (H0 + V/2)                       =   -1180.74453059 
 Solute Internal Energy (H0)                 =   -1180.73575692 
 Total Free Energy (H0 + V/2 + non-elec)     =   -1180.74453059 hartree
                                             = -740928.37577779 kcal/mol
***********************************************************

 SCF   energy in the final basis set =    -1180.7445305918
 Total energy in the final basis set =    -1180.7445305918


 --------------------------------------------------------------
  Generalized many-body perturbation theory program
  by Joonho Lee, Fazle Rob, Xintian Feng, Evgeny Epifanovsky

 No regularization used 
 (reg. param. = 0.0000e+00)
  (P|Q)^-1/2 Time:  CPU 22.69 s  wall 0.36 s

 In RI-MP2 calculation: 
 # of frozen core orbitals: 20

 Components of the RIMP2 correlation energy:
        aaaa    correlation energy =        -0.2515197055 a.u.
        abab    correlation energy =        -1.5046210787 a.u.
        bbbb    correlation energy =        -0.2515197055 a.u.
        non-Brillouin singles      =        -0.0000000000 a.u.
        total same-spin energy     =        -0.5030394110 a.u.
        total opposite-spin energy =        -1.5046210787 a.u.

 Total  RIMP2   correlation energy =        -2.0076604896 a.u.
        RIMP2         total energy =     -1182.7521910814 a.u.

 RI-MP2 Energy Time:  CPU 169.92 s  wall 2.99 s
 
 --------------------------------------------------------------
 
                    Orbital Energies (a.u.)
 --------------------------------------------------------------
 
 Alpha MOs
 -- Occupied --
-91.9845 -91.9407 -11.2724 -11.2706 -11.2593 -11.2532 -11.2512 -11.2428
-11.2398 -11.2306 -11.2290 -11.2159  -8.9845  -8.9453  -6.6654  -6.6648
 -6.6642  -6.6266  -6.6256  -6.6244  -1.1978  -1.1538  -1.0572  -1.0253
 -1.0021  -0.9621  -0.9124  -0.9004  -0.8106  -0.7631  -0.7390  -0.7030
 -0.6523  -0.6322  -0.6118  -0.5872  -0.5773  -0.5736  -0.5674  -0.5522
 -0.5414  -0.5306  -0.5094  -0.5066  -0.4889  -0.4780  -0.4636  -0.4477
 -0.3568  -0.3390  -0.3140  -0.2792
 -- Virtual --
  0.0813   0.1294   0.1433   0.1502   0.1599   0.1690   0.1771   0.1839
  0.1862   0.1974   0.2056   0.2179   0.2205   0.2343   0.2382   0.2452
  0.2481   0.2531   0.2694   0.2944   0.3059   0.3287   0.3383   0.3533
  0.3664   0.3766   0.3777   0.3855   0.3941   0.4045   0.4137   0.4226
  0.4310   0.4419   0.4460   0.4619   0.4670   0.4698   0.4858   0.4868
  0.4944   0.5106   0.5149   0.5230   0.5327   0.5381   0.5464   0.5599
  0.5679   0.5749   0.5879   0.5996   0.6016   0.6122   0.6147   0.6221
  0.6232   0.6278   0.6312   0.6329   0.6379   0.6477   0.6485   0.6577
  0.6643   0.6684   0.6768   0.6843   0.6914   0.6982   0.7170   0.7238
  0.7426   0.7474   0.7494   0.7642   0.7826   0.7950   0.8072   0.8174
  0.8267   0.8334   0.8436   0.8560   0.8648   0.8893   0.9118   0.9199
  0.9294   0.9354   0.9456   0.9528   0.9800   0.9871   0.9984   1.0068
  1.0236   1.0282   1.0370   1.0436   1.0526   1.0657   1.0710   1.0849
  1.0858   1.0987   1.1204   1.1275   1.1332   1.1441   1.1563   1.1658
  1.1763   1.1800   1.1915   1.2082   1.2160   1.2301   1.2348   1.2373
  1.2560   1.2644   1.2662   1.2708   1.2808   1.2880   1.3048   1.3120
  1.3241   1.3403   1.3542   1.3638   1.3724   1.3828   1.3977   1.4159
  1.4188   1.4254   1.4516   1.4564   1.4610   1.4755   1.4864   1.4974
  1.5043   1.5135   1.5193   1.5243   1.5345   1.5399   1.5570   1.5621
  1.5695   1.5724   1.5808   1.5859   1.6131   1.6249   1.6307   1.6357
  1.6565   1.6669   1.6755   1.6841   1.7028   1.7065   1.7138   1.7246
  1.7306   1.7526   1.7673   1.7795   1.7941   1.8179   1.8338   1.8523
  1.8699   1.9099   1.9297   1.9389   1.9623   1.9765   1.9869   2.0052
  2.0107   2.0248   2.0271   2.0712   2.0881   2.1151   2.1258   2.1419
  2.1831   2.1908   2.1969   2.2194   2.2272   2.2442   2.2608   2.2727
  2.2957   2.3306   2.3380   2.3779   2.4175   2.4377   2.4573   2.4672
  2.4987   2.5127   2.5223   2.5438   2.5620   2.5958   2.6029   2.6147
  2.6306   2.6510   2.6522   2.6584   2.6793   2.6835   2.6941   2.7222
  2.7416   2.7521   2.7736   2.7778   2.7866   2.7947   2.7996   2.8203
  2.8417   2.8495   2.8565   2.8767   2.8957   2.8988   2.9120   2.9150
  2.9393   2.9533   2.9763   2.9874   3.0016   3.0182   3.0303   3.0361
  3.0438   3.0637   3.0840   3.1106   3.1131   3.1233   3.1262   3.1374
  3.1475   3.1542   3.1647   3.1770   3.1882   3.1950   3.2067   3.2163
  3.2316   3.2448   3.2457   3.2603   3.2774   3.2874   3.2933   3.3014
  3.3136   3.3223   3.3325   3.3399   3.3421   3.3527   3.3563   3.3641
  3.3719   3.3773   3.3858   3.3945   3.4139   3.4149   3.4198   3.4275
  3.4324   3.4490   3.4580   3.4700   3.4772   3.5016   3.5054   3.5115
  3.5144   3.5289   3.5366   3.5435   3.5524   3.5556   3.5756   3.5869
  3.5983   3.6099   3.6261   3.6346   3.6435   3.6510   3.6544   3.6637
  3.6740   3.6843   3.7028   3.7049   3.7118   3.7193   3.7292   3.7438
  3.7464   3.7584   3.7629   3.7766   3.7906   3.7959   3.8032   3.8108
  3.8233   3.8443   3.8580   3.8694   3.8766   3.8912   3.8972   3.9072
  3.9245   3.9426   3.9523   3.9642   3.9670   3.9823   3.9928   4.0132
  4.0277   4.0329   4.0424   4.0554   4.0610   4.0812   4.0956   4.1098
  4.1124   4.1356   4.1467   4.1553   4.1691   4.1753   4.1874   4.1918
  4.2064   4.2197   4.2296   4.2385   4.2490   4.2579   4.2715   4.2855
  4.2934   4.2967   4.3102   4.3196   4.3413   4.3453   4.3625   4.3654
  4.3758   4.3860   4.4019   4.4021   4.4162   4.4281   4.4291   4.4484
  4.4589   4.4595   4.4764   4.4813   4.5025   4.5126   4.5178   4.5458
  4.5612   4.5725   4.6103   4.6259   4.6327   4.6453   4.6563   4.6665
  4.7019   4.7074   4.7242   4.7610   4.7851   4.7960   4.8234   4.8369
  4.8537   4.8820   4.8952   4.9119   4.9268   4.9419   4.9695   4.9878
  5.0127   5.0467   5.0630   5.0943   5.1102   5.1311   5.1499   5.1644
  5.1816   5.2183   5.2212   5.2633   5.2824   5.2900   5.3129   5.3161
  5.3436   5.3642   5.3776   5.3949   5.4022   5.4169   5.4431   5.4488
  5.4805   5.5081   5.5275   5.5376   5.5567   5.5612   5.5682   5.5815
  5.6201   5.6283   5.6460   5.6571   5.6795   5.7017   5.7132   5.7395
  5.7529   5.7880   5.8255   5.9485   5.9746   6.0301   6.1097   6.1374
  6.2049   6.2212   6.2260   6.2320   6.2520   6.2775   6.2919   6.3153
  6.3730   6.4541   9.4008  10.5432  12.1321  12.8764  13.1550  13.9068
 14.0406  14.2119  14.2990  14.5570
 --------------------------------------------------------------
 
          Ground-State Mulliken Net Atomic Charges

     Atom                 Charge (a.u.)
  ----------------------------------------
      1 C                    -0.072687
      2 C                    -0.328844
      3 C                    -0.041259
      4 H                     0.175119
      5 C                     0.076591
      6 S                    -0.175311
      7 C                    -0.271079
      8 H                     0.112659
      9 H                     0.101371
     10 H                     0.106610
     11 C                    -0.076147
     12 C                    -0.245359
     13 C                     0.043844
     14 H                     0.182770
     15 C                    -0.234631
     16 S                     0.011826
     17 C                    -0.269611
     18 H                     0.103117
     19 H                     0.107587
     20 H                     0.107930
     21 H                     0.199932
     22 H                     0.108787
     23 H                     0.109726
     24 H                     0.167061
  ----------------------------------------
  Sum of atomic charges =     0.000000

 -----------------------------------------------------------------
                    Cartesian Multipole Moments
 -----------------------------------------------------------------
    Charge (ESU x 10^10)
                -0.0000
    Dipole Moment (Debye)
         X      -1.1353      Y       0.8782      Z       0.4466
       Tot       1.5032
    Quadrupole Moments (Debye-Ang)
        XX     -88.8784     XY       8.2155     YY     -76.9128
        XZ       0.2754     YZ       2.8864     ZZ     -85.8195
    Octopole Moments (Debye-Ang^2)
       XXX    -105.1831    XXY      60.3613    XYY     -17.7584
       YYY     146.2591    XXZ      -4.4006    XYZ      -1.2022
       YYZ      -6.5723    XZZ     -28.3420    YZZ      64.8111
       ZZZ       2.6331
    Hexadecapole Moments (Debye-Ang^3)
      XXXX    -925.4864   XXXY    -174.1050   XXYY    -593.4138
      XYYY    -179.5062   YYYY   -2610.4804   XXXZ     -98.1562
      XXYZ     -25.1916   XYYZ     -37.4506   YYYZ     -94.7004
      XXZZ    -254.6510   XYZZ     -61.6686   YYZZ    -569.6062
      XZZZ    -103.1933   YZZZ     -90.5977   ZZZZ    -560.9919
 -----------------------------------------------------------------
 Total job time:  55.29s(wall), 1873.14s(cpu) 
 Fri Dec 15 14:23:09 2023

        *************************************************************
        *                                                           *
        *  Thank you very much for using Q-Chem.  Have a nice day.  *
        *                                                           *
        *************************************************************


0 sent ACK to 0 
now end server 0 ... 
cleanup process ... done
remove work dirs ./qchem3699956.0 -- ./qchem3699956.0
rm -rf ./qchem3699956.0
rm -rf ./qchem3699956
