You are running Q-Chem version: 5.4.0

#
# job setting
#
local host:  exp-6-19
current dir: /home/rramji/project-csd799/aromodel/p3ht-qchem/hydrogenated-rotation-run
input file:  Methylthiophene_Phi_40_Theta_50_Methylthiophene_Hydrogenated.qcin
output file: 
nprocs     : 1
nthreads   : 64
#
# qchem installation setting
#
QC:          /cm/shared/apps/spack/cpu/opt/spack/linux-centos8-zen2/gcc-10.2.0/qchem-5.4-akfmr7b3t57bfs6qan3padb2wnb2i7cl
QCAUX:       /cm/shared/apps/spack/cpu/opt/spack/linux-centos8-zen2/gcc-10.2.0/qchem-5.4-akfmr7b3t57bfs6qan3padb2wnb2i7cl/qcaux
QCPROG:      /cm/shared/apps/spack/cpu/opt/spack/linux-centos8-zen2/gcc-10.2.0/qchem-5.4-akfmr7b3t57bfs6qan3padb2wnb2i7cl/exe/qcprog.exe
QCPROG_S:    /cm/shared/apps/spack/cpu/opt/spack/linux-centos8-zen2/gcc-10.2.0/qchem-5.4-akfmr7b3t57bfs6qan3padb2wnb2i7cl/exe/qcprog.exe_s
PARALLEL:    -DPARALLEL
QCMPI:       mpich
#
# qchem directory setting
#
qcrun:       qchem2710837
QCSCRATCH:   .
QCLOCALSCR:  
QCTMPDIR:    .
QCFILEPREF:  ./qchem2710837
QCSAVEDIR:   
workdirs:    ./qchem2710837
workdir0:    ./qchem2710837
partmpdirs =  
#
# parallel setting
#
QCRSH:           ssh
QCMPI:           mpich
QCMPIRUN:        /cm/shared/apps/spack/cpu/opt/spack/linux-centos8-zen2/gcc-10.2.0/qchem-5.4-akfmr7b3t57bfs6qan3padb2wnb2i7cl/bin/mpi/mpirun_qchem
QCMACHINEFILE:   ./qchem2710837/hostfile
exp-6-19

#
# env setting
#
exported envs:   QC QCAUX QCSCRATCH QCRUNNAME QCFILEPREF QCPROG QCPROG_S GUIFILE

Running Job 1 of 1 Methylthiophene_Phi_40_Theta_50_Methylthiophene_Hydrogenated.qcin
qchem Methylthiophene_Phi_40_Theta_50_Methylthiophene_Hydrogenated.qcin_2710837.0 ./qchem2710837/ 1
/cm/shared/apps/spack/cpu/opt/spack/linux-centos8-zen2/gcc-10.2.0/qchem-5.4-akfmr7b3t57bfs6qan3padb2wnb2i7cl/bin/mpi/mpirun_qchem -machinefile ./qchem2710837/hostfile -np 1 /cm/shared/apps/spack/cpu/opt/spack/linux-centos8-zen2/gcc-10.2.0/qchem-5.4-akfmr7b3t57bfs6qan3padb2wnb2i7cl/exe/qcprog.exe Methylthiophene_Phi_40_Theta_50_Methylthiophene_Hydrogenated.qcin_2710837.0 ./qchem2710837/

Process 0 of 1 is on exp-6-19 - thread support 0
initial socket setup ...start
initial socket setup ...done 
now start server 0 ... 
                  Welcome to Q-Chem
     A Quantum Leap Into The Future Of Chemistry


 Q-Chem 5.4, Q-Chem, Inc., Pleasanton, CA (2021)

 License issued to: University of California, San Diego (site)

 E. Epifanovsky,  A. T. B. Gilbert,  Xintian Feng,  Joonho Lee,  Yuezhi Mao,  
 N. Mardirossian,  P. Pokhilko,  A. White,  M. Wormit,  M. P. Coons,  
 A. L. Dempwolff,  Zhengting Gan,  D. Hait,  P. R. Horn,  L. D. Jacobson,  
 I. Kaliman,  J. Kussmann,  A. W. Lange,  Ka Un Lao,  D. S. Levine,  Jie Liu,  
 S. C. McKenzie,  A. F. Morrison,  K. Nanda,  F. Plasser,  D. R. Rehn,  
 M. L. Vidal,  Zhi-Qiang You,  Ying Zhu,  B. Alam,  B. Albrecht,  
 A. Aldossary,  E. Alguire,  J. H. Andersen,  D. Barton,  K. Begam,  A. Behn,  
 Y. A. Bernard,  E. J. Berquist,  H. Burton,  A. Carreras,  K. Carter-Fenk,  
 R. Chakraborty,  A. D. Chien,  K. D. Closser,  V. Cofer-Shabica,  
 S. Dasgupta,  Jia Deng,  M. de Wergifosse,  M. Diedenhofen,  Hainam Do,  
 S. Ehlert,  Po-Tung Fang,  S. Fatehi,  Qingguo Feng,  J. Gayvert,  
 Qinghui Ge,  G. Gidofalvi,  M. Goldey,  J. Gomes,  C. Gonzalez-Espinoza,  
 S. Gulania,  A. Gunina,  M. W. D. Hanson-Heine,  P. H. P. Harbach,  
 A. W. Hauser,  M. F. Herbst,  M. Hernandez Vera,  M. Hodecker,  
 Z. C. Holden,  S. Houck,  Xunkun Huang,  Kerwin Hui,  B. C. Huynh,  
 M. Ivanov,  Hyunjun Ji,  Hanjie Jiang,  B. Kaduk,  S. Kaehler,  
 K. Khistyaev,  Jaehoon Kim,  P. Klunzinger,  Z. Koczor-Benda,  
 Joong Hoon Koh,  D. Kosenkov,  L. Koulias,  T. Kowalczyk,  C. M. Krauter,  
 K. Kue,  A. Kunitsa,  T. Kus,  A. Landau,  K. V. Lawler,  D. Lefrancois,  
 S. Lehtola,  Rain Li,  Yi-Pei Li,  Jiashu Liang,  M. Liebenthal,  
 Hung-Hsuan Lin,  You-Sheng Lin,  Fenglai Liu,  Kuan-Yu Liu,  
 M. Loipersberger,  A. Luenser,  A. Manjanath,  P. Manohar,  E. Mansoor,  
 S. F. Manzer,  Shan-Ping Mao,  A. V. Marenich,  T. Markovich,  S. Mason,  
 S. A. Maurer,  P. F. McLaughlin,  M. F. S. J. Menger,  J.-M. Mewes,  
 S. A. Mewes,  P. Morgante,  J. W. Mullinax,  T. S. Nguyen-Beck,  
 K. J. Oosterbaan,  G. Paran,  Alexander C. Paul,  Suranjan K. Paul,  
 F. Pavosevic,  Zheng Pei,  S. Prager,  E. I. Proynov,  E. Ramos,  B. Rana,  
 A. E. Rask,  A. Rettig,  R. M. Richard,  F. Rob,  E. Rossomme,  T. Scheele,  
 M. Scheurer,  M. Schneider,  N. Sergueev,  S. M. Sharada,  W. Skomorowski,  
 D. W. Small,  C. J. Stein,  Yu-Chuan Su,  E. J. Sundstrom,  Zhen Tao,  
 J. Thirman,  T. Tsuchimochi,  N. M. Tubman,  S. P. Veccham,  O. Vydrov,  
 J. Wenzel,  J. Witte,  A. Yamada,  Kun Yao,  S. Yeganeh,  S. R. Yost,  
 A. Zech,  Igor Ying Zhang,  Xing Zhang,  Yu Zhang,  D. Zuev,  
 A. Aspuru-Guzik,  A. T. Bell,  N. A. Besley,  K. B. Bravaya,  B. R. Brooks,  
 D. Casanova,  Jeng-Da Chai,  S. Coriani,  C. J. Cramer,  
 A. E. DePrince, III,  R. A. DiStasio Jr.,  A. Dreuw,  B. D. Dunietz,  
 T. R. Furlani,  W. A. Goddard III,  S. Grimme,  S. Hammes-Schiffer,  
 T. Head-Gordon,  W. J. Hehre,  Chao-Ping Hsu,  T.-C. Jagau,  Yousung Jung,  
 A. Klamt,  Jing Kong,  D. S. Lambrecht,  WanZhen Liang,  N. J. Mayhall,  
 C. W. McCurdy,  J. B. Neaton,  C. Ochsenfeld,  J. A. Parkhill,  R. Peverati,  
 V. A. Rassolov,  Yihan Shao,  L. V. Slipchenko,  T. Stauch,  R. P. Steele,  
 J. E. Subotnik,  A. J. W. Thom,  A. Tkatchenko,  D. G. Truhlar,  
 T. Van Voorhis,  T. A. Wesolowski,  K. B. Whaley,  H. L. Woodcock III,  
 P. M. Zimmerman,  S. Faraji,  P. M. W. Gill,  M. Head-Gordon,  
 J. M. Herbert,  A. I. Krylov

 Contributors to earlier versions of Q-Chem not listed above: 
 R. D. Adamson,  B. Austin,  R. Baer,  J. Baker,  G. J. O. Beran,  
 K. Brandhorst,  S. T. Brown,  E. F. C. Byrd,  A. K. Chakraborty,  
 G. K. L. Chan,  Chun-Min Chang,  Yunqing Chen,  C.-L. Cheng,  
 Siu Hung Chien,  D. M. Chipman,  D. L. Crittenden,  H. Dachsel,  
 R. J. Doerksen,  A. D. Dutoi,  R. G. Edgar,  J. Fosso-Tande,  
 L. Fusti-Molnar,  D. Ghosh,  A. Ghysels,  A. Golubeva-Zadorozhnaya,  
 J. Gonthier,  M. S. Gordon,  S. R. Gwaltney,  G. Hawkins,  J. E. Herr,  
 A. Heyden,  S. Hirata,  E. G. Hohenstein,  G. Kedziora,  F. J. Keil,  
 C. Kelley,  Jihan Kim,  R. A. King,  R. Z. Khaliullin,  P. P. Korambath,  
 W. Kurlancheek,  A. Laurent,  A. M. Lee,  M. S. Lee,  S. V. Levchenko,  
 Ching Yeh Lin,  D. Liotard,  E. Livshits,  R. C. Lochan,  I. Lotan,  
 L. A. Martinez-Martinez,  P. E. Maslen,  N. Nair,  D. P. O'Neill,  
 D. Neuhauser,  E. Neuscamman,  C. M. Oana,  R. Olivares-Amaya,  R. Olson,  
 T. M. Perrine,  B. Peters,  P. A. Pieniazek,  A. Prociuk,  Y. M. Rhee,  
 J. Ritchie,  M. A. Rohrdanz,  E. Rosta,  N. J. Russ,  H. F. Schaefer III,  
 M. W. Schmidt,  N. E. Schultz,  S. Sharma,  N. Shenvi,  C. D. Sherrill,  
 A. C. Simmonett,  A. Sodt,  T. Stein,  D. Stuck,  K. S. Thanthiriwatte,  
 V. Vanovschi,  L. Vogt,  Tao Wang,  A. Warshel,  M. A. Watson,  
 C. F. Williams,  Q. Wu,  X. Xu,  Jun Yang,  W. Zhang,  Yan Zhao

 Please cite Q-Chem as follows:
 Y. Shao et al., Mol. Phys. 113, 184-215 (2015)
 DOI: 10.1080/00268976.2014.952696

 Q-Chem 5.4.0 for Intel X86 EM64T Linux

 Parts of Q-Chem use Armadillo 9.800.1 (Horizon Scraper).
 http://arma.sourceforge.net/

 Q-Chem begins on Fri Dec 15 13:58:53 2023  

 Host: 
0

     Scratch files written to ./qchem2710837//
 May1621 |scratch|qcdevops|jenkins|workspace|build_RNUM    
 Parallel job on  1  processors
 Processing $rem in /cm/shared/apps/spack/cpu/opt/spack/linux-centos8-zen2/gcc-10.2.0/qchem-5.4-akfmr7b3t57bfs6qan3padb2wnb2i7cl/config/preferences:
 Processing $rem in /home/rramji/.qchemrc:
 Symmetry turned off for PCM/SM12/SMD calculation
 Core orbitals will be frozen

 Checking the input file for inconsistencies... 	...done.

 Q-Chem warning in module forms1/BasisType.C, line 2236:

 You are not using the predefined 5D/6D in this basis set.


--------------------------------------------------------------
User input:
--------------------------------------------------------------
$molecule
0 1
C	-0.555670	-3.887800	0.464838
C	0.505790	-3.701456	-0.425760
C	0.831053	-2.345170	-0.697866
H	1.046496	-4.545233	-0.879984
C	-0.000000	-1.450135	-0.000000
S	-1.170382	-2.321334	0.981588
C	1.939074	-1.934439	-1.627381
H	2.448051	-2.819799	-2.055015
H	2.708853	-1.326210	-1.107991
H	1.561590	-1.325374	-2.475210
C	0.000000	0.000000	0.000000
C	0.540541	0.648986	1.113020
C	1.431046	1.717546	0.820578
H	0.292104	0.350827	2.142881
C	1.590053	1.908061	-0.563588
S	0.621066	0.745901	-1.464748
C	2.112618	2.535384	1.882380
H	1.825779	2.191315	2.894974
H	1.847090	3.610676	1.808137
H	3.218159	2.467925	1.808230
H	2.203332	2.644073	-1.097114
H	-0.235206	-4.420219	1.367361
H	-1.389159	-4.419395	-0.007834
H	0.694221	-1.450628	0.827319
$end

$rem
JOBTYPE		SP
EXCHANGE	HF
CORRELATION	pRIMP2
BASIS		cc-pvtz
METHOD		rimp2
AUX_BASIS	rimp2-cc-pvtz
SOLVENT_METHOD	PCM
PURECART	11111
SYMMETRY	false
MEM_TOTAL	110000
SCF_CONVERGENCE = 6
THRESH=10
GUI = 2
$end



$solvent
dielectric 4.90
$end
--------------------------------------------------------------
 ----------------------------------------------------------------
             Standard Nuclear Orientation (Angstroms)
    I     Atom           X                Y                Z
 ----------------------------------------------------------------
    1      C      -0.5556700000    -3.8878000000     0.4648380000
    2      C       0.5057900000    -3.7014560000    -0.4257600000
    3      C       0.8310530000    -2.3451700000    -0.6978660000
    4      H       1.0464960000    -4.5452330000    -0.8799840000
    5      C       0.0000000000    -1.4501350000     0.0000000000
    6      S      -1.1703820000    -2.3213340000     0.9815880000
    7      C       1.9390740000    -1.9344390000    -1.6273810000
    8      H       2.4480510000    -2.8197990000    -2.0550150000
    9      H       2.7088530000    -1.3262100000    -1.1079910000
   10      H       1.5615900000    -1.3253740000    -2.4752100000
   11      C       0.0000000000     0.0000000000     0.0000000000
   12      C       0.5405410000     0.6489860000     1.1130200000
   13      C       1.4310460000     1.7175460000     0.8205780000
   14      H       0.2921040000     0.3508270000     2.1428810000
   15      C       1.5900530000     1.9080610000    -0.5635880000
   16      S       0.6210660000     0.7459010000    -1.4647480000
   17      C       2.1126180000     2.5353840000     1.8823800000
   18      H       1.8257790000     2.1913150000     2.8949740000
   19      H       1.8470900000     3.6106760000     1.8081370000
   20      H       3.2181590000     2.4679250000     1.8082300000
   21      H       2.2033320000     2.6440730000    -1.0971140000
   22      H      -0.2352060000    -4.4202190000     1.3673610000
   23      H      -1.3891590000    -4.4193950000    -0.0078340000
   24      H       0.6942210000    -1.4506280000     0.8273190000
 ----------------------------------------------------------------
 Nuclear Repulsion Energy =         887.65018028 hartrees
 There are       52 alpha and       52 beta electrons
 Requested basis set is cc-pVTZ
 There are 196 shells and 536 basis functions

 Total QAlloc Memory Limit 110000 MB
 Mega-Array Size       188 MB
 MEM_STATIC part       192 MB
 Discretize the solute cavity surface with Lebedev spheres
	Using 110 Lebedev grid points for each H atom
	Using 194 Lebedev grid points for other atoms
	Atomic van der Waals radii will be scaled by 1.20
 Remove points where switching function is < 1.0e-08
 Keep 1564 surface tesserae and discard 2084 interior tesserae
 Molecular Surface Area = 230.407 Angst**2
 Requested basis set is rimp2-cc-pVTZ
 There are 414 shells and 1414 basis functions
 A cutoff of  1.0D-10 yielded  14439 shell pairs
 There are    104699 function pairs (    134274 Cartesian)
 Smallest overlap matrix eigenvalue = 6.75E-05

 Scale SEOQF with 1.000000e-01/1.000000e-01/1.000000e-01

 Standard Electronic Orientation quadrupole field applied
 Nucleus-field energy     =     0.0000000276 hartrees
 Guess from superposition of atomic densities
 Warning:  Energy on first SCF cycle will be non-variational
 SAD guess density has 104.000000 electrons

 -----------------------------------------------------------------------
  General SCF calculation program by
  Eric Jon Sundstrom, Paul Horn, Yuezhi Mao, Dmitri Zuev, Alec White,
  David Stuck, Shaama M.S., Shane Yost, Joonho Lee, David Small,
  Daniel Levine, Susi Lehtola, Hugh Burton, Evgeny Epifanovsky,
  Bang C. Huynh
 -----------------------------------------------------------------------
 Hartree-Fock
 using 64 threads for integral computing
 -------------------------------------------------------
 OpenMP Integral computing Module                
 Release: version 1.0, May 2013, Q-Chem Inc. Pittsburgh 
 -------------------------------------------------------
 A restricted SCF calculation will be
 performed using DIIS
 SCF converges when DIIS error is below 1.0e-06
 ---------------------------------------
  Cycle       Energy         DIIS error
 ---------------------------------------
    1   -1186.1080937292      2.40e-02  
    2   -1180.5703014869      1.55e-03  
    3   -1180.6964708771      5.88e-04  
    4   -1180.7104429750      3.27e-04  
    5   -1180.7153662468      6.35e-05  
    6   -1180.7156476056      2.58e-05  
    7   -1180.7157208338      1.08e-05  
    8   -1180.7157405912      5.21e-06  
    9   -1180.7157461258      2.23e-06  
   10   -1180.7157472009      8.26e-07  Convergence criterion met
 ---------------------------------------
 SCF time:   CPU 1712.81s  wall 50.00s 

************** Final PCM Free Energy Summary **************
 G_electrostatic  =      -0.00878085 hartree =      -5.51006918 kcal/mol
 G_cavitation     =       0.00000000 hartree =       0.00000000 kcal/mol
 G_dispersion     =       0.00000000 hartree =       0.00000000 kcal/mol
 G_repulsion      =       0.00000000 hartree =       0.00000000 kcal/mol
 --------------------------------------------------
 Non-electrostatic Free Energy =       0.00000000 hartree =       0.00000000 kcal/mol
 Total                         =      -0.00878085 hartree =      -5.51006918 kcal/mol
 --------------------------------------------------
 SCF Energy (H0 + V/2)                       =   -1180.71574720 
 Solute Internal Energy (H0)                 =   -1180.70696635 
 Total Free Energy (H0 + V/2 + non-elec)     =   -1180.71574720 hartree
                                             = -740910.31392740 kcal/mol
***********************************************************

 SCF   energy in the final basis set =    -1180.7157472009
 Total energy in the final basis set =    -1180.7157472009


 --------------------------------------------------------------
  Generalized many-body perturbation theory program
  by Joonho Lee, Fazle Rob, Xintian Feng, Evgeny Epifanovsky

 No regularization used 
 (reg. param. = 0.0000e+00)
  (P|Q)^-1/2 Time:  CPU 21.84 s  wall 0.35 s

 In RI-MP2 calculation: 
 # of frozen core orbitals: 20

 Components of the RIMP2 correlation energy:
        aaaa    correlation energy =        -0.2539283105 a.u.
        abab    correlation energy =        -1.5105643077 a.u.
        bbbb    correlation energy =        -0.2539283105 a.u.
        non-Brillouin singles      =        -0.0000000000 a.u.
        total same-spin energy     =        -0.5078566209 a.u.
        total opposite-spin energy =        -1.5105643077 a.u.

 Total  RIMP2   correlation energy =        -2.0184209287 a.u.
        RIMP2         total energy =     -1182.7341681296 a.u.

 RI-MP2 Energy Time:  CPU 170.31 s  wall 3.25 s
 
 --------------------------------------------------------------
 
                    Orbital Energies (a.u.)
 --------------------------------------------------------------
 
 Alpha MOs
 -- Occupied --
-91.9818 -91.9379 -11.2744 -11.2690 -11.2620 -11.2528 -11.2517 -11.2421
-11.2396 -11.2297 -11.2271 -11.2168  -8.9822  -8.9428  -6.6630  -6.6624
 -6.6620  -6.6242  -6.6231  -6.6219  -1.2015  -1.1529  -1.0581  -1.0235
 -1.0084  -0.9571  -0.9101  -0.9036  -0.8077  -0.7669  -0.7315  -0.6997
 -0.6611  -0.6398  -0.6101  -0.5846  -0.5821  -0.5748  -0.5675  -0.5533
 -0.5422  -0.5284  -0.5173  -0.5092  -0.4933  -0.4649  -0.4548  -0.4450
 -0.3531  -0.3425  -0.3192  -0.2641
 -- Virtual --
  0.0783   0.1339   0.1403   0.1559   0.1599   0.1704   0.1760   0.1797
  0.1924   0.1973   0.2024   0.2055   0.2249   0.2368   0.2406   0.2422
  0.2496   0.2633   0.2724   0.2949   0.3175   0.3362   0.3402   0.3561
  0.3596   0.3679   0.3781   0.3824   0.3959   0.4034   0.4134   0.4306
  0.4380   0.4469   0.4510   0.4601   0.4687   0.4828   0.4861   0.4957
  0.5038   0.5100   0.5215   0.5333   0.5384   0.5465   0.5557   0.5570
  0.5673   0.5758   0.5852   0.5963   0.5998   0.6118   0.6145   0.6206
  0.6221   0.6242   0.6317   0.6389   0.6451   0.6503   0.6528   0.6596
  0.6707   0.6761   0.6796   0.6884   0.6912   0.6951   0.7214   0.7282
  0.7307   0.7599   0.7651   0.7685   0.7758   0.8004   0.8040   0.8186
  0.8293   0.8377   0.8503   0.8670   0.8760   0.8830   0.8884   0.9225
  0.9315   0.9372   0.9466   0.9608   0.9763   0.9777   1.0037   1.0095
  1.0158   1.0307   1.0403   1.0513   1.0549   1.0649   1.0695   1.0836
  1.0994   1.1095   1.1342   1.1368   1.1437   1.1602   1.1626   1.1761
  1.1837   1.1899   1.2006   1.2107   1.2186   1.2245   1.2386   1.2481
  1.2534   1.2563   1.2664   1.2723   1.2831   1.2915   1.3046   1.3071
  1.3180   1.3327   1.3529   1.3724   1.3885   1.3940   1.4054   1.4237
  1.4312   1.4416   1.4533   1.4636   1.4660   1.4769   1.4855   1.4996
  1.5099   1.5171   1.5243   1.5263   1.5374   1.5450   1.5493   1.5587
  1.5625   1.5749   1.5809   1.5958   1.6152   1.6186   1.6319   1.6427
  1.6645   1.6737   1.6744   1.6864   1.6905   1.7080   1.7176   1.7354
  1.7510   1.7587   1.7808   1.8001   1.8007   1.8297   1.8406   1.8638
  1.8814   1.9156   1.9396   1.9637   1.9769   1.9889   2.0056   2.0174
  2.0277   2.0299   2.0375   2.0678   2.0977   2.1025   2.1238   2.1408
  2.1806   2.1816   2.2070   2.2206   2.2387   2.2570   2.2722   2.2982
  2.3197   2.3252   2.3488   2.3637   2.3962   2.4440   2.4506   2.4887
  2.4961   2.5056   2.5457   2.5509   2.5621   2.5921   2.6096   2.6145
  2.6432   2.6540   2.6577   2.6766   2.6980   2.6997   2.7192   2.7332
  2.7398   2.7506   2.7641   2.7758   2.7924   2.8030   2.8163   2.8249
  2.8408   2.8517   2.8604   2.8807   2.8852   2.9078   2.9243   2.9305
  2.9423   2.9678   2.9902   3.0055   3.0119   3.0235   3.0318   3.0395
  3.0667   3.0818   3.0872   3.1049   3.1139   3.1248   3.1308   3.1431
  3.1505   3.1611   3.1690   3.1716   3.1933   3.2051   3.2128   3.2199
  3.2319   3.2432   3.2535   3.2620   3.2689   3.2786   3.2954   3.3005
  3.3177   3.3234   3.3315   3.3426   3.3457   3.3529   3.3638   3.3691
  3.3797   3.3862   3.3940   3.4030   3.4110   3.4155   3.4233   3.4328
  3.4371   3.4569   3.4634   3.4672   3.4756   3.4839   3.4989   3.5115
  3.5195   3.5204   3.5364   3.5548   3.5576   3.5625   3.5783   3.5854
  3.5952   3.6034   3.6240   3.6311   3.6398   3.6437   3.6453   3.6662
  3.6721   3.6869   3.7008   3.7050   3.7122   3.7291   3.7378   3.7470
  3.7630   3.7664   3.7771   3.7881   3.7949   3.8056   3.8162   3.8361
  3.8450   3.8488   3.8665   3.8693   3.8846   3.8982   3.9047   3.9201
  3.9457   3.9512   3.9620   3.9736   3.9778   4.0016   4.0155   4.0205
  4.0286   4.0391   4.0553   4.0623   4.0758   4.0819   4.0982   4.1170
  4.1210   4.1375   4.1480   4.1587   4.1623   4.1768   4.1997   4.2108
  4.2219   4.2387   4.2489   4.2497   4.2599   4.2673   4.2745   4.2834
  4.2985   4.3104   4.3213   4.3339   4.3469   4.3605   4.3687   4.3750
  4.3857   4.3964   4.4001   4.4076   4.4260   4.4333   4.4503   4.4531
  4.4605   4.4697   4.4846   4.4970   4.5153   4.5269   4.5495   4.5642
  4.5734   4.5923   4.5982   4.6377   4.6417   4.6446   4.6700   4.6837
  4.6918   4.7210   4.7451   4.7869   4.7972   4.7984   4.8402   4.8682
  4.8772   4.8819   4.8973   4.9077   4.9363   4.9636   4.9766   4.9992
  5.0379   5.0427   5.0727   5.1097   5.1221   5.1333   5.1512   5.1610
  5.1828   5.1927   5.2289   5.2642   5.2798   5.2832   5.3115   5.3172
  5.3369   5.3663   5.3861   5.4062   5.4102   5.4318   5.4464   5.4584
  5.4747   5.4974   5.5226   5.5401   5.5489   5.5586   5.5774   5.5883
  5.6253   5.6273   5.6370   5.6585   5.6874   5.6947   5.7007   5.7325
  5.7704   5.8025   5.8206   5.9740   6.0075   6.1128   6.1331   6.1593
  6.2167   6.2242   6.2317   6.2497   6.2850   6.2929   6.3065   6.3413
  6.3969   6.4128   9.3303  10.4315  12.2531  12.8683  13.1557  13.9304
 14.0751  14.2198  14.3439  14.6576
 --------------------------------------------------------------
 
          Ground-State Mulliken Net Atomic Charges

     Atom                 Charge (a.u.)
  ----------------------------------------
      1 C                    -0.069649
      2 C                    -0.333247
      3 C                    -0.035158
      4 H                     0.177675
      5 C                     0.062202
      6 S                    -0.198212
      7 C                    -0.281257
      8 H                     0.111730
      9 H                     0.110225
     10 H                     0.113470
     11 C                    -0.069590
     12 C                    -0.221742
     13 C                     0.013610
     14 H                     0.184718
     15 C                    -0.236210
     16 S                     0.021285
     17 C                    -0.268453
     18 H                     0.102891
     19 H                     0.107980
     20 H                     0.105875
     21 H                     0.198076
     22 H                     0.108110
     23 H                     0.110016
     24 H                     0.185654
  ----------------------------------------
  Sum of atomic charges =     0.000000

 -----------------------------------------------------------------
                    Cartesian Multipole Moments
 -----------------------------------------------------------------
    Charge (ESU x 10^10)
                -0.0000
    Dipole Moment (Debye)
         X       3.8405      Y       0.5271      Z       0.3270
       Tot       3.8903
    Quadrupole Moments (Debye-Ang)
        XX     -87.7653     XY       1.6245     YY     -79.7064
        XZ       0.5495     YZ       2.2177     ZZ     -85.0534
    Octopole Moments (Debye-Ang^2)
       XXX    -130.6124    XXY      74.8671    XYY     -30.4065
       YYY     160.2953    XXZ      -6.7147    XYZ       0.3791
       YYZ      -1.1903    XZZ     -38.0957    YZZ      68.1185
       ZZZ       0.6732
    Hexadecapole Moments (Debye-Ang^3)
      XXXX    -875.8132   XXXY    -232.8134   XXYY    -568.3579
      XYYY    -209.2681   YYYY   -2483.1538   XXXZ      70.5791
      XXYZ     -17.6089   XYYZ       6.5861   YYYZ     -88.7752
      XXZZ    -268.4743   XYZZ     -78.4117   YYZZ    -572.1942
      XZZZ      72.6464   YZZZ     -74.0673   ZZZZ    -778.2883
 -----------------------------------------------------------------
 Total job time:  55.32s(wall), 1965.62s(cpu) 
 Fri Dec 15 13:59:49 2023

        *************************************************************
        *                                                           *
        *  Thank you very much for using Q-Chem.  Have a nice day.  *
        *                                                           *
        *************************************************************


0 sent ACK to 0 
now end server 0 ... 
cleanup process ... done
remove work dirs ./qchem2710837.0 -- ./qchem2710837.0
rm -rf ./qchem2710837.0
rm -rf ./qchem2710837
