You are running Q-Chem version: 5.4.0

#
# job setting
#
local host:  exp-6-19
current dir: /home/rramji/project-csd799/aromodel/p3ht-qchem/hydrogenated-rotation-run
input file:  Methylthiophene_Phi_40_Theta_140_Methylthiophene_Hydrogenated.qcin
output file: 
nprocs     : 1
nthreads   : 64
#
# qchem installation setting
#
QC:          /cm/shared/apps/spack/cpu/opt/spack/linux-centos8-zen2/gcc-10.2.0/qchem-5.4-akfmr7b3t57bfs6qan3padb2wnb2i7cl
QCAUX:       /cm/shared/apps/spack/cpu/opt/spack/linux-centos8-zen2/gcc-10.2.0/qchem-5.4-akfmr7b3t57bfs6qan3padb2wnb2i7cl/qcaux
QCPROG:      /cm/shared/apps/spack/cpu/opt/spack/linux-centos8-zen2/gcc-10.2.0/qchem-5.4-akfmr7b3t57bfs6qan3padb2wnb2i7cl/exe/qcprog.exe
QCPROG_S:    /cm/shared/apps/spack/cpu/opt/spack/linux-centos8-zen2/gcc-10.2.0/qchem-5.4-akfmr7b3t57bfs6qan3padb2wnb2i7cl/exe/qcprog.exe_s
PARALLEL:    -DPARALLEL
QCMPI:       mpich
#
# qchem directory setting
#
qcrun:       qchem2714878
QCSCRATCH:   .
QCLOCALSCR:  
QCTMPDIR:    .
QCFILEPREF:  ./qchem2714878
QCSAVEDIR:   
workdirs:    ./qchem2714878
workdir0:    ./qchem2714878
partmpdirs =  
#
# parallel setting
#
QCRSH:           ssh
QCMPI:           mpich
QCMPIRUN:        /cm/shared/apps/spack/cpu/opt/spack/linux-centos8-zen2/gcc-10.2.0/qchem-5.4-akfmr7b3t57bfs6qan3padb2wnb2i7cl/bin/mpi/mpirun_qchem
QCMACHINEFILE:   ./qchem2714878/hostfile
exp-6-19

#
# env setting
#
exported envs:   QC QCAUX QCSCRATCH QCRUNNAME QCFILEPREF QCPROG QCPROG_S GUIFILE

Running Job 1 of 1 Methylthiophene_Phi_40_Theta_140_Methylthiophene_Hydrogenated.qcin
qchem Methylthiophene_Phi_40_Theta_140_Methylthiophene_Hydrogenated.qcin_2714878.0 ./qchem2714878/ 1
/cm/shared/apps/spack/cpu/opt/spack/linux-centos8-zen2/gcc-10.2.0/qchem-5.4-akfmr7b3t57bfs6qan3padb2wnb2i7cl/bin/mpi/mpirun_qchem -machinefile ./qchem2714878/hostfile -np 1 /cm/shared/apps/spack/cpu/opt/spack/linux-centos8-zen2/gcc-10.2.0/qchem-5.4-akfmr7b3t57bfs6qan3padb2wnb2i7cl/exe/qcprog.exe Methylthiophene_Phi_40_Theta_140_Methylthiophene_Hydrogenated.qcin_2714878.0 ./qchem2714878/

Process 0 of 1 is on exp-6-19 - thread support 0
initial socket setup ...start
initial socket setup ...done 
now start server 0 ... 
                  Welcome to Q-Chem
     A Quantum Leap Into The Future Of Chemistry


 Q-Chem 5.4, Q-Chem, Inc., Pleasanton, CA (2021)

 License issued to: University of California, San Diego (site)

 E. Epifanovsky,  A. T. B. Gilbert,  Xintian Feng,  Joonho Lee,  Yuezhi Mao,  
 N. Mardirossian,  P. Pokhilko,  A. White,  M. Wormit,  M. P. Coons,  
 A. L. Dempwolff,  Zhengting Gan,  D. Hait,  P. R. Horn,  L. D. Jacobson,  
 I. Kaliman,  J. Kussmann,  A. W. Lange,  Ka Un Lao,  D. S. Levine,  Jie Liu,  
 S. C. McKenzie,  A. F. Morrison,  K. Nanda,  F. Plasser,  D. R. Rehn,  
 M. L. Vidal,  Zhi-Qiang You,  Ying Zhu,  B. Alam,  B. Albrecht,  
 A. Aldossary,  E. Alguire,  J. H. Andersen,  D. Barton,  K. Begam,  A. Behn,  
 Y. A. Bernard,  E. J. Berquist,  H. Burton,  A. Carreras,  K. Carter-Fenk,  
 R. Chakraborty,  A. D. Chien,  K. D. Closser,  V. Cofer-Shabica,  
 S. Dasgupta,  Jia Deng,  M. de Wergifosse,  M. Diedenhofen,  Hainam Do,  
 S. Ehlert,  Po-Tung Fang,  S. Fatehi,  Qingguo Feng,  J. Gayvert,  
 Qinghui Ge,  G. Gidofalvi,  M. Goldey,  J. Gomes,  C. Gonzalez-Espinoza,  
 S. Gulania,  A. Gunina,  M. W. D. Hanson-Heine,  P. H. P. Harbach,  
 A. W. Hauser,  M. F. Herbst,  M. Hernandez Vera,  M. Hodecker,  
 Z. C. Holden,  S. Houck,  Xunkun Huang,  Kerwin Hui,  B. C. Huynh,  
 M. Ivanov,  Hyunjun Ji,  Hanjie Jiang,  B. Kaduk,  S. Kaehler,  
 K. Khistyaev,  Jaehoon Kim,  P. Klunzinger,  Z. Koczor-Benda,  
 Joong Hoon Koh,  D. Kosenkov,  L. Koulias,  T. Kowalczyk,  C. M. Krauter,  
 K. Kue,  A. Kunitsa,  T. Kus,  A. Landau,  K. V. Lawler,  D. Lefrancois,  
 S. Lehtola,  Rain Li,  Yi-Pei Li,  Jiashu Liang,  M. Liebenthal,  
 Hung-Hsuan Lin,  You-Sheng Lin,  Fenglai Liu,  Kuan-Yu Liu,  
 M. Loipersberger,  A. Luenser,  A. Manjanath,  P. Manohar,  E. Mansoor,  
 S. F. Manzer,  Shan-Ping Mao,  A. V. Marenich,  T. Markovich,  S. Mason,  
 S. A. Maurer,  P. F. McLaughlin,  M. F. S. J. Menger,  J.-M. Mewes,  
 S. A. Mewes,  P. Morgante,  J. W. Mullinax,  T. S. Nguyen-Beck,  
 K. J. Oosterbaan,  G. Paran,  Alexander C. Paul,  Suranjan K. Paul,  
 F. Pavosevic,  Zheng Pei,  S. Prager,  E. I. Proynov,  E. Ramos,  B. Rana,  
 A. E. Rask,  A. Rettig,  R. M. Richard,  F. Rob,  E. Rossomme,  T. Scheele,  
 M. Scheurer,  M. Schneider,  N. Sergueev,  S. M. Sharada,  W. Skomorowski,  
 D. W. Small,  C. J. Stein,  Yu-Chuan Su,  E. J. Sundstrom,  Zhen Tao,  
 J. Thirman,  T. Tsuchimochi,  N. M. Tubman,  S. P. Veccham,  O. Vydrov,  
 J. Wenzel,  J. Witte,  A. Yamada,  Kun Yao,  S. Yeganeh,  S. R. Yost,  
 A. Zech,  Igor Ying Zhang,  Xing Zhang,  Yu Zhang,  D. Zuev,  
 A. Aspuru-Guzik,  A. T. Bell,  N. A. Besley,  K. B. Bravaya,  B. R. Brooks,  
 D. Casanova,  Jeng-Da Chai,  S. Coriani,  C. J. Cramer,  
 A. E. DePrince, III,  R. A. DiStasio Jr.,  A. Dreuw,  B. D. Dunietz,  
 T. R. Furlani,  W. A. Goddard III,  S. Grimme,  S. Hammes-Schiffer,  
 T. Head-Gordon,  W. J. Hehre,  Chao-Ping Hsu,  T.-C. Jagau,  Yousung Jung,  
 A. Klamt,  Jing Kong,  D. S. Lambrecht,  WanZhen Liang,  N. J. Mayhall,  
 C. W. McCurdy,  J. B. Neaton,  C. Ochsenfeld,  J. A. Parkhill,  R. Peverati,  
 V. A. Rassolov,  Yihan Shao,  L. V. Slipchenko,  T. Stauch,  R. P. Steele,  
 J. E. Subotnik,  A. J. W. Thom,  A. Tkatchenko,  D. G. Truhlar,  
 T. Van Voorhis,  T. A. Wesolowski,  K. B. Whaley,  H. L. Woodcock III,  
 P. M. Zimmerman,  S. Faraji,  P. M. W. Gill,  M. Head-Gordon,  
 J. M. Herbert,  A. I. Krylov

 Contributors to earlier versions of Q-Chem not listed above: 
 R. D. Adamson,  B. Austin,  R. Baer,  J. Baker,  G. J. O. Beran,  
 K. Brandhorst,  S. T. Brown,  E. F. C. Byrd,  A. K. Chakraborty,  
 G. K. L. Chan,  Chun-Min Chang,  Yunqing Chen,  C.-L. Cheng,  
 Siu Hung Chien,  D. M. Chipman,  D. L. Crittenden,  H. Dachsel,  
 R. J. Doerksen,  A. D. Dutoi,  R. G. Edgar,  J. Fosso-Tande,  
 L. Fusti-Molnar,  D. Ghosh,  A. Ghysels,  A. Golubeva-Zadorozhnaya,  
 J. Gonthier,  M. S. Gordon,  S. R. Gwaltney,  G. Hawkins,  J. E. Herr,  
 A. Heyden,  S. Hirata,  E. G. Hohenstein,  G. Kedziora,  F. J. Keil,  
 C. Kelley,  Jihan Kim,  R. A. King,  R. Z. Khaliullin,  P. P. Korambath,  
 W. Kurlancheek,  A. Laurent,  A. M. Lee,  M. S. Lee,  S. V. Levchenko,  
 Ching Yeh Lin,  D. Liotard,  E. Livshits,  R. C. Lochan,  I. Lotan,  
 L. A. Martinez-Martinez,  P. E. Maslen,  N. Nair,  D. P. O'Neill,  
 D. Neuhauser,  E. Neuscamman,  C. M. Oana,  R. Olivares-Amaya,  R. Olson,  
 T. M. Perrine,  B. Peters,  P. A. Pieniazek,  A. Prociuk,  Y. M. Rhee,  
 J. Ritchie,  M. A. Rohrdanz,  E. Rosta,  N. J. Russ,  H. F. Schaefer III,  
 M. W. Schmidt,  N. E. Schultz,  S. Sharma,  N. Shenvi,  C. D. Sherrill,  
 A. C. Simmonett,  A. Sodt,  T. Stein,  D. Stuck,  K. S. Thanthiriwatte,  
 V. Vanovschi,  L. Vogt,  Tao Wang,  A. Warshel,  M. A. Watson,  
 C. F. Williams,  Q. Wu,  X. Xu,  Jun Yang,  W. Zhang,  Yan Zhao

 Please cite Q-Chem as follows:
 Y. Shao et al., Mol. Phys. 113, 184-215 (2015)
 DOI: 10.1080/00268976.2014.952696

 Q-Chem 5.4.0 for Intel X86 EM64T Linux

 Parts of Q-Chem use Armadillo 9.800.1 (Horizon Scraper).
 http://arma.sourceforge.net/

 Q-Chem begins on Fri Dec 15 14:08:32 2023  

 Host: 
0

     Scratch files written to ./qchem2714878//
 May1621 |scratch|qcdevops|jenkins|workspace|build_RNUM    
 Parallel job on  1  processors
 Processing $rem in /cm/shared/apps/spack/cpu/opt/spack/linux-centos8-zen2/gcc-10.2.0/qchem-5.4-akfmr7b3t57bfs6qan3padb2wnb2i7cl/config/preferences:
 Processing $rem in /home/rramji/.qchemrc:
 Symmetry turned off for PCM/SM12/SMD calculation
 Core orbitals will be frozen

 Checking the input file for inconsistencies... 	...done.

 Q-Chem warning in module forms1/BasisType.C, line 2236:

 You are not using the predefined 5D/6D in this basis set.


--------------------------------------------------------------
User input:
--------------------------------------------------------------
$molecule
0 1
C	-0.464838	-3.887800	-0.555670
C	0.425760	-3.701456	0.505790
C	0.697866	-2.345170	0.831053
H	0.879984	-4.545233	1.046496
C	-0.000000	-1.450135	-0.000000
S	-0.981588	-2.321334	-1.170382
C	1.627381	-1.934439	1.939074
H	2.055015	-2.819799	2.448051
H	1.107991	-1.326210	2.708853
H	2.475210	-1.325374	1.561590
C	0.000000	0.000000	0.000000
C	0.540541	0.648986	1.113020
C	1.431046	1.717546	0.820578
H	0.292104	0.350827	2.142881
C	1.590053	1.908061	-0.563588
S	0.621066	0.745901	-1.464748
C	2.112618	2.535384	1.882380
H	1.825779	2.191315	2.894974
H	1.847090	3.610676	1.808137
H	3.218159	2.467925	1.808230
H	2.203332	2.644073	-1.097114
H	-1.367361	-4.420219	-0.235206
H	0.007834	-4.419395	-1.389159
H	-0.827319	-1.450628	0.694221
$end

$rem
JOBTYPE		SP
EXCHANGE	HF
CORRELATION	pRIMP2
BASIS		cc-pvtz
METHOD		rimp2
AUX_BASIS	rimp2-cc-pvtz
SOLVENT_METHOD	PCM
PURECART	11111
SYMMETRY	false
MEM_TOTAL	110000
SCF_CONVERGENCE = 6
THRESH=10
GUI = 2
$end



$solvent
dielectric 4.90
$end
--------------------------------------------------------------
 ----------------------------------------------------------------
             Standard Nuclear Orientation (Angstroms)
    I     Atom           X                Y                Z
 ----------------------------------------------------------------
    1      C      -0.4648380000    -3.8878000000    -0.5556700000
    2      C       0.4257600000    -3.7014560000     0.5057900000
    3      C       0.6978660000    -2.3451700000     0.8310530000
    4      H       0.8799840000    -4.5452330000     1.0464960000
    5      C       0.0000000000    -1.4501350000     0.0000000000
    6      S      -0.9815880000    -2.3213340000    -1.1703820000
    7      C       1.6273810000    -1.9344390000     1.9390740000
    8      H       2.0550150000    -2.8197990000     2.4480510000
    9      H       1.1079910000    -1.3262100000     2.7088530000
   10      H       2.4752100000    -1.3253740000     1.5615900000
   11      C       0.0000000000     0.0000000000     0.0000000000
   12      C       0.5405410000     0.6489860000     1.1130200000
   13      C       1.4310460000     1.7175460000     0.8205780000
   14      H       0.2921040000     0.3508270000     2.1428810000
   15      C       1.5900530000     1.9080610000    -0.5635880000
   16      S       0.6210660000     0.7459010000    -1.4647480000
   17      C       2.1126180000     2.5353840000     1.8823800000
   18      H       1.8257790000     2.1913150000     2.8949740000
   19      H       1.8470900000     3.6106760000     1.8081370000
   20      H       3.2181590000     2.4679250000     1.8082300000
   21      H       2.2033320000     2.6440730000    -1.0971140000
   22      H      -1.3673610000    -4.4202190000    -0.2352060000
   23      H       0.0078340000    -4.4193950000    -1.3891590000
   24      H      -0.8273190000    -1.4506280000     0.6942210000
 ----------------------------------------------------------------
 Nuclear Repulsion Energy =         886.23252755 hartrees
 There are       52 alpha and       52 beta electrons
 Requested basis set is cc-pVTZ
 There are 196 shells and 536 basis functions

 Total QAlloc Memory Limit 110000 MB
 Mega-Array Size       188 MB
 MEM_STATIC part       192 MB
 Discretize the solute cavity surface with Lebedev spheres
	Using 110 Lebedev grid points for each H atom
	Using 194 Lebedev grid points for other atoms
	Atomic van der Waals radii will be scaled by 1.20
 Remove points where switching function is < 1.0e-08
 Keep 1563 surface tesserae and discard 2085 interior tesserae
 Molecular Surface Area = 230.748 Angst**2
 Requested basis set is rimp2-cc-pVTZ
 There are 414 shells and 1414 basis functions
 A cutoff of  1.0D-10 yielded  14528 shell pairs
 There are    105480 function pairs (    135161 Cartesian)
 Smallest overlap matrix eigenvalue = 5.93E-05

 Scale SEOQF with 1.000000e-01/1.000000e-01/1.000000e-01

 Standard Electronic Orientation quadrupole field applied
 Nucleus-field energy     =     0.0000000248 hartrees
 Guess from superposition of atomic densities
 Warning:  Energy on first SCF cycle will be non-variational
 SAD guess density has 104.000000 electrons

 -----------------------------------------------------------------------
  General SCF calculation program by
  Eric Jon Sundstrom, Paul Horn, Yuezhi Mao, Dmitri Zuev, Alec White,
  David Stuck, Shaama M.S., Shane Yost, Joonho Lee, David Small,
  Daniel Levine, Susi Lehtola, Hugh Burton, Evgeny Epifanovsky,
  Bang C. Huynh
 -----------------------------------------------------------------------
 Hartree-Fock
 using 64 threads for integral computing
 -------------------------------------------------------
 OpenMP Integral computing Module                
 Release: version 1.0, May 2013, Q-Chem Inc. Pittsburgh 
 -------------------------------------------------------
 A restricted SCF calculation will be
 performed using DIIS
 SCF converges when DIIS error is below 1.0e-06
 ---------------------------------------
  Cycle       Energy         DIIS error
 ---------------------------------------
    1   -1186.0786754806      2.39e-02  
    2   -1180.5812640956      1.54e-03  
    3   -1180.7067979801      5.64e-04  
    4   -1180.7202146956      3.07e-04  
    5   -1180.7245755681      6.13e-05  
    6   -1180.7248324313      2.49e-05  
    7   -1180.7248981563      1.04e-05  
    8   -1180.7249153363      4.82e-06  
    9   -1180.7249199009      2.03e-06  
   10   -1180.7249207404      7.65e-07  Convergence criterion met
 ---------------------------------------
 SCF time:   CPU 1712.04s  wall 50.00s 

************** Final PCM Free Energy Summary **************
 G_electrostatic  =      -0.01028888 hartree =      -6.45636815 kcal/mol
 G_cavitation     =       0.00000000 hartree =       0.00000000 kcal/mol
 G_dispersion     =       0.00000000 hartree =       0.00000000 kcal/mol
 G_repulsion      =       0.00000000 hartree =       0.00000000 kcal/mol
 --------------------------------------------------
 Non-electrostatic Free Energy =       0.00000000 hartree =       0.00000000 kcal/mol
 Total                         =      -0.01028888 hartree =      -6.45636815 kcal/mol
 --------------------------------------------------
 SCF Energy (H0 + V/2)                       =   -1180.72492074 
 Solute Internal Energy (H0)                 =   -1180.71463186 
 Total Free Energy (H0 + V/2 + non-elec)     =   -1180.72492074 hartree
                                             = -740916.07041031 kcal/mol
***********************************************************

 SCF   energy in the final basis set =    -1180.7249207404
 Total energy in the final basis set =    -1180.7249207404


 --------------------------------------------------------------
  Generalized many-body perturbation theory program
  by Joonho Lee, Fazle Rob, Xintian Feng, Evgeny Epifanovsky

 No regularization used 
 (reg. param. = 0.0000e+00)
  (P|Q)^-1/2 Time:  CPU 20.77 s  wall 0.33 s

 In RI-MP2 calculation: 
 # of frozen core orbitals: 20

 Components of the RIMP2 correlation energy:
        aaaa    correlation energy =        -0.2533928987 a.u.
        abab    correlation energy =        -1.5096260511 a.u.
        bbbb    correlation energy =        -0.2533928987 a.u.
        non-Brillouin singles      =        -0.0000000000 a.u.
        total same-spin energy     =        -0.5067857975 a.u.
        total opposite-spin energy =        -1.5096260511 a.u.

 Total  RIMP2   correlation energy =        -2.0164118486 a.u.
        RIMP2         total energy =     -1182.7413325890 a.u.

 RI-MP2 Energy Time:  CPU 169.84 s  wall 3.21 s
 
 --------------------------------------------------------------
 
                    Orbital Energies (a.u.)
 --------------------------------------------------------------
 
 Alpha MOs
 -- Occupied --
-91.9782 -91.9402 -11.2721 -11.2703 -11.2622 -11.2542 -11.2521 -11.2472
-11.2405 -11.2309 -11.2305 -11.2179  -8.9786  -8.9448  -6.6595  -6.6588
 -6.6583  -6.6263  -6.6253  -6.6240  -1.1999  -1.1539  -1.0575  -1.0283
 -1.0016  -0.9631  -0.9127  -0.9017  -0.8123  -0.7595  -0.7329  -0.7100
 -0.6530  -0.6429  -0.6123  -0.5917  -0.5899  -0.5711  -0.5591  -0.5534
 -0.5401  -0.5315  -0.5220  -0.5082  -0.4823  -0.4682  -0.4595  -0.4445
 -0.3548  -0.3407  -0.3218  -0.2683
 -- Virtual --
  0.0798   0.1290   0.1438   0.1483   0.1579   0.1700   0.1761   0.1827
  0.1931   0.1942   0.2042   0.2173   0.2249   0.2326   0.2417   0.2430
  0.2552   0.2659   0.2770   0.2955   0.3146   0.3359   0.3393   0.3524
  0.3603   0.3736   0.3826   0.3936   0.4061   0.4115   0.4165   0.4258
  0.4367   0.4423   0.4584   0.4671   0.4697   0.4768   0.4822   0.4868
  0.4938   0.5019   0.5204   0.5265   0.5360   0.5393   0.5467   0.5560
  0.5663   0.5753   0.5820   0.6001   0.6028   0.6079   0.6114   0.6189
  0.6219   0.6289   0.6390   0.6405   0.6426   0.6491   0.6565   0.6592
  0.6672   0.6739   0.6850   0.6937   0.6979   0.7096   0.7183   0.7269
  0.7437   0.7486   0.7597   0.7718   0.7878   0.7930   0.8051   0.8186
  0.8290   0.8412   0.8570   0.8590   0.8715   0.8925   0.9060   0.9195
  0.9313   0.9417   0.9440   0.9615   0.9779   0.9914   0.9971   1.0140
  1.0181   1.0316   1.0408   1.0494   1.0565   1.0653   1.0777   1.0870
  1.0925   1.1076   1.1231   1.1298   1.1467   1.1682   1.1715   1.1766
  1.1843   1.1931   1.2008   1.2088   1.2224   1.2288   1.2435   1.2493
  1.2607   1.2715   1.2749   1.2813   1.2926   1.3003   1.3046   1.3264
  1.3298   1.3463   1.3626   1.3743   1.3807   1.3843   1.4006   1.4072
  1.4326   1.4363   1.4535   1.4589   1.4761   1.4792   1.4882   1.5002
  1.5041   1.5172   1.5193   1.5323   1.5418   1.5442   1.5572   1.5623
  1.5703   1.5858   1.5898   1.6024   1.6163   1.6245   1.6336   1.6522
  1.6567   1.6752   1.6852   1.7070   1.7141   1.7239   1.7303   1.7423
  1.7454   1.7609   1.7715   1.7927   1.8049   1.8367   1.8531   1.8791
  1.9107   1.9259   1.9322   1.9529   1.9638   1.9689   1.9846   2.0052
  2.0197   2.0397   2.0543   2.0585   2.0957   2.1154   2.1548   2.1593
  2.1847   2.1914   2.2127   2.2202   2.2384   2.2473   2.2557   2.2733
  2.2837   2.3072   2.3195   2.3539   2.4069   2.4416   2.4537   2.4711
  2.4831   2.5240   2.5472   2.5689   2.5853   2.5938   2.6029   2.6275
  2.6344   2.6457   2.6655   2.6737   2.6865   2.6948   2.7215   2.7331
  2.7472   2.7606   2.7631   2.7753   2.7859   2.7986   2.8178   2.8255
  2.8421   2.8676   2.8681   2.8843   2.8971   2.9043   2.9149   2.9380
  2.9620   2.9696   2.9877   2.9926   3.0211   3.0226   3.0356   3.0464
  3.0496   3.0794   3.1051   3.1108   3.1143   3.1282   3.1349   3.1547
  3.1548   3.1707   3.1762   3.1857   3.1952   3.2022   3.2061   3.2215
  3.2324   3.2395   3.2564   3.2618   3.2752   3.2781   3.2983   3.3010
  3.3149   3.3219   3.3338   3.3343   3.3429   3.3483   3.3581   3.3700
  3.3757   3.3789   3.3845   3.3938   3.4097   3.4192   3.4312   3.4359
  3.4385   3.4513   3.4571   3.4626   3.4867   3.4878   3.5035   3.5119
  3.5157   3.5361   3.5427   3.5468   3.5520   3.5658   3.5731   3.5778
  3.5980   3.6043   3.6201   3.6258   3.6362   3.6412   3.6525   3.6755
  3.6925   3.6965   3.7059   3.7192   3.7219   3.7361   3.7473   3.7549
  3.7662   3.7687   3.7823   3.7892   3.7966   3.7992   3.8209   3.8274
  3.8333   3.8533   3.8652   3.8790   3.8863   3.9051   3.9176   3.9292
  3.9352   3.9605   3.9707   3.9770   3.9828   3.9966   4.0016   4.0258
  4.0340   4.0466   4.0509   4.0644   4.0808   4.0925   4.1121   4.1164
  4.1289   4.1413   4.1451   4.1703   4.1861   4.1915   4.2054   4.2087
  4.2134   4.2269   4.2460   4.2515   4.2580   4.2669   4.2717   4.2871
  4.3066   4.3154   4.3248   4.3343   4.3601   4.3678   4.3733   4.3772
  4.3838   4.4014   4.4048   4.4138   4.4316   4.4389   4.4511   4.4615
  4.4641   4.4763   4.4990   4.5116   4.5164   4.5324   4.5559   4.5725
  4.5908   4.6066   4.6142   4.6393   4.6547   4.6580   4.6847   4.6977
  4.7003   4.7318   4.7451   4.7805   4.7896   4.8023   4.8235   4.8515
  4.8700   4.8802   4.9069   4.9253   4.9356   4.9542   4.9737   4.9850
  5.0416   5.0654   5.0832   5.1018   5.1128   5.1210   5.1294   5.1855
  5.2018   5.2149   5.2359   5.2620   5.2790   5.2942   5.3098   5.3169
  5.3368   5.3703   5.3824   5.4087   5.4132   5.4200   5.4393   5.4504
  5.4772   5.5054   5.5216   5.5378   5.5583   5.5746   5.5799   5.6006
  5.6185   5.6269   5.6479   5.6602   5.6771   5.7072   5.7160   5.7412
  5.7683   5.7896   5.8184   6.0017   6.0236   6.0461   6.1301   6.1565
  6.2060   6.2309   6.2427   6.2485   6.2574   6.2888   6.3012   6.3258
  6.4211   6.4763   9.3680  10.5040  12.2558  12.8936  13.1466  14.0114
 14.1363  14.2112  14.4088  14.8407
 --------------------------------------------------------------
 
          Ground-State Mulliken Net Atomic Charges

     Atom                 Charge (a.u.)
  ----------------------------------------
      1 C                    -0.071088
      2 C                    -0.328805
      3 C                    -0.061473
      4 H                     0.178222
      5 C                     0.104153
      6 S                    -0.187301
      7 C                    -0.289194
      8 H                     0.120388
      9 H                     0.096008
     10 H                     0.116106
     11 C                    -0.074291
     12 C                    -0.264879
     13 C                     0.033885
     14 H                     0.193997
     15 C                    -0.222903
     16 S                     0.013199
     17 C                    -0.272028
     18 H                     0.102267
     19 H                     0.111499
     20 H                     0.107491
     21 H                     0.198149
     22 H                     0.108100
     23 H                     0.110053
     24 H                     0.178445
  ----------------------------------------
  Sum of atomic charges =     0.000000

 -----------------------------------------------------------------
                    Cartesian Multipole Moments
 -----------------------------------------------------------------
    Charge (ESU x 10^10)
                -0.0000
    Dipole Moment (Debye)
         X       2.4092      Y       0.5338      Z       4.0986
       Tot       4.7841
    Quadrupole Moments (Debye-Ang)
        XX     -86.8381     XY       4.3380     YY     -78.4389
        XZ       0.8903     YZ      -2.7856     ZZ     -86.1647
    Octopole Moments (Debye-Ang^2)
       XXX    -130.1007    XXY      73.9429    XYY     -32.6159
       YYY     157.3152    XXZ      -2.0712    XYZ      -3.4119
       YYZ      -3.9665    XZZ     -37.6532    YZZ      68.6188
       ZZZ      -1.1465
    Hexadecapole Moments (Debye-Ang^3)
      XXXX    -767.1863   XXXY    -224.2501   XXYY    -547.9232
      XYYY    -205.1203   YYYY   -2465.1401   XXXZ    -207.1460
      XXYZ     -41.5095   XYYZ     -60.6365   YYYZ     -81.5329
      XXZZ    -269.1467   XYZZ     -81.7076   YYZZ    -586.2276
      XZZZ    -203.1512   YZZZ     -87.4709   ZZZZ    -886.4727
 -----------------------------------------------------------------
 Total job time:  66.91s(wall), 2636.22s(cpu) 
 Fri Dec 15 14:09:39 2023

        *************************************************************
        *                                                           *
        *  Thank you very much for using Q-Chem.  Have a nice day.  *
        *                                                           *
        *************************************************************


0 sent ACK to 0 
now end server 0 ... 
cleanup process ... done
remove work dirs ./qchem2714878.0 -- ./qchem2714878.0
rm -rf ./qchem2714878.0
rm -rf ./qchem2714878
