You are running Q-Chem version: 5.4.0

#
# job setting
#
local host:  exp-6-17
current dir: /home/rramji/project-csd799/aromodel/p3ht-qchem/hydrogenated-rotation-run
input file:  Methylthiophene_Phi_0_Theta_20_Methylthiophene_Hydrogenated.qcin
output file: 
nprocs     : 1
nthreads   : 64
#
# qchem installation setting
#
QC:          /cm/shared/apps/spack/cpu/opt/spack/linux-centos8-zen2/gcc-10.2.0/qchem-5.4-akfmr7b3t57bfs6qan3padb2wnb2i7cl
QCAUX:       /cm/shared/apps/spack/cpu/opt/spack/linux-centos8-zen2/gcc-10.2.0/qchem-5.4-akfmr7b3t57bfs6qan3padb2wnb2i7cl/qcaux
QCPROG:      /cm/shared/apps/spack/cpu/opt/spack/linux-centos8-zen2/gcc-10.2.0/qchem-5.4-akfmr7b3t57bfs6qan3padb2wnb2i7cl/exe/qcprog.exe
QCPROG_S:    /cm/shared/apps/spack/cpu/opt/spack/linux-centos8-zen2/gcc-10.2.0/qchem-5.4-akfmr7b3t57bfs6qan3padb2wnb2i7cl/exe/qcprog.exe_s
PARALLEL:    -DPARALLEL
QCMPI:       mpich
#
# qchem directory setting
#
qcrun:       qchem964600
QCSCRATCH:   .
QCLOCALSCR:  
QCTMPDIR:    .
QCFILEPREF:  ./qchem964600
QCSAVEDIR:   
workdirs:    ./qchem964600
workdir0:    ./qchem964600
partmpdirs =  
#
# parallel setting
#
QCRSH:           ssh
QCMPI:           mpich
QCMPIRUN:        /cm/shared/apps/spack/cpu/opt/spack/linux-centos8-zen2/gcc-10.2.0/qchem-5.4-akfmr7b3t57bfs6qan3padb2wnb2i7cl/bin/mpi/mpirun_qchem
QCMACHINEFILE:   ./qchem964600/hostfile
exp-6-17

#
# env setting
#
exported envs:   QC QCAUX QCSCRATCH QCRUNNAME QCFILEPREF QCPROG QCPROG_S GUIFILE

Running Job 1 of 1 Methylthiophene_Phi_0_Theta_20_Methylthiophene_Hydrogenated.qcin
qchem Methylthiophene_Phi_0_Theta_20_Methylthiophene_Hydrogenated.qcin_964600.0 ./qchem964600/ 1
/cm/shared/apps/spack/cpu/opt/spack/linux-centos8-zen2/gcc-10.2.0/qchem-5.4-akfmr7b3t57bfs6qan3padb2wnb2i7cl/bin/mpi/mpirun_qchem -machinefile ./qchem964600/hostfile -np 1 /cm/shared/apps/spack/cpu/opt/spack/linux-centos8-zen2/gcc-10.2.0/qchem-5.4-akfmr7b3t57bfs6qan3padb2wnb2i7cl/exe/qcprog.exe Methylthiophene_Phi_0_Theta_20_Methylthiophene_Hydrogenated.qcin_964600.0 ./qchem964600/

Process 0 of 1 is on exp-6-17 - thread support 0
initial socket setup ...start
initial socket setup ...done 
now start server 0 ... 
                  Welcome to Q-Chem
     A Quantum Leap Into The Future Of Chemistry


 Q-Chem 5.4, Q-Chem, Inc., Pleasanton, CA (2021)

 License issued to: University of California, San Diego (site)

 E. Epifanovsky,  A. T. B. Gilbert,  Xintian Feng,  Joonho Lee,  Yuezhi Mao,  
 N. Mardirossian,  P. Pokhilko,  A. White,  M. Wormit,  M. P. Coons,  
 A. L. Dempwolff,  Zhengting Gan,  D. Hait,  P. R. Horn,  L. D. Jacobson,  
 I. Kaliman,  J. Kussmann,  A. W. Lange,  Ka Un Lao,  D. S. Levine,  Jie Liu,  
 S. C. McKenzie,  A. F. Morrison,  K. Nanda,  F. Plasser,  D. R. Rehn,  
 M. L. Vidal,  Zhi-Qiang You,  Ying Zhu,  B. Alam,  B. Albrecht,  
 A. Aldossary,  E. Alguire,  J. H. Andersen,  D. Barton,  K. Begam,  A. Behn,  
 Y. A. Bernard,  E. J. Berquist,  H. Burton,  A. Carreras,  K. Carter-Fenk,  
 R. Chakraborty,  A. D. Chien,  K. D. Closser,  V. Cofer-Shabica,  
 S. Dasgupta,  Jia Deng,  M. de Wergifosse,  M. Diedenhofen,  Hainam Do,  
 S. Ehlert,  Po-Tung Fang,  S. Fatehi,  Qingguo Feng,  J. Gayvert,  
 Qinghui Ge,  G. Gidofalvi,  M. Goldey,  J. Gomes,  C. Gonzalez-Espinoza,  
 S. Gulania,  A. Gunina,  M. W. D. Hanson-Heine,  P. H. P. Harbach,  
 A. W. Hauser,  M. F. Herbst,  M. Hernandez Vera,  M. Hodecker,  
 Z. C. Holden,  S. Houck,  Xunkun Huang,  Kerwin Hui,  B. C. Huynh,  
 M. Ivanov,  Hyunjun Ji,  Hanjie Jiang,  B. Kaduk,  S. Kaehler,  
 K. Khistyaev,  Jaehoon Kim,  P. Klunzinger,  Z. Koczor-Benda,  
 Joong Hoon Koh,  D. Kosenkov,  L. Koulias,  T. Kowalczyk,  C. M. Krauter,  
 K. Kue,  A. Kunitsa,  T. Kus,  A. Landau,  K. V. Lawler,  D. Lefrancois,  
 S. Lehtola,  Rain Li,  Yi-Pei Li,  Jiashu Liang,  M. Liebenthal,  
 Hung-Hsuan Lin,  You-Sheng Lin,  Fenglai Liu,  Kuan-Yu Liu,  
 M. Loipersberger,  A. Luenser,  A. Manjanath,  P. Manohar,  E. Mansoor,  
 S. F. Manzer,  Shan-Ping Mao,  A. V. Marenich,  T. Markovich,  S. Mason,  
 S. A. Maurer,  P. F. McLaughlin,  M. F. S. J. Menger,  J.-M. Mewes,  
 S. A. Mewes,  P. Morgante,  J. W. Mullinax,  T. S. Nguyen-Beck,  
 K. J. Oosterbaan,  G. Paran,  Alexander C. Paul,  Suranjan K. Paul,  
 F. Pavosevic,  Zheng Pei,  S. Prager,  E. I. Proynov,  E. Ramos,  B. Rana,  
 A. E. Rask,  A. Rettig,  R. M. Richard,  F. Rob,  E. Rossomme,  T. Scheele,  
 M. Scheurer,  M. Schneider,  N. Sergueev,  S. M. Sharada,  W. Skomorowski,  
 D. W. Small,  C. J. Stein,  Yu-Chuan Su,  E. J. Sundstrom,  Zhen Tao,  
 J. Thirman,  T. Tsuchimochi,  N. M. Tubman,  S. P. Veccham,  O. Vydrov,  
 J. Wenzel,  J. Witte,  A. Yamada,  Kun Yao,  S. Yeganeh,  S. R. Yost,  
 A. Zech,  Igor Ying Zhang,  Xing Zhang,  Yu Zhang,  D. Zuev,  
 A. Aspuru-Guzik,  A. T. Bell,  N. A. Besley,  K. B. Bravaya,  B. R. Brooks,  
 D. Casanova,  Jeng-Da Chai,  S. Coriani,  C. J. Cramer,  
 A. E. DePrince, III,  R. A. DiStasio Jr.,  A. Dreuw,  B. D. Dunietz,  
 T. R. Furlani,  W. A. Goddard III,  S. Grimme,  S. Hammes-Schiffer,  
 T. Head-Gordon,  W. J. Hehre,  Chao-Ping Hsu,  T.-C. Jagau,  Yousung Jung,  
 A. Klamt,  Jing Kong,  D. S. Lambrecht,  WanZhen Liang,  N. J. Mayhall,  
 C. W. McCurdy,  J. B. Neaton,  C. Ochsenfeld,  J. A. Parkhill,  R. Peverati,  
 V. A. Rassolov,  Yihan Shao,  L. V. Slipchenko,  T. Stauch,  R. P. Steele,  
 J. E. Subotnik,  A. J. W. Thom,  A. Tkatchenko,  D. G. Truhlar,  
 T. Van Voorhis,  T. A. Wesolowski,  K. B. Whaley,  H. L. Woodcock III,  
 P. M. Zimmerman,  S. Faraji,  P. M. W. Gill,  M. Head-Gordon,  
 J. M. Herbert,  A. I. Krylov

 Contributors to earlier versions of Q-Chem not listed above: 
 R. D. Adamson,  B. Austin,  R. Baer,  J. Baker,  G. J. O. Beran,  
 K. Brandhorst,  S. T. Brown,  E. F. C. Byrd,  A. K. Chakraborty,  
 G. K. L. Chan,  Chun-Min Chang,  Yunqing Chen,  C.-L. Cheng,  
 Siu Hung Chien,  D. M. Chipman,  D. L. Crittenden,  H. Dachsel,  
 R. J. Doerksen,  A. D. Dutoi,  R. G. Edgar,  J. Fosso-Tande,  
 L. Fusti-Molnar,  D. Ghosh,  A. Ghysels,  A. Golubeva-Zadorozhnaya,  
 J. Gonthier,  M. S. Gordon,  S. R. Gwaltney,  G. Hawkins,  J. E. Herr,  
 A. Heyden,  S. Hirata,  E. G. Hohenstein,  G. Kedziora,  F. J. Keil,  
 C. Kelley,  Jihan Kim,  R. A. King,  R. Z. Khaliullin,  P. P. Korambath,  
 W. Kurlancheek,  A. Laurent,  A. M. Lee,  M. S. Lee,  S. V. Levchenko,  
 Ching Yeh Lin,  D. Liotard,  E. Livshits,  R. C. Lochan,  I. Lotan,  
 L. A. Martinez-Martinez,  P. E. Maslen,  N. Nair,  D. P. O'Neill,  
 D. Neuhauser,  E. Neuscamman,  C. M. Oana,  R. Olivares-Amaya,  R. Olson,  
 T. M. Perrine,  B. Peters,  P. A. Pieniazek,  A. Prociuk,  Y. M. Rhee,  
 J. Ritchie,  M. A. Rohrdanz,  E. Rosta,  N. J. Russ,  H. F. Schaefer III,  
 M. W. Schmidt,  N. E. Schultz,  S. Sharma,  N. Shenvi,  C. D. Sherrill,  
 A. C. Simmonett,  A. Sodt,  T. Stein,  D. Stuck,  K. S. Thanthiriwatte,  
 V. Vanovschi,  L. Vogt,  Tao Wang,  A. Warshel,  M. A. Watson,  
 C. F. Williams,  Q. Wu,  X. Xu,  Jun Yang,  W. Zhang,  Yan Zhao

 Please cite Q-Chem as follows:
 Y. Shao et al., Mol. Phys. 113, 184-215 (2015)
 DOI: 10.1080/00268976.2014.952696

 Q-Chem 5.4.0 for Intel X86 EM64T Linux

 Parts of Q-Chem use Armadillo 9.800.1 (Horizon Scraper).
 http://arma.sourceforge.net/

 Q-Chem begins on Fri Dec 15 13:56:07 2023  

 Host: 
0

     Scratch files written to ./qchem964600//
 May1621 |scratch|qcdevops|jenkins|workspace|build_RNUM    
 Parallel job on  1  processors
 Processing $rem in /cm/shared/apps/spack/cpu/opt/spack/linux-centos8-zen2/gcc-10.2.0/qchem-5.4-akfmr7b3t57bfs6qan3padb2wnb2i7cl/config/preferences:
 Processing $rem in /home/rramji/.qchemrc:
 Symmetry turned off for PCM/SM12/SMD calculation
 Core orbitals will be frozen

 Checking the input file for inconsistencies... 	...done.

 Q-Chem warning in module forms1/BasisType.C, line 2236:

 You are not using the predefined 5D/6D in this basis set.


--------------------------------------------------------------
User input:
--------------------------------------------------------------
$molecule
0 1
C	-0.248806	-3.887800	0.680396
C	0.225147	-3.701456	-0.621614
C	0.370780	-2.345170	-1.019896
H	0.466300	-4.545233	-1.285337
C	0.000000	-1.450135	0.000000
S	-0.522786	-2.321334	1.435271
C	0.865597	-1.934439	-2.378891
H	1.092567	-2.819799	-3.003720
H	1.791940	-1.326210	-2.313975
H	0.114772	-1.325374	-2.924390
C	0.000000	0.000000	0.000000
C	-0.003081	0.844605	1.113020
C	-0.007772	2.235575	0.820578
H	-0.001743	0.456510	2.142881
C	-0.008427	2.483726	-0.563588
S	-0.003691	0.970607	-1.464748
C	-0.011355	3.300181	1.882380
H	-0.009922	2.852233	2.894974
H	-0.905944	3.953225	1.808137
H	0.878901	3.959133	1.808230
H	-0.011727	3.441752	-1.097114
H	0.479986	-4.420219	1.301772
H	-1.206964	-4.419395	0.687795
H	1.014873	-1.450628	0.369368
$end

$rem
JOBTYPE		SP
EXCHANGE	HF
CORRELATION	pRIMP2
BASIS		cc-pvtz
METHOD		rimp2
AUX_BASIS	rimp2-cc-pvtz
SOLVENT_METHOD	PCM
PURECART	11111
SYMMETRY	false
MEM_TOTAL	110000
SCF_CONVERGENCE = 6
THRESH=10
GUI = 2
$end



$solvent
dielectric 4.90
$end
--------------------------------------------------------------
 ----------------------------------------------------------------
             Standard Nuclear Orientation (Angstroms)
    I     Atom           X                Y                Z
 ----------------------------------------------------------------
    1      C      -0.2488060000    -3.8878000000     0.6803960000
    2      C       0.2251470000    -3.7014560000    -0.6216140000
    3      C       0.3707800000    -2.3451700000    -1.0198960000
    4      H       0.4663000000    -4.5452330000    -1.2853370000
    5      C       0.0000000000    -1.4501350000     0.0000000000
    6      S      -0.5227860000    -2.3213340000     1.4352710000
    7      C       0.8655970000    -1.9344390000    -2.3788910000
    8      H       1.0925670000    -2.8197990000    -3.0037200000
    9      H       1.7919400000    -1.3262100000    -2.3139750000
   10      H       0.1147720000    -1.3253740000    -2.9243900000
   11      C       0.0000000000     0.0000000000     0.0000000000
   12      C      -0.0030810000     0.8446050000     1.1130200000
   13      C      -0.0077720000     2.2355750000     0.8205780000
   14      H      -0.0017430000     0.4565100000     2.1428810000
   15      C      -0.0084270000     2.4837260000    -0.5635880000
   16      S      -0.0036910000     0.9706070000    -1.4647480000
   17      C      -0.0113550000     3.3001810000     1.8823800000
   18      H      -0.0099220000     2.8522330000     2.8949740000
   19      H      -0.9059440000     3.9532250000     1.8081370000
   20      H       0.8789010000     3.9591330000     1.8082300000
   21      H      -0.0117270000     3.4417520000    -1.0971140000
   22      H       0.4799860000    -4.4202190000     1.3017720000
   23      H      -1.2069640000    -4.4193950000     0.6877950000
   24      H       1.0148730000    -1.4506280000     0.3693680000
 ----------------------------------------------------------------
 Nuclear Repulsion Energy =         874.84308152 hartrees
 There are       52 alpha and       52 beta electrons
 Requested basis set is cc-pVTZ
 There are 196 shells and 536 basis functions

 Total QAlloc Memory Limit 110000 MB
 Mega-Array Size       188 MB
 MEM_STATIC part       192 MB
 Discretize the solute cavity surface with Lebedev spheres
	Using 110 Lebedev grid points for each H atom
	Using 194 Lebedev grid points for other atoms
	Atomic van der Waals radii will be scaled by 1.20
 Remove points where switching function is < 1.0e-08
 Keep 1598 surface tesserae and discard 2050 interior tesserae
 Molecular Surface Area = 232.040 Angst**2
 Requested basis set is rimp2-cc-pVTZ
 There are 414 shells and 1414 basis functions
 A cutoff of  1.0D-10 yielded  13844 shell pairs
 There are    100298 function pairs (    128587 Cartesian)
 Smallest overlap matrix eigenvalue = 4.70E-05

 Scale SEOQF with 1.000000e-01/1.000000e-01/1.000000e-01

 Standard Electronic Orientation quadrupole field applied
 Nucleus-field energy     =     0.0000000229 hartrees
 Guess from superposition of atomic densities
 Warning:  Energy on first SCF cycle will be non-variational
 SAD guess density has 104.000000 electrons

 -----------------------------------------------------------------------
  General SCF calculation program by
  Eric Jon Sundstrom, Paul Horn, Yuezhi Mao, Dmitri Zuev, Alec White,
  David Stuck, Shaama M.S., Shane Yost, Joonho Lee, David Small,
  Daniel Levine, Susi Lehtola, Hugh Burton, Evgeny Epifanovsky,
  Bang C. Huynh
 -----------------------------------------------------------------------
 Hartree-Fock
 using 64 threads for integral computing
 -------------------------------------------------------
 OpenMP Integral computing Module                
 Release: version 1.0, May 2013, Q-Chem Inc. Pittsburgh 
 -------------------------------------------------------
 A restricted SCF calculation will be
 performed using DIIS
 SCF converges when DIIS error is below 1.0e-06
 ---------------------------------------
  Cycle       Energy         DIIS error
 ---------------------------------------
    1   -1186.0266075892      2.39e-02  
    2   -1180.6116828541      1.59e-03  
    3   -1180.7376573015      6.65e-04  
    4   -1180.7539698717      3.52e-04  
    5   -1180.7597155889      5.88e-05  
    6   -1180.7599586933      2.44e-05  
    7   -1180.7600142495      8.37e-06  
    8   -1180.7600256027      4.04e-06  
    9   -1180.7600280469      1.35e-06  
   10   -1180.7600284310      4.99e-07  Convergence criterion met
 ---------------------------------------
 SCF time:   CPU 1549.42s  wall 47.00s 

************** Final PCM Free Energy Summary **************
 G_electrostatic  =      -0.00828818 hartree =      -5.20091297 kcal/mol
 G_cavitation     =       0.00000000 hartree =       0.00000000 kcal/mol
 G_dispersion     =       0.00000000 hartree =       0.00000000 kcal/mol
 G_repulsion      =       0.00000000 hartree =       0.00000000 kcal/mol
 --------------------------------------------------
 Non-electrostatic Free Energy =       0.00000000 hartree =       0.00000000 kcal/mol
 Total                         =      -0.00828818 hartree =      -5.20091297 kcal/mol
 --------------------------------------------------
 SCF Energy (H0 + V/2)                       =   -1180.76002843 
 Solute Internal Energy (H0)                 =   -1180.75174025 
 Total Free Energy (H0 + V/2 + non-elec)     =   -1180.76002843 hartree
                                             = -740938.10081865 kcal/mol
***********************************************************

 SCF   energy in the final basis set =    -1180.7600284310
 Total energy in the final basis set =    -1180.7600284310


 --------------------------------------------------------------
  Generalized many-body perturbation theory program
  by Joonho Lee, Fazle Rob, Xintian Feng, Evgeny Epifanovsky

 No regularization used 
 (reg. param. = 0.0000e+00)
  (P|Q)^-1/2 Time:  CPU 36.22 s  wall 0.59 s

 In RI-MP2 calculation: 
 # of frozen core orbitals: 20

 Components of the RIMP2 correlation energy:
        aaaa    correlation energy =        -0.2513940989 a.u.
        abab    correlation energy =        -1.5026037667 a.u.
        bbbb    correlation energy =        -0.2513940989 a.u.
        non-Brillouin singles      =        -0.0000000000 a.u.
        total same-spin energy     =        -0.5027881977 a.u.
        total opposite-spin energy =        -1.5026037667 a.u.

 Total  RIMP2   correlation energy =        -2.0053919644 a.u.
        RIMP2         total energy =     -1182.7654203954 a.u.

 RI-MP2 Energy Time:  CPU 178.99 s  wall 3.26 s
 
 --------------------------------------------------------------
 
                    Orbital Energies (a.u.)
 --------------------------------------------------------------
 
 Alpha MOs
 -- Occupied --
-91.9823 -91.9469 -11.2905 -11.2655 -11.2617 -11.2538 -11.2503 -11.2445
-11.2328 -11.2306 -11.2278 -11.2227  -8.9822  -8.9514  -6.6631  -6.6626
 -6.6619  -6.6327  -6.6317  -6.6304  -1.2014  -1.1524  -1.0596  -1.0279
 -1.0074  -0.9562  -0.9160  -0.9017  -0.8148  -0.7708  -0.7188  -0.7028
 -0.6618  -0.6470  -0.6111  -0.5891  -0.5818  -0.5731  -0.5681  -0.5541
 -0.5419  -0.5333  -0.5153  -0.5084  -0.4905  -0.4853  -0.4577  -0.4479
 -0.3587  -0.3419  -0.3253  -0.2658
 -- Virtual --
  0.1056   0.1323   0.1445   0.1502   0.1590   0.1704   0.1764   0.1824
  0.1931   0.1966   0.2039   0.2071   0.2284   0.2330   0.2386   0.2415
  0.2522   0.2643   0.2725   0.3052   0.3239   0.3370   0.3514   0.3591
  0.3714   0.3791   0.3802   0.3969   0.4056   0.4099   0.4164   0.4359
  0.4413   0.4492   0.4599   0.4648   0.4784   0.4806   0.4889   0.5003
  0.5088   0.5149   0.5286   0.5354   0.5373   0.5464   0.5486   0.5494
  0.5664   0.5731   0.5880   0.5974   0.6048   0.6143   0.6163   0.6186
  0.6236   0.6287   0.6307   0.6369   0.6414   0.6437   0.6491   0.6555
  0.6647   0.6693   0.6867   0.6902   0.6963   0.7104   0.7226   0.7236
  0.7411   0.7588   0.7618   0.7833   0.7949   0.8012   0.8154   0.8183
  0.8467   0.8573   0.8604   0.8714   0.8796   0.8934   0.9070   0.9160
  0.9276   0.9372   0.9501   0.9718   0.9781   0.9838   0.9949   1.0061
  1.0173   1.0244   1.0353   1.0526   1.0582   1.0698   1.0784   1.0865
  1.0931   1.0984   1.1071   1.1262   1.1437   1.1530   1.1564   1.1646
  1.1676   1.1872   1.2025   1.2115   1.2216   1.2265   1.2312   1.2408
  1.2537   1.2676   1.2742   1.2747   1.2840   1.2881   1.2941   1.3144
  1.3215   1.3363   1.3461   1.3735   1.3827   1.3925   1.4054   1.4116
  1.4209   1.4313   1.4429   1.4610   1.4753   1.4785   1.4888   1.4922
  1.5078   1.5125   1.5267   1.5333   1.5385   1.5408   1.5484   1.5595
  1.5661   1.5802   1.5920   1.6035   1.6054   1.6266   1.6361   1.6423
  1.6604   1.6681   1.6809   1.6870   1.6946   1.7118   1.7243   1.7316
  1.7372   1.7516   1.7911   1.8102   1.8209   1.8265   1.8393   1.8636
  1.8907   1.9139   1.9261   1.9504   1.9618   1.9726   1.9883   2.0109
  2.0146   2.0255   2.0508   2.0543   2.0677   2.0865   2.1468   2.1577
  2.1923   2.1957   2.2073   2.2208   2.2326   2.2641   2.2825   2.2909
  2.3137   2.3366   2.3468   2.3537   2.4139   2.4310   2.4614   2.4689
  2.4974   2.5231   2.5264   2.5525   2.5578   2.5961   2.6045   2.6154
  2.6449   2.6531   2.6584   2.6723   2.6888   2.6982   2.7087   2.7261
  2.7270   2.7517   2.7565   2.7659   2.7724   2.7808   2.8064   2.8115
  2.8206   2.8467   2.8593   2.8898   2.8953   2.9044   2.9163   2.9255
  2.9388   2.9398   2.9665   2.9859   2.9936   3.0122   3.0321   3.0404
  3.0524   3.0668   3.0928   3.1024   3.1135   3.1210   3.1321   3.1437
  3.1536   3.1547   3.1684   3.1785   3.1835   3.1972   3.2185   3.2218
  3.2292   3.2375   3.2548   3.2575   3.2709   3.2744   3.2919   3.3037
  3.3163   3.3232   3.3310   3.3355   3.3440   3.3471   3.3599   3.3648
  3.3772   3.3824   3.3873   3.3977   3.4039   3.4157   3.4203   3.4281
  3.4418   3.4463   3.4528   3.4602   3.4731   3.4883   3.4971   3.5026
  3.5130   3.5179   3.5307   3.5387   3.5518   3.5542   3.5617   3.5709
  3.5746   3.5969   3.6104   3.6246   3.6295   3.6412   3.6420   3.6529
  3.6771   3.6832   3.6974   3.7028   3.7082   3.7222   3.7308   3.7405
  3.7418   3.7529   3.7745   3.7820   3.7891   3.7952   3.8058   3.8117
  3.8240   3.8332   3.8479   3.8633   3.8756   3.8979   3.9056   3.9146
  3.9328   3.9378   3.9525   3.9635   3.9796   3.9918   4.0035   4.0099
  4.0319   4.0361   4.0474   4.0522   4.0744   4.0908   4.0973   4.1015
  4.1251   4.1331   4.1482   4.1522   4.1626   4.1664   4.1829   4.2032
  4.2076   4.2156   4.2260   4.2427   4.2517   4.2671   4.2801   4.2833
  4.2872   4.3015   4.3291   4.3362   4.3467   4.3520   4.3583   4.3632
  4.3782   4.3818   4.4025   4.4091   4.4194   4.4229   4.4363   4.4496
  4.4648   4.4660   4.4829   4.4958   4.5248   4.5318   4.5447   4.5725
  4.5861   4.5939   4.6044   4.6246   4.6397   4.6429   4.6641   4.6787
  4.7113   4.7157   4.7361   4.7638   4.7870   4.8042   4.8096   4.8384
  4.8508   4.8642   4.8840   4.8935   4.9281   4.9639   4.9716   4.9902
  5.0277   5.0483   5.0800   5.0983   5.1197   5.1264   5.1631   5.1862
  5.1971   5.2205   5.2518   5.2632   5.2886   5.2931   5.3047   5.3223
  5.3562   5.3732   5.3778   5.3867   5.4066   5.4237   5.4386   5.4499
  5.4712   5.5153   5.5196   5.5438   5.5506   5.5564   5.5689   5.5803
  5.6220   5.6380   5.6456   5.6794   5.6860   5.6990   5.7097   5.7144
  5.7612   5.7878   5.8479   5.9984   6.0070   6.1389   6.1448   6.1570
  6.2222   6.2273   6.2386   6.2526   6.2783   6.2839   6.3087   6.3441
  6.4118   6.5028   9.5367  10.8071  12.0021  13.0108  13.1937  13.9814
 14.1339  14.3141  14.4056  14.7806
 --------------------------------------------------------------
 
          Ground-State Mulliken Net Atomic Charges

     Atom                 Charge (a.u.)
  ----------------------------------------
      1 C                    -0.073545
      2 C                    -0.322199
      3 C                    -0.035550
      4 H                     0.179750
      5 C                     0.118818
      6 S                    -0.179490
      7 C                    -0.305284
      8 H                     0.119841
      9 H                     0.115118
     10 H                     0.110843
     11 C                    -0.026141
     12 C                    -0.308217
     13 C                     0.039139
     14 H                     0.177429
     15 C                    -0.274748
     16 S                     0.009502
     17 C                    -0.272713
     18 H                     0.102819
     19 H                     0.108650
     20 H                     0.107979
     21 H                     0.196078
     22 H                     0.110790
     23 H                     0.114217
     24 H                     0.186914
  ----------------------------------------
  Sum of atomic charges =     0.000000

 -----------------------------------------------------------------
                    Cartesian Multipole Moments
 -----------------------------------------------------------------
    Charge (ESU x 10^10)
                -0.0000
    Dipole Moment (Debye)
         X       1.6732      Y      -0.3949      Z      -0.6071
       Tot       1.8232
    Quadrupole Moments (Debye-Ang)
        XX     -91.9126     XY      -2.6761     YY     -73.2719
        XZ       0.0419     YZ       4.1866     ZZ     -85.4106
    Octopole Moments (Debye-Ang^2)
       XXX      -2.1254    XXY      43.7378    XYY       1.3256
       YYY     115.3333    XXZ      -1.2024    XYZ       1.2916
       YYZ      -1.4243    XZZ       2.8740    YZZ      49.3804
       ZZZ      -3.1766
    Hexadecapole Moments (Debye-Ang^3)
      XXXX    -205.9599   XXXY       4.1678   XXYY    -564.4979
      XYYY      -0.7518   YYYY   -2766.8503   XXXZ      95.6816
      XXYZ     -31.1864   XYYZ      21.7241   YYYZ    -117.3079
      XXZZ    -217.6522   XYZZ     -12.0501   YYZZ    -653.1283
      XZZZ      86.4145   YZZZ     -77.1115   ZZZZ   -1037.2428
 -----------------------------------------------------------------
 Total job time:  53.39s(wall), 1792.55s(cpu) 
 Fri Dec 15 13:57:01 2023

        *************************************************************
        *                                                           *
        *  Thank you very much for using Q-Chem.  Have a nice day.  *
        *                                                           *
        *************************************************************


0 sent ACK to 0 
now end server 0 ... 
cleanup process ... done
remove work dirs ./qchem964600.0 -- ./qchem964600.0
rm -rf ./qchem964600.0
rm -rf ./qchem964600
