You are running Q-Chem version: 5.4.0

#
# job setting
#
local host:  exp-8-02
current dir: /home/rramji/project-csd799/aromodel/p3ht-qchem/hydrogenated-rotation-run
input file:  Methylthiophene_Phi_20_Theta_120_Methylthiophene_Hydrogenated.qcin
output file: 
nprocs     : 1
nthreads   : 64
#
# qchem installation setting
#
QC:          /cm/shared/apps/spack/cpu/opt/spack/linux-centos8-zen2/gcc-10.2.0/qchem-5.4-akfmr7b3t57bfs6qan3padb2wnb2i7cl
QCAUX:       /cm/shared/apps/spack/cpu/opt/spack/linux-centos8-zen2/gcc-10.2.0/qchem-5.4-akfmr7b3t57bfs6qan3padb2wnb2i7cl/qcaux
QCPROG:      /cm/shared/apps/spack/cpu/opt/spack/linux-centos8-zen2/gcc-10.2.0/qchem-5.4-akfmr7b3t57bfs6qan3padb2wnb2i7cl/exe/qcprog.exe
QCPROG_S:    /cm/shared/apps/spack/cpu/opt/spack/linux-centos8-zen2/gcc-10.2.0/qchem-5.4-akfmr7b3t57bfs6qan3padb2wnb2i7cl/exe/qcprog.exe_s
PARALLEL:    -DPARALLEL
QCMPI:       mpich
#
# qchem directory setting
#
qcrun:       qchem163222
QCSCRATCH:   .
QCLOCALSCR:  
QCTMPDIR:    .
QCFILEPREF:  ./qchem163222
QCSAVEDIR:   
workdirs:    ./qchem163222
workdir0:    ./qchem163222
partmpdirs =  
#
# parallel setting
#
QCRSH:           ssh
QCMPI:           mpich
QCMPIRUN:        /cm/shared/apps/spack/cpu/opt/spack/linux-centos8-zen2/gcc-10.2.0/qchem-5.4-akfmr7b3t57bfs6qan3padb2wnb2i7cl/bin/mpi/mpirun_qchem
QCMACHINEFILE:   ./qchem163222/hostfile
exp-8-02

#
# env setting
#
exported envs:   QC QCAUX QCSCRATCH QCRUNNAME QCFILEPREF QCPROG QCPROG_S GUIFILE

Running Job 1 of 1 Methylthiophene_Phi_20_Theta_120_Methylthiophene_Hydrogenated.qcin
qchem Methylthiophene_Phi_20_Theta_120_Methylthiophene_Hydrogenated.qcin_163222.0 ./qchem163222/ 1
/cm/shared/apps/spack/cpu/opt/spack/linux-centos8-zen2/gcc-10.2.0/qchem-5.4-akfmr7b3t57bfs6qan3padb2wnb2i7cl/bin/mpi/mpirun_qchem -machinefile ./qchem163222/hostfile -np 1 /cm/shared/apps/spack/cpu/opt/spack/linux-centos8-zen2/gcc-10.2.0/qchem-5.4-akfmr7b3t57bfs6qan3padb2wnb2i7cl/exe/qcprog.exe Methylthiophene_Phi_20_Theta_120_Methylthiophene_Hydrogenated.qcin_163222.0 ./qchem163222/

Process 0 of 1 is on exp-8-02 - thread support 0
initial socket setup ...start
initial socket setup ...done 
now start server 0 ... 
                  Welcome to Q-Chem
     A Quantum Leap Into The Future Of Chemistry


 Q-Chem 5.4, Q-Chem, Inc., Pleasanton, CA (2021)

 License issued to: University of California, San Diego (site)

 E. Epifanovsky,  A. T. B. Gilbert,  Xintian Feng,  Joonho Lee,  Yuezhi Mao,  
 N. Mardirossian,  P. Pokhilko,  A. White,  M. Wormit,  M. P. Coons,  
 A. L. Dempwolff,  Zhengting Gan,  D. Hait,  P. R. Horn,  L. D. Jacobson,  
 I. Kaliman,  J. Kussmann,  A. W. Lange,  Ka Un Lao,  D. S. Levine,  Jie Liu,  
 S. C. McKenzie,  A. F. Morrison,  K. Nanda,  F. Plasser,  D. R. Rehn,  
 M. L. Vidal,  Zhi-Qiang You,  Ying Zhu,  B. Alam,  B. Albrecht,  
 A. Aldossary,  E. Alguire,  J. H. Andersen,  D. Barton,  K. Begam,  A. Behn,  
 Y. A. Bernard,  E. J. Berquist,  H. Burton,  A. Carreras,  K. Carter-Fenk,  
 R. Chakraborty,  A. D. Chien,  K. D. Closser,  V. Cofer-Shabica,  
 S. Dasgupta,  Jia Deng,  M. de Wergifosse,  M. Diedenhofen,  Hainam Do,  
 S. Ehlert,  Po-Tung Fang,  S. Fatehi,  Qingguo Feng,  J. Gayvert,  
 Qinghui Ge,  G. Gidofalvi,  M. Goldey,  J. Gomes,  C. Gonzalez-Espinoza,  
 S. Gulania,  A. Gunina,  M. W. D. Hanson-Heine,  P. H. P. Harbach,  
 A. W. Hauser,  M. F. Herbst,  M. Hernandez Vera,  M. Hodecker,  
 Z. C. Holden,  S. Houck,  Xunkun Huang,  Kerwin Hui,  B. C. Huynh,  
 M. Ivanov,  Hyunjun Ji,  Hanjie Jiang,  B. Kaduk,  S. Kaehler,  
 K. Khistyaev,  Jaehoon Kim,  P. Klunzinger,  Z. Koczor-Benda,  
 Joong Hoon Koh,  D. Kosenkov,  L. Koulias,  T. Kowalczyk,  C. M. Krauter,  
 K. Kue,  A. Kunitsa,  T. Kus,  A. Landau,  K. V. Lawler,  D. Lefrancois,  
 S. Lehtola,  Rain Li,  Yi-Pei Li,  Jiashu Liang,  M. Liebenthal,  
 Hung-Hsuan Lin,  You-Sheng Lin,  Fenglai Liu,  Kuan-Yu Liu,  
 M. Loipersberger,  A. Luenser,  A. Manjanath,  P. Manohar,  E. Mansoor,  
 S. F. Manzer,  Shan-Ping Mao,  A. V. Marenich,  T. Markovich,  S. Mason,  
 S. A. Maurer,  P. F. McLaughlin,  M. F. S. J. Menger,  J.-M. Mewes,  
 S. A. Mewes,  P. Morgante,  J. W. Mullinax,  T. S. Nguyen-Beck,  
 K. J. Oosterbaan,  G. Paran,  Alexander C. Paul,  Suranjan K. Paul,  
 F. Pavosevic,  Zheng Pei,  S. Prager,  E. I. Proynov,  E. Ramos,  B. Rana,  
 A. E. Rask,  A. Rettig,  R. M. Richard,  F. Rob,  E. Rossomme,  T. Scheele,  
 M. Scheurer,  M. Schneider,  N. Sergueev,  S. M. Sharada,  W. Skomorowski,  
 D. W. Small,  C. J. Stein,  Yu-Chuan Su,  E. J. Sundstrom,  Zhen Tao,  
 J. Thirman,  T. Tsuchimochi,  N. M. Tubman,  S. P. Veccham,  O. Vydrov,  
 J. Wenzel,  J. Witte,  A. Yamada,  Kun Yao,  S. Yeganeh,  S. R. Yost,  
 A. Zech,  Igor Ying Zhang,  Xing Zhang,  Yu Zhang,  D. Zuev,  
 A. Aspuru-Guzik,  A. T. Bell,  N. A. Besley,  K. B. Bravaya,  B. R. Brooks,  
 D. Casanova,  Jeng-Da Chai,  S. Coriani,  C. J. Cramer,  
 A. E. DePrince, III,  R. A. DiStasio Jr.,  A. Dreuw,  B. D. Dunietz,  
 T. R. Furlani,  W. A. Goddard III,  S. Grimme,  S. Hammes-Schiffer,  
 T. Head-Gordon,  W. J. Hehre,  Chao-Ping Hsu,  T.-C. Jagau,  Yousung Jung,  
 A. Klamt,  Jing Kong,  D. S. Lambrecht,  WanZhen Liang,  N. J. Mayhall,  
 C. W. McCurdy,  J. B. Neaton,  C. Ochsenfeld,  J. A. Parkhill,  R. Peverati,  
 V. A. Rassolov,  Yihan Shao,  L. V. Slipchenko,  T. Stauch,  R. P. Steele,  
 J. E. Subotnik,  A. J. W. Thom,  A. Tkatchenko,  D. G. Truhlar,  
 T. Van Voorhis,  T. A. Wesolowski,  K. B. Whaley,  H. L. Woodcock III,  
 P. M. Zimmerman,  S. Faraji,  P. M. W. Gill,  M. Head-Gordon,  
 J. M. Herbert,  A. I. Krylov

 Contributors to earlier versions of Q-Chem not listed above: 
 R. D. Adamson,  B. Austin,  R. Baer,  J. Baker,  G. J. O. Beran,  
 K. Brandhorst,  S. T. Brown,  E. F. C. Byrd,  A. K. Chakraborty,  
 G. K. L. Chan,  Chun-Min Chang,  Yunqing Chen,  C.-L. Cheng,  
 Siu Hung Chien,  D. M. Chipman,  D. L. Crittenden,  H. Dachsel,  
 R. J. Doerksen,  A. D. Dutoi,  R. G. Edgar,  J. Fosso-Tande,  
 L. Fusti-Molnar,  D. Ghosh,  A. Ghysels,  A. Golubeva-Zadorozhnaya,  
 J. Gonthier,  M. S. Gordon,  S. R. Gwaltney,  G. Hawkins,  J. E. Herr,  
 A. Heyden,  S. Hirata,  E. G. Hohenstein,  G. Kedziora,  F. J. Keil,  
 C. Kelley,  Jihan Kim,  R. A. King,  R. Z. Khaliullin,  P. P. Korambath,  
 W. Kurlancheek,  A. Laurent,  A. M. Lee,  M. S. Lee,  S. V. Levchenko,  
 Ching Yeh Lin,  D. Liotard,  E. Livshits,  R. C. Lochan,  I. Lotan,  
 L. A. Martinez-Martinez,  P. E. Maslen,  N. Nair,  D. P. O'Neill,  
 D. Neuhauser,  E. Neuscamman,  C. M. Oana,  R. Olivares-Amaya,  R. Olson,  
 T. M. Perrine,  B. Peters,  P. A. Pieniazek,  A. Prociuk,  Y. M. Rhee,  
 J. Ritchie,  M. A. Rohrdanz,  E. Rosta,  N. J. Russ,  H. F. Schaefer III,  
 M. W. Schmidt,  N. E. Schultz,  S. Sharma,  N. Shenvi,  C. D. Sherrill,  
 A. C. Simmonett,  A. Sodt,  T. Stein,  D. Stuck,  K. S. Thanthiriwatte,  
 V. Vanovschi,  L. Vogt,  Tao Wang,  A. Warshel,  M. A. Watson,  
 C. F. Williams,  Q. Wu,  X. Xu,  Jun Yang,  W. Zhang,  Yan Zhao

 Please cite Q-Chem as follows:
 Y. Shao et al., Mol. Phys. 113, 184-215 (2015)
 DOI: 10.1080/00268976.2014.952696

 Q-Chem 5.4.0 for Intel X86 EM64T Linux

 Parts of Q-Chem use Armadillo 9.800.1 (Horizon Scraper).
 http://arma.sourceforge.net/

 Q-Chem begins on Fri Dec 15 14:05:46 2023  

 Host: 
0

     Scratch files written to ./qchem163222//
 May1621 |scratch|qcdevops|jenkins|workspace|build_RNUM    
 Parallel job on  1  processors
 Processing $rem in /cm/shared/apps/spack/cpu/opt/spack/linux-centos8-zen2/gcc-10.2.0/qchem-5.4-akfmr7b3t57bfs6qan3padb2wnb2i7cl/config/preferences:
 Processing $rem in /home/rramji/.qchemrc:
 Symmetry turned off for PCM/SM12/SMD calculation
 Core orbitals will be frozen

 Checking the input file for inconsistencies... 	...done.

 Q-Chem warning in module forms1/BasisType.C, line 2236:

 You are not using the predefined 5D/6D in this basis set.


--------------------------------------------------------------
User input:
--------------------------------------------------------------
$molecule
0 1
C	-0.626855	-3.887800	-0.363176
C	0.573074	-3.701456	0.329669
C	0.940016	-2.345170	0.542250
H	1.184837	-4.545233	0.682412
C	0.000000	-1.450135	0.000000
S	-1.322686	-2.321334	-0.764076
C	2.192440	-1.934439	1.265537
H	2.768365	-2.819799	1.597559
H	1.967653	-1.326210	2.166534
H	2.860032	-1.325374	0.620843
C	0.000000	0.000000	0.000000
C	0.285976	0.794723	1.113020
C	0.757308	2.103412	0.820578
H	0.154498	0.429575	2.142881
C	0.841565	2.336821	-0.563588
S	0.328498	0.913334	-1.464748
C	1.118059	3.105040	1.882380
H	0.966197	2.683616	2.894974
H	0.500773	4.024668	1.808137
H	2.180000	3.419766	1.808230
H	1.166129	3.238200	-1.097114
H	-1.365344	-4.420219	0.246643
H	-0.467758	-4.419395	-1.308062
H	-0.539988	-1.450628	0.935314
$end

$rem
JOBTYPE		SP
EXCHANGE	HF
CORRELATION	pRIMP2
BASIS		cc-pvtz
METHOD		rimp2
AUX_BASIS	rimp2-cc-pvtz
SOLVENT_METHOD	PCM
PURECART	11111
SYMMETRY	false
MEM_TOTAL	110000
SCF_CONVERGENCE = 6
THRESH=10
GUI = 2
$end



$solvent
dielectric 4.90
$end
--------------------------------------------------------------
 ----------------------------------------------------------------
             Standard Nuclear Orientation (Angstroms)
    I     Atom           X                Y                Z
 ----------------------------------------------------------------
    1      C      -0.6268550000    -3.8878000000    -0.3631760000
    2      C       0.5730740000    -3.7014560000     0.3296690000
    3      C       0.9400160000    -2.3451700000     0.5422500000
    4      H       1.1848370000    -4.5452330000     0.6824120000
    5      C       0.0000000000    -1.4501350000     0.0000000000
    6      S      -1.3226860000    -2.3213340000    -0.7640760000
    7      C       2.1924400000    -1.9344390000     1.2655370000
    8      H       2.7683650000    -2.8197990000     1.5975590000
    9      H       1.9676530000    -1.3262100000     2.1665340000
   10      H       2.8600320000    -1.3253740000     0.6208430000
   11      C       0.0000000000     0.0000000000     0.0000000000
   12      C       0.2859760000     0.7947230000     1.1130200000
   13      C       0.7573080000     2.1034120000     0.8205780000
   14      H       0.1544980000     0.4295750000     2.1428810000
   15      C       0.8415650000     2.3368210000    -0.5635880000
   16      S       0.3284980000     0.9133340000    -1.4647480000
   17      C       1.1180590000     3.1050400000     1.8823800000
   18      H       0.9661970000     2.6836160000     2.8949740000
   19      H       0.5007730000     4.0246680000     1.8081370000
   20      H       2.1800000000     3.4197660000     1.8082300000
   21      H       1.1661290000     3.2382000000    -1.0971140000
   22      H      -1.3653440000    -4.4202190000     0.2466430000
   23      H      -0.4677580000    -4.4193950000    -1.3080620000
   24      H      -0.5399880000    -1.4506280000     0.9353140000
 ----------------------------------------------------------------
 Nuclear Repulsion Energy =         874.93330002 hartrees
 There are       52 alpha and       52 beta electrons
 Requested basis set is cc-pVTZ
 There are 196 shells and 536 basis functions

 Total QAlloc Memory Limit 110000 MB
 Mega-Array Size       188 MB
 MEM_STATIC part       192 MB
 Discretize the solute cavity surface with Lebedev spheres
	Using 110 Lebedev grid points for each H atom
	Using 194 Lebedev grid points for other atoms
	Atomic van der Waals radii will be scaled by 1.20
 Remove points where switching function is < 1.0e-08
 Keep 1613 surface tesserae and discard 2035 interior tesserae
 Molecular Surface Area = 236.175 Angst**2
 Requested basis set is rimp2-cc-pVTZ
 There are 414 shells and 1414 basis functions
 A cutoff of  1.0D-10 yielded  14174 shell pairs
 There are    102842 function pairs (    131897 Cartesian)
 Smallest overlap matrix eigenvalue = 5.94E-05

 Scale SEOQF with 1.000000e-01/1.000000e-01/1.000000e-01

 Standard Electronic Orientation quadrupole field applied
 Nucleus-field energy     =     0.0000000324 hartrees
 Guess from superposition of atomic densities
 Warning:  Energy on first SCF cycle will be non-variational
 SAD guess density has 104.000000 electrons

 -----------------------------------------------------------------------
  General SCF calculation program by
  Eric Jon Sundstrom, Paul Horn, Yuezhi Mao, Dmitri Zuev, Alec White,
  David Stuck, Shaama M.S., Shane Yost, Joonho Lee, David Small,
  Daniel Levine, Susi Lehtola, Hugh Burton, Evgeny Epifanovsky,
  Bang C. Huynh
 -----------------------------------------------------------------------
 Hartree-Fock
 using 64 threads for integral computing
 -------------------------------------------------------
 OpenMP Integral computing Module                
 Release: version 1.0, May 2013, Q-Chem Inc. Pittsburgh 
 -------------------------------------------------------
 A restricted SCF calculation will be
 performed using DIIS
 SCF converges when DIIS error is below 1.0e-06
 ---------------------------------------
  Cycle       Energy         DIIS error
 ---------------------------------------
    1   -1186.0109446981      2.39e-02  
    2   -1180.6141605980      1.55e-03  
    3   -1180.7383361761      5.85e-04  
    4   -1180.7519228845      3.25e-04  
    5   -1180.7566982587      5.91e-05  
    6   -1180.7569343694      2.38e-05  
    7   -1180.7569896781      8.87e-06  
    8   -1180.7570024271      4.18e-06  
    9   -1180.7570053781      1.52e-06  
   10   -1180.7570058734      5.32e-07  Convergence criterion met
 ---------------------------------------
 SCF time:   CPU 1685.39s  wall 50.00s 

************** Final PCM Free Energy Summary **************
 G_electrostatic  =      -0.00952028 hartree =      -5.97406787 kcal/mol
 G_cavitation     =       0.00000000 hartree =       0.00000000 kcal/mol
 G_dispersion     =       0.00000000 hartree =       0.00000000 kcal/mol
 G_repulsion      =       0.00000000 hartree =       0.00000000 kcal/mol
 --------------------------------------------------
 Non-electrostatic Free Energy =       0.00000000 hartree =       0.00000000 kcal/mol
 Total                         =      -0.00952028 hartree =      -5.97406787 kcal/mol
 --------------------------------------------------
 SCF Energy (H0 + V/2)                       =   -1180.75700587 
 Solute Internal Energy (H0)                 =   -1180.74748559 
 Total Free Energy (H0 + V/2 + non-elec)     =   -1180.75700587 hartree
                                             = -740936.20413518 kcal/mol
***********************************************************

 SCF   energy in the final basis set =    -1180.7570058734
 Total energy in the final basis set =    -1180.7570058734


 --------------------------------------------------------------
  Generalized many-body perturbation theory program
  by Joonho Lee, Fazle Rob, Xintian Feng, Evgeny Epifanovsky

 No regularization used 
 (reg. param. = 0.0000e+00)
  (P|Q)^-1/2 Time:  CPU 20.68 s  wall 0.33 s

 In RI-MP2 calculation: 
 # of frozen core orbitals: 20

 Components of the RIMP2 correlation energy:
        aaaa    correlation energy =        -0.2515718551 a.u.
        abab    correlation energy =        -1.5040776380 a.u.
        bbbb    correlation energy =        -0.2515718551 a.u.
        non-Brillouin singles      =        -0.0000000000 a.u.
        total same-spin energy     =        -0.5031437102 a.u.
        total opposite-spin energy =        -1.5040776380 a.u.

 Total  RIMP2   correlation energy =        -2.0072213482 a.u.
        RIMP2         total energy =     -1182.7642272217 a.u.

 RI-MP2 Energy Time:  CPU 170.68 s  wall 3.48 s
 
 --------------------------------------------------------------
 
                    Orbital Energies (a.u.)
 --------------------------------------------------------------
 
 Alpha MOs
 -- Occupied --
-91.9805 -91.9413 -11.2798 -11.2662 -11.2630 -11.2566 -11.2516 -11.2435
-11.2412 -11.2311 -11.2299 -11.2197  -8.9805  -8.9459  -6.6614  -6.6608
 -6.6603  -6.6273  -6.6263  -6.6251  -1.1981  -1.1539  -1.0573  -1.0263
 -1.0043  -0.9615  -0.9119  -0.9014  -0.8144  -0.7596  -0.7336  -0.7056
 -0.6584  -0.6420  -0.6112  -0.5903  -0.5830  -0.5715  -0.5621  -0.5529
 -0.5411  -0.5298  -0.5176  -0.5065  -0.4879  -0.4780  -0.4610  -0.4475
 -0.3552  -0.3417  -0.3176  -0.2769
 -- Virtual --
  0.0926   0.1315   0.1422   0.1492   0.1583   0.1712   0.1755   0.1846
  0.1883   0.1951   0.2032   0.2155   0.2248   0.2338   0.2358   0.2443
  0.2520   0.2596   0.2747   0.2998   0.3087   0.3407   0.3423   0.3554
  0.3635   0.3718   0.3850   0.3969   0.3985   0.4067   0.4122   0.4148
  0.4298   0.4377   0.4494   0.4564   0.4685   0.4775   0.4841   0.4897
  0.4941   0.5061   0.5145   0.5302   0.5351   0.5433   0.5477   0.5594
  0.5633   0.5813   0.5876   0.5942   0.5991   0.6069   0.6110   0.6152
  0.6217   0.6247   0.6308   0.6408   0.6417   0.6489   0.6506   0.6578
  0.6582   0.6734   0.6804   0.6852   0.6967   0.7006   0.7211   0.7279
  0.7392   0.7466   0.7568   0.7680   0.7759   0.7877   0.8021   0.8207
  0.8282   0.8375   0.8538   0.8669   0.8792   0.8828   0.8971   0.9091
  0.9291   0.9378   0.9516   0.9617   0.9762   0.9929   1.0033   1.0106
  1.0175   1.0295   1.0399   1.0462   1.0559   1.0644   1.0745   1.0818
  1.0901   1.0935   1.1213   1.1261   1.1398   1.1536   1.1612   1.1787
  1.1823   1.1922   1.1971   1.2026   1.2113   1.2239   1.2352   1.2404
  1.2486   1.2623   1.2692   1.2743   1.2771   1.2868   1.3053   1.3214
  1.3339   1.3366   1.3503   1.3649   1.3681   1.3902   1.3986   1.4103
  1.4184   1.4332   1.4472   1.4619   1.4771   1.4785   1.4913   1.5023
  1.5069   1.5164   1.5257   1.5294   1.5383   1.5408   1.5487   1.5583
  1.5715   1.5843   1.5878   1.5944   1.6157   1.6185   1.6248   1.6383
  1.6512   1.6605   1.6724   1.6898   1.7026   1.7157   1.7262   1.7294
  1.7451   1.7530   1.7694   1.7890   1.8061   1.8151   1.8500   1.8803
  1.8918   1.9038   1.9307   1.9468   1.9514   1.9569   2.0028   2.0068
  2.0253   2.0296   2.0365   2.0527   2.0858   2.1139   2.1357   2.1610
  2.1829   2.1932   2.2110   2.2251   2.2367   2.2498   2.2558   2.2714
  2.2966   2.3039   2.3250   2.3486   2.4007   2.4333   2.4578   2.4717
  2.4893   2.5140   2.5406   2.5616   2.5823   2.5907   2.6013   2.6264
  2.6457   2.6531   2.6624   2.6674   2.6779   2.6876   2.6993   2.7224
  2.7404   2.7561   2.7615   2.7696   2.7731   2.7847   2.8137   2.8188
  2.8416   2.8589   2.8615   2.8723   2.8870   2.9050   2.9104   2.9239
  2.9405   2.9525   2.9636   2.9833   2.9992   3.0133   3.0322   3.0414
  3.0457   3.0695   3.0832   3.0952   3.1110   3.1168   3.1288   3.1373
  3.1459   3.1618   3.1693   3.1752   3.1921   3.1948   3.2081   3.2144
  3.2233   3.2477   3.2514   3.2610   3.2783   3.2919   3.2936   3.3004
  3.3138   3.3213   3.3339   3.3368   3.3443   3.3528   3.3585   3.3635
  3.3732   3.3776   3.3905   3.3969   3.4093   3.4222   3.4301   3.4348
  3.4429   3.4570   3.4592   3.4692   3.4785   3.4884   3.4935   3.5022
  3.5184   3.5309   3.5322   3.5464   3.5509   3.5603   3.5660   3.5747
  3.5850   3.6094   3.6167   3.6261   3.6346   3.6427   3.6545   3.6626
  3.6768   3.6791   3.6867   3.7001   3.7052   3.7226   3.7351   3.7402
  3.7475   3.7619   3.7761   3.7843   3.7936   3.7940   3.8033   3.8223
  3.8312   3.8496   3.8545   3.8725   3.8756   3.8772   3.8988   3.9206
  3.9334   3.9439   3.9497   3.9570   3.9706   3.9949   4.0007   4.0177
  4.0242   4.0393   4.0510   4.0570   4.0644   4.0749   4.0870   4.1024
  4.1172   4.1260   4.1498   4.1538   4.1679   4.1813   4.1887   4.1960
  4.2078   4.2218   4.2282   4.2364   4.2481   4.2633   4.2740   4.2846
  4.2930   4.3051   4.3117   4.3265   4.3321   4.3549   4.3683   4.3723
  4.3802   4.3878   4.4004   4.4087   4.4140   4.4312   4.4441   4.4463
  4.4529   4.4677   4.4771   4.4861   4.5083   4.5178   4.5222   4.5409
  4.5555   4.6028   4.6133   4.6268   4.6371   4.6490   4.6568   4.6772
  4.6835   4.7220   4.7409   4.7539   4.7754   4.7917   4.8233   4.8444
  4.8559   4.8786   4.8982   4.9254   4.9389   4.9488   4.9568   4.9757
  5.0113   5.0562   5.0857   5.1081   5.1230   5.1310   5.1407   5.1784
  5.1931   5.2039   5.2331   5.2584   5.2752   5.2895   5.3037   5.3256
  5.3383   5.3614   5.3828   5.3961   5.4094   5.4292   5.4351   5.4492
  5.4561   5.5158   5.5242   5.5379   5.5487   5.5595   5.5757   5.5981
  5.6169   5.6193   5.6334   5.6442   5.6714   5.6978   5.7138   5.7399
  5.7726   5.7977   5.8275   5.9715   6.0105   6.0766   6.1332   6.1530
  6.2032   6.2260   6.2330   6.2346   6.2526   6.2852   6.2919   6.3099
  6.3854   6.5235   9.3618  10.4628  12.0304  12.9152  13.1565  13.8992
 14.0927  14.2060  14.3744  14.9411
 --------------------------------------------------------------
 
          Ground-State Mulliken Net Atomic Charges

     Atom                 Charge (a.u.)
  ----------------------------------------
      1 C                    -0.074241
      2 C                    -0.324771
      3 C                    -0.034090
      4 H                     0.177748
      5 C                     0.078696
      6 S                    -0.178503
      7 C                    -0.269963
      8 H                     0.116547
      9 H                     0.097957
     10 H                     0.113296
     11 C                    -0.058681
     12 C                    -0.270589
     13 C                     0.031215
     14 H                     0.189546
     15 C                    -0.239638
     16 S                     0.005641
     17 C                    -0.271090
     18 H                     0.101877
     19 H                     0.108907
     20 H                     0.108164
     21 H                     0.197912
     22 H                     0.110276
     23 H                     0.110574
     24 H                     0.173211
  ----------------------------------------
  Sum of atomic charges =     0.000000

 -----------------------------------------------------------------
                    Cartesian Multipole Moments
 -----------------------------------------------------------------
    Charge (ESU x 10^10)
                -0.0000
    Dipole Moment (Debye)
         X       2.3716      Y       0.5256      Z       3.4839
       Tot       4.2472
    Quadrupole Moments (Debye-Ang)
        XX     -90.2538     XY       1.0078     YY     -74.8677
        XZ       0.3288     YZ      -1.9471     ZZ     -86.3166
    Octopole Moments (Debye-Ang^2)
       XXX     -72.3981    XXY      50.2008    XYY     -13.9475
       YYY     132.0172    XXZ       0.0102    XYZ      -2.1906
       YYZ      -3.0078    XZZ     -21.3598    YZZ      58.8583
       ZZZ      -3.3337
    Hexadecapole Moments (Debye-Ang^3)
      XXXX    -677.7660   XXXY    -174.5662   XXYY    -588.7929
      XYYY    -119.0066   YYYY   -2696.3024   XXXZ    -152.2527
      XXYZ     -47.0469   XYYZ     -46.0353   YYYZ    -107.7690
      XXZZ    -231.2470   XYZZ     -50.2018   YYZZ    -603.3071
      XZZZ    -161.9056   YZZZ     -94.9920   ZZZZ    -694.6343
 -----------------------------------------------------------------
 Total job time:  59.27s(wall), 1930.90s(cpu) 
 Fri Dec 15 14:06:46 2023

        *************************************************************
        *                                                           *
        *  Thank you very much for using Q-Chem.  Have a nice day.  *
        *                                                           *
        *************************************************************


0 sent ACK to 0 
now end server 0 ... 
cleanup process ... done
remove work dirs ./qchem163222.0 -- ./qchem163222.0
rm -rf ./qchem163222.0
rm -rf ./qchem163222
