You are running Q-Chem version: 5.4.0

#
# job setting
#
local host:  exp-7-18
current dir: /home/rramji/project-csd799/aromodel/p3ht-qchem/hydrogenated-rotation-run
input file:  Methylthiophene_Phi_10_Theta_120_Methylthiophene_Hydrogenated.qcin
output file: 
nprocs     : 1
nthreads   : 64
#
# qchem installation setting
#
QC:          /cm/shared/apps/spack/cpu/opt/spack/linux-centos8-zen2/gcc-10.2.0/qchem-5.4-akfmr7b3t57bfs6qan3padb2wnb2i7cl
QCAUX:       /cm/shared/apps/spack/cpu/opt/spack/linux-centos8-zen2/gcc-10.2.0/qchem-5.4-akfmr7b3t57bfs6qan3padb2wnb2i7cl/qcaux
QCPROG:      /cm/shared/apps/spack/cpu/opt/spack/linux-centos8-zen2/gcc-10.2.0/qchem-5.4-akfmr7b3t57bfs6qan3padb2wnb2i7cl/exe/qcprog.exe
QCPROG_S:    /cm/shared/apps/spack/cpu/opt/spack/linux-centos8-zen2/gcc-10.2.0/qchem-5.4-akfmr7b3t57bfs6qan3padb2wnb2i7cl/exe/qcprog.exe_s
PARALLEL:    -DPARALLEL
QCMPI:       mpich
#
# qchem directory setting
#
qcrun:       qchem2325666
QCSCRATCH:   .
QCLOCALSCR:  
QCTMPDIR:    .
QCFILEPREF:  ./qchem2325666
QCSAVEDIR:   
workdirs:    ./qchem2325666
workdir0:    ./qchem2325666
partmpdirs =  
#
# parallel setting
#
QCRSH:           ssh
QCMPI:           mpich
QCMPIRUN:        /cm/shared/apps/spack/cpu/opt/spack/linux-centos8-zen2/gcc-10.2.0/qchem-5.4-akfmr7b3t57bfs6qan3padb2wnb2i7cl/bin/mpi/mpirun_qchem
QCMACHINEFILE:   ./qchem2325666/hostfile
exp-7-18

#
# env setting
#
exported envs:   QC QCAUX QCSCRATCH QCRUNNAME QCFILEPREF QCPROG QCPROG_S GUIFILE

Running Job 1 of 1 Methylthiophene_Phi_10_Theta_120_Methylthiophene_Hydrogenated.qcin
qchem Methylthiophene_Phi_10_Theta_120_Methylthiophene_Hydrogenated.qcin_2325666.0 ./qchem2325666/ 1
/cm/shared/apps/spack/cpu/opt/spack/linux-centos8-zen2/gcc-10.2.0/qchem-5.4-akfmr7b3t57bfs6qan3padb2wnb2i7cl/bin/mpi/mpirun_qchem -machinefile ./qchem2325666/hostfile -np 1 /cm/shared/apps/spack/cpu/opt/spack/linux-centos8-zen2/gcc-10.2.0/qchem-5.4-akfmr7b3t57bfs6qan3padb2wnb2i7cl/exe/qcprog.exe Methylthiophene_Phi_10_Theta_120_Methylthiophene_Hydrogenated.qcin_2325666.0 ./qchem2325666/

Process 0 of 1 is on exp-7-18 - thread support 0
initial socket setup ...start
initial socket setup ...done 
now start server 0 ... 
                  Welcome to Q-Chem
     A Quantum Leap Into The Future Of Chemistry


 Q-Chem 5.4, Q-Chem, Inc., Pleasanton, CA (2021)

 License issued to: University of California, San Diego (site)

 E. Epifanovsky,  A. T. B. Gilbert,  Xintian Feng,  Joonho Lee,  Yuezhi Mao,  
 N. Mardirossian,  P. Pokhilko,  A. White,  M. Wormit,  M. P. Coons,  
 A. L. Dempwolff,  Zhengting Gan,  D. Hait,  P. R. Horn,  L. D. Jacobson,  
 I. Kaliman,  J. Kussmann,  A. W. Lange,  Ka Un Lao,  D. S. Levine,  Jie Liu,  
 S. C. McKenzie,  A. F. Morrison,  K. Nanda,  F. Plasser,  D. R. Rehn,  
 M. L. Vidal,  Zhi-Qiang You,  Ying Zhu,  B. Alam,  B. Albrecht,  
 A. Aldossary,  E. Alguire,  J. H. Andersen,  D. Barton,  K. Begam,  A. Behn,  
 Y. A. Bernard,  E. J. Berquist,  H. Burton,  A. Carreras,  K. Carter-Fenk,  
 R. Chakraborty,  A. D. Chien,  K. D. Closser,  V. Cofer-Shabica,  
 S. Dasgupta,  Jia Deng,  M. de Wergifosse,  M. Diedenhofen,  Hainam Do,  
 S. Ehlert,  Po-Tung Fang,  S. Fatehi,  Qingguo Feng,  J. Gayvert,  
 Qinghui Ge,  G. Gidofalvi,  M. Goldey,  J. Gomes,  C. Gonzalez-Espinoza,  
 S. Gulania,  A. Gunina,  M. W. D. Hanson-Heine,  P. H. P. Harbach,  
 A. W. Hauser,  M. F. Herbst,  M. Hernandez Vera,  M. Hodecker,  
 Z. C. Holden,  S. Houck,  Xunkun Huang,  Kerwin Hui,  B. C. Huynh,  
 M. Ivanov,  Hyunjun Ji,  Hanjie Jiang,  B. Kaduk,  S. Kaehler,  
 K. Khistyaev,  Jaehoon Kim,  P. Klunzinger,  Z. Koczor-Benda,  
 Joong Hoon Koh,  D. Kosenkov,  L. Koulias,  T. Kowalczyk,  C. M. Krauter,  
 K. Kue,  A. Kunitsa,  T. Kus,  A. Landau,  K. V. Lawler,  D. Lefrancois,  
 S. Lehtola,  Rain Li,  Yi-Pei Li,  Jiashu Liang,  M. Liebenthal,  
 Hung-Hsuan Lin,  You-Sheng Lin,  Fenglai Liu,  Kuan-Yu Liu,  
 M. Loipersberger,  A. Luenser,  A. Manjanath,  P. Manohar,  E. Mansoor,  
 S. F. Manzer,  Shan-Ping Mao,  A. V. Marenich,  T. Markovich,  S. Mason,  
 S. A. Maurer,  P. F. McLaughlin,  M. F. S. J. Menger,  J.-M. Mewes,  
 S. A. Mewes,  P. Morgante,  J. W. Mullinax,  T. S. Nguyen-Beck,  
 K. J. Oosterbaan,  G. Paran,  Alexander C. Paul,  Suranjan K. Paul,  
 F. Pavosevic,  Zheng Pei,  S. Prager,  E. I. Proynov,  E. Ramos,  B. Rana,  
 A. E. Rask,  A. Rettig,  R. M. Richard,  F. Rob,  E. Rossomme,  T. Scheele,  
 M. Scheurer,  M. Schneider,  N. Sergueev,  S. M. Sharada,  W. Skomorowski,  
 D. W. Small,  C. J. Stein,  Yu-Chuan Su,  E. J. Sundstrom,  Zhen Tao,  
 J. Thirman,  T. Tsuchimochi,  N. M. Tubman,  S. P. Veccham,  O. Vydrov,  
 J. Wenzel,  J. Witte,  A. Yamada,  Kun Yao,  S. Yeganeh,  S. R. Yost,  
 A. Zech,  Igor Ying Zhang,  Xing Zhang,  Yu Zhang,  D. Zuev,  
 A. Aspuru-Guzik,  A. T. Bell,  N. A. Besley,  K. B. Bravaya,  B. R. Brooks,  
 D. Casanova,  Jeng-Da Chai,  S. Coriani,  C. J. Cramer,  
 A. E. DePrince, III,  R. A. DiStasio Jr.,  A. Dreuw,  B. D. Dunietz,  
 T. R. Furlani,  W. A. Goddard III,  S. Grimme,  S. Hammes-Schiffer,  
 T. Head-Gordon,  W. J. Hehre,  Chao-Ping Hsu,  T.-C. Jagau,  Yousung Jung,  
 A. Klamt,  Jing Kong,  D. S. Lambrecht,  WanZhen Liang,  N. J. Mayhall,  
 C. W. McCurdy,  J. B. Neaton,  C. Ochsenfeld,  J. A. Parkhill,  R. Peverati,  
 V. A. Rassolov,  Yihan Shao,  L. V. Slipchenko,  T. Stauch,  R. P. Steele,  
 J. E. Subotnik,  A. J. W. Thom,  A. Tkatchenko,  D. G. Truhlar,  
 T. Van Voorhis,  T. A. Wesolowski,  K. B. Whaley,  H. L. Woodcock III,  
 P. M. Zimmerman,  S. Faraji,  P. M. W. Gill,  M. Head-Gordon,  
 J. M. Herbert,  A. I. Krylov

 Contributors to earlier versions of Q-Chem not listed above: 
 R. D. Adamson,  B. Austin,  R. Baer,  J. Baker,  G. J. O. Beran,  
 K. Brandhorst,  S. T. Brown,  E. F. C. Byrd,  A. K. Chakraborty,  
 G. K. L. Chan,  Chun-Min Chang,  Yunqing Chen,  C.-L. Cheng,  
 Siu Hung Chien,  D. M. Chipman,  D. L. Crittenden,  H. Dachsel,  
 R. J. Doerksen,  A. D. Dutoi,  R. G. Edgar,  J. Fosso-Tande,  
 L. Fusti-Molnar,  D. Ghosh,  A. Ghysels,  A. Golubeva-Zadorozhnaya,  
 J. Gonthier,  M. S. Gordon,  S. R. Gwaltney,  G. Hawkins,  J. E. Herr,  
 A. Heyden,  S. Hirata,  E. G. Hohenstein,  G. Kedziora,  F. J. Keil,  
 C. Kelley,  Jihan Kim,  R. A. King,  R. Z. Khaliullin,  P. P. Korambath,  
 W. Kurlancheek,  A. Laurent,  A. M. Lee,  M. S. Lee,  S. V. Levchenko,  
 Ching Yeh Lin,  D. Liotard,  E. Livshits,  R. C. Lochan,  I. Lotan,  
 L. A. Martinez-Martinez,  P. E. Maslen,  N. Nair,  D. P. O'Neill,  
 D. Neuhauser,  E. Neuscamman,  C. M. Oana,  R. Olivares-Amaya,  R. Olson,  
 T. M. Perrine,  B. Peters,  P. A. Pieniazek,  A. Prociuk,  Y. M. Rhee,  
 J. Ritchie,  M. A. Rohrdanz,  E. Rosta,  N. J. Russ,  H. F. Schaefer III,  
 M. W. Schmidt,  N. E. Schultz,  S. Sharma,  N. Shenvi,  C. D. Sherrill,  
 A. C. Simmonett,  A. Sodt,  T. Stein,  D. Stuck,  K. S. Thanthiriwatte,  
 V. Vanovschi,  L. Vogt,  Tao Wang,  A. Warshel,  M. A. Watson,  
 C. F. Williams,  Q. Wu,  X. Xu,  Jun Yang,  W. Zhang,  Yan Zhao

 Please cite Q-Chem as follows:
 Y. Shao et al., Mol. Phys. 113, 184-215 (2015)
 DOI: 10.1080/00268976.2014.952696

 Q-Chem 5.4.0 for Intel X86 EM64T Linux

 Parts of Q-Chem use Armadillo 9.800.1 (Horizon Scraper).
 http://arma.sourceforge.net/

 Q-Chem begins on Fri Dec 15 14:05:40 2023  

 Host: 
0

     Scratch files written to ./qchem2325666//
 May1621 |scratch|qcdevops|jenkins|workspace|build_RNUM    
 Parallel job on  1  processors
 Processing $rem in /cm/shared/apps/spack/cpu/opt/spack/linux-centos8-zen2/gcc-10.2.0/qchem-5.4-akfmr7b3t57bfs6qan3padb2wnb2i7cl/config/preferences:
 Processing $rem in /home/rramji/.qchemrc:
 Symmetry turned off for PCM/SM12/SMD calculation
 Core orbitals will be frozen

 Checking the input file for inconsistencies... 	...done.

 Q-Chem warning in module forms1/BasisType.C, line 2236:

 You are not using the predefined 5D/6D in this basis set.


--------------------------------------------------------------
User input:
--------------------------------------------------------------
$molecule
0 1
C	-0.626855	-3.887800	-0.363176
C	0.573074	-3.701456	0.329669
C	0.940016	-2.345170	0.542250
H	1.184837	-4.545233	0.682412
C	0.000000	-1.450135	0.000000
S	-1.322686	-2.321334	-0.764076
C	2.192440	-1.934439	1.265537
H	2.768365	-2.819799	1.597559
H	1.967653	-1.326210	2.166534
H	2.860032	-1.325374	0.620843
C	0.000000	0.000000	0.000000
C	0.143630	0.832309	1.113020
C	0.380550	2.202961	0.820578
H	0.077556	0.449877	2.142881
C	0.422995	2.447456	-0.563588
S	0.164909	0.956502	-1.464748
C	0.561888	3.252016	1.882380
H	0.485513	2.810624	2.894974
H	-0.205711	4.050482	1.808137
H	1.553045	3.746365	1.808230
H	0.586105	3.391501	-1.097114
H	-1.365344	-4.420219	0.246643
H	-0.467758	-4.419395	-1.308062
H	-0.539988	-1.450628	0.935314
$end

$rem
JOBTYPE		SP
EXCHANGE	HF
CORRELATION	pRIMP2
BASIS		cc-pvtz
METHOD		rimp2
AUX_BASIS	rimp2-cc-pvtz
SOLVENT_METHOD	PCM
PURECART	11111
SYMMETRY	false
MEM_TOTAL	110000
SCF_CONVERGENCE = 6
THRESH=10
GUI = 2
$end



$solvent
dielectric 4.90
$end
--------------------------------------------------------------
 ----------------------------------------------------------------
             Standard Nuclear Orientation (Angstroms)
    I     Atom           X                Y                Z
 ----------------------------------------------------------------
    1      C      -0.6268550000    -3.8878000000    -0.3631760000
    2      C       0.5730740000    -3.7014560000     0.3296690000
    3      C       0.9400160000    -2.3451700000     0.5422500000
    4      H       1.1848370000    -4.5452330000     0.6824120000
    5      C       0.0000000000    -1.4501350000     0.0000000000
    6      S      -1.3226860000    -2.3213340000    -0.7640760000
    7      C       2.1924400000    -1.9344390000     1.2655370000
    8      H       2.7683650000    -2.8197990000     1.5975590000
    9      H       1.9676530000    -1.3262100000     2.1665340000
   10      H       2.8600320000    -1.3253740000     0.6208430000
   11      C       0.0000000000     0.0000000000     0.0000000000
   12      C       0.1436300000     0.8323090000     1.1130200000
   13      C       0.3805500000     2.2029610000     0.8205780000
   14      H       0.0775560000     0.4498770000     2.1428810000
   15      C       0.4229950000     2.4474560000    -0.5635880000
   16      S       0.1649090000     0.9565020000    -1.4647480000
   17      C       0.5618880000     3.2520160000     1.8823800000
   18      H       0.4855130000     2.8106240000     2.8949740000
   19      H      -0.2057110000     4.0504820000     1.8081370000
   20      H       1.5530450000     3.7463650000     1.8082300000
   21      H       0.5861050000     3.3915010000    -1.0971140000
   22      H      -1.3653440000    -4.4202190000     0.2466430000
   23      H      -0.4677580000    -4.4193950000    -1.3080620000
   24      H      -0.5399880000    -1.4506280000     0.9353140000
 ----------------------------------------------------------------
 Nuclear Repulsion Energy =         872.33989241 hartrees
 There are       52 alpha and       52 beta electrons
 Requested basis set is cc-pVTZ
 There are 196 shells and 536 basis functions

 Total QAlloc Memory Limit 110000 MB
 Mega-Array Size       188 MB
 MEM_STATIC part       192 MB
 Discretize the solute cavity surface with Lebedev spheres
	Using 110 Lebedev grid points for each H atom
	Using 194 Lebedev grid points for other atoms
	Atomic van der Waals radii will be scaled by 1.20
 Remove points where switching function is < 1.0e-08
 Keep 1614 surface tesserae and discard 2034 interior tesserae
 Molecular Surface Area = 237.233 Angst**2
 Requested basis set is rimp2-cc-pVTZ
 There are 414 shells and 1414 basis functions
 A cutoff of  1.0D-10 yielded  14067 shell pairs
 There are    102065 function pairs (    130904 Cartesian)
 Smallest overlap matrix eigenvalue = 5.86E-05

 Scale SEOQF with 1.000000e-01/1.000000e-01/1.000000e-01

 Standard Electronic Orientation quadrupole field applied
 Nucleus-field energy     =     0.0000000330 hartrees
 Guess from superposition of atomic densities
 Warning:  Energy on first SCF cycle will be non-variational
 SAD guess density has 104.000000 electrons

 -----------------------------------------------------------------------
  General SCF calculation program by
  Eric Jon Sundstrom, Paul Horn, Yuezhi Mao, Dmitri Zuev, Alec White,
  David Stuck, Shaama M.S., Shane Yost, Joonho Lee, David Small,
  Daniel Levine, Susi Lehtola, Hugh Burton, Evgeny Epifanovsky,
  Bang C. Huynh
 -----------------------------------------------------------------------
 Hartree-Fock
 using 64 threads for integral computing
 -------------------------------------------------------
 OpenMP Integral computing Module                
 Release: version 1.0, May 2013, Q-Chem Inc. Pittsburgh 
 -------------------------------------------------------
 A restricted SCF calculation will be
 performed using DIIS
 SCF converges when DIIS error is below 1.0e-06
 ---------------------------------------
  Cycle       Energy         DIIS error
 ---------------------------------------
    1   -1186.0022408198      2.38e-02  
    2   -1180.6193007976      1.55e-03  
    3   -1180.7434587924      5.99e-04  
    4   -1180.7573739393      3.32e-04  
    5   -1180.7623555604      5.86e-05  
    6   -1180.7625896106      2.38e-05  
    7   -1180.7626438041      8.60e-06  
    8   -1180.7626559323      4.11e-06  
    9   -1180.7626586667      1.44e-06  
   10   -1180.7626591139      5.05e-07  Convergence criterion met
 ---------------------------------------
 SCF time:   CPU 1653.43s  wall 49.00s 

************** Final PCM Free Energy Summary **************
 G_electrostatic  =      -0.00944915 hartree =      -5.92943070 kcal/mol
 G_cavitation     =       0.00000000 hartree =       0.00000000 kcal/mol
 G_dispersion     =       0.00000000 hartree =       0.00000000 kcal/mol
 G_repulsion      =       0.00000000 hartree =       0.00000000 kcal/mol
 --------------------------------------------------
 Non-electrostatic Free Energy =       0.00000000 hartree =       0.00000000 kcal/mol
 Total                         =      -0.00944915 hartree =      -5.92943070 kcal/mol
 --------------------------------------------------
 SCF Energy (H0 + V/2)                       =   -1180.76265911 
 Solute Internal Energy (H0)                 =   -1180.75320996 
 Total Free Energy (H0 + V/2 + non-elec)     =   -1180.76265911 hartree
                                             = -740939.75159710 kcal/mol
***********************************************************

 SCF   energy in the final basis set =    -1180.7626591139
 Total energy in the final basis set =    -1180.7626591139


 --------------------------------------------------------------
  Generalized many-body perturbation theory program
  by Joonho Lee, Fazle Rob, Xintian Feng, Evgeny Epifanovsky

 No regularization used 
 (reg. param. = 0.0000e+00)
  (P|Q)^-1/2 Time:  CPU 26.97 s  wall 0.43 s

 In RI-MP2 calculation: 
 # of frozen core orbitals: 20

 Components of the RIMP2 correlation energy:
        aaaa    correlation energy =        -0.2511996007 a.u.
        abab    correlation energy =        -1.5028502425 a.u.
        bbbb    correlation energy =        -0.2511996007 a.u.
        non-Brillouin singles      =        -0.0000000000 a.u.
        total same-spin energy     =        -0.5023992014 a.u.
        total opposite-spin energy =        -1.5028502425 a.u.

 Total  RIMP2   correlation energy =        -2.0052494438 a.u.
        RIMP2         total energy =     -1182.7679085577 a.u.

 RI-MP2 Energy Time:  CPU 209.36 s  wall 3.42 s
 
 --------------------------------------------------------------
 
                    Orbital Energies (a.u.)
 --------------------------------------------------------------
 
 Alpha MOs
 -- Occupied --
-91.9812 -91.9426 -11.2828 -11.2635 -11.2634 -11.2573 -11.2512 -11.2418
-11.2411 -11.2315 -11.2296 -11.2200  -8.9811  -8.9472  -6.6620  -6.6614
 -6.6609  -6.6286  -6.6276  -6.6263  -1.1981  -1.1536  -1.0575  -1.0267
 -1.0044  -0.9611  -0.9122  -0.9012  -0.8154  -0.7598  -0.7328  -0.7050
 -0.6595  -0.6425  -0.6110  -0.5902  -0.5826  -0.5710  -0.5625  -0.5526
 -0.5413  -0.5301  -0.5162  -0.5060  -0.4889  -0.4816  -0.4614  -0.4481
 -0.3559  -0.3417  -0.3175  -0.2770
 -- Virtual --
  0.0972   0.1320   0.1426   0.1495   0.1580   0.1710   0.1744   0.1851
  0.1903   0.1961   0.2033   0.2159   0.2227   0.2335   0.2349   0.2435
  0.2522   0.2604   0.2765   0.2993   0.3100   0.3411   0.3421   0.3612
  0.3620   0.3719   0.3844   0.3935   0.3989   0.4041   0.4100   0.4131
  0.4309   0.4386   0.4470   0.4609   0.4696   0.4789   0.4862   0.4921
  0.4948   0.5115   0.5129   0.5258   0.5356   0.5415   0.5462   0.5606
  0.5653   0.5794   0.5862   0.5976   0.6002   0.6061   0.6078   0.6166
  0.6223   0.6265   0.6303   0.6417   0.6422   0.6478   0.6505   0.6546
  0.6591   0.6715   0.6814   0.6838   0.6958   0.7009   0.7185   0.7284
  0.7327   0.7442   0.7587   0.7688   0.7792   0.7874   0.8083   0.8235
  0.8292   0.8341   0.8558   0.8691   0.8779   0.8876   0.9004   0.9103
  0.9276   0.9378   0.9467   0.9607   0.9743   0.9918   0.9985   1.0107
  1.0144   1.0306   1.0432   1.0441   1.0505   1.0635   1.0750   1.0856
  1.0868   1.0947   1.1207   1.1245   1.1300   1.1527   1.1592   1.1774
  1.1821   1.1917   1.1987   1.2048   1.2137   1.2167   1.2321   1.2426
  1.2523   1.2609   1.2658   1.2738   1.2747   1.2801   1.3052   1.3263
  1.3398   1.3419   1.3569   1.3674   1.3765   1.3894   1.3953   1.4063
  1.4147   1.4332   1.4510   1.4638   1.4763   1.4792   1.4887   1.4997
  1.5088   1.5178   1.5222   1.5262   1.5382   1.5415   1.5467   1.5554
  1.5770   1.5833   1.5883   1.5983   1.6133   1.6191   1.6258   1.6338
  1.6548   1.6585   1.6788   1.6876   1.7029   1.7089   1.7270   1.7353
  1.7457   1.7552   1.7759   1.7801   1.8125   1.8131   1.8466   1.8776
  1.8830   1.9076   1.9203   1.9408   1.9440   1.9555   2.0021   2.0085
  2.0194   2.0282   2.0360   2.0521   2.0702   2.1220   2.1413   2.1531
  2.1842   2.1975   2.2088   2.2228   2.2447   2.2495   2.2619   2.2779
  2.2944   2.3090   2.3209   2.3642   2.3996   2.4417   2.4632   2.4754
  2.4864   2.5217   2.5364   2.5472   2.5761   2.5916   2.6033   2.6300
  2.6377   2.6488   2.6584   2.6678   2.6770   2.6822   2.6978   2.7230
  2.7403   2.7468   2.7581   2.7658   2.7784   2.7819   2.8060   2.8233
  2.8469   2.8526   2.8554   2.8681   2.8891   2.9041   2.9089   2.9165
  2.9296   2.9525   2.9657   2.9699   3.0017   3.0135   3.0234   3.0396
  3.0488   3.0730   3.0883   3.0984   3.1113   3.1177   3.1290   3.1394
  3.1516   3.1628   3.1692   3.1779   3.1854   3.1919   3.2039   3.2147
  3.2254   3.2414   3.2534   3.2573   3.2778   3.2891   3.2993   3.3020
  3.3085   3.3246   3.3303   3.3360   3.3450   3.3537   3.3579   3.3644
  3.3750   3.3775   3.3879   3.3941   3.4109   3.4161   3.4288   3.4346
  3.4481   3.4538   3.4568   3.4700   3.4756   3.4904   3.4928   3.4980
  3.5190   3.5261   3.5338   3.5442   3.5482   3.5626   3.5685   3.5760
  3.5796   3.6005   3.6155   3.6201   3.6332   3.6399   3.6515   3.6573
  3.6680   3.6737   3.6911   3.6996   3.7046   3.7223   3.7331   3.7400
  3.7530   3.7542   3.7721   3.7819   3.7920   3.7976   3.8004   3.8180
  3.8381   3.8511   3.8556   3.8669   3.8766   3.8847   3.9041   3.9145
  3.9293   3.9418   3.9433   3.9634   3.9715   3.9964   4.0104   4.0137
  4.0206   4.0399   4.0460   4.0552   4.0635   4.0746   4.0876   4.0992
  4.1226   4.1280   4.1421   4.1526   4.1607   4.1771   4.1880   4.1933
  4.2108   4.2187   4.2281   4.2312   4.2439   4.2616   4.2749   4.2851
  4.2979   4.3023   4.3125   4.3249   4.3318   4.3523   4.3686   4.3727
  4.3791   4.3852   4.4007   4.4102   4.4192   4.4286   4.4306   4.4462
  4.4522   4.4682   4.4744   4.4862   4.5100   4.5196   4.5266   4.5390
  4.5640   4.6035   4.6125   4.6288   4.6304   4.6488   4.6564   4.6745
  4.6797   4.7164   4.7410   4.7518   4.7835   4.7995   4.8249   4.8384
  4.8509   4.8733   4.8972   4.9220   4.9365   4.9551   4.9686   4.9763
  5.0088   5.0585   5.0893   5.1100   5.1247   5.1301   5.1387   5.1768
  5.2038   5.2085   5.2347   5.2655   5.2730   5.2852   5.3046   5.3278
  5.3357   5.3580   5.3804   5.3915   5.4097   5.4314   5.4356   5.4469
  5.4642   5.5192   5.5252   5.5411   5.5484   5.5616   5.5715   5.6053
  5.6105   5.6207   5.6274   5.6487   5.6667   5.6956   5.7112   5.7353
  5.7735   5.7965   5.8309   5.9670   6.0174   6.1044   6.1295   6.1653
  6.2111   6.2238   6.2269   6.2321   6.2569   6.2779   6.2999   6.3181
  6.3830   6.5334   9.3620  10.5293  11.9966  12.9468  13.1707  13.8951
 14.0893  14.1972  14.3701  14.9199
 --------------------------------------------------------------
 
          Ground-State Mulliken Net Atomic Charges

     Atom                 Charge (a.u.)
  ----------------------------------------
      1 C                    -0.075661
      2 C                    -0.326748
      3 C                    -0.030730
      4 H                     0.177684
      5 C                     0.087836
      6 S                    -0.176197
      7 C                    -0.268705
      8 H                     0.116045
      9 H                     0.098359
     10 H                     0.112002
     11 C                    -0.071588
     12 C                    -0.255036
     13 C                     0.020246
     14 H                     0.187465
     15 C                    -0.242988
     16 S                     0.006276
     17 C                    -0.271953
     18 H                     0.101745
     19 H                     0.108837
     20 H                     0.108252
     21 H                     0.197345
     22 H                     0.111577
     23 H                     0.111400
     24 H                     0.174536
  ----------------------------------------
  Sum of atomic charges =     0.000000

 -----------------------------------------------------------------
                    Cartesian Multipole Moments
 -----------------------------------------------------------------
    Charge (ESU x 10^10)
                -0.0000
    Dipole Moment (Debye)
         X       2.0119      Y       0.4161      Z       3.4289
       Tot       3.9972
    Quadrupole Moments (Debye-Ang)
        XX     -91.1474     XY      -0.6123     YY     -73.8946
        XZ       0.1332     YZ      -1.8540     ZZ     -86.3229
    Octopole Moments (Debye-Ang^2)
       XXX     -37.0710    XXY      43.1092    XYY      -7.6687
       YYY     125.7107    XXZ       0.1454    XYZ      -1.9393
       YYZ      -3.1081    XZZ     -10.7897    YZZ      55.8549
       ZZZ      -3.6602
    Hexadecapole Moments (Debye-Ang^3)
      XXXX    -591.4556   XXXY    -102.1822   XXYY    -598.6706
      XYYY     -58.0243   YYYY   -2758.9937   XXXZ    -135.0048
      XXYZ     -46.9935   XYYZ     -37.8109   YYYZ    -113.4982
      XXZZ    -219.2935   XYZZ     -29.3122   YYZZ    -614.7389
      XZZZ    -144.6379   YZZZ     -99.7869   ZZZZ    -694.6772
 -----------------------------------------------------------------
 Total job time:  56.95s(wall), 1932.96s(cpu) 
 Fri Dec 15 14:06:37 2023

        *************************************************************
        *                                                           *
        *  Thank you very much for using Q-Chem.  Have a nice day.  *
        *                                                           *
        *************************************************************


0 sent ACK to 0 
now end server 0 ... 
cleanup process ... done
remove work dirs ./qchem2325666.0 -- ./qchem2325666.0
rm -rf ./qchem2325666.0
rm -rf ./qchem2325666
