You are running Q-Chem version: 5.4.0

#
# job setting
#
local host:  exp-6-20
current dir: /home/rramji/project-csd799/aromodel/p3ht-qchem/hydrogenated-rotation-run
input file:  Methylthiophene_Phi_5_Theta_270_Methylthiophene_Hydrogenated.qcin
output file: 
nprocs     : 1
nthreads   : 64
#
# qchem installation setting
#
QC:          /cm/shared/apps/spack/cpu/opt/spack/linux-centos8-zen2/gcc-10.2.0/qchem-5.4-akfmr7b3t57bfs6qan3padb2wnb2i7cl
QCAUX:       /cm/shared/apps/spack/cpu/opt/spack/linux-centos8-zen2/gcc-10.2.0/qchem-5.4-akfmr7b3t57bfs6qan3padb2wnb2i7cl/qcaux
QCPROG:      /cm/shared/apps/spack/cpu/opt/spack/linux-centos8-zen2/gcc-10.2.0/qchem-5.4-akfmr7b3t57bfs6qan3padb2wnb2i7cl/exe/qcprog.exe
QCPROG_S:    /cm/shared/apps/spack/cpu/opt/spack/linux-centos8-zen2/gcc-10.2.0/qchem-5.4-akfmr7b3t57bfs6qan3padb2wnb2i7cl/exe/qcprog.exe_s
PARALLEL:    -DPARALLEL
QCMPI:       mpich
#
# qchem directory setting
#
qcrun:       qchem2822309
QCSCRATCH:   .
QCLOCALSCR:  
QCTMPDIR:    .
QCFILEPREF:  ./qchem2822309
QCSAVEDIR:   
workdirs:    ./qchem2822309
workdir0:    ./qchem2822309
partmpdirs =  
#
# parallel setting
#
QCRSH:           ssh
QCMPI:           mpich
QCMPIRUN:        /cm/shared/apps/spack/cpu/opt/spack/linux-centos8-zen2/gcc-10.2.0/qchem-5.4-akfmr7b3t57bfs6qan3padb2wnb2i7cl/bin/mpi/mpirun_qchem
QCMACHINEFILE:   ./qchem2822309/hostfile
exp-6-20

#
# env setting
#
exported envs:   QC QCAUX QCSCRATCH QCRUNNAME QCFILEPREF QCPROG QCPROG_S GUIFILE

Running Job 1 of 1 Methylthiophene_Phi_5_Theta_270_Methylthiophene_Hydrogenated.qcin
qchem Methylthiophene_Phi_5_Theta_270_Methylthiophene_Hydrogenated.qcin_2822309.0 ./qchem2822309/ 1
/cm/shared/apps/spack/cpu/opt/spack/linux-centos8-zen2/gcc-10.2.0/qchem-5.4-akfmr7b3t57bfs6qan3padb2wnb2i7cl/bin/mpi/mpirun_qchem -machinefile ./qchem2822309/hostfile -np 1 /cm/shared/apps/spack/cpu/opt/spack/linux-centos8-zen2/gcc-10.2.0/qchem-5.4-akfmr7b3t57bfs6qan3padb2wnb2i7cl/exe/qcprog.exe Methylthiophene_Phi_5_Theta_270_Methylthiophene_Hydrogenated.qcin_2822309.0 ./qchem2822309/

Process 0 of 1 is on exp-6-20 - thread support 0
initial socket setup ...start
initial socket setup ...done 
now start server 0 ... 
                  Welcome to Q-Chem
     A Quantum Leap Into The Future Of Chemistry


 Q-Chem 5.4, Q-Chem, Inc., Pleasanton, CA (2021)

 License issued to: University of California, San Diego (site)

 E. Epifanovsky,  A. T. B. Gilbert,  Xintian Feng,  Joonho Lee,  Yuezhi Mao,  
 N. Mardirossian,  P. Pokhilko,  A. White,  M. Wormit,  M. P. Coons,  
 A. L. Dempwolff,  Zhengting Gan,  D. Hait,  P. R. Horn,  L. D. Jacobson,  
 I. Kaliman,  J. Kussmann,  A. W. Lange,  Ka Un Lao,  D. S. Levine,  Jie Liu,  
 S. C. McKenzie,  A. F. Morrison,  K. Nanda,  F. Plasser,  D. R. Rehn,  
 M. L. Vidal,  Zhi-Qiang You,  Ying Zhu,  B. Alam,  B. Albrecht,  
 A. Aldossary,  E. Alguire,  J. H. Andersen,  D. Barton,  K. Begam,  A. Behn,  
 Y. A. Bernard,  E. J. Berquist,  H. Burton,  A. Carreras,  K. Carter-Fenk,  
 R. Chakraborty,  A. D. Chien,  K. D. Closser,  V. Cofer-Shabica,  
 S. Dasgupta,  Jia Deng,  M. de Wergifosse,  M. Diedenhofen,  Hainam Do,  
 S. Ehlert,  Po-Tung Fang,  S. Fatehi,  Qingguo Feng,  J. Gayvert,  
 Qinghui Ge,  G. Gidofalvi,  M. Goldey,  J. Gomes,  C. Gonzalez-Espinoza,  
 S. Gulania,  A. Gunina,  M. W. D. Hanson-Heine,  P. H. P. Harbach,  
 A. W. Hauser,  M. F. Herbst,  M. Hernandez Vera,  M. Hodecker,  
 Z. C. Holden,  S. Houck,  Xunkun Huang,  Kerwin Hui,  B. C. Huynh,  
 M. Ivanov,  Hyunjun Ji,  Hanjie Jiang,  B. Kaduk,  S. Kaehler,  
 K. Khistyaev,  Jaehoon Kim,  P. Klunzinger,  Z. Koczor-Benda,  
 Joong Hoon Koh,  D. Kosenkov,  L. Koulias,  T. Kowalczyk,  C. M. Krauter,  
 K. Kue,  A. Kunitsa,  T. Kus,  A. Landau,  K. V. Lawler,  D. Lefrancois,  
 S. Lehtola,  Rain Li,  Yi-Pei Li,  Jiashu Liang,  M. Liebenthal,  
 Hung-Hsuan Lin,  You-Sheng Lin,  Fenglai Liu,  Kuan-Yu Liu,  
 M. Loipersberger,  A. Luenser,  A. Manjanath,  P. Manohar,  E. Mansoor,  
 S. F. Manzer,  Shan-Ping Mao,  A. V. Marenich,  T. Markovich,  S. Mason,  
 S. A. Maurer,  P. F. McLaughlin,  M. F. S. J. Menger,  J.-M. Mewes,  
 S. A. Mewes,  P. Morgante,  J. W. Mullinax,  T. S. Nguyen-Beck,  
 K. J. Oosterbaan,  G. Paran,  Alexander C. Paul,  Suranjan K. Paul,  
 F. Pavosevic,  Zheng Pei,  S. Prager,  E. I. Proynov,  E. Ramos,  B. Rana,  
 A. E. Rask,  A. Rettig,  R. M. Richard,  F. Rob,  E. Rossomme,  T. Scheele,  
 M. Scheurer,  M. Schneider,  N. Sergueev,  S. M. Sharada,  W. Skomorowski,  
 D. W. Small,  C. J. Stein,  Yu-Chuan Su,  E. J. Sundstrom,  Zhen Tao,  
 J. Thirman,  T. Tsuchimochi,  N. M. Tubman,  S. P. Veccham,  O. Vydrov,  
 J. Wenzel,  J. Witte,  A. Yamada,  Kun Yao,  S. Yeganeh,  S. R. Yost,  
 A. Zech,  Igor Ying Zhang,  Xing Zhang,  Yu Zhang,  D. Zuev,  
 A. Aspuru-Guzik,  A. T. Bell,  N. A. Besley,  K. B. Bravaya,  B. R. Brooks,  
 D. Casanova,  Jeng-Da Chai,  S. Coriani,  C. J. Cramer,  
 A. E. DePrince, III,  R. A. DiStasio Jr.,  A. Dreuw,  B. D. Dunietz,  
 T. R. Furlani,  W. A. Goddard III,  S. Grimme,  S. Hammes-Schiffer,  
 T. Head-Gordon,  W. J. Hehre,  Chao-Ping Hsu,  T.-C. Jagau,  Yousung Jung,  
 A. Klamt,  Jing Kong,  D. S. Lambrecht,  WanZhen Liang,  N. J. Mayhall,  
 C. W. McCurdy,  J. B. Neaton,  C. Ochsenfeld,  J. A. Parkhill,  R. Peverati,  
 V. A. Rassolov,  Yihan Shao,  L. V. Slipchenko,  T. Stauch,  R. P. Steele,  
 J. E. Subotnik,  A. J. W. Thom,  A. Tkatchenko,  D. G. Truhlar,  
 T. Van Voorhis,  T. A. Wesolowski,  K. B. Whaley,  H. L. Woodcock III,  
 P. M. Zimmerman,  S. Faraji,  P. M. W. Gill,  M. Head-Gordon,  
 J. M. Herbert,  A. I. Krylov

 Contributors to earlier versions of Q-Chem not listed above: 
 R. D. Adamson,  B. Austin,  R. Baer,  J. Baker,  G. J. O. Beran,  
 K. Brandhorst,  S. T. Brown,  E. F. C. Byrd,  A. K. Chakraborty,  
 G. K. L. Chan,  Chun-Min Chang,  Yunqing Chen,  C.-L. Cheng,  
 Siu Hung Chien,  D. M. Chipman,  D. L. Crittenden,  H. Dachsel,  
 R. J. Doerksen,  A. D. Dutoi,  R. G. Edgar,  J. Fosso-Tande,  
 L. Fusti-Molnar,  D. Ghosh,  A. Ghysels,  A. Golubeva-Zadorozhnaya,  
 J. Gonthier,  M. S. Gordon,  S. R. Gwaltney,  G. Hawkins,  J. E. Herr,  
 A. Heyden,  S. Hirata,  E. G. Hohenstein,  G. Kedziora,  F. J. Keil,  
 C. Kelley,  Jihan Kim,  R. A. King,  R. Z. Khaliullin,  P. P. Korambath,  
 W. Kurlancheek,  A. Laurent,  A. M. Lee,  M. S. Lee,  S. V. Levchenko,  
 Ching Yeh Lin,  D. Liotard,  E. Livshits,  R. C. Lochan,  I. Lotan,  
 L. A. Martinez-Martinez,  P. E. Maslen,  N. Nair,  D. P. O'Neill,  
 D. Neuhauser,  E. Neuscamman,  C. M. Oana,  R. Olivares-Amaya,  R. Olson,  
 T. M. Perrine,  B. Peters,  P. A. Pieniazek,  A. Prociuk,  Y. M. Rhee,  
 J. Ritchie,  M. A. Rohrdanz,  E. Rosta,  N. J. Russ,  H. F. Schaefer III,  
 M. W. Schmidt,  N. E. Schultz,  S. Sharma,  N. Shenvi,  C. D. Sherrill,  
 A. C. Simmonett,  A. Sodt,  T. Stein,  D. Stuck,  K. S. Thanthiriwatte,  
 V. Vanovschi,  L. Vogt,  Tao Wang,  A. Warshel,  M. A. Watson,  
 C. F. Williams,  Q. Wu,  X. Xu,  Jun Yang,  W. Zhang,  Yan Zhao

 Please cite Q-Chem as follows:
 Y. Shao et al., Mol. Phys. 113, 184-215 (2015)
 DOI: 10.1080/00268976.2014.952696

 Q-Chem 5.4.0 for Intel X86 EM64T Linux

 Parts of Q-Chem use Armadillo 9.800.1 (Horizon Scraper).
 http://arma.sourceforge.net/

 Q-Chem begins on Fri Dec 15 14:20:46 2023  

 Host: 
0

     Scratch files written to ./qchem2822309//
 May1621 |scratch|qcdevops|jenkins|workspace|build_RNUM    
 Parallel job on  1  processors
 Processing $rem in /cm/shared/apps/spack/cpu/opt/spack/linux-centos8-zen2/gcc-10.2.0/qchem-5.4-akfmr7b3t57bfs6qan3padb2wnb2i7cl/config/preferences:
 Processing $rem in /home/rramji/.qchemrc:
 Symmetry turned off for PCM/SM12/SMD calculation
 Core orbitals will be frozen

 Checking the input file for inconsistencies... 	...done.

 Q-Chem warning in module forms1/BasisType.C, line 2236:

 You are not using the predefined 5D/6D in this basis set.


--------------------------------------------------------------
User input:
--------------------------------------------------------------
$molecule
0 1
C	0.724460	-3.887800	0.001092
C	-0.661131	-3.701456	0.001036
C	-1.085203	-2.345170	0.000406
H	-1.367305	-4.545233	0.001433
C	-0.000000	-1.450135	-0.000000
S	1.527517	-2.321334	0.000367
C	-2.531478	-1.934439	0.000233
H	-3.196254	-2.819799	0.000656
H	-2.787305	-1.326210	-0.892447
H	-2.787282	-1.325374	0.892350
C	0.000000	0.000000	0.000000
C	0.070542	0.841660	1.113020
C	0.187101	2.227746	0.820578
H	0.038051	0.454925	2.142881
C	0.208076	2.475009	-0.563588
S	0.080917	0.967235	-1.464748
C	0.276318	3.288613	1.882380
H	0.238704	2.842244	2.894974
H	-0.557951	4.017140	1.808137
H	1.220618	3.867466	1.808230
H	0.288286	3.429678	-1.097114
H	1.059101	-4.420219	-0.896272
H	1.059122	-4.419395	0.898936
H	-0.000014	-1.450628	-1.080000
$end

$rem
JOBTYPE		SP
EXCHANGE	HF
CORRELATION	pRIMP2
BASIS		cc-pvtz
METHOD		rimp2
AUX_BASIS	rimp2-cc-pvtz
SOLVENT_METHOD	PCM
PURECART	11111
SYMMETRY	false
MEM_TOTAL	110000
SCF_CONVERGENCE = 6
THRESH=10
GUI = 2
$end



$solvent
dielectric 4.90
$end
--------------------------------------------------------------
 ----------------------------------------------------------------
             Standard Nuclear Orientation (Angstroms)
    I     Atom           X                Y                Z
 ----------------------------------------------------------------
    1      C       0.7244600000    -3.8878000000     0.0010920000
    2      C      -0.6611310000    -3.7014560000     0.0010360000
    3      C      -1.0852030000    -2.3451700000     0.0004060000
    4      H      -1.3673050000    -4.5452330000     0.0014330000
    5      C       0.0000000000    -1.4501350000     0.0000000000
    6      S       1.5275170000    -2.3213340000     0.0003670000
    7      C      -2.5314780000    -1.9344390000     0.0002330000
    8      H      -3.1962540000    -2.8197990000     0.0006560000
    9      H      -2.7873050000    -1.3262100000    -0.8924470000
   10      H      -2.7872820000    -1.3253740000     0.8923500000
   11      C       0.0000000000     0.0000000000     0.0000000000
   12      C       0.0705420000     0.8416600000     1.1130200000
   13      C       0.1871010000     2.2277460000     0.8205780000
   14      H       0.0380510000     0.4549250000     2.1428810000
   15      C       0.2080760000     2.4750090000    -0.5635880000
   16      S       0.0809170000     0.9672350000    -1.4647480000
   17      C       0.2763180000     3.2886130000     1.8823800000
   18      H       0.2387040000     2.8422440000     2.8949740000
   19      H      -0.5579510000     4.0171400000     1.8081370000
   20      H       1.2206180000     3.8674660000     1.8082300000
   21      H       0.2882860000     3.4296780000    -1.0971140000
   22      H       1.0591010000    -4.4202190000    -0.8962720000
   23      H       1.0591220000    -4.4193950000     0.8989360000
   24      H      -0.0000140000    -1.4506280000    -1.0800000000
 ----------------------------------------------------------------
 Nuclear Repulsion Energy =         870.83729241 hartrees
 There are       52 alpha and       52 beta electrons
 Requested basis set is cc-pVTZ
 There are 196 shells and 536 basis functions

 Total QAlloc Memory Limit 110000 MB
 Mega-Array Size       188 MB
 MEM_STATIC part       192 MB
 Discretize the solute cavity surface with Lebedev spheres
	Using 110 Lebedev grid points for each H atom
	Using 194 Lebedev grid points for other atoms
	Atomic van der Waals radii will be scaled by 1.20
 Remove points where switching function is < 1.0e-08
 Keep 1613 surface tesserae and discard 2035 interior tesserae
 Molecular Surface Area = 240.881 Angst**2
 Requested basis set is rimp2-cc-pVTZ
 There are 414 shells and 1414 basis functions
 A cutoff of  1.0D-10 yielded  13849 shell pairs
 There are    100335 function pairs (    128741 Cartesian)
 Smallest overlap matrix eigenvalue = 6.51E-05

 Scale SEOQF with 1.000000e-01/1.000000e-01/1.000000e-01

 Standard Electronic Orientation quadrupole field applied
 Nucleus-field energy     =     0.0000000373 hartrees
 Guess from superposition of atomic densities
 Warning:  Energy on first SCF cycle will be non-variational
 SAD guess density has 104.000000 electrons

 -----------------------------------------------------------------------
  General SCF calculation program by
  Eric Jon Sundstrom, Paul Horn, Yuezhi Mao, Dmitri Zuev, Alec White,
  David Stuck, Shaama M.S., Shane Yost, Joonho Lee, David Small,
  Daniel Levine, Susi Lehtola, Hugh Burton, Evgeny Epifanovsky,
  Bang C. Huynh
 -----------------------------------------------------------------------
 Hartree-Fock
 using 64 threads for integral computing
 -------------------------------------------------------
 OpenMP Integral computing Module                
 Release: version 1.0, May 2013, Q-Chem Inc. Pittsburgh 
 -------------------------------------------------------
 A restricted SCF calculation will be
 performed using DIIS
 SCF converges when DIIS error is below 1.0e-06
 ---------------------------------------
  Cycle       Energy         DIIS error
 ---------------------------------------
    1   -1185.9971689138      2.38e-02  
    2   -1180.6167444809      1.56e-03  
    3   -1180.7416546794      6.04e-04  
    4   -1180.7558696537      3.25e-04  
    5   -1180.7607188430      6.04e-05  
    6   -1180.7609650941      2.46e-05  
    7   -1180.7610249304      9.17e-06  
    8   -1180.7610387421      4.48e-06  
    9   -1180.7610419600      1.48e-06  
   10   -1180.7610424330      5.03e-07  Convergence criterion met
 ---------------------------------------
 SCF time:   CPU 1650.55s  wall 49.00s 

************** Final PCM Free Energy Summary **************
 G_electrostatic  =      -0.00879692 hartree =      -5.52015173 kcal/mol
 G_cavitation     =       0.00000000 hartree =       0.00000000 kcal/mol
 G_dispersion     =       0.00000000 hartree =       0.00000000 kcal/mol
 G_repulsion      =       0.00000000 hartree =       0.00000000 kcal/mol
 --------------------------------------------------
 Non-electrostatic Free Energy =       0.00000000 hartree =       0.00000000 kcal/mol
 Total                         =      -0.00879692 hartree =      -5.52015173 kcal/mol
 --------------------------------------------------
 SCF Energy (H0 + V/2)                       =   -1180.76104243 
 Solute Internal Energy (H0)                 =   -1180.75224551 
 Total Free Energy (H0 + V/2 + non-elec)     =   -1180.76104243 hartree
                                             = -740938.73711452 kcal/mol
***********************************************************

 SCF   energy in the final basis set =    -1180.7610424330
 Total energy in the final basis set =    -1180.7610424330


 --------------------------------------------------------------
  Generalized many-body perturbation theory program
  by Joonho Lee, Fazle Rob, Xintian Feng, Evgeny Epifanovsky

 No regularization used 
 (reg. param. = 0.0000e+00)
  (P|Q)^-1/2 Time:  CPU 19.62 s  wall 0.31 s

 In RI-MP2 calculation: 
 # of frozen core orbitals: 20

 Components of the RIMP2 correlation energy:
        aaaa    correlation energy =        -0.2507746090 a.u.
        abab    correlation energy =        -1.5021554799 a.u.
        bbbb    correlation energy =        -0.2507746090 a.u.
        non-Brillouin singles      =        -0.0000000000 a.u.
        total same-spin energy     =        -0.5015492180 a.u.
        total opposite-spin energy =        -1.5021554799 a.u.

 Total  RIMP2   correlation energy =        -2.0037046979 a.u.
        RIMP2         total energy =     -1182.7647471308 a.u.

 RI-MP2 Energy Time:  CPU 164.44 s  wall 2.96 s
 
 --------------------------------------------------------------
 
                    Orbital Energies (a.u.)
 --------------------------------------------------------------
 
 Alpha MOs
 -- Occupied --
-91.9871 -91.9418 -11.2788 -11.2659 -11.2622 -11.2555 -11.2510 -11.2410
-11.2380 -11.2312 -11.2289 -11.2185  -8.9866  -8.9463  -6.6675  -6.6670
 -6.6664  -6.6277  -6.6267  -6.6254  -1.1970  -1.1537  -1.0573  -1.0257
 -1.0029  -0.9625  -0.9129  -0.9005  -0.8124  -0.7621  -0.7402  -0.7034
 -0.6535  -0.6336  -0.6112  -0.5875  -0.5768  -0.5722  -0.5687  -0.5533
 -0.5420  -0.5293  -0.5119  -0.5051  -0.4919  -0.4829  -0.4634  -0.4489
 -0.3564  -0.3407  -0.3124  -0.2825
 -- Virtual --
  0.0954   0.1275   0.1419   0.1512   0.1595   0.1672   0.1770   0.1833
  0.1865   0.1945   0.2044   0.2147   0.2271   0.2325   0.2390   0.2439
  0.2484   0.2595   0.2682   0.2929   0.3021   0.3374   0.3426   0.3513
  0.3675   0.3744   0.3783   0.3819   0.3901   0.3978   0.4121   0.4212
  0.4378   0.4441   0.4558   0.4612   0.4657   0.4771   0.4825   0.4873
  0.4986   0.5110   0.5235   0.5291   0.5346   0.5387   0.5438   0.5528
  0.5752   0.5776   0.5813   0.5929   0.6018   0.6073   0.6122   0.6197
  0.6211   0.6281   0.6308   0.6370   0.6395   0.6433   0.6485   0.6518
  0.6629   0.6691   0.6752   0.6828   0.6946   0.7004   0.7104   0.7270
  0.7349   0.7469   0.7505   0.7688   0.7793   0.8039   0.8114   0.8207
  0.8315   0.8396   0.8482   0.8578   0.8691   0.8991   0.9050   0.9211
  0.9244   0.9361   0.9458   0.9527   0.9616   0.9875   0.9981   1.0050
  1.0205   1.0241   1.0348   1.0436   1.0615   1.0656   1.0684   1.0800
  1.0890   1.0972   1.0998   1.1207   1.1296   1.1514   1.1604   1.1695
  1.1724   1.1900   1.1928   1.2100   1.2134   1.2203   1.2343   1.2466
  1.2536   1.2596   1.2634   1.2714   1.2819   1.2955   1.3135   1.3186
  1.3269   1.3391   1.3447   1.3536   1.3624   1.3793   1.4054   1.4123
  1.4234   1.4312   1.4524   1.4562   1.4585   1.4776   1.4893   1.4961
  1.5028   1.5111   1.5177   1.5299   1.5350   1.5409   1.5482   1.5553
  1.5658   1.5763   1.5835   1.5907   1.6117   1.6239   1.6337   1.6368
  1.6568   1.6781   1.6865   1.6952   1.7076   1.7093   1.7211   1.7286
  1.7409   1.7453   1.7651   1.7774   1.7904   1.8224   1.8493   1.8564
  1.8814   1.9083   1.9133   1.9325   1.9565   1.9747   1.9922   2.0023
  2.0131   2.0217   2.0281   2.0541   2.0908   2.1217   2.1264   2.1422
  2.1842   2.1909   2.2042   2.2150   2.2269   2.2435   2.2673   2.2712
  2.3170   2.3280   2.3455   2.3739   2.4095   2.4384   2.4564   2.4610
  2.4911   2.5125   2.5201   2.5390   2.5632   2.5943   2.6057   2.6180
  2.6262   2.6321   2.6521   2.6549   2.6778   2.6819   2.7012   2.7198
  2.7430   2.7468   2.7516   2.7608   2.7756   2.7765   2.7982   2.8342
  2.8425   2.8504   2.8575   2.8847   2.8878   2.9066   2.9093   2.9183
  2.9197   2.9525   2.9693   2.9829   3.0077   3.0268   3.0351   3.0390
  3.0664   3.0690   3.0943   3.1095   3.1117   3.1225   3.1362   3.1403
  3.1424   3.1557   3.1578   3.1734   3.1788   3.1979   3.2127   3.2192
  3.2345   3.2389   3.2448   3.2609   3.2739   3.2865   3.2982   3.2984
  3.3169   3.3273   3.3299   3.3370   3.3480   3.3497   3.3545   3.3619
  3.3772   3.3821   3.3898   3.3983   3.4004   3.4068   3.4150   3.4269
  3.4378   3.4504   3.4598   3.4730   3.4838   3.4912   3.5010   3.5081
  3.5131   3.5262   3.5335   3.5362   3.5450   3.5555   3.5703   3.5774
  3.5839   3.5997   3.6136   3.6189   3.6287   3.6371   3.6509   3.6574
  3.6630   3.6759   3.6863   3.6948   3.7054   3.7206   3.7273   3.7362
  3.7426   3.7468   3.7601   3.7788   3.7838   3.7934   3.8050   3.8250
  3.8273   3.8331   3.8604   3.8701   3.8729   3.8828   3.9023   3.9207
  3.9264   3.9324   3.9477   3.9555   3.9742   3.9931   4.0032   4.0110
  4.0326   4.0471   4.0512   4.0557   4.0722   4.0780   4.0927   4.1017
  4.1260   4.1339   4.1479   4.1588   4.1655   4.1676   4.1762   4.1988
  4.2126   4.2226   4.2339   4.2437   4.2492   4.2587   4.2750   4.2783
  4.2857   4.2945   4.3175   4.3263   4.3396   4.3505   4.3665   4.3705
  4.3775   4.3924   4.4005   4.4022   4.4109   4.4245   4.4300   4.4438
  4.4629   4.4652   4.4747   4.4835   4.4971   4.5119   4.5271   4.5631
  4.5728   4.5982   4.6135   4.6180   4.6256   4.6413   4.6455   4.6624
  4.6915   4.7166   4.7379   4.7454   4.7619   4.8059   4.8214   4.8319
  4.8472   4.8809   4.8895   4.9029   4.9361   4.9617   4.9699   4.9973
  5.0059   5.0341   5.0681   5.0993   5.1129   5.1265   5.1511   5.1849
  5.1988   5.2108   5.2216   5.2639   5.2751   5.2868   5.3088   5.3189
  5.3529   5.3674   5.3771   5.4018   5.4038   5.4188   5.4426   5.4538
  5.4751   5.5216   5.5261   5.5457   5.5476   5.5559   5.5774   5.5883
  5.6206   5.6247   5.6390   5.6621   5.6783   5.7024   5.7040   5.7385
  5.7615   5.7867   5.8335   5.9597   5.9887   6.0635   6.1259   6.1492
  6.2037   6.2172   6.2262   6.2319   6.2521   6.2808   6.3097   6.3255
  6.3738   6.5082   9.3784  10.6544  12.0392  12.9372  13.1753  14.0030
 14.0491  14.2166  14.3391  14.6478
 --------------------------------------------------------------
 
          Ground-State Mulliken Net Atomic Charges

     Atom                 Charge (a.u.)
  ----------------------------------------
      1 C                    -0.076013
      2 C                    -0.330146
      3 C                    -0.028664
      4 H                     0.177033
      5 C                     0.113187
      6 S                    -0.176615
      7 C                    -0.266127
      8 H                     0.112513
      9 H                     0.101816
     10 H                     0.105440
     11 C                    -0.120150
     12 C                    -0.216050
     13 C                     0.018094
     14 H                     0.184689
     15 C                    -0.244317
     16 S                     0.016346
     17 C                    -0.272160
     18 H                     0.103063
     19 H                     0.107486
     20 H                     0.108393
     21 H                     0.199354
     22 H                     0.110417
     23 H                     0.112639
     24 H                     0.159774
  ----------------------------------------
  Sum of atomic charges =     0.000000

 -----------------------------------------------------------------
                    Cartesian Multipole Moments
 -----------------------------------------------------------------
    Charge (ESU x 10^10)
                -0.0000
    Dipole Moment (Debye)
         X      -2.2573      Y       0.7642      Z       0.7381
       Tot       2.4948
    Quadrupole Moments (Debye-Ang)
        XX     -91.6819     XY       4.6360     YY     -73.7897
        XZ      -0.1991     YZ       2.4487     ZZ     -85.9071
    Octopole Moments (Debye-Ang^2)
       XXX     -21.0072    XXY      41.3180    XYY      -1.1665
       YYY     127.7982    XXZ      -2.4108    XYZ       0.6059
       YYZ      -7.1670    XZZ      -2.1040    YZZ      56.4114
       ZZZ       0.5552
    Hexadecapole Moments (Debye-Ang^3)
      XXXX    -707.0585   XXXY     -10.3506   XXYY    -620.7531
      XYYY     -34.0845   YYYY   -2782.1158   XXXZ     -10.2413
      XXYZ     -31.7512   XYYZ      -6.6137   YYYZ    -111.9415
      XXZZ    -222.4572   XYZZ     -15.4852   YYZZ    -599.0389
      XZZZ      -9.3625   YZZZ    -102.5562   ZZZZ    -543.5023
 -----------------------------------------------------------------
 Total job time:  55.19s(wall), 1899.42s(cpu) 
 Fri Dec 15 14:21:42 2023

        *************************************************************
        *                                                           *
        *  Thank you very much for using Q-Chem.  Have a nice day.  *
        *                                                           *
        *************************************************************


0 sent ACK to 0 
now end server 0 ... 
cleanup process ... done
remove work dirs ./qchem2822309.0 -- ./qchem2822309.0
rm -rf ./qchem2822309.0
rm -rf ./qchem2822309
