You are running Q-Chem version: 5.4.0

#
# job setting
#
local host:  exp-6-20
current dir: /home/rramji/project-csd799/aromodel/p3ht-qchem/hydrogenated-rotation-run
input file:  Methylthiophene_Phi_60_Theta_0_Methylthiophene_Hydrogenated.qcin
output file: 
nprocs     : 1
nthreads   : 64
#
# qchem installation setting
#
QC:          /cm/shared/apps/spack/cpu/opt/spack/linux-centos8-zen2/gcc-10.2.0/qchem-5.4-akfmr7b3t57bfs6qan3padb2wnb2i7cl
QCAUX:       /cm/shared/apps/spack/cpu/opt/spack/linux-centos8-zen2/gcc-10.2.0/qchem-5.4-akfmr7b3t57bfs6qan3padb2wnb2i7cl/qcaux
QCPROG:      /cm/shared/apps/spack/cpu/opt/spack/linux-centos8-zen2/gcc-10.2.0/qchem-5.4-akfmr7b3t57bfs6qan3padb2wnb2i7cl/exe/qcprog.exe
QCPROG_S:    /cm/shared/apps/spack/cpu/opt/spack/linux-centos8-zen2/gcc-10.2.0/qchem-5.4-akfmr7b3t57bfs6qan3padb2wnb2i7cl/exe/qcprog.exe_s
PARALLEL:    -DPARALLEL
QCMPI:       mpich
#
# qchem directory setting
#
qcrun:       qchem2810336
QCSCRATCH:   .
QCLOCALSCR:  
QCTMPDIR:    .
QCFILEPREF:  ./qchem2810336
QCSAVEDIR:   
workdirs:    ./qchem2810336
workdir0:    ./qchem2810336
partmpdirs =  
#
# parallel setting
#
QCRSH:           ssh
QCMPI:           mpich
QCMPIRUN:        /cm/shared/apps/spack/cpu/opt/spack/linux-centos8-zen2/gcc-10.2.0/qchem-5.4-akfmr7b3t57bfs6qan3padb2wnb2i7cl/bin/mpi/mpirun_qchem
QCMACHINEFILE:   ./qchem2810336/hostfile
exp-6-20

#
# env setting
#
exported envs:   QC QCAUX QCSCRATCH QCRUNNAME QCFILEPREF QCPROG QCPROG_S GUIFILE

Running Job 1 of 1 Methylthiophene_Phi_60_Theta_0_Methylthiophene_Hydrogenated.qcin
qchem Methylthiophene_Phi_60_Theta_0_Methylthiophene_Hydrogenated.qcin_2810336.0 ./qchem2810336/ 1
/cm/shared/apps/spack/cpu/opt/spack/linux-centos8-zen2/gcc-10.2.0/qchem-5.4-akfmr7b3t57bfs6qan3padb2wnb2i7cl/bin/mpi/mpirun_qchem -machinefile ./qchem2810336/hostfile -np 1 /cm/shared/apps/spack/cpu/opt/spack/linux-centos8-zen2/gcc-10.2.0/qchem-5.4-akfmr7b3t57bfs6qan3padb2wnb2i7cl/exe/qcprog.exe Methylthiophene_Phi_60_Theta_0_Methylthiophene_Hydrogenated.qcin_2810336.0 ./qchem2810336/

Process 0 of 1 is on exp-6-20 - thread support 0
initial socket setup ...start
initial socket setup ...done 
now start server 0 ... 
                  Welcome to Q-Chem
     A Quantum Leap Into The Future Of Chemistry


 Q-Chem 5.4, Q-Chem, Inc., Pleasanton, CA (2021)

 License issued to: University of California, San Diego (site)

 E. Epifanovsky,  A. T. B. Gilbert,  Xintian Feng,  Joonho Lee,  Yuezhi Mao,  
 N. Mardirossian,  P. Pokhilko,  A. White,  M. Wormit,  M. P. Coons,  
 A. L. Dempwolff,  Zhengting Gan,  D. Hait,  P. R. Horn,  L. D. Jacobson,  
 I. Kaliman,  J. Kussmann,  A. W. Lange,  Ka Un Lao,  D. S. Levine,  Jie Liu,  
 S. C. McKenzie,  A. F. Morrison,  K. Nanda,  F. Plasser,  D. R. Rehn,  
 M. L. Vidal,  Zhi-Qiang You,  Ying Zhu,  B. Alam,  B. Albrecht,  
 A. Aldossary,  E. Alguire,  J. H. Andersen,  D. Barton,  K. Begam,  A. Behn,  
 Y. A. Bernard,  E. J. Berquist,  H. Burton,  A. Carreras,  K. Carter-Fenk,  
 R. Chakraborty,  A. D. Chien,  K. D. Closser,  V. Cofer-Shabica,  
 S. Dasgupta,  Jia Deng,  M. de Wergifosse,  M. Diedenhofen,  Hainam Do,  
 S. Ehlert,  Po-Tung Fang,  S. Fatehi,  Qingguo Feng,  J. Gayvert,  
 Qinghui Ge,  G. Gidofalvi,  M. Goldey,  J. Gomes,  C. Gonzalez-Espinoza,  
 S. Gulania,  A. Gunina,  M. W. D. Hanson-Heine,  P. H. P. Harbach,  
 A. W. Hauser,  M. F. Herbst,  M. Hernandez Vera,  M. Hodecker,  
 Z. C. Holden,  S. Houck,  Xunkun Huang,  Kerwin Hui,  B. C. Huynh,  
 M. Ivanov,  Hyunjun Ji,  Hanjie Jiang,  B. Kaduk,  S. Kaehler,  
 K. Khistyaev,  Jaehoon Kim,  P. Klunzinger,  Z. Koczor-Benda,  
 Joong Hoon Koh,  D. Kosenkov,  L. Koulias,  T. Kowalczyk,  C. M. Krauter,  
 K. Kue,  A. Kunitsa,  T. Kus,  A. Landau,  K. V. Lawler,  D. Lefrancois,  
 S. Lehtola,  Rain Li,  Yi-Pei Li,  Jiashu Liang,  M. Liebenthal,  
 Hung-Hsuan Lin,  You-Sheng Lin,  Fenglai Liu,  Kuan-Yu Liu,  
 M. Loipersberger,  A. Luenser,  A. Manjanath,  P. Manohar,  E. Mansoor,  
 S. F. Manzer,  Shan-Ping Mao,  A. V. Marenich,  T. Markovich,  S. Mason,  
 S. A. Maurer,  P. F. McLaughlin,  M. F. S. J. Menger,  J.-M. Mewes,  
 S. A. Mewes,  P. Morgante,  J. W. Mullinax,  T. S. Nguyen-Beck,  
 K. J. Oosterbaan,  G. Paran,  Alexander C. Paul,  Suranjan K. Paul,  
 F. Pavosevic,  Zheng Pei,  S. Prager,  E. I. Proynov,  E. Ramos,  B. Rana,  
 A. E. Rask,  A. Rettig,  R. M. Richard,  F. Rob,  E. Rossomme,  T. Scheele,  
 M. Scheurer,  M. Schneider,  N. Sergueev,  S. M. Sharada,  W. Skomorowski,  
 D. W. Small,  C. J. Stein,  Yu-Chuan Su,  E. J. Sundstrom,  Zhen Tao,  
 J. Thirman,  T. Tsuchimochi,  N. M. Tubman,  S. P. Veccham,  O. Vydrov,  
 J. Wenzel,  J. Witte,  A. Yamada,  Kun Yao,  S. Yeganeh,  S. R. Yost,  
 A. Zech,  Igor Ying Zhang,  Xing Zhang,  Yu Zhang,  D. Zuev,  
 A. Aspuru-Guzik,  A. T. Bell,  N. A. Besley,  K. B. Bravaya,  B. R. Brooks,  
 D. Casanova,  Jeng-Da Chai,  S. Coriani,  C. J. Cramer,  
 A. E. DePrince, III,  R. A. DiStasio Jr.,  A. Dreuw,  B. D. Dunietz,  
 T. R. Furlani,  W. A. Goddard III,  S. Grimme,  S. Hammes-Schiffer,  
 T. Head-Gordon,  W. J. Hehre,  Chao-Ping Hsu,  T.-C. Jagau,  Yousung Jung,  
 A. Klamt,  Jing Kong,  D. S. Lambrecht,  WanZhen Liang,  N. J. Mayhall,  
 C. W. McCurdy,  J. B. Neaton,  C. Ochsenfeld,  J. A. Parkhill,  R. Peverati,  
 V. A. Rassolov,  Yihan Shao,  L. V. Slipchenko,  T. Stauch,  R. P. Steele,  
 J. E. Subotnik,  A. J. W. Thom,  A. Tkatchenko,  D. G. Truhlar,  
 T. Van Voorhis,  T. A. Wesolowski,  K. B. Whaley,  H. L. Woodcock III,  
 P. M. Zimmerman,  S. Faraji,  P. M. W. Gill,  M. Head-Gordon,  
 J. M. Herbert,  A. I. Krylov

 Contributors to earlier versions of Q-Chem not listed above: 
 R. D. Adamson,  B. Austin,  R. Baer,  J. Baker,  G. J. O. Beran,  
 K. Brandhorst,  S. T. Brown,  E. F. C. Byrd,  A. K. Chakraborty,  
 G. K. L. Chan,  Chun-Min Chang,  Yunqing Chen,  C.-L. Cheng,  
 Siu Hung Chien,  D. M. Chipman,  D. L. Crittenden,  H. Dachsel,  
 R. J. Doerksen,  A. D. Dutoi,  R. G. Edgar,  J. Fosso-Tande,  
 L. Fusti-Molnar,  D. Ghosh,  A. Ghysels,  A. Golubeva-Zadorozhnaya,  
 J. Gonthier,  M. S. Gordon,  S. R. Gwaltney,  G. Hawkins,  J. E. Herr,  
 A. Heyden,  S. Hirata,  E. G. Hohenstein,  G. Kedziora,  F. J. Keil,  
 C. Kelley,  Jihan Kim,  R. A. King,  R. Z. Khaliullin,  P. P. Korambath,  
 W. Kurlancheek,  A. Laurent,  A. M. Lee,  M. S. Lee,  S. V. Levchenko,  
 Ching Yeh Lin,  D. Liotard,  E. Livshits,  R. C. Lochan,  I. Lotan,  
 L. A. Martinez-Martinez,  P. E. Maslen,  N. Nair,  D. P. O'Neill,  
 D. Neuhauser,  E. Neuscamman,  C. M. Oana,  R. Olivares-Amaya,  R. Olson,  
 T. M. Perrine,  B. Peters,  P. A. Pieniazek,  A. Prociuk,  Y. M. Rhee,  
 J. Ritchie,  M. A. Rohrdanz,  E. Rosta,  N. J. Russ,  H. F. Schaefer III,  
 M. W. Schmidt,  N. E. Schultz,  S. Sharma,  N. Shenvi,  C. D. Sherrill,  
 A. C. Simmonett,  A. Sodt,  T. Stein,  D. Stuck,  K. S. Thanthiriwatte,  
 V. Vanovschi,  L. Vogt,  Tao Wang,  A. Warshel,  M. A. Watson,  
 C. F. Williams,  Q. Wu,  X. Xu,  Jun Yang,  W. Zhang,  Yan Zhao

 Please cite Q-Chem as follows:
 Y. Shao et al., Mol. Phys. 113, 184-215 (2015)
 DOI: 10.1080/00268976.2014.952696

 Q-Chem 5.4.0 for Intel X86 EM64T Linux

 Parts of Q-Chem use Armadillo 9.800.1 (Horizon Scraper).
 http://arma.sourceforge.net/

 Q-Chem begins on Fri Dec 15 13:53:52 2023  

 Host: 
0

     Scratch files written to ./qchem2810336//
 May1621 |scratch|qcdevops|jenkins|workspace|build_RNUM    
 Parallel job on  1  processors
 Processing $rem in /cm/shared/apps/spack/cpu/opt/spack/linux-centos8-zen2/gcc-10.2.0/qchem-5.4-akfmr7b3t57bfs6qan3padb2wnb2i7cl/config/preferences:
 Processing $rem in /home/rramji/.qchemrc:
 Symmetry turned off for PCM/SM12/SMD calculation
 Core orbitals will be frozen

 Checking the input file for inconsistencies... 	...done.

 Q-Chem warning in module forms1/BasisType.C, line 2236:

 You are not using the predefined 5D/6D in this basis set.


--------------------------------------------------------------
User input:
--------------------------------------------------------------
$molecule
0 1
C	0.674034	-3.828925	0.724460
C	0.641731	-3.645403	-0.661131
C	0.406834	-2.309612	-1.085203
H	0.787861	-4.476429	-1.367305
C	0.251813	-1.428104	0.000000
S	0.402734	-2.286131	1.527517
C	0.335682	-1.905091	-2.531478
H	0.489007	-2.777074	-3.196254
H	1.109183	-1.151090	-2.787305
H	-0.648644	-1.460194	-2.787282
C	0.000000	0.000000	0.000000
C	0.645024	0.545262	1.113020
C	1.707554	1.442954	0.820578
H	0.348587	0.294774	2.142881
C	1.897227	1.602964	-0.563588
S	0.741155	0.626722	-1.464748
C	2.520787	2.130014	1.882380
H	2.178559	1.840981	2.894974
H	2.446016	3.235078	1.808137
H	3.597818	1.871604	1.808230
H	2.628997	2.221299	-1.097114
H	1.650218	-4.197430	1.059101
H	-0.117859	-4.508353	1.059122
H	1.315491	-1.241050	-0.000014
$end

$rem
JOBTYPE		SP
EXCHANGE	HF
CORRELATION	pRIMP2
BASIS		cc-pvtz
METHOD		rimp2
AUX_BASIS	rimp2-cc-pvtz
SOLVENT_METHOD	PCM
PURECART	11111
SYMMETRY	false
MEM_TOTAL	110000
SCF_CONVERGENCE = 6
THRESH=10
GUI = 2
$end



$solvent
dielectric 4.90
$end
--------------------------------------------------------------
 ----------------------------------------------------------------
             Standard Nuclear Orientation (Angstroms)
    I     Atom           X                Y                Z
 ----------------------------------------------------------------
    1      C       0.6740340000    -3.8289250000     0.7244600000
    2      C       0.6417310000    -3.6454030000    -0.6611310000
    3      C       0.4068340000    -2.3096120000    -1.0852030000
    4      H       0.7878610000    -4.4764290000    -1.3673050000
    5      C       0.2518130000    -1.4281040000     0.0000000000
    6      S       0.4027340000    -2.2861310000     1.5275170000
    7      C       0.3356820000    -1.9050910000    -2.5314780000
    8      H       0.4890070000    -2.7770740000    -3.1962540000
    9      H       1.1091830000    -1.1510900000    -2.7873050000
   10      H      -0.6486440000    -1.4601940000    -2.7872820000
   11      C       0.0000000000     0.0000000000     0.0000000000
   12      C       0.6450240000     0.5452620000     1.1130200000
   13      C       1.7075540000     1.4429540000     0.8205780000
   14      H       0.3485870000     0.2947740000     2.1428810000
   15      C       1.8972270000     1.6029640000    -0.5635880000
   16      S       0.7411550000     0.6267220000    -1.4647480000
   17      C       2.5207870000     2.1300140000     1.8823800000
   18      H       2.1785590000     1.8409810000     2.8949740000
   19      H       2.4460160000     3.2350780000     1.8081370000
   20      H       3.5978180000     1.8716040000     1.8082300000
   21      H       2.6289970000     2.2212990000    -1.0971140000
   22      H       1.6502180000    -4.1974300000     1.0591010000
   23      H      -0.1178590000    -4.5083530000     1.0591220000
   24      H       1.3154910000    -1.2410500000    -0.0000140000
 ----------------------------------------------------------------
 Nuclear Repulsion Energy =         905.69267013 hartrees
 There are       52 alpha and       52 beta electrons
 Requested basis set is cc-pVTZ
 There are 196 shells and 536 basis functions

 Total QAlloc Memory Limit 110000 MB
 Mega-Array Size       188 MB
 MEM_STATIC part       192 MB
 Discretize the solute cavity surface with Lebedev spheres
	Using 110 Lebedev grid points for each H atom
	Using 194 Lebedev grid points for other atoms
	Atomic van der Waals radii will be scaled by 1.20
 Remove points where switching function is < 1.0e-08
 Keep 1536 surface tesserae and discard 2112 interior tesserae
 Molecular Surface Area = 224.172 Angst**2
 Requested basis set is rimp2-cc-pVTZ
 There are 414 shells and 1414 basis functions
 A cutoff of  1.0D-10 yielded  14620 shell pairs
 There are    106084 function pairs (    135988 Cartesian)
 Smallest overlap matrix eigenvalue = 6.79E-05

 Scale SEOQF with 1.000000e-01/1.000000e-01/1.000000e-01

 Standard Electronic Orientation quadrupole field applied
 Nucleus-field energy     =     0.0000000164 hartrees
 Guess from superposition of atomic densities
 Warning:  Energy on first SCF cycle will be non-variational
 SAD guess density has 104.000000 electrons

 -----------------------------------------------------------------------
  General SCF calculation program by
  Eric Jon Sundstrom, Paul Horn, Yuezhi Mao, Dmitri Zuev, Alec White,
  David Stuck, Shaama M.S., Shane Yost, Joonho Lee, David Small,
  Daniel Levine, Susi Lehtola, Hugh Burton, Evgeny Epifanovsky,
  Bang C. Huynh
 -----------------------------------------------------------------------
 Hartree-Fock
 using 64 threads for integral computing
 -------------------------------------------------------
 OpenMP Integral computing Module                
 Release: version 1.0, May 2013, Q-Chem Inc. Pittsburgh 
 -------------------------------------------------------
 A restricted SCF calculation will be
 performed using DIIS
 SCF converges when DIIS error is below 1.0e-06
 ---------------------------------------
  Cycle       Energy         DIIS error
 ---------------------------------------
    1   -1186.2705797829      2.42e-02  
    2   -1180.5232450823      1.55e-03  
    3   -1180.6520708958      5.66e-04  
    4   -1180.6661916880      3.05e-04  
    5   -1180.6705902452      6.47e-05  
    6   -1180.6708911277      2.69e-05  
    7   -1180.6709780566      1.23e-05  
    8   -1180.6710019227      5.83e-06  
    9   -1180.6710093047      3.04e-06  
   10   -1180.6710113068      1.28e-06  
   11   -1180.6710117051      6.03e-07  Convergence criterion met
 ---------------------------------------
 SCF time:   CPU 2030.86s  wall 87.00s 

************** Final PCM Free Energy Summary **************
 G_electrostatic  =      -0.00875439 hartree =      -5.49346259 kcal/mol
 G_cavitation     =       0.00000000 hartree =       0.00000000 kcal/mol
 G_dispersion     =       0.00000000 hartree =       0.00000000 kcal/mol
 G_repulsion      =       0.00000000 hartree =       0.00000000 kcal/mol
 --------------------------------------------------
 Non-electrostatic Free Energy =       0.00000000 hartree =       0.00000000 kcal/mol
 Total                         =      -0.00875439 hartree =      -5.49346259 kcal/mol
 --------------------------------------------------
 SCF Energy (H0 + V/2)                       =   -1180.67101171 
 Solute Internal Energy (H0)                 =   -1180.66225732 
 Total Free Energy (H0 + V/2 + non-elec)     =   -1180.67101171 hartree
                                             = -740882.24198011 kcal/mol
***********************************************************

 SCF   energy in the final basis set =    -1180.6710117051
 Total energy in the final basis set =    -1180.6710117051


 --------------------------------------------------------------
  Generalized many-body perturbation theory program
  by Joonho Lee, Fazle Rob, Xintian Feng, Evgeny Epifanovsky

 No regularization used 
 (reg. param. = 0.0000e+00)
  (P|Q)^-1/2 Time:  CPU 27.94 s  wall 0.45 s

 In RI-MP2 calculation: 
 # of frozen core orbitals: 20

 Components of the RIMP2 correlation energy:
        aaaa    correlation energy =        -0.2563048353 a.u.
        abab    correlation energy =        -1.5169170676 a.u.
        bbbb    correlation energy =        -0.2563048353 a.u.
        non-Brillouin singles      =        -0.0000000000 a.u.
        total same-spin energy     =        -0.5126096707 a.u.
        total opposite-spin energy =        -1.5169170676 a.u.

 Total  RIMP2   correlation energy =        -2.0295267383 a.u.
        RIMP2         total energy =     -1182.7005384434 a.u.

 RI-MP2 Energy Time:  CPU 175.86 s  wall 3.34 s
 
 --------------------------------------------------------------
 
                    Orbital Energies (a.u.)
 --------------------------------------------------------------
 
 Alpha MOs
 -- Occupied --
-91.9752 -91.9407 -11.2818 -11.2641 -11.2582 -11.2571 -11.2536 -11.2489
-11.2398 -11.2300 -11.2253 -11.2162  -8.9775  -8.9455  -6.6581  -6.6573
 -6.6569  -6.6268  -6.6258  -6.6246  -1.2121  -1.1532  -1.0615  -1.0290
 -1.0067  -0.9550  -0.9131  -0.9066  -0.8051  -0.7757  -0.7235  -0.7032
 -0.6614  -0.6455  -0.6144  -0.5887  -0.5869  -0.5738  -0.5708  -0.5521
 -0.5403  -0.5356  -0.5191  -0.5155  -0.4900  -0.4590  -0.4473  -0.4347
 -0.3567  -0.3369  -0.3289  -0.2604
 -- Virtual --
  0.0641   0.1324   0.1485   0.1548   0.1607   0.1691   0.1777   0.1862
  0.1896   0.1955   0.1982   0.2054   0.2200   0.2362   0.2391   0.2442
  0.2640   0.2699   0.2798   0.3037   0.3050   0.3191   0.3484   0.3585
  0.3663   0.3696   0.3748   0.3841   0.4003   0.4089   0.4184   0.4314
  0.4400   0.4475   0.4640   0.4674   0.4728   0.4778   0.4819   0.4920
  0.5047   0.5139   0.5215   0.5282   0.5334   0.5437   0.5484   0.5668
  0.5706   0.5799   0.5853   0.6028   0.6062   0.6113   0.6161   0.6192
  0.6231   0.6248   0.6298   0.6392   0.6439   0.6487   0.6569   0.6600
  0.6616   0.6831   0.6857   0.6962   0.6982   0.7096   0.7180   0.7278
  0.7450   0.7565   0.7655   0.7708   0.7822   0.7882   0.8081   0.8204
  0.8406   0.8495   0.8569   0.8665   0.8683   0.8927   0.9036   0.9141
  0.9291   0.9382   0.9522   0.9585   0.9672   0.9877   1.0007   1.0210
  1.0234   1.0366   1.0445   1.0476   1.0601   1.0688   1.0858   1.0919
  1.0966   1.1185   1.1212   1.1321   1.1495   1.1611   1.1663   1.1762
  1.1825   1.1971   1.2014   1.2047   1.2203   1.2253   1.2379   1.2456
  1.2595   1.2646   1.2681   1.2904   1.2980   1.3054   1.3126   1.3155
  1.3226   1.3317   1.3456   1.3658   1.3790   1.3969   1.4017   1.4261
  1.4338   1.4457   1.4494   1.4604   1.4633   1.4715   1.4814   1.4924
  1.5099   1.5174   1.5266   1.5291   1.5343   1.5455   1.5467   1.5549
  1.5653   1.5753   1.5838   1.5996   1.6110   1.6280   1.6424   1.6501
  1.6572   1.6654   1.6781   1.6887   1.6976   1.7008   1.7251   1.7365
  1.7495   1.7568   1.7857   1.8030   1.8091   1.8309   1.8462   1.8692
  1.8812   1.9115   1.9386   1.9792   1.9879   2.0012   2.0077   2.0236
  2.0335   2.0563   2.0657   2.0972   2.1024   2.1255   2.1309   2.1654
  2.1845   2.1880   2.2067   2.2200   2.2286   2.2384   2.2681   2.2857
  2.3061   2.3187   2.3611   2.3892   2.4059   2.4476   2.4487   2.4738
  2.4912   2.5263   2.5332   2.5560   2.5843   2.5947   2.6148   2.6275
  2.6320   2.6566   2.6618   2.6735   2.6956   2.7055   2.7186   2.7287
  2.7462   2.7606   2.7649   2.7786   2.7879   2.8124   2.8212   2.8314
  2.8450   2.8520   2.8638   2.8857   2.9019   2.9232   2.9357   2.9424
  2.9608   2.9722   2.9856   2.9989   3.0119   3.0278   3.0352   3.0437
  3.0547   3.0902   3.1030   3.1104   3.1207   3.1290   3.1415   3.1508
  3.1539   3.1678   3.1729   3.1869   3.1918   3.2045   3.2114   3.2221
  3.2328   3.2396   3.2582   3.2660   3.2715   3.2902   3.2931   3.3032
  3.3070   3.3168   3.3235   3.3395   3.3445   3.3508   3.3694   3.3718
  3.3821   3.3921   3.3999   3.4047   3.4120   3.4197   3.4280   3.4372
  3.4434   3.4642   3.4708   3.4827   3.4906   3.4957   3.5093   3.5133
  3.5259   3.5331   3.5365   3.5476   3.5540   3.5628   3.5724   3.5946
  3.6011   3.6140   3.6264   3.6357   3.6473   3.6587   3.6739   3.6905
  3.6985   3.7058   3.7157   3.7230   3.7266   3.7382   3.7485   3.7573
  3.7647   3.7719   3.7835   3.7984   3.8024   3.8111   3.8365   3.8518
  3.8553   3.8611   3.8692   3.8811   3.8945   3.9048   3.9178   3.9460
  3.9533   3.9616   3.9701   3.9733   3.9913   4.0028   4.0118   4.0323
  4.0375   4.0483   4.0562   4.0739   4.0794   4.0897   4.1165   4.1211
  4.1279   4.1544   4.1557   4.1711   4.1720   4.1886   4.2046   4.2102
  4.2233   4.2281   4.2443   4.2531   4.2569   4.2717   4.2771   4.2895
  4.3115   4.3224   4.3331   4.3386   4.3552   4.3635   4.3646   4.3760
  4.3916   4.4023   4.4079   4.4243   4.4282   4.4403   4.4487   4.4566
  4.4682   4.4833   4.4990   4.5066   4.5269   4.5486   4.5607   4.5838
  4.5904   4.6026   4.6233   4.6359   4.6517   4.6588   4.6753   4.6798
  4.7040   4.7187   4.7576   4.7717   4.7906   4.8205   4.8302   4.8463
  4.8623   4.8901   4.9047   4.9130   4.9400   4.9499   4.9797   5.0100
  5.0134   5.0511   5.0749   5.1076   5.1262   5.1370   5.1400   5.1699
  5.1981   5.2184   5.2258   5.2785   5.2891   5.2928   5.3072   5.3189
  5.3570   5.3674   5.3944   5.3985   5.4156   5.4392   5.4476   5.4528
  5.4688   5.5117   5.5449   5.5513   5.5540   5.5622   5.5801   5.5937
  5.6236   5.6276   5.6435   5.6618   5.6916   5.6983   5.7153   5.7294
  5.7713   5.7981   5.8189   5.9867   6.0088   6.0908   6.1400   6.1702
  6.2081   6.2219   6.2321   6.2516   6.2611   6.2838   6.2994   6.3165
  6.3722   6.4304   9.4261  10.6100  12.6007  12.8320  13.1721  13.8587
 14.1131  14.2663  14.3887  14.8023
 --------------------------------------------------------------
 
          Ground-State Mulliken Net Atomic Charges

     Atom                 Charge (a.u.)
  ----------------------------------------
      1 C                    -0.077614
      2 C                    -0.326296
      3 C                    -0.051711
      4 H                     0.176307
      5 C                     0.098454
      6 S                    -0.207988
      7 C                    -0.288487
      8 H                     0.109512
      9 H                     0.113390
     10 H                     0.114592
     11 C                    -0.106169
     12 C                    -0.172453
     13 C                    -0.004196
     14 H                     0.184959
     15 C                    -0.212680
     16 S                     0.027527
     17 C                    -0.266484
     18 H                     0.104418
     19 H                     0.108256
     20 H                     0.105802
     21 H                     0.200697
     22 H                     0.109220
     23 H                     0.112618
     24 H                     0.148326
  ----------------------------------------
  Sum of atomic charges =     0.000000

 -----------------------------------------------------------------
                    Cartesian Multipole Moments
 -----------------------------------------------------------------
    Charge (ESU x 10^10)
                -0.0000
    Dipole Moment (Debye)
         X       3.0390      Y       0.6851      Z      -0.9746
       Tot       3.2641
    Quadrupole Moments (Debye-Ang)
        XX     -84.2188     XY       3.7567     YY     -81.3245
        XZ       0.0846     YZ       4.0596     ZZ     -84.9670
    Octopole Moments (Debye-Ang^2)
       XXX    -207.4435    XXY      84.7019    XYY     -51.1407
       YYY     178.4460    XXZ      -1.7113    XYZ      -1.9919
       YYZ      -1.3972    XZZ     -66.4379    YZZ      73.2539
       ZZZ      -3.4230
    Hexadecapole Moments (Debye-Ang^3)
      XXXX    -739.1568   XXXY     -32.9976   XXYY    -511.6743
      XYYY     -90.9503   YYYY   -2277.0320   XXXZ     -82.7399
      XXYZ     -33.7478   XYYZ     -29.8727   YYYZ     -76.8048
      XXZZ    -307.9649   XYZZ     -15.6684   YYZZ    -582.7725
      XZZZ     -83.7678   YZZZ     -35.3060   ZZZZ   -1100.4130
 -----------------------------------------------------------------
 Total job time:  97.62s(wall), 2451.77s(cpu) 
 Fri Dec 15 13:55:30 2023

        *************************************************************
        *                                                           *
        *  Thank you very much for using Q-Chem.  Have a nice day.  *
        *                                                           *
        *************************************************************


0 sent ACK to 0 
now end server 0 ... 
cleanup process ... done
remove work dirs ./qchem2810336.0 -- ./qchem2810336.0
rm -rf ./qchem2810336.0
rm -rf ./qchem2810336
