You are running Q-Chem version: 5.4.0

#
# job setting
#
local host:  exp-6-20
current dir: /home/rramji/project-csd799/aromodel/p3ht-qchem/hydrogenated-rotation-run
input file:  Methylthiophene_Phi_60_Theta_110_Methylthiophene_Hydrogenated.qcin
output file: 
nprocs     : 1
nthreads   : 64
#
# qchem installation setting
#
QC:          /cm/shared/apps/spack/cpu/opt/spack/linux-centos8-zen2/gcc-10.2.0/qchem-5.4-akfmr7b3t57bfs6qan3padb2wnb2i7cl
QCAUX:       /cm/shared/apps/spack/cpu/opt/spack/linux-centos8-zen2/gcc-10.2.0/qchem-5.4-akfmr7b3t57bfs6qan3padb2wnb2i7cl/qcaux
QCPROG:      /cm/shared/apps/spack/cpu/opt/spack/linux-centos8-zen2/gcc-10.2.0/qchem-5.4-akfmr7b3t57bfs6qan3padb2wnb2i7cl/exe/qcprog.exe
QCPROG_S:    /cm/shared/apps/spack/cpu/opt/spack/linux-centos8-zen2/gcc-10.2.0/qchem-5.4-akfmr7b3t57bfs6qan3padb2wnb2i7cl/exe/qcprog.exe_s
PARALLEL:    -DPARALLEL
QCMPI:       mpich
#
# qchem directory setting
#
qcrun:       qchem2816432
QCSCRATCH:   .
QCLOCALSCR:  
QCTMPDIR:    .
QCFILEPREF:  ./qchem2816432
QCSAVEDIR:   
workdirs:    ./qchem2816432
workdir0:    ./qchem2816432
partmpdirs =  
#
# parallel setting
#
QCRSH:           ssh
QCMPI:           mpich
QCMPIRUN:        /cm/shared/apps/spack/cpu/opt/spack/linux-centos8-zen2/gcc-10.2.0/qchem-5.4-akfmr7b3t57bfs6qan3padb2wnb2i7cl/bin/mpi/mpirun_qchem
QCMACHINEFILE:   ./qchem2816432/hostfile
exp-6-20

#
# env setting
#
exported envs:   QC QCAUX QCSCRATCH QCRUNNAME QCFILEPREF QCPROG QCPROG_S GUIFILE

Running Job 1 of 1 Methylthiophene_Phi_60_Theta_110_Methylthiophene_Hydrogenated.qcin
qchem Methylthiophene_Phi_60_Theta_110_Methylthiophene_Hydrogenated.qcin_2816432.0 ./qchem2816432/ 1
/cm/shared/apps/spack/cpu/opt/spack/linux-centos8-zen2/gcc-10.2.0/qchem-5.4-akfmr7b3t57bfs6qan3padb2wnb2i7cl/bin/mpi/mpirun_qchem -machinefile ./qchem2816432/hostfile -np 1 /cm/shared/apps/spack/cpu/opt/spack/linux-centos8-zen2/gcc-10.2.0/qchem-5.4-akfmr7b3t57bfs6qan3padb2wnb2i7cl/exe/qcprog.exe Methylthiophene_Phi_60_Theta_110_Methylthiophene_Hydrogenated.qcin_2816432.0 ./qchem2816432/

Process 0 of 1 is on exp-6-20 - thread support 0
initial socket setup ...start
initial socket setup ...done 
now start server 0 ... 
                  Welcome to Q-Chem
     A Quantum Leap Into The Future Of Chemistry


 Q-Chem 5.4, Q-Chem, Inc., Pleasanton, CA (2021)

 License issued to: University of California, San Diego (site)

 E. Epifanovsky,  A. T. B. Gilbert,  Xintian Feng,  Joonho Lee,  Yuezhi Mao,  
 N. Mardirossian,  P. Pokhilko,  A. White,  M. Wormit,  M. P. Coons,  
 A. L. Dempwolff,  Zhengting Gan,  D. Hait,  P. R. Horn,  L. D. Jacobson,  
 I. Kaliman,  J. Kussmann,  A. W. Lange,  Ka Un Lao,  D. S. Levine,  Jie Liu,  
 S. C. McKenzie,  A. F. Morrison,  K. Nanda,  F. Plasser,  D. R. Rehn,  
 M. L. Vidal,  Zhi-Qiang You,  Ying Zhu,  B. Alam,  B. Albrecht,  
 A. Aldossary,  E. Alguire,  J. H. Andersen,  D. Barton,  K. Begam,  A. Behn,  
 Y. A. Bernard,  E. J. Berquist,  H. Burton,  A. Carreras,  K. Carter-Fenk,  
 R. Chakraborty,  A. D. Chien,  K. D. Closser,  V. Cofer-Shabica,  
 S. Dasgupta,  Jia Deng,  M. de Wergifosse,  M. Diedenhofen,  Hainam Do,  
 S. Ehlert,  Po-Tung Fang,  S. Fatehi,  Qingguo Feng,  J. Gayvert,  
 Qinghui Ge,  G. Gidofalvi,  M. Goldey,  J. Gomes,  C. Gonzalez-Espinoza,  
 S. Gulania,  A. Gunina,  M. W. D. Hanson-Heine,  P. H. P. Harbach,  
 A. W. Hauser,  M. F. Herbst,  M. Hernandez Vera,  M. Hodecker,  
 Z. C. Holden,  S. Houck,  Xunkun Huang,  Kerwin Hui,  B. C. Huynh,  
 M. Ivanov,  Hyunjun Ji,  Hanjie Jiang,  B. Kaduk,  S. Kaehler,  
 K. Khistyaev,  Jaehoon Kim,  P. Klunzinger,  Z. Koczor-Benda,  
 Joong Hoon Koh,  D. Kosenkov,  L. Koulias,  T. Kowalczyk,  C. M. Krauter,  
 K. Kue,  A. Kunitsa,  T. Kus,  A. Landau,  K. V. Lawler,  D. Lefrancois,  
 S. Lehtola,  Rain Li,  Yi-Pei Li,  Jiashu Liang,  M. Liebenthal,  
 Hung-Hsuan Lin,  You-Sheng Lin,  Fenglai Liu,  Kuan-Yu Liu,  
 M. Loipersberger,  A. Luenser,  A. Manjanath,  P. Manohar,  E. Mansoor,  
 S. F. Manzer,  Shan-Ping Mao,  A. V. Marenich,  T. Markovich,  S. Mason,  
 S. A. Maurer,  P. F. McLaughlin,  M. F. S. J. Menger,  J.-M. Mewes,  
 S. A. Mewes,  P. Morgante,  J. W. Mullinax,  T. S. Nguyen-Beck,  
 K. J. Oosterbaan,  G. Paran,  Alexander C. Paul,  Suranjan K. Paul,  
 F. Pavosevic,  Zheng Pei,  S. Prager,  E. I. Proynov,  E. Ramos,  B. Rana,  
 A. E. Rask,  A. Rettig,  R. M. Richard,  F. Rob,  E. Rossomme,  T. Scheele,  
 M. Scheurer,  M. Schneider,  N. Sergueev,  S. M. Sharada,  W. Skomorowski,  
 D. W. Small,  C. J. Stein,  Yu-Chuan Su,  E. J. Sundstrom,  Zhen Tao,  
 J. Thirman,  T. Tsuchimochi,  N. M. Tubman,  S. P. Veccham,  O. Vydrov,  
 J. Wenzel,  J. Witte,  A. Yamada,  Kun Yao,  S. Yeganeh,  S. R. Yost,  
 A. Zech,  Igor Ying Zhang,  Xing Zhang,  Yu Zhang,  D. Zuev,  
 A. Aspuru-Guzik,  A. T. Bell,  N. A. Besley,  K. B. Bravaya,  B. R. Brooks,  
 D. Casanova,  Jeng-Da Chai,  S. Coriani,  C. J. Cramer,  
 A. E. DePrince, III,  R. A. DiStasio Jr.,  A. Dreuw,  B. D. Dunietz,  
 T. R. Furlani,  W. A. Goddard III,  S. Grimme,  S. Hammes-Schiffer,  
 T. Head-Gordon,  W. J. Hehre,  Chao-Ping Hsu,  T.-C. Jagau,  Yousung Jung,  
 A. Klamt,  Jing Kong,  D. S. Lambrecht,  WanZhen Liang,  N. J. Mayhall,  
 C. W. McCurdy,  J. B. Neaton,  C. Ochsenfeld,  J. A. Parkhill,  R. Peverati,  
 V. A. Rassolov,  Yihan Shao,  L. V. Slipchenko,  T. Stauch,  R. P. Steele,  
 J. E. Subotnik,  A. J. W. Thom,  A. Tkatchenko,  D. G. Truhlar,  
 T. Van Voorhis,  T. A. Wesolowski,  K. B. Whaley,  H. L. Woodcock III,  
 P. M. Zimmerman,  S. Faraji,  P. M. W. Gill,  M. Head-Gordon,  
 J. M. Herbert,  A. I. Krylov

 Contributors to earlier versions of Q-Chem not listed above: 
 R. D. Adamson,  B. Austin,  R. Baer,  J. Baker,  G. J. O. Beran,  
 K. Brandhorst,  S. T. Brown,  E. F. C. Byrd,  A. K. Chakraborty,  
 G. K. L. Chan,  Chun-Min Chang,  Yunqing Chen,  C.-L. Cheng,  
 Siu Hung Chien,  D. M. Chipman,  D. L. Crittenden,  H. Dachsel,  
 R. J. Doerksen,  A. D. Dutoi,  R. G. Edgar,  J. Fosso-Tande,  
 L. Fusti-Molnar,  D. Ghosh,  A. Ghysels,  A. Golubeva-Zadorozhnaya,  
 J. Gonthier,  M. S. Gordon,  S. R. Gwaltney,  G. Hawkins,  J. E. Herr,  
 A. Heyden,  S. Hirata,  E. G. Hohenstein,  G. Kedziora,  F. J. Keil,  
 C. Kelley,  Jihan Kim,  R. A. King,  R. Z. Khaliullin,  P. P. Korambath,  
 W. Kurlancheek,  A. Laurent,  A. M. Lee,  M. S. Lee,  S. V. Levchenko,  
 Ching Yeh Lin,  D. Liotard,  E. Livshits,  R. C. Lochan,  I. Lotan,  
 L. A. Martinez-Martinez,  P. E. Maslen,  N. Nair,  D. P. O'Neill,  
 D. Neuhauser,  E. Neuscamman,  C. M. Oana,  R. Olivares-Amaya,  R. Olson,  
 T. M. Perrine,  B. Peters,  P. A. Pieniazek,  A. Prociuk,  Y. M. Rhee,  
 J. Ritchie,  M. A. Rohrdanz,  E. Rosta,  N. J. Russ,  H. F. Schaefer III,  
 M. W. Schmidt,  N. E. Schultz,  S. Sharma,  N. Shenvi,  C. D. Sherrill,  
 A. C. Simmonett,  A. Sodt,  T. Stein,  D. Stuck,  K. S. Thanthiriwatte,  
 V. Vanovschi,  L. Vogt,  Tao Wang,  A. Warshel,  M. A. Watson,  
 C. F. Williams,  Q. Wu,  X. Xu,  Jun Yang,  W. Zhang,  Yan Zhao

 Please cite Q-Chem as follows:
 Y. Shao et al., Mol. Phys. 113, 184-215 (2015)
 DOI: 10.1080/00268976.2014.952696

 Q-Chem 5.4.0 for Intel X86 EM64T Linux

 Parts of Q-Chem use Armadillo 9.800.1 (Horizon Scraper).
 http://arma.sourceforge.net/

 Q-Chem begins on Fri Dec 15 14:08:02 2023  

 Host: 
0

     Scratch files written to ./qchem2816432//
 May1621 |scratch|qcdevops|jenkins|workspace|build_RNUM    
 Parallel job on  1  processors
 Processing $rem in /cm/shared/apps/spack/cpu/opt/spack/linux-centos8-zen2/gcc-10.2.0/qchem-5.4-akfmr7b3t57bfs6qan3padb2wnb2i7cl/config/preferences:
 Processing $rem in /home/rramji/.qchemrc:
 Symmetry turned off for PCM/SM12/SMD calculation
 Core orbitals will be frozen

 Checking the input file for inconsistencies... 	...done.

 Q-Chem warning in module forms1/BasisType.C, line 2236:

 You are not using the predefined 5D/6D in this basis set.


--------------------------------------------------------------
User input:
--------------------------------------------------------------
$molecule
0 1
C	-0.680396	-3.887800	-0.248806
C	0.621614	-3.701456	0.225147
C	1.019896	-2.345170	0.370780
H	1.285337	-4.545233	0.466300
C	0.000000	-1.450135	0.000000
S	-1.435271	-2.321334	-0.522786
C	2.378891	-1.934439	0.865597
H	3.003720	-2.819799	1.092567
H	2.313975	-1.326210	1.791940
H	2.924390	-1.325374	0.114772
C	0.000000	0.000000	0.000000
C	0.729909	0.424971	1.113020
C	1.932179	1.124518	0.820578
H	0.394478	0.229765	2.142881
C	2.146756	1.249161	-0.563588
S	0.838724	0.488500	-1.464748
C	2.852364	1.659924	1.882380
H	2.465145	1.434710	2.894974
H	2.970621	2.761183	1.808137
H	3.868160	1.218416	1.808230
H	2.974781	1.731032	-1.097114
H	-1.301772	-4.420219	0.479986
H	-0.687795	-4.419395	-1.206964
H	-0.369368	-1.450628	1.014873
$end

$rem
JOBTYPE		SP
EXCHANGE	HF
CORRELATION	pRIMP2
BASIS		cc-pvtz
METHOD		rimp2
AUX_BASIS	rimp2-cc-pvtz
SOLVENT_METHOD	PCM
PURECART	11111
SYMMETRY	false
MEM_TOTAL	110000
SCF_CONVERGENCE = 6
THRESH=10
GUI = 2
$end



$solvent
dielectric 4.90
$end
--------------------------------------------------------------
 ----------------------------------------------------------------
             Standard Nuclear Orientation (Angstroms)
    I     Atom           X                Y                Z
 ----------------------------------------------------------------
    1      C      -0.6803960000    -3.8878000000    -0.2488060000
    2      C       0.6216140000    -3.7014560000     0.2251470000
    3      C       1.0198960000    -2.3451700000     0.3707800000
    4      H       1.2853370000    -4.5452330000     0.4663000000
    5      C       0.0000000000    -1.4501350000     0.0000000000
    6      S      -1.4352710000    -2.3213340000    -0.5227860000
    7      C       2.3788910000    -1.9344390000     0.8655970000
    8      H       3.0037200000    -2.8197990000     1.0925670000
    9      H       2.3139750000    -1.3262100000     1.7919400000
   10      H       2.9243900000    -1.3253740000     0.1147720000
   11      C       0.0000000000     0.0000000000     0.0000000000
   12      C       0.7299090000     0.4249710000     1.1130200000
   13      C       1.9321790000     1.1245180000     0.8205780000
   14      H       0.3944780000     0.2297650000     2.1428810000
   15      C       2.1467560000     1.2491610000    -0.5635880000
   16      S       0.8387240000     0.4885000000    -1.4647480000
   17      C       2.8523640000     1.6599240000     1.8823800000
   18      H       2.4651450000     1.4347100000     2.8949740000
   19      H       2.9706210000     2.7611830000     1.8081370000
   20      H       3.8681600000     1.2184160000     1.8082300000
   21      H       2.9747810000     1.7310320000    -1.0971140000
   22      H      -1.3017720000    -4.4202190000     0.4799860000
   23      H      -0.6877950000    -4.4193950000    -1.2069640000
   24      H      -0.3693680000    -1.4506280000     1.0148730000
 ----------------------------------------------------------------
 Nuclear Repulsion Energy =         904.71895291 hartrees
 There are       52 alpha and       52 beta electrons
 Requested basis set is cc-pVTZ
 There are 196 shells and 536 basis functions

 Total QAlloc Memory Limit 110000 MB
 Mega-Array Size       188 MB
 MEM_STATIC part       192 MB
 Discretize the solute cavity surface with Lebedev spheres
	Using 110 Lebedev grid points for each H atom
	Using 194 Lebedev grid points for other atoms
	Atomic van der Waals radii will be scaled by 1.20
 Remove points where switching function is < 1.0e-08
 Keep 1531 surface tesserae and discard 2117 interior tesserae
 Molecular Surface Area = 225.184 Angst**2
 Requested basis set is rimp2-cc-pVTZ
 There are 414 shells and 1414 basis functions
 A cutoff of  1.0D-10 yielded  15165 shell pairs
 There are    111023 function pairs (    142584 Cartesian)
 Smallest overlap matrix eigenvalue = 7.39E-05

 Scale SEOQF with 1.000000e-01/1.000000e-01/1.000000e-01

 Standard Electronic Orientation quadrupole field applied
 Nucleus-field energy     =     0.0000000300 hartrees
 Guess from superposition of atomic densities
 Warning:  Energy on first SCF cycle will be non-variational
 SAD guess density has 104.000000 electrons

 -----------------------------------------------------------------------
  General SCF calculation program by
  Eric Jon Sundstrom, Paul Horn, Yuezhi Mao, Dmitri Zuev, Alec White,
  David Stuck, Shaama M.S., Shane Yost, Joonho Lee, David Small,
  Daniel Levine, Susi Lehtola, Hugh Burton, Evgeny Epifanovsky,
  Bang C. Huynh
 -----------------------------------------------------------------------
 Hartree-Fock
 using 64 threads for integral computing
 -------------------------------------------------------
 OpenMP Integral computing Module                
 Release: version 1.0, May 2013, Q-Chem Inc. Pittsburgh 
 -------------------------------------------------------
 A restricted SCF calculation will be
 performed using DIIS
 SCF converges when DIIS error is below 1.0e-06
 ---------------------------------------
  Cycle       Energy         DIIS error
 ---------------------------------------
    1   -1186.1826497558      2.41e-02  
    2   -1180.5450317855      1.52e-03  
    3   -1180.6713950407      5.13e-04  
    4   -1180.6843565049      2.61e-04  
    5   -1180.6875841693      5.34e-05  
    6   -1180.6878399995      2.34e-05  
    7   -1180.6879114219      1.20e-05  
    8   -1180.6879356495      5.62e-06  
    9   -1180.6879428327      2.54e-06  
   10   -1180.6879440948      8.71e-07  Convergence criterion met
 ---------------------------------------
 SCF time:   CPU 1814.01s  wall 54.00s 

************** Final PCM Free Energy Summary **************
 G_electrostatic  =      -0.01184326 hartree =      -7.43175551 kcal/mol
 G_cavitation     =       0.00000000 hartree =       0.00000000 kcal/mol
 G_dispersion     =       0.00000000 hartree =       0.00000000 kcal/mol
 G_repulsion      =       0.00000000 hartree =       0.00000000 kcal/mol
 --------------------------------------------------
 Non-electrostatic Free Energy =       0.00000000 hartree =       0.00000000 kcal/mol
 Total                         =      -0.01184326 hartree =      -7.43175551 kcal/mol
 --------------------------------------------------
 SCF Energy (H0 + V/2)                       =   -1180.68794409 
 Solute Internal Energy (H0)                 =   -1180.67610084 
 Total Free Energy (H0 + V/2 + non-elec)     =   -1180.68794409 hartree
                                             = -740892.86721502 kcal/mol
***********************************************************

 SCF   energy in the final basis set =    -1180.6879440948
 Total energy in the final basis set =    -1180.6879440948


 --------------------------------------------------------------
  Generalized many-body perturbation theory program
  by Joonho Lee, Fazle Rob, Xintian Feng, Evgeny Epifanovsky

 No regularization used 
 (reg. param. = 0.0000e+00)
  (P|Q)^-1/2 Time:  CPU 21.67 s  wall 0.35 s

 In RI-MP2 calculation: 
 # of frozen core orbitals: 20

 Components of the RIMP2 correlation energy:
        aaaa    correlation energy =        -0.2553669272 a.u.
        abab    correlation energy =        -1.5149947745 a.u.
        bbbb    correlation energy =        -0.2553669272 a.u.
        non-Brillouin singles      =        -0.0000000000 a.u.
        total same-spin energy     =        -0.5107338545 a.u.
        total opposite-spin energy =        -1.5149947745 a.u.

 Total  RIMP2   correlation energy =        -2.0257286289 a.u.
        RIMP2         total energy =     -1182.7136727238 a.u.

 RI-MP2 Energy Time:  CPU 171.11 s  wall 3.30 s
 
 --------------------------------------------------------------
 
                    Orbital Energies (a.u.)
 --------------------------------------------------------------
 
 Alpha MOs
 -- Occupied --
-91.9773 -91.9319 -11.2886 -11.2651 -11.2576 -11.2535 -11.2523 -11.2507
-11.2360 -11.2329 -11.2283 -11.2159  -8.9783  -8.9368  -6.6591  -6.6582
 -6.6579  -6.6182  -6.6172  -6.6160  -1.2063  -1.1542  -1.0588  -1.0259
 -1.0054  -0.9627  -0.9118  -0.9024  -0.8077  -0.7590  -0.7458  -0.7062
 -0.6530  -0.6377  -0.6158  -0.5942  -0.5872  -0.5720  -0.5641  -0.5533
 -0.5407  -0.5260  -0.5239  -0.5075  -0.4867  -0.4636  -0.4455  -0.4399
 -0.3502  -0.3415  -0.3188  -0.2736
 -- Virtual --
  0.0583   0.1322   0.1427   0.1508   0.1609   0.1712   0.1796   0.1823
  0.1853   0.1954   0.2044   0.2161   0.2339   0.2351   0.2399   0.2408
  0.2508   0.2573   0.2663   0.2989   0.3035   0.3243   0.3425   0.3525
  0.3625   0.3683   0.3842   0.3942   0.4062   0.4080   0.4215   0.4315
  0.4338   0.4422   0.4469   0.4510   0.4689   0.4788   0.4807   0.4922
  0.4952   0.5054   0.5227   0.5274   0.5407   0.5430   0.5500   0.5564
  0.5655   0.5771   0.5843   0.5930   0.6055   0.6074   0.6093   0.6214
  0.6272   0.6320   0.6363   0.6411   0.6428   0.6504   0.6543   0.6620
  0.6825   0.6843   0.6845   0.6886   0.6986   0.7165   0.7261   0.7353
  0.7451   0.7534   0.7656   0.7833   0.7975   0.8175   0.8179   0.8280
  0.8379   0.8510   0.8551   0.8683   0.8786   0.8936   0.9050   0.9221
  0.9271   0.9466   0.9638   0.9749   0.9844   0.9951   1.0115   1.0234
  1.0298   1.0383   1.0485   1.0595   1.0675   1.0792   1.0824   1.0931
  1.1174   1.1227   1.1384   1.1438   1.1545   1.1710   1.1782   1.1894
  1.1972   1.2010   1.2083   1.2164   1.2234   1.2342   1.2350   1.2549
  1.2666   1.2729   1.2804   1.2904   1.2943   1.3104   1.3209   1.3234
  1.3315   1.3549   1.3711   1.3850   1.3997   1.4116   1.4159   1.4260
  1.4432   1.4461   1.4584   1.4716   1.4783   1.4865   1.4930   1.4950
  1.5095   1.5146   1.5197   1.5337   1.5478   1.5610   1.5643   1.5719
  1.5804   1.5885   1.6043   1.6091   1.6229   1.6298   1.6457   1.6564
  1.6603   1.6770   1.6810   1.7031   1.7098   1.7267   1.7368   1.7434
  1.7647   1.7713   1.7893   1.8095   1.8226   1.8310   1.8546   1.8820
  1.9000   1.9115   1.9359   1.9629   1.9742   1.9883   1.9971   2.0090
  2.0279   2.0355   2.0433   2.0661   2.0885   2.0942   2.1215   2.1382
  2.1770   2.1921   2.2156   2.2171   2.2374   2.2456   2.2642   2.2698
  2.3130   2.3346   2.3517   2.3669   2.4264   2.4407   2.4479   2.4644
  2.5061   2.5262   2.5372   2.5648   2.5929   2.6097   2.6287   2.6395
  2.6582   2.6755   2.6864   2.6910   2.7036   2.7135   2.7403   2.7531
  2.7590   2.7660   2.7694   2.7944   2.8102   2.8194   2.8254   2.8431
  2.8568   2.8597   2.8746   2.9006   2.9094   2.9121   2.9316   2.9378
  2.9602   2.9792   2.9996   3.0060   3.0245   3.0340   3.0507   3.0556
  3.0863   3.0885   3.1034   3.1161   3.1229   3.1321   3.1470   3.1521
  3.1656   3.1713   3.1781   3.1874   3.1903   3.1999   3.2295   3.2364
  3.2447   3.2480   3.2592   3.2686   3.2701   3.2789   3.2968   3.3088
  3.3190   3.3286   3.3421   3.3547   3.3593   3.3658   3.3683   3.3800
  3.3874   3.4055   3.4065   3.4182   3.4254   3.4272   3.4460   3.4531
  3.4597   3.4659   3.4691   3.4815   3.4918   3.5057   3.5070   3.5203
  3.5270   3.5353   3.5421   3.5521   3.5530   3.5772   3.5850   3.6042
  3.6123   3.6167   3.6243   3.6436   3.6478   3.6546   3.6603   3.6689
  3.6954   3.7044   3.7109   3.7293   3.7342   3.7391   3.7548   3.7656
  3.7684   3.7728   3.7848   3.8010   3.8095   3.8211   3.8365   3.8427
  3.8572   3.8641   3.8768   3.8884   3.8971   3.9291   3.9341   3.9435
  3.9565   3.9682   3.9801   3.9873   3.9973   4.0119   4.0180   4.0337
  4.0411   4.0512   4.0607   4.0709   4.0857   4.1037   4.1131   4.1303
  4.1542   4.1588   4.1731   4.1772   4.1915   4.2006   4.2052   4.2260
  4.2311   4.2392   4.2451   4.2639   4.2761   4.2842   4.2906   4.3061
  4.3122   4.3176   4.3370   4.3520   4.3592   4.3737   4.3752   4.3885
  4.3967   4.4021   4.4147   4.4275   4.4387   4.4461   4.4555   4.4667
  4.4801   4.4880   4.5030   4.5131   4.5251   4.5502   4.5624   4.5761
  4.6109   4.6223   4.6356   4.6530   4.6554   4.6680   4.6808   4.6928
  4.7016   4.7343   4.7607   4.7832   4.8124   4.8231   4.8444   4.8670
  4.8805   4.8893   4.9010   4.9196   4.9340   4.9786   5.0052   5.0236
  5.0363   5.0483   5.0885   5.1134   5.1191   5.1241   5.1419   5.1575
  5.1897   5.2177   5.2292   5.2765   5.3005   5.3101   5.3210   5.3332
  5.3574   5.3701   5.3912   5.4032   5.4315   5.4423   5.4430   5.4635
  5.4766   5.5125   5.5434   5.5507   5.5580   5.5728   5.5940   5.6098
  5.6224   5.6411   5.6421   5.6754   5.6867   5.7109   5.7125   5.7223
  5.7800   5.8042   5.8121   6.0096   6.0182   6.0299   6.1073   6.1474
  6.2189   6.2297   6.2459   6.2614   6.2872   6.3074   6.3231   6.3301
  6.4069   6.4483   9.8371  10.4339  12.7449  12.9647  13.1969  14.0070
 14.1092  14.2351  14.4679  14.9153
 --------------------------------------------------------------
 
          Ground-State Mulliken Net Atomic Charges

     Atom                 Charge (a.u.)
  ----------------------------------------
      1 C                    -0.071884
      2 C                    -0.322580
      3 C                    -0.031109
      4 H                     0.175592
      5 C                     0.097623
      6 S                    -0.215610
      7 C                    -0.311934
      8 H                     0.123986
      9 H                     0.103240
     10 H                     0.120668
     11 C                    -0.175163
     12 C                    -0.138841
     13 C                    -0.004493
     14 H                     0.196562
     15 C                    -0.179440
     16 S                     0.006887
     17 C                    -0.276776
     18 H                     0.106086
     19 H                     0.122334
     20 H                     0.107676
     21 H                     0.203054
     22 H                     0.104118
     23 H                     0.106863
     24 H                     0.153143
  ----------------------------------------
  Sum of atomic charges =     0.000000

 -----------------------------------------------------------------
                    Cartesian Multipole Moments
 -----------------------------------------------------------------
    Charge (ESU x 10^10)
                -0.0000
    Dipole Moment (Debye)
         X       4.9117      Y       0.8883      Z       3.4884
       Tot       6.0895
    Quadrupole Moments (Debye-Ang)
        XX     -82.2527     XY       2.2698     YY     -83.4997
        XZ       0.5560     YZ      -1.9775     ZZ     -85.7727
    Octopole Moments (Debye-Ang^2)
       XXX    -152.9528    XXY      97.5062    XYY     -52.9655
       YYY     210.6673    XXZ      -2.7104    XYZ      -1.5973
       YYZ      -1.1911    XZZ     -55.3064    YZZ      88.2058
       ZZZ      -0.6078
    Hexadecapole Moments (Debye-Ang^3)
      XXXX   -1304.3356   XXXY    -195.3326   XXYY    -590.6287
      XYYY    -202.0286   YYYY   -2190.4365   XXXZ    -188.9029
      XXYZ     -36.5507   XYYZ     -57.8158   YYYZ     -54.4691
      XXZZ    -321.4097   XYZZ     -61.4154   YYZZ    -509.6047
      XZZZ    -183.1353   YZZZ     -46.6862   ZZZZ    -613.0816
 -----------------------------------------------------------------
 Total job time:  60.31s(wall), 2087.61s(cpu) 
 Fri Dec 15 14:09:03 2023

        *************************************************************
        *                                                           *
        *  Thank you very much for using Q-Chem.  Have a nice day.  *
        *                                                           *
        *************************************************************


0 sent ACK to 0 
now end server 0 ... 
cleanup process ... done
remove work dirs ./qchem2816432.0 -- ./qchem2816432.0
rm -rf ./qchem2816432.0
rm -rf ./qchem2816432
