You are running Q-Chem version: 5.4.0

#
# job setting
#
local host:  exp-6-19
current dir: /home/rramji/project-csd799/aromodel/p3ht-qchem/hydrogenated-rotation-run
input file:  Methylthiophene_Phi_50_Theta_260_Methylthiophene_Hydrogenated.qcin
output file: 
nprocs     : 1
nthreads   : 64
#
# qchem installation setting
#
QC:          /cm/shared/apps/spack/cpu/opt/spack/linux-centos8-zen2/gcc-10.2.0/qchem-5.4-akfmr7b3t57bfs6qan3padb2wnb2i7cl
QCAUX:       /cm/shared/apps/spack/cpu/opt/spack/linux-centos8-zen2/gcc-10.2.0/qchem-5.4-akfmr7b3t57bfs6qan3padb2wnb2i7cl/qcaux
QCPROG:      /cm/shared/apps/spack/cpu/opt/spack/linux-centos8-zen2/gcc-10.2.0/qchem-5.4-akfmr7b3t57bfs6qan3padb2wnb2i7cl/exe/qcprog.exe
QCPROG_S:    /cm/shared/apps/spack/cpu/opt/spack/linux-centos8-zen2/gcc-10.2.0/qchem-5.4-akfmr7b3t57bfs6qan3padb2wnb2i7cl/exe/qcprog.exe_s
PARALLEL:    -DPARALLEL
QCMPI:       mpich
#
# qchem directory setting
#
qcrun:       qchem2721533
QCSCRATCH:   .
QCLOCALSCR:  
QCTMPDIR:    .
QCFILEPREF:  ./qchem2721533
QCSAVEDIR:   
workdirs:    ./qchem2721533
workdir0:    ./qchem2721533
partmpdirs =  
#
# parallel setting
#
QCRSH:           ssh
QCMPI:           mpich
QCMPIRUN:        /cm/shared/apps/spack/cpu/opt/spack/linux-centos8-zen2/gcc-10.2.0/qchem-5.4-akfmr7b3t57bfs6qan3padb2wnb2i7cl/bin/mpi/mpirun_qchem
QCMACHINEFILE:   ./qchem2721533/hostfile
exp-6-19

#
# env setting
#
exported envs:   QC QCAUX QCSCRATCH QCRUNNAME QCFILEPREF QCPROG QCPROG_S GUIFILE

Running Job 1 of 1 Methylthiophene_Phi_50_Theta_260_Methylthiophene_Hydrogenated.qcin
qchem Methylthiophene_Phi_50_Theta_260_Methylthiophene_Hydrogenated.qcin_2721533.0 ./qchem2721533/ 1
/cm/shared/apps/spack/cpu/opt/spack/linux-centos8-zen2/gcc-10.2.0/qchem-5.4-akfmr7b3t57bfs6qan3padb2wnb2i7cl/bin/mpi/mpirun_qchem -machinefile ./qchem2721533/hostfile -np 1 /cm/shared/apps/spack/cpu/opt/spack/linux-centos8-zen2/gcc-10.2.0/qchem-5.4-akfmr7b3t57bfs6qan3padb2wnb2i7cl/exe/qcprog.exe Methylthiophene_Phi_50_Theta_260_Methylthiophene_Hydrogenated.qcin_2721533.0 ./qchem2721533/

Process 0 of 1 is on exp-6-19 - thread support 0
initial socket setup ...start
initial socket setup ...done 
now start server 0 ... 
                  Welcome to Q-Chem
     A Quantum Leap Into The Future Of Chemistry


 Q-Chem 5.4, Q-Chem, Inc., Pleasanton, CA (2021)

 License issued to: University of California, San Diego (site)

 E. Epifanovsky,  A. T. B. Gilbert,  Xintian Feng,  Joonho Lee,  Yuezhi Mao,  
 N. Mardirossian,  P. Pokhilko,  A. White,  M. Wormit,  M. P. Coons,  
 A. L. Dempwolff,  Zhengting Gan,  D. Hait,  P. R. Horn,  L. D. Jacobson,  
 I. Kaliman,  J. Kussmann,  A. W. Lange,  Ka Un Lao,  D. S. Levine,  Jie Liu,  
 S. C. McKenzie,  A. F. Morrison,  K. Nanda,  F. Plasser,  D. R. Rehn,  
 M. L. Vidal,  Zhi-Qiang You,  Ying Zhu,  B. Alam,  B. Albrecht,  
 A. Aldossary,  E. Alguire,  J. H. Andersen,  D. Barton,  K. Begam,  A. Behn,  
 Y. A. Bernard,  E. J. Berquist,  H. Burton,  A. Carreras,  K. Carter-Fenk,  
 R. Chakraborty,  A. D. Chien,  K. D. Closser,  V. Cofer-Shabica,  
 S. Dasgupta,  Jia Deng,  M. de Wergifosse,  M. Diedenhofen,  Hainam Do,  
 S. Ehlert,  Po-Tung Fang,  S. Fatehi,  Qingguo Feng,  J. Gayvert,  
 Qinghui Ge,  G. Gidofalvi,  M. Goldey,  J. Gomes,  C. Gonzalez-Espinoza,  
 S. Gulania,  A. Gunina,  M. W. D. Hanson-Heine,  P. H. P. Harbach,  
 A. W. Hauser,  M. F. Herbst,  M. Hernandez Vera,  M. Hodecker,  
 Z. C. Holden,  S. Houck,  Xunkun Huang,  Kerwin Hui,  B. C. Huynh,  
 M. Ivanov,  Hyunjun Ji,  Hanjie Jiang,  B. Kaduk,  S. Kaehler,  
 K. Khistyaev,  Jaehoon Kim,  P. Klunzinger,  Z. Koczor-Benda,  
 Joong Hoon Koh,  D. Kosenkov,  L. Koulias,  T. Kowalczyk,  C. M. Krauter,  
 K. Kue,  A. Kunitsa,  T. Kus,  A. Landau,  K. V. Lawler,  D. Lefrancois,  
 S. Lehtola,  Rain Li,  Yi-Pei Li,  Jiashu Liang,  M. Liebenthal,  
 Hung-Hsuan Lin,  You-Sheng Lin,  Fenglai Liu,  Kuan-Yu Liu,  
 M. Loipersberger,  A. Luenser,  A. Manjanath,  P. Manohar,  E. Mansoor,  
 S. F. Manzer,  Shan-Ping Mao,  A. V. Marenich,  T. Markovich,  S. Mason,  
 S. A. Maurer,  P. F. McLaughlin,  M. F. S. J. Menger,  J.-M. Mewes,  
 S. A. Mewes,  P. Morgante,  J. W. Mullinax,  T. S. Nguyen-Beck,  
 K. J. Oosterbaan,  G. Paran,  Alexander C. Paul,  Suranjan K. Paul,  
 F. Pavosevic,  Zheng Pei,  S. Prager,  E. I. Proynov,  E. Ramos,  B. Rana,  
 A. E. Rask,  A. Rettig,  R. M. Richard,  F. Rob,  E. Rossomme,  T. Scheele,  
 M. Scheurer,  M. Schneider,  N. Sergueev,  S. M. Sharada,  W. Skomorowski,  
 D. W. Small,  C. J. Stein,  Yu-Chuan Su,  E. J. Sundstrom,  Zhen Tao,  
 J. Thirman,  T. Tsuchimochi,  N. M. Tubman,  S. P. Veccham,  O. Vydrov,  
 J. Wenzel,  J. Witte,  A. Yamada,  Kun Yao,  S. Yeganeh,  S. R. Yost,  
 A. Zech,  Igor Ying Zhang,  Xing Zhang,  Yu Zhang,  D. Zuev,  
 A. Aspuru-Guzik,  A. T. Bell,  N. A. Besley,  K. B. Bravaya,  B. R. Brooks,  
 D. Casanova,  Jeng-Da Chai,  S. Coriani,  C. J. Cramer,  
 A. E. DePrince, III,  R. A. DiStasio Jr.,  A. Dreuw,  B. D. Dunietz,  
 T. R. Furlani,  W. A. Goddard III,  S. Grimme,  S. Hammes-Schiffer,  
 T. Head-Gordon,  W. J. Hehre,  Chao-Ping Hsu,  T.-C. Jagau,  Yousung Jung,  
 A. Klamt,  Jing Kong,  D. S. Lambrecht,  WanZhen Liang,  N. J. Mayhall,  
 C. W. McCurdy,  J. B. Neaton,  C. Ochsenfeld,  J. A. Parkhill,  R. Peverati,  
 V. A. Rassolov,  Yihan Shao,  L. V. Slipchenko,  T. Stauch,  R. P. Steele,  
 J. E. Subotnik,  A. J. W. Thom,  A. Tkatchenko,  D. G. Truhlar,  
 T. Van Voorhis,  T. A. Wesolowski,  K. B. Whaley,  H. L. Woodcock III,  
 P. M. Zimmerman,  S. Faraji,  P. M. W. Gill,  M. Head-Gordon,  
 J. M. Herbert,  A. I. Krylov

 Contributors to earlier versions of Q-Chem not listed above: 
 R. D. Adamson,  B. Austin,  R. Baer,  J. Baker,  G. J. O. Beran,  
 K. Brandhorst,  S. T. Brown,  E. F. C. Byrd,  A. K. Chakraborty,  
 G. K. L. Chan,  Chun-Min Chang,  Yunqing Chen,  C.-L. Cheng,  
 Siu Hung Chien,  D. M. Chipman,  D. L. Crittenden,  H. Dachsel,  
 R. J. Doerksen,  A. D. Dutoi,  R. G. Edgar,  J. Fosso-Tande,  
 L. Fusti-Molnar,  D. Ghosh,  A. Ghysels,  A. Golubeva-Zadorozhnaya,  
 J. Gonthier,  M. S. Gordon,  S. R. Gwaltney,  G. Hawkins,  J. E. Herr,  
 A. Heyden,  S. Hirata,  E. G. Hohenstein,  G. Kedziora,  F. J. Keil,  
 C. Kelley,  Jihan Kim,  R. A. King,  R. Z. Khaliullin,  P. P. Korambath,  
 W. Kurlancheek,  A. Laurent,  A. M. Lee,  M. S. Lee,  S. V. Levchenko,  
 Ching Yeh Lin,  D. Liotard,  E. Livshits,  R. C. Lochan,  I. Lotan,  
 L. A. Martinez-Martinez,  P. E. Maslen,  N. Nair,  D. P. O'Neill,  
 D. Neuhauser,  E. Neuscamman,  C. M. Oana,  R. Olivares-Amaya,  R. Olson,  
 T. M. Perrine,  B. Peters,  P. A. Pieniazek,  A. Prociuk,  Y. M. Rhee,  
 J. Ritchie,  M. A. Rohrdanz,  E. Rosta,  N. J. Russ,  H. F. Schaefer III,  
 M. W. Schmidt,  N. E. Schultz,  S. Sharma,  N. Shenvi,  C. D. Sherrill,  
 A. C. Simmonett,  A. Sodt,  T. Stein,  D. Stuck,  K. S. Thanthiriwatte,  
 V. Vanovschi,  L. Vogt,  Tao Wang,  A. Warshel,  M. A. Watson,  
 C. F. Williams,  Q. Wu,  X. Xu,  Jun Yang,  W. Zhang,  Yan Zhao

 Please cite Q-Chem as follows:
 Y. Shao et al., Mol. Phys. 113, 184-215 (2015)
 DOI: 10.1080/00268976.2014.952696

 Q-Chem 5.4.0 for Intel X86 EM64T Linux

 Parts of Q-Chem use Armadillo 9.800.1 (Horizon Scraper).
 http://arma.sourceforge.net/

 Q-Chem begins on Fri Dec 15 14:23:05 2023  

 Host: 
0

     Scratch files written to ./qchem2721533//
 May1621 |scratch|qcdevops|jenkins|workspace|build_RNUM    
 Parallel job on  1  processors
 Processing $rem in /cm/shared/apps/spack/cpu/opt/spack/linux-centos8-zen2/gcc-10.2.0/qchem-5.4-akfmr7b3t57bfs6qan3padb2wnb2i7cl/config/preferences:
 Processing $rem in /home/rramji/.qchemrc:
 Symmetry turned off for PCM/SM12/SMD calculation
 Core orbitals will be frozen

 Checking the input file for inconsistencies... 	...done.

 Q-Chem warning in module forms1/BasisType.C, line 2236:

 You are not using the predefined 5D/6D in this basis set.


--------------------------------------------------------------
User input:
--------------------------------------------------------------
$molecule
0 1
C	0.713644	-3.887800	-0.124726
C	-0.650907	-3.701456	0.115824
C	-1.068646	-2.345170	0.188844
H	-1.346284	-4.545233	0.238841
C	0.000000	-1.450135	0.000000
S	1.504375	-2.321334	-0.264890
C	-2.492978	-1.934439	0.439816
H	-3.147582	-2.819799	0.555669
H	-2.899931	-1.326210	-0.394879
H	-2.589982	-1.325374	1.362799
C	0.000000	0.000000	0.000000
C	0.645024	0.545262	1.113020
C	1.707554	1.442954	0.820578
H	0.348587	0.294774	2.142881
C	1.897227	1.602964	-0.563588
S	0.741155	0.626722	-1.464748
C	2.520787	2.130014	1.882380
H	2.178559	1.840981	2.894974
H	2.446016	3.235078	1.808137
H	3.597818	1.871604	1.808230
H	2.628997	2.221299	-1.097114
H	0.887375	-4.420219	-1.066566
H	1.199130	-4.419395	0.701364
H	-0.187554	-1.450628	-1.063590
$end

$rem
JOBTYPE		SP
EXCHANGE	HF
CORRELATION	pRIMP2
BASIS		cc-pvtz
METHOD		rimp2
AUX_BASIS	rimp2-cc-pvtz
SOLVENT_METHOD	PCM
PURECART	11111
SYMMETRY	false
MEM_TOTAL	110000
SCF_CONVERGENCE = 6
THRESH=10
GUI = 2
$end



$solvent
dielectric 4.90
$end
--------------------------------------------------------------
 ----------------------------------------------------------------
             Standard Nuclear Orientation (Angstroms)
    I     Atom           X                Y                Z
 ----------------------------------------------------------------
    1      C       0.7136440000    -3.8878000000    -0.1247260000
    2      C      -0.6509070000    -3.7014560000     0.1158240000
    3      C      -1.0686460000    -2.3451700000     0.1888440000
    4      H      -1.3462840000    -4.5452330000     0.2388410000
    5      C       0.0000000000    -1.4501350000     0.0000000000
    6      S       1.5043750000    -2.3213340000    -0.2648900000
    7      C      -2.4929780000    -1.9344390000     0.4398160000
    8      H      -3.1475820000    -2.8197990000     0.5556690000
    9      H      -2.8999310000    -1.3262100000    -0.3948790000
   10      H      -2.5899820000    -1.3253740000     1.3627990000
   11      C       0.0000000000     0.0000000000     0.0000000000
   12      C       0.6450240000     0.5452620000     1.1130200000
   13      C       1.7075540000     1.4429540000     0.8205780000
   14      H       0.3485870000     0.2947740000     2.1428810000
   15      C       1.8972270000     1.6029640000    -0.5635880000
   16      S       0.7411550000     0.6267220000    -1.4647480000
   17      C       2.5207870000     2.1300140000     1.8823800000
   18      H       2.1785590000     1.8409810000     2.8949740000
   19      H       2.4460160000     3.2350780000     1.8081370000
   20      H       3.5978180000     1.8716040000     1.8082300000
   21      H       2.6289970000     2.2212990000    -1.0971140000
   22      H       0.8873750000    -4.4202190000    -1.0665660000
   23      H       1.1991300000    -4.4193950000     0.7013640000
   24      H      -0.1875540000    -1.4506280000    -1.0635900000
 ----------------------------------------------------------------
 Nuclear Repulsion Energy =         891.63272632 hartrees
 There are       52 alpha and       52 beta electrons
 Requested basis set is cc-pVTZ
 There are 196 shells and 536 basis functions

 Total QAlloc Memory Limit 110000 MB
 Mega-Array Size       188 MB
 MEM_STATIC part       192 MB
 Discretize the solute cavity surface with Lebedev spheres
	Using 110 Lebedev grid points for each H atom
	Using 194 Lebedev grid points for other atoms
	Atomic van der Waals radii will be scaled by 1.20
 Remove points where switching function is < 1.0e-08
 Keep 1595 surface tesserae and discard 2053 interior tesserae
 Molecular Surface Area = 234.159 Angst**2
 Requested basis set is rimp2-cc-pVTZ
 There are 414 shells and 1414 basis functions
 A cutoff of  1.0D-10 yielded  14212 shell pairs
 There are    102984 function pairs (    132138 Cartesian)
 Smallest overlap matrix eigenvalue = 6.90E-05

 Scale SEOQF with 1.000000e-01/1.000000e-01/1.000000e-01

 Standard Electronic Orientation quadrupole field applied
 Nucleus-field energy     =     0.0000000326 hartrees
 Guess from superposition of atomic densities
 Warning:  Energy on first SCF cycle will be non-variational
 SAD guess density has 104.000000 electrons

 -----------------------------------------------------------------------
  General SCF calculation program by
  Eric Jon Sundstrom, Paul Horn, Yuezhi Mao, Dmitri Zuev, Alec White,
  David Stuck, Shaama M.S., Shane Yost, Joonho Lee, David Small,
  Daniel Levine, Susi Lehtola, Hugh Burton, Evgeny Epifanovsky,
  Bang C. Huynh
 -----------------------------------------------------------------------
 Hartree-Fock
 using 64 threads for integral computing
 -------------------------------------------------------
 OpenMP Integral computing Module                
 Release: version 1.0, May 2013, Q-Chem Inc. Pittsburgh 
 -------------------------------------------------------
 A restricted SCF calculation will be
 performed using DIIS
 SCF converges when DIIS error is below 1.0e-06
 ---------------------------------------
  Cycle       Energy         DIIS error
 ---------------------------------------
    1   -1186.0859627871      2.40e-02  
    2   -1180.5691461510      1.54e-03  
    3   -1180.6952118285      5.39e-04  
    4   -1180.7084707844      2.73e-04  
    5   -1180.7120173569      5.62e-05  
    6   -1180.7122567524      2.40e-05  
    7   -1180.7123229076      1.11e-05  
    8   -1180.7123424908      5.20e-06  
    9   -1180.7123479795      2.13e-06  
   10   -1180.7123489574      7.23e-07  Convergence criterion met
 ---------------------------------------
 SCF time:   CPU 1720.51s  wall 51.00s 

************** Final PCM Free Energy Summary **************
 G_electrostatic  =      -0.00953762 hartree =      -5.98494409 kcal/mol
 G_cavitation     =       0.00000000 hartree =       0.00000000 kcal/mol
 G_dispersion     =       0.00000000 hartree =       0.00000000 kcal/mol
 G_repulsion      =       0.00000000 hartree =       0.00000000 kcal/mol
 --------------------------------------------------
 Non-electrostatic Free Energy =       0.00000000 hartree =       0.00000000 kcal/mol
 Total                         =      -0.00953762 hartree =      -5.98494409 kcal/mol
 --------------------------------------------------
 SCF Energy (H0 + V/2)                       =   -1180.71234896 
 Solute Internal Energy (H0)                 =   -1180.70281134 
 Total Free Energy (H0 + V/2 + non-elec)     =   -1180.71234896 hartree
                                             = -740908.18149744 kcal/mol
***********************************************************

 SCF   energy in the final basis set =    -1180.7123489574
 Total energy in the final basis set =    -1180.7123489574


 --------------------------------------------------------------
  Generalized many-body perturbation theory program
  by Joonho Lee, Fazle Rob, Xintian Feng, Evgeny Epifanovsky

 No regularization used 
 (reg. param. = 0.0000e+00)
  (P|Q)^-1/2 Time:  CPU 26.81 s  wall 0.44 s

 In RI-MP2 calculation: 
 # of frozen core orbitals: 20

 Components of the RIMP2 correlation energy:
        aaaa    correlation energy =        -0.2530613589 a.u.
        abab    correlation energy =        -1.5090959293 a.u.
        bbbb    correlation energy =        -0.2530613589 a.u.
        non-Brillouin singles      =        -0.0000000000 a.u.
        total same-spin energy     =        -0.5061227178 a.u.
        total opposite-spin energy =        -1.5090959293 a.u.

 Total  RIMP2   correlation energy =        -2.0152186471 a.u.
        RIMP2         total energy =     -1182.7275676045 a.u.

 RI-MP2 Energy Time:  CPU 173.83 s  wall 3.07 s
 
 --------------------------------------------------------------
 
                    Orbital Energies (a.u.)
 --------------------------------------------------------------
 
 Alpha MOs
 -- Occupied --
-91.9823 -91.9351 -11.2828 -11.2567 -11.2565 -11.2528 -11.2514 -11.2502
-11.2375 -11.2296 -11.2291 -11.2125  -8.9828  -8.9401  -6.6637  -6.6629
 -6.6625  -6.6214  -6.6204  -6.6192  -1.2002  -1.1537  -1.0569  -1.0249
 -1.0000  -0.9640  -0.9098  -0.9009  -0.8085  -0.7589  -0.7459  -0.7031
 -0.6498  -0.6280  -0.6141  -0.5866  -0.5785  -0.5744  -0.5654  -0.5508
 -0.5408  -0.5315  -0.5060  -0.5052  -0.4898  -0.4682  -0.4613  -0.4453
 -0.3595  -0.3310  -0.3144  -0.2765
 -- Virtual --
  0.0643   0.1292   0.1412   0.1548   0.1610   0.1678   0.1763   0.1827
  0.1876   0.2013   0.2055   0.2188   0.2222   0.2311   0.2372   0.2444
  0.2473   0.2567   0.2710   0.2946   0.3133   0.3171   0.3424   0.3502
  0.3595   0.3750   0.3791   0.3837   0.3892   0.3943   0.4130   0.4212
  0.4289   0.4374   0.4470   0.4581   0.4703   0.4735   0.4864   0.4898
  0.5012   0.5042   0.5144   0.5248   0.5364   0.5397   0.5549   0.5586
  0.5668   0.5728   0.5899   0.6029   0.6055   0.6105   0.6153   0.6212
  0.6256   0.6279   0.6363   0.6407   0.6424   0.6430   0.6528   0.6575
  0.6591   0.6685   0.6802   0.6927   0.6960   0.7093   0.7169   0.7303
  0.7360   0.7405   0.7587   0.7747   0.7785   0.7991   0.8125   0.8171
  0.8282   0.8404   0.8490   0.8605   0.8716   0.8909   0.8994   0.9096
  0.9143   0.9453   0.9546   0.9591   0.9719   0.9902   0.9959   1.0200
  1.0270   1.0374   1.0384   1.0476   1.0606   1.0641   1.0785   1.0891
  1.0908   1.1016   1.1183   1.1297   1.1487   1.1559   1.1659   1.1749
  1.1805   1.1912   1.1993   1.2051   1.2139   1.2327   1.2372   1.2424
  1.2549   1.2612   1.2685   1.2762   1.2811   1.2912   1.3015   1.3224
  1.3276   1.3331   1.3524   1.3654   1.3760   1.3945   1.4033   1.4089
  1.4167   1.4312   1.4473   1.4592   1.4646   1.4776   1.4806   1.4969
  1.5059   1.5105   1.5159   1.5323   1.5348   1.5436   1.5548   1.5620
  1.5705   1.5780   1.5829   1.5867   1.6147   1.6226   1.6415   1.6464
  1.6571   1.6657   1.6699   1.6791   1.7044   1.7077   1.7201   1.7300
  1.7479   1.7549   1.7593   1.7823   1.8088   1.8145   1.8377   1.8428
  1.8832   1.9007   1.9212   1.9339   1.9625   1.9765   1.9892   2.0058
  2.0144   2.0230   2.0402   2.0640   2.0808   2.1118   2.1326   2.1647
  2.1857   2.1891   2.1953   2.2214   2.2321   2.2433   2.2538   2.2856
  2.2987   2.3215   2.3458   2.3699   2.3911   2.4506   2.4638   2.4815
  2.4890   2.5117   2.5257   2.5361   2.5779   2.6015   2.6256   2.6407
  2.6445   2.6582   2.6649   2.6738   2.6805   2.6949   2.7017   2.7164
  2.7457   2.7491   2.7750   2.7819   2.7932   2.7963   2.8066   2.8216
  2.8331   2.8557   2.8644   2.8889   2.8936   2.8939   2.9125   2.9461
  2.9547   2.9626   2.9757   2.9977   3.0020   3.0221   3.0235   3.0486
  3.0565   3.0646   3.0936   3.1100   3.1148   3.1248   3.1304   3.1485
  3.1540   3.1589   3.1674   3.1807   3.1895   3.2015   3.2049   3.2150
  3.2294   3.2370   3.2462   3.2506   3.2598   3.2733   3.2947   3.3100
  3.3222   3.3274   3.3276   3.3391   3.3485   3.3559   3.3613   3.3678
  3.3742   3.3838   3.3901   3.3932   3.4061   3.4075   3.4213   3.4299
  3.4449   3.4596   3.4626   3.4663   3.4909   3.4977   3.5017   3.5099
  3.5207   3.5276   3.5350   3.5494   3.5616   3.5635   3.5759   3.5890
  3.5978   3.6150   3.6221   3.6351   3.6420   3.6503   3.6574   3.6687
  3.6709   3.6920   3.7093   3.7097   3.7200   3.7262   3.7294   3.7492
  3.7513   3.7623   3.7686   3.7781   3.7877   3.7941   3.8065   3.8195
  3.8275   3.8509   3.8537   3.8748   3.8835   3.8994   3.9105   3.9267
  3.9395   3.9457   3.9586   3.9733   3.9763   3.9936   4.0007   4.0139
  4.0346   4.0436   4.0495   4.0619   4.0706   4.0805   4.0998   4.1166
  4.1207   4.1416   4.1458   4.1521   4.1719   4.1785   4.1971   4.2072
  4.2136   4.2247   4.2362   4.2501   4.2569   4.2643   4.2739   4.2873
  4.2933   4.3024   4.3165   4.3268   4.3360   4.3468   4.3597   4.3693
  4.3801   4.3927   4.3961   4.4020   4.4061   4.4206   4.4368   4.4498
  4.4572   4.4617   4.4756   4.4797   4.5087   4.5182   4.5265   4.5474
  4.5737   4.5853   4.6134   4.6167   4.6398   4.6483   4.6621   4.6740
  4.6991   4.7058   4.7183   4.7642   4.7901   4.8126   4.8307   4.8500
  4.8710   4.9002   4.9025   4.9178   4.9247   4.9335   4.9757   4.9886
  5.0128   5.0377   5.0508   5.1036   5.1109   5.1309   5.1503   5.1649
  5.1902   5.2227   5.2274   5.2602   5.2893   5.2933   5.3094   5.3146
  5.3385   5.3670   5.3812   5.3936   5.4046   5.4147   5.4462   5.4516
  5.4749   5.5065   5.5160   5.5398   5.5519   5.5615   5.5755   5.5969
  5.6110   5.6265   5.6407   5.6663   5.6825   5.7007   5.7173   5.7235
  5.7529   5.7881   5.8210   5.9476   6.0111   6.0261   6.0910   6.1462
  6.2078   6.2173   6.2257   6.2291   6.2450   6.2738   6.2923   6.3279
  6.3821   6.3992   9.3670  10.4568  12.5040  12.8541  13.1554  13.9318
 14.0619  14.2214  14.2840  14.5669
 --------------------------------------------------------------
 
          Ground-State Mulliken Net Atomic Charges

     Atom                 Charge (a.u.)
  ----------------------------------------
      1 C                    -0.077471
      2 C                    -0.330859
      3 C                    -0.055321
      4 H                     0.174131
      5 C                     0.056567
      6 S                    -0.183807
      7 C                    -0.271859
      8 H                     0.112124
      9 H                     0.102855
     10 H                     0.103404
     11 C                    -0.135830
     12 C                    -0.137698
     13 C                     0.000616
     14 H                     0.184429
     15 C                    -0.188815
     16 S                     0.017647
     17 C                    -0.268653
     18 H                     0.102832
     19 H                     0.107591
     20 H                     0.107067
     21 H                     0.201601
     22 H                     0.106753
     23 H                     0.110095
     24 H                     0.162602
  ----------------------------------------
  Sum of atomic charges =     0.000000

 -----------------------------------------------------------------
                    Cartesian Multipole Moments
 -----------------------------------------------------------------
    Charge (ESU x 10^10)
                -0.0000
    Dipole Moment (Debye)
         X      -0.2911      Y       1.1045      Z       1.3378
       Tot       1.7591
    Quadrupole Moments (Debye-Ang)
        XX     -84.9255     XY      10.0056     YY     -81.6284
        XZ       0.2774     YZ       1.2999     ZZ     -85.2165
    Octopole Moments (Debye-Ang^2)
       XXX    -146.3204    XXY      86.5579    XYY     -39.6439
       YYY     186.1950    XXZ      -3.4060    XYZ      -0.5264
       YYZ      -6.6964    XZZ     -44.4809    YZZ      78.6068
       ZZZ      -0.1288
    Hexadecapole Moments (Debye-Ang^3)
      XXXX   -1227.1832   XXXY    -175.9869   XXYY    -590.1667
      XYYY    -223.8040   YYYY   -2346.0977   XXXZ     -42.0303
      XXYZ     -35.8132   XYYZ     -23.3521   YYYZ     -64.5470
      XXZZ    -299.4730   XYZZ     -70.8771   YYZZ    -522.9377
      XZZZ     -28.1861   YZZZ     -63.2504   ZZZZ    -557.8123
 -----------------------------------------------------------------
 Total job time:  56.73s(wall), 2002.54s(cpu) 
 Fri Dec 15 14:24:02 2023

        *************************************************************
        *                                                           *
        *  Thank you very much for using Q-Chem.  Have a nice day.  *
        *                                                           *
        *************************************************************


0 sent ACK to 0 
now end server 0 ... 
cleanup process ... done
remove work dirs ./qchem2721533.0 -- ./qchem2721533.0
rm -rf ./qchem2721533.0
rm -rf ./qchem2721533
