You are running Q-Chem version: 5.4.0

#
# job setting
#
local host:  exp-6-20
current dir: /home/rramji/project-csd799/aromodel/p3ht-qchem/hydrogenated-rotation-run
input file:  Methylthiophene_Phi_5_Theta_280_Methylthiophene_Hydrogenated.qcin
output file: 
nprocs     : 1
nthreads   : 64
#
# qchem installation setting
#
QC:          /cm/shared/apps/spack/cpu/opt/spack/linux-centos8-zen2/gcc-10.2.0/qchem-5.4-akfmr7b3t57bfs6qan3padb2wnb2i7cl
QCAUX:       /cm/shared/apps/spack/cpu/opt/spack/linux-centos8-zen2/gcc-10.2.0/qchem-5.4-akfmr7b3t57bfs6qan3padb2wnb2i7cl/qcaux
QCPROG:      /cm/shared/apps/spack/cpu/opt/spack/linux-centos8-zen2/gcc-10.2.0/qchem-5.4-akfmr7b3t57bfs6qan3padb2wnb2i7cl/exe/qcprog.exe
QCPROG_S:    /cm/shared/apps/spack/cpu/opt/spack/linux-centos8-zen2/gcc-10.2.0/qchem-5.4-akfmr7b3t57bfs6qan3padb2wnb2i7cl/exe/qcprog.exe_s
PARALLEL:    -DPARALLEL
QCMPI:       mpich
#
# qchem directory setting
#
qcrun:       qchem2822663
QCSCRATCH:   .
QCLOCALSCR:  
QCTMPDIR:    .
QCFILEPREF:  ./qchem2822663
QCSAVEDIR:   
workdirs:    ./qchem2822663
workdir0:    ./qchem2822663
partmpdirs =  
#
# parallel setting
#
QCRSH:           ssh
QCMPI:           mpich
QCMPIRUN:        /cm/shared/apps/spack/cpu/opt/spack/linux-centos8-zen2/gcc-10.2.0/qchem-5.4-akfmr7b3t57bfs6qan3padb2wnb2i7cl/bin/mpi/mpirun_qchem
QCMACHINEFILE:   ./qchem2822663/hostfile
exp-6-20

#
# env setting
#
exported envs:   QC QCAUX QCSCRATCH QCRUNNAME QCFILEPREF QCPROG QCPROG_S GUIFILE

Running Job 1 of 1 Methylthiophene_Phi_5_Theta_280_Methylthiophene_Hydrogenated.qcin
qchem Methylthiophene_Phi_5_Theta_280_Methylthiophene_Hydrogenated.qcin_2822663.0 ./qchem2822663/ 1
/cm/shared/apps/spack/cpu/opt/spack/linux-centos8-zen2/gcc-10.2.0/qchem-5.4-akfmr7b3t57bfs6qan3padb2wnb2i7cl/bin/mpi/mpirun_qchem -machinefile ./qchem2822663/hostfile -np 1 /cm/shared/apps/spack/cpu/opt/spack/linux-centos8-zen2/gcc-10.2.0/qchem-5.4-akfmr7b3t57bfs6qan3padb2wnb2i7cl/exe/qcprog.exe Methylthiophene_Phi_5_Theta_280_Methylthiophene_Hydrogenated.qcin_2822663.0 ./qchem2822663/

Process 0 of 1 is on exp-6-20 - thread support 0
initial socket setup ...start
initial socket setup ...done 
now start server 0 ... 
                  Welcome to Q-Chem
     A Quantum Leap Into The Future Of Chemistry


 Q-Chem 5.4, Q-Chem, Inc., Pleasanton, CA (2021)

 License issued to: University of California, San Diego (site)

 E. Epifanovsky,  A. T. B. Gilbert,  Xintian Feng,  Joonho Lee,  Yuezhi Mao,  
 N. Mardirossian,  P. Pokhilko,  A. White,  M. Wormit,  M. P. Coons,  
 A. L. Dempwolff,  Zhengting Gan,  D. Hait,  P. R. Horn,  L. D. Jacobson,  
 I. Kaliman,  J. Kussmann,  A. W. Lange,  Ka Un Lao,  D. S. Levine,  Jie Liu,  
 S. C. McKenzie,  A. F. Morrison,  K. Nanda,  F. Plasser,  D. R. Rehn,  
 M. L. Vidal,  Zhi-Qiang You,  Ying Zhu,  B. Alam,  B. Albrecht,  
 A. Aldossary,  E. Alguire,  J. H. Andersen,  D. Barton,  K. Begam,  A. Behn,  
 Y. A. Bernard,  E. J. Berquist,  H. Burton,  A. Carreras,  K. Carter-Fenk,  
 R. Chakraborty,  A. D. Chien,  K. D. Closser,  V. Cofer-Shabica,  
 S. Dasgupta,  Jia Deng,  M. de Wergifosse,  M. Diedenhofen,  Hainam Do,  
 S. Ehlert,  Po-Tung Fang,  S. Fatehi,  Qingguo Feng,  J. Gayvert,  
 Qinghui Ge,  G. Gidofalvi,  M. Goldey,  J. Gomes,  C. Gonzalez-Espinoza,  
 S. Gulania,  A. Gunina,  M. W. D. Hanson-Heine,  P. H. P. Harbach,  
 A. W. Hauser,  M. F. Herbst,  M. Hernandez Vera,  M. Hodecker,  
 Z. C. Holden,  S. Houck,  Xunkun Huang,  Kerwin Hui,  B. C. Huynh,  
 M. Ivanov,  Hyunjun Ji,  Hanjie Jiang,  B. Kaduk,  S. Kaehler,  
 K. Khistyaev,  Jaehoon Kim,  P. Klunzinger,  Z. Koczor-Benda,  
 Joong Hoon Koh,  D. Kosenkov,  L. Koulias,  T. Kowalczyk,  C. M. Krauter,  
 K. Kue,  A. Kunitsa,  T. Kus,  A. Landau,  K. V. Lawler,  D. Lefrancois,  
 S. Lehtola,  Rain Li,  Yi-Pei Li,  Jiashu Liang,  M. Liebenthal,  
 Hung-Hsuan Lin,  You-Sheng Lin,  Fenglai Liu,  Kuan-Yu Liu,  
 M. Loipersberger,  A. Luenser,  A. Manjanath,  P. Manohar,  E. Mansoor,  
 S. F. Manzer,  Shan-Ping Mao,  A. V. Marenich,  T. Markovich,  S. Mason,  
 S. A. Maurer,  P. F. McLaughlin,  M. F. S. J. Menger,  J.-M. Mewes,  
 S. A. Mewes,  P. Morgante,  J. W. Mullinax,  T. S. Nguyen-Beck,  
 K. J. Oosterbaan,  G. Paran,  Alexander C. Paul,  Suranjan K. Paul,  
 F. Pavosevic,  Zheng Pei,  S. Prager,  E. I. Proynov,  E. Ramos,  B. Rana,  
 A. E. Rask,  A. Rettig,  R. M. Richard,  F. Rob,  E. Rossomme,  T. Scheele,  
 M. Scheurer,  M. Schneider,  N. Sergueev,  S. M. Sharada,  W. Skomorowski,  
 D. W. Small,  C. J. Stein,  Yu-Chuan Su,  E. J. Sundstrom,  Zhen Tao,  
 J. Thirman,  T. Tsuchimochi,  N. M. Tubman,  S. P. Veccham,  O. Vydrov,  
 J. Wenzel,  J. Witte,  A. Yamada,  Kun Yao,  S. Yeganeh,  S. R. Yost,  
 A. Zech,  Igor Ying Zhang,  Xing Zhang,  Yu Zhang,  D. Zuev,  
 A. Aspuru-Guzik,  A. T. Bell,  N. A. Besley,  K. B. Bravaya,  B. R. Brooks,  
 D. Casanova,  Jeng-Da Chai,  S. Coriani,  C. J. Cramer,  
 A. E. DePrince, III,  R. A. DiStasio Jr.,  A. Dreuw,  B. D. Dunietz,  
 T. R. Furlani,  W. A. Goddard III,  S. Grimme,  S. Hammes-Schiffer,  
 T. Head-Gordon,  W. J. Hehre,  Chao-Ping Hsu,  T.-C. Jagau,  Yousung Jung,  
 A. Klamt,  Jing Kong,  D. S. Lambrecht,  WanZhen Liang,  N. J. Mayhall,  
 C. W. McCurdy,  J. B. Neaton,  C. Ochsenfeld,  J. A. Parkhill,  R. Peverati,  
 V. A. Rassolov,  Yihan Shao,  L. V. Slipchenko,  T. Stauch,  R. P. Steele,  
 J. E. Subotnik,  A. J. W. Thom,  A. Tkatchenko,  D. G. Truhlar,  
 T. Van Voorhis,  T. A. Wesolowski,  K. B. Whaley,  H. L. Woodcock III,  
 P. M. Zimmerman,  S. Faraji,  P. M. W. Gill,  M. Head-Gordon,  
 J. M. Herbert,  A. I. Krylov

 Contributors to earlier versions of Q-Chem not listed above: 
 R. D. Adamson,  B. Austin,  R. Baer,  J. Baker,  G. J. O. Beran,  
 K. Brandhorst,  S. T. Brown,  E. F. C. Byrd,  A. K. Chakraborty,  
 G. K. L. Chan,  Chun-Min Chang,  Yunqing Chen,  C.-L. Cheng,  
 Siu Hung Chien,  D. M. Chipman,  D. L. Crittenden,  H. Dachsel,  
 R. J. Doerksen,  A. D. Dutoi,  R. G. Edgar,  J. Fosso-Tande,  
 L. Fusti-Molnar,  D. Ghosh,  A. Ghysels,  A. Golubeva-Zadorozhnaya,  
 J. Gonthier,  M. S. Gordon,  S. R. Gwaltney,  G. Hawkins,  J. E. Herr,  
 A. Heyden,  S. Hirata,  E. G. Hohenstein,  G. Kedziora,  F. J. Keil,  
 C. Kelley,  Jihan Kim,  R. A. King,  R. Z. Khaliullin,  P. P. Korambath,  
 W. Kurlancheek,  A. Laurent,  A. M. Lee,  M. S. Lee,  S. V. Levchenko,  
 Ching Yeh Lin,  D. Liotard,  E. Livshits,  R. C. Lochan,  I. Lotan,  
 L. A. Martinez-Martinez,  P. E. Maslen,  N. Nair,  D. P. O'Neill,  
 D. Neuhauser,  E. Neuscamman,  C. M. Oana,  R. Olivares-Amaya,  R. Olson,  
 T. M. Perrine,  B. Peters,  P. A. Pieniazek,  A. Prociuk,  Y. M. Rhee,  
 J. Ritchie,  M. A. Rohrdanz,  E. Rosta,  N. J. Russ,  H. F. Schaefer III,  
 M. W. Schmidt,  N. E. Schultz,  S. Sharma,  N. Shenvi,  C. D. Sherrill,  
 A. C. Simmonett,  A. Sodt,  T. Stein,  D. Stuck,  K. S. Thanthiriwatte,  
 V. Vanovschi,  L. Vogt,  Tao Wang,  A. Warshel,  M. A. Watson,  
 C. F. Williams,  Q. Wu,  X. Xu,  Jun Yang,  W. Zhang,  Yan Zhao

 Please cite Q-Chem as follows:
 Y. Shao et al., Mol. Phys. 113, 184-215 (2015)
 DOI: 10.1080/00268976.2014.952696

 Q-Chem 5.4.0 for Intel X86 EM64T Linux

 Parts of Q-Chem use Armadillo 9.800.1 (Horizon Scraper).
 http://arma.sourceforge.net/

 Q-Chem begins on Fri Dec 15 14:21:44 2023  

 Host: 
0

     Scratch files written to ./qchem2822663//
 May1621 |scratch|qcdevops|jenkins|workspace|build_RNUM    
 Parallel job on  1  processors
 Processing $rem in /cm/shared/apps/spack/cpu/opt/spack/linux-centos8-zen2/gcc-10.2.0/qchem-5.4-akfmr7b3t57bfs6qan3padb2wnb2i7cl/config/preferences:
 Processing $rem in /home/rramji/.qchemrc:
 Symmetry turned off for PCM/SM12/SMD calculation
 Core orbitals will be frozen

 Checking the input file for inconsistencies... 	...done.

 Q-Chem warning in module forms1/BasisType.C, line 2236:

 You are not using the predefined 5D/6D in this basis set.


--------------------------------------------------------------
User input:
--------------------------------------------------------------
$molecule
0 1
C	0.713264	-3.887800	0.126876
C	-0.651267	-3.701456	-0.113784
C	-1.068787	-2.345170	-0.188043
H	-1.346782	-4.545233	-0.236019
C	-0.000000	-1.450135	-0.000000
S	1.504247	-2.321334	0.265612
C	-2.493059	-1.934439	-0.439357
H	-3.147809	-2.819799	-0.554378
H	-2.589987	-1.326210	-1.362899
H	-2.899892	-1.325374	0.394786
C	0.000000	0.000000	0.000000
C	0.070542	0.841660	1.113020
C	0.187101	2.227746	0.820578
H	0.038051	0.454925	2.142881
C	0.208076	2.475009	-0.563588
S	0.080917	0.967235	-1.464748
C	0.276318	3.288613	1.882380
H	0.238704	2.842244	2.894974
H	-0.557951	4.017140	1.808137
H	1.220618	3.867466	1.808230
H	0.288286	3.429678	-1.097114
H	1.198647	-4.420219	-0.698744
H	0.886933	-4.419395	1.069193
H	0.187526	-1.450628	-1.063595
$end

$rem
JOBTYPE		SP
EXCHANGE	HF
CORRELATION	pRIMP2
BASIS		cc-pvtz
METHOD		rimp2
AUX_BASIS	rimp2-cc-pvtz
SOLVENT_METHOD	PCM
PURECART	11111
SYMMETRY	false
MEM_TOTAL	110000
SCF_CONVERGENCE = 6
THRESH=10
GUI = 2
$end



$solvent
dielectric 4.90
$end
--------------------------------------------------------------
 ----------------------------------------------------------------
             Standard Nuclear Orientation (Angstroms)
    I     Atom           X                Y                Z
 ----------------------------------------------------------------
    1      C       0.7132640000    -3.8878000000     0.1268760000
    2      C      -0.6512670000    -3.7014560000    -0.1137840000
    3      C      -1.0687870000    -2.3451700000    -0.1880430000
    4      H      -1.3467820000    -4.5452330000    -0.2360190000
    5      C       0.0000000000    -1.4501350000     0.0000000000
    6      S       1.5042470000    -2.3213340000     0.2656120000
    7      C      -2.4930590000    -1.9344390000    -0.4393570000
    8      H      -3.1478090000    -2.8197990000    -0.5543780000
    9      H      -2.5899870000    -1.3262100000    -1.3628990000
   10      H      -2.8998920000    -1.3253740000     0.3947860000
   11      C       0.0000000000     0.0000000000     0.0000000000
   12      C       0.0705420000     0.8416600000     1.1130200000
   13      C       0.1871010000     2.2277460000     0.8205780000
   14      H       0.0380510000     0.4549250000     2.1428810000
   15      C       0.2080760000     2.4750090000    -0.5635880000
   16      S       0.0809170000     0.9672350000    -1.4647480000
   17      C       0.2763180000     3.2886130000     1.8823800000
   18      H       0.2387040000     2.8422440000     2.8949740000
   19      H      -0.5579510000     4.0171400000     1.8081370000
   20      H       1.2206180000     3.8674660000     1.8082300000
   21      H       0.2882860000     3.4296780000    -1.0971140000
   22      H       1.1986470000    -4.4202190000    -0.6987440000
   23      H       0.8869330000    -4.4193950000     1.0691930000
   24      H       0.1875260000    -1.4506280000    -1.0635950000
 ----------------------------------------------------------------
 Nuclear Repulsion Energy =         870.97730706 hartrees
 There are       52 alpha and       52 beta electrons
 Requested basis set is cc-pVTZ
 There are 196 shells and 536 basis functions

 Total QAlloc Memory Limit 110000 MB
 Mega-Array Size       188 MB
 MEM_STATIC part       192 MB
 Discretize the solute cavity surface with Lebedev spheres
	Using 110 Lebedev grid points for each H atom
	Using 194 Lebedev grid points for other atoms
	Atomic van der Waals radii will be scaled by 1.20
 Remove points where switching function is < 1.0e-08
 Keep 1629 surface tesserae and discard 2019 interior tesserae
 Molecular Surface Area = 239.629 Angst**2
 Requested basis set is rimp2-cc-pVTZ
 There are 414 shells and 1414 basis functions
 A cutoff of  1.0D-10 yielded  13838 shell pairs
 There are    100348 function pairs (    128778 Cartesian)
 Smallest overlap matrix eigenvalue = 6.44E-05

 Scale SEOQF with 1.000000e-01/1.000000e-01/1.000000e-01

 Standard Electronic Orientation quadrupole field applied
 Nucleus-field energy     =     0.0000000368 hartrees
 Guess from superposition of atomic densities
 Warning:  Energy on first SCF cycle will be non-variational
 SAD guess density has 104.000000 electrons

 -----------------------------------------------------------------------
  General SCF calculation program by
  Eric Jon Sundstrom, Paul Horn, Yuezhi Mao, Dmitri Zuev, Alec White,
  David Stuck, Shaama M.S., Shane Yost, Joonho Lee, David Small,
  Daniel Levine, Susi Lehtola, Hugh Burton, Evgeny Epifanovsky,
  Bang C. Huynh
 -----------------------------------------------------------------------
 Hartree-Fock
 using 64 threads for integral computing
 -------------------------------------------------------
 OpenMP Integral computing Module                
 Release: version 1.0, May 2013, Q-Chem Inc. Pittsburgh 
 -------------------------------------------------------
 A restricted SCF calculation will be
 performed using DIIS
 SCF converges when DIIS error is below 1.0e-06
 ---------------------------------------
  Cycle       Energy         DIIS error
 ---------------------------------------
    1   -1185.9978807042      2.38e-02  
    2   -1180.6166273679      1.56e-03  
    3   -1180.7415677592      6.07e-04  
    4   -1180.7558714951      3.28e-04  
    5   -1180.7607931144      6.06e-05  
    6   -1180.7610411027      2.46e-05  
    7   -1180.7611014271      9.19e-06  
    8   -1180.7611153345      4.48e-06  
    9   -1180.7611185770      1.48e-06  
   10   -1180.7611190531      5.00e-07  Convergence criterion met
 ---------------------------------------
 SCF time:   CPU 1652.58s  wall 49.00s 

************** Final PCM Free Energy Summary **************
 G_electrostatic  =      -0.00862896 hartree =      -5.41475207 kcal/mol
 G_cavitation     =       0.00000000 hartree =       0.00000000 kcal/mol
 G_dispersion     =       0.00000000 hartree =       0.00000000 kcal/mol
 G_repulsion      =       0.00000000 hartree =       0.00000000 kcal/mol
 --------------------------------------------------
 Non-electrostatic Free Energy =       0.00000000 hartree =       0.00000000 kcal/mol
 Total                         =      -0.00862896 hartree =      -5.41475207 kcal/mol
 --------------------------------------------------
 SCF Energy (H0 + V/2)                       =   -1180.76111905 
 Solute Internal Energy (H0)                 =   -1180.75249010 
 Total Free Energy (H0 + V/2 + non-elec)     =   -1180.76111905 hartree
                                             = -740938.78519436 kcal/mol
***********************************************************

 SCF   energy in the final basis set =    -1180.7611190531
 Total energy in the final basis set =    -1180.7611190531


 --------------------------------------------------------------
  Generalized many-body perturbation theory program
  by Joonho Lee, Fazle Rob, Xintian Feng, Evgeny Epifanovsky

 No regularization used 
 (reg. param. = 0.0000e+00)
  (P|Q)^-1/2 Time:  CPU 19.65 s  wall 0.31 s

 In RI-MP2 calculation: 
 # of frozen core orbitals: 20

 Components of the RIMP2 correlation energy:
        aaaa    correlation energy =        -0.2507796819 a.u.
        abab    correlation energy =        -1.5021393777 a.u.
        bbbb    correlation energy =        -0.2507796819 a.u.
        non-Brillouin singles      =        -0.0000000000 a.u.
        total same-spin energy     =        -0.5015593638 a.u.
        total opposite-spin energy =        -1.5021393777 a.u.

 Total  RIMP2   correlation energy =        -2.0036987414 a.u.
        RIMP2         total energy =     -1182.7648177945 a.u.

 RI-MP2 Energy Time:  CPU 164.91 s  wall 3.05 s
 
 --------------------------------------------------------------
 
                    Orbital Energies (a.u.)
 --------------------------------------------------------------
 
 Alpha MOs
 -- Occupied --
-91.9869 -91.9422 -11.2793 -11.2655 -11.2621 -11.2557 -11.2511 -11.2411
-11.2378 -11.2311 -11.2288 -11.2185  -8.9865  -8.9467  -6.6674  -6.6669
 -6.6662  -6.6281  -6.6271  -6.6258  -1.1971  -1.1537  -1.0575  -1.0255
 -1.0034  -0.9621  -0.9132  -0.9005  -0.8123  -0.7636  -0.7380  -0.7036
 -0.6537  -0.6340  -0.6112  -0.5879  -0.5765  -0.5727  -0.5689  -0.5530
 -0.5419  -0.5296  -0.5121  -0.5050  -0.4913  -0.4835  -0.4633  -0.4487
 -0.3562  -0.3411  -0.3133  -0.2817
 -- Virtual --
  0.0955   0.1283   0.1428   0.1501   0.1597   0.1670   0.1785   0.1831
  0.1860   0.1955   0.2042   0.2142   0.2244   0.2335   0.2399   0.2440
  0.2507   0.2567   0.2680   0.2928   0.3018   0.3365   0.3408   0.3526
  0.3666   0.3751   0.3776   0.3823   0.3925   0.4011   0.4117   0.4235
  0.4425   0.4439   0.4561   0.4594   0.4642   0.4762   0.4835   0.4877
  0.4988   0.5112   0.5231   0.5281   0.5336   0.5428   0.5449   0.5551
  0.5727   0.5787   0.5818   0.5860   0.6044   0.6069   0.6112   0.6201
  0.6204   0.6285   0.6330   0.6351   0.6380   0.6440   0.6490   0.6510
  0.6617   0.6717   0.6803   0.6838   0.6928   0.7046   0.7121   0.7214
  0.7343   0.7456   0.7512   0.7704   0.7810   0.8028   0.8084   0.8213
  0.8329   0.8359   0.8467   0.8552   0.8661   0.8945   0.9015   0.9203
  0.9265   0.9387   0.9485   0.9547   0.9653   0.9881   0.9957   1.0048
  1.0225   1.0280   1.0353   1.0489   1.0607   1.0678   1.0707   1.0835
  1.0901   1.0970   1.1050   1.1194   1.1267   1.1409   1.1602   1.1639
  1.1766   1.1871   1.1935   1.2157   1.2160   1.2168   1.2370   1.2511
  1.2550   1.2563   1.2615   1.2752   1.2858   1.2986   1.3089   1.3197
  1.3303   1.3396   1.3449   1.3494   1.3637   1.3817   1.4035   1.4133
  1.4244   1.4304   1.4493   1.4531   1.4599   1.4774   1.4866   1.4966
  1.5040   1.5113   1.5189   1.5289   1.5349   1.5387   1.5468   1.5540
  1.5662   1.5754   1.5853   1.5919   1.6122   1.6253   1.6321   1.6373
  1.6561   1.6759   1.6831   1.6878   1.7038   1.7124   1.7203   1.7317
  1.7410   1.7472   1.7653   1.7816   1.7885   1.8263   1.8407   1.8549
  1.8857   1.9060   1.9196   1.9350   1.9495   1.9739   1.9953   2.0020
  2.0134   2.0199   2.0337   2.0431   2.0943   2.1203   2.1225   2.1466
  2.1830   2.1942   2.2056   2.2174   2.2297   2.2513   2.2659   2.2753
  2.3070   2.3359   2.3462   2.3747   2.4056   2.4340   2.4523   2.4581
  2.4872   2.5181   2.5277   2.5369   2.5635   2.5931   2.6012   2.6138
  2.6281   2.6372   2.6528   2.6546   2.6793   2.6838   2.7037   2.7167
  2.7433   2.7479   2.7508   2.7582   2.7760   2.7785   2.7932   2.8314
  2.8429   2.8454   2.8575   2.8845   2.8900   2.9039   2.9090   2.9172
  2.9226   2.9590   2.9715   2.9906   3.0048   3.0227   3.0361   3.0449
  3.0646   3.0669   3.0854   3.1078   3.1114   3.1258   3.1337   3.1381
  3.1453   3.1516   3.1550   3.1708   3.1787   3.1991   3.2083   3.2252
  3.2334   3.2398   3.2467   3.2596   3.2734   3.2870   3.2962   3.2978
  3.3115   3.3227   3.3310   3.3367   3.3460   3.3532   3.3571   3.3643
  3.3801   3.3832   3.3880   3.3945   3.4072   3.4127   3.4146   3.4286
  3.4417   3.4530   3.4595   3.4747   3.4827   3.4953   3.4984   3.5103
  3.5120   3.5274   3.5324   3.5397   3.5409   3.5567   3.5695   3.5778
  3.5845   3.5993   3.6101   3.6193   3.6286   3.6363   3.6474   3.6575
  3.6642   3.6788   3.6885   3.6950   3.7058   3.7185   3.7316   3.7354
  3.7435   3.7482   3.7653   3.7765   3.7843   3.7947   3.8030   3.8214
  3.8277   3.8327   3.8538   3.8727   3.8783   3.8879   3.8997   3.9160
  3.9212   3.9331   3.9444   3.9499   3.9747   3.9931   4.0012   4.0108
  4.0262   4.0472   4.0519   4.0545   4.0691   4.0792   4.0908   4.1057
  4.1242   4.1352   4.1482   4.1619   4.1634   4.1693   4.1748   4.1999
  4.2147   4.2234   4.2293   4.2458   4.2504   4.2601   4.2756   4.2766
  4.2841   4.2962   4.3154   4.3269   4.3406   4.3549   4.3675   4.3716
  4.3741   4.3886   4.3997   4.4049   4.4102   4.4212   4.4337   4.4454
  4.4608   4.4649   4.4742   4.4821   4.5005   4.5097   4.5233   4.5651
  4.5740   4.5939   4.6073   4.6233   4.6253   4.6386   4.6523   4.6647
  4.6909   4.7183   4.7357   4.7459   4.7617   4.8046   4.8226   4.8290
  4.8460   4.8788   4.8876   4.9048   4.9376   4.9586   4.9823   4.9852
  5.0129   5.0310   5.0708   5.0971   5.1114   5.1280   5.1517   5.1827
  5.1983   5.2148   5.2212   5.2652   5.2753   5.2848   5.3101   5.3161
  5.3517   5.3702   5.3792   5.3994   5.4093   5.4188   5.4427   5.4548
  5.4750   5.5207   5.5242   5.5468   5.5481   5.5569   5.5771   5.5852
  5.6196   5.6238   5.6411   5.6574   5.6767   5.7022   5.7040   5.7415
  5.7593   5.7870   5.8328   5.9633   5.9840   6.0612   6.1242   6.1519
  6.2054   6.2186   6.2263   6.2359   6.2560   6.2784   6.3091   6.3249
  6.3729   6.5086   9.4083  10.6375  12.0106  12.9354  13.1757  13.9933
 14.0495  14.2192  14.3578  14.6459
 --------------------------------------------------------------
 
          Ground-State Mulliken Net Atomic Charges

     Atom                 Charge (a.u.)
  ----------------------------------------
      1 C                    -0.075936
      2 C                    -0.329662
      3 C                    -0.034071
      4 H                     0.176931
      5 C                     0.115979
      6 S                    -0.175796
      7 C                    -0.266068
      8 H                     0.112412
      9 H                     0.100889
     10 H                     0.106646
     11 C                    -0.117706
     12 C                    -0.220192
     13 C                     0.020379
     14 H                     0.184839
     15 C                    -0.244911
     16 S                     0.015761
     17 C                    -0.272109
     18 H                     0.103150
     19 H                     0.107596
     20 H                     0.108347
     21 H                     0.199252
     22 H                     0.110635
     23 H                     0.112059
     24 H                     0.161576
  ----------------------------------------
  Sum of atomic charges =     0.000000

 -----------------------------------------------------------------
                    Cartesian Multipole Moments
 -----------------------------------------------------------------
    Charge (ESU x 10^10)
                -0.0000
    Dipole Moment (Debye)
         X      -2.0864      Y       0.7330      Z       0.3342
       Tot       2.2365
    Quadrupole Moments (Debye-Ang)
        XX     -91.5601     XY       4.3002     YY     -73.7920
        XZ      -0.1494     YZ       3.0919     ZZ     -86.0115
    Octopole Moments (Debye-Ang^2)
       XXX     -20.7083    XXY      41.0913    XYY      -0.7287
       YYY     127.5290    XXZ      -3.8684    XYZ      -0.2392
       YYZ      -6.8605    XZZ      -2.5761    YZZ      56.5190
       ZZZ       2.1304
    Hexadecapole Moments (Debye-Ang^3)
      XXXX    -689.3772   XXXY     -12.5803   XXYY    -617.7694
      XYYY     -34.8925   YYYY   -2781.9518   XXXZ     -55.2451
      XXYZ     -25.0553   XYYZ     -17.6870   YYYZ    -112.3266
      XXZZ    -221.8232   XYZZ     -13.8706   YYZZ    -601.7961
      XZZZ     -60.6264   YZZZ    -104.2953   ZZZZ    -562.1321
 -----------------------------------------------------------------
 Total job time:  56.39s(wall), 1886.89s(cpu) 
 Fri Dec 15 14:22:41 2023

        *************************************************************
        *                                                           *
        *  Thank you very much for using Q-Chem.  Have a nice day.  *
        *                                                           *
        *************************************************************


0 sent ACK to 0 
now end server 0 ... 
cleanup process ... done
remove work dirs ./qchem2822663.0 -- ./qchem2822663.0
rm -rf ./qchem2822663.0
rm -rf ./qchem2822663
