You are running Q-Chem version: 5.4.0

#
# job setting
#
local host:  exp-8-02
current dir: /home/rramji/project-csd799/aromodel/p3ht-qchem/hydrogenated-rotation-run
input file:  Methylthiophene_Phi_20_Theta_80_Methylthiophene_Hydrogenated.qcin
output file: 
nprocs     : 1
nthreads   : 64
#
# qchem installation setting
#
QC:          /cm/shared/apps/spack/cpu/opt/spack/linux-centos8-zen2/gcc-10.2.0/qchem-5.4-akfmr7b3t57bfs6qan3padb2wnb2i7cl
QCAUX:       /cm/shared/apps/spack/cpu/opt/spack/linux-centos8-zen2/gcc-10.2.0/qchem-5.4-akfmr7b3t57bfs6qan3padb2wnb2i7cl/qcaux
QCPROG:      /cm/shared/apps/spack/cpu/opt/spack/linux-centos8-zen2/gcc-10.2.0/qchem-5.4-akfmr7b3t57bfs6qan3padb2wnb2i7cl/exe/qcprog.exe
QCPROG_S:    /cm/shared/apps/spack/cpu/opt/spack/linux-centos8-zen2/gcc-10.2.0/qchem-5.4-akfmr7b3t57bfs6qan3padb2wnb2i7cl/exe/qcprog.exe_s
PARALLEL:    -DPARALLEL
QCMPI:       mpich
#
# qchem directory setting
#
qcrun:       qchem161647
QCSCRATCH:   .
QCLOCALSCR:  
QCTMPDIR:    .
QCFILEPREF:  ./qchem161647
QCSAVEDIR:   
workdirs:    ./qchem161647
workdir0:    ./qchem161647
partmpdirs =  
#
# parallel setting
#
QCRSH:           ssh
QCMPI:           mpich
QCMPIRUN:        /cm/shared/apps/spack/cpu/opt/spack/linux-centos8-zen2/gcc-10.2.0/qchem-5.4-akfmr7b3t57bfs6qan3padb2wnb2i7cl/bin/mpi/mpirun_qchem
QCMACHINEFILE:   ./qchem161647/hostfile
exp-8-02

#
# env setting
#
exported envs:   QC QCAUX QCSCRATCH QCRUNNAME QCFILEPREF QCPROG QCPROG_S GUIFILE

Running Job 1 of 1 Methylthiophene_Phi_20_Theta_80_Methylthiophene_Hydrogenated.qcin
qchem Methylthiophene_Phi_20_Theta_80_Methylthiophene_Hydrogenated.qcin_161647.0 ./qchem161647/ 1
/cm/shared/apps/spack/cpu/opt/spack/linux-centos8-zen2/gcc-10.2.0/qchem-5.4-akfmr7b3t57bfs6qan3padb2wnb2i7cl/bin/mpi/mpirun_qchem -machinefile ./qchem161647/hostfile -np 1 /cm/shared/apps/spack/cpu/opt/spack/linux-centos8-zen2/gcc-10.2.0/qchem-5.4-akfmr7b3t57bfs6qan3padb2wnb2i7cl/exe/qcprog.exe Methylthiophene_Phi_20_Theta_80_Methylthiophene_Hydrogenated.qcin_161647.0 ./qchem161647/

Process 0 of 1 is on exp-8-02 - thread support 0
initial socket setup ...start
initial socket setup ...done 
now start server 0 ... 
                  Welcome to Q-Chem
     A Quantum Leap Into The Future Of Chemistry


 Q-Chem 5.4, Q-Chem, Inc., Pleasanton, CA (2021)

 License issued to: University of California, San Diego (site)

 E. Epifanovsky,  A. T. B. Gilbert,  Xintian Feng,  Joonho Lee,  Yuezhi Mao,  
 N. Mardirossian,  P. Pokhilko,  A. White,  M. Wormit,  M. P. Coons,  
 A. L. Dempwolff,  Zhengting Gan,  D. Hait,  P. R. Horn,  L. D. Jacobson,  
 I. Kaliman,  J. Kussmann,  A. W. Lange,  Ka Un Lao,  D. S. Levine,  Jie Liu,  
 S. C. McKenzie,  A. F. Morrison,  K. Nanda,  F. Plasser,  D. R. Rehn,  
 M. L. Vidal,  Zhi-Qiang You,  Ying Zhu,  B. Alam,  B. Albrecht,  
 A. Aldossary,  E. Alguire,  J. H. Andersen,  D. Barton,  K. Begam,  A. Behn,  
 Y. A. Bernard,  E. J. Berquist,  H. Burton,  A. Carreras,  K. Carter-Fenk,  
 R. Chakraborty,  A. D. Chien,  K. D. Closser,  V. Cofer-Shabica,  
 S. Dasgupta,  Jia Deng,  M. de Wergifosse,  M. Diedenhofen,  Hainam Do,  
 S. Ehlert,  Po-Tung Fang,  S. Fatehi,  Qingguo Feng,  J. Gayvert,  
 Qinghui Ge,  G. Gidofalvi,  M. Goldey,  J. Gomes,  C. Gonzalez-Espinoza,  
 S. Gulania,  A. Gunina,  M. W. D. Hanson-Heine,  P. H. P. Harbach,  
 A. W. Hauser,  M. F. Herbst,  M. Hernandez Vera,  M. Hodecker,  
 Z. C. Holden,  S. Houck,  Xunkun Huang,  Kerwin Hui,  B. C. Huynh,  
 M. Ivanov,  Hyunjun Ji,  Hanjie Jiang,  B. Kaduk,  S. Kaehler,  
 K. Khistyaev,  Jaehoon Kim,  P. Klunzinger,  Z. Koczor-Benda,  
 Joong Hoon Koh,  D. Kosenkov,  L. Koulias,  T. Kowalczyk,  C. M. Krauter,  
 K. Kue,  A. Kunitsa,  T. Kus,  A. Landau,  K. V. Lawler,  D. Lefrancois,  
 S. Lehtola,  Rain Li,  Yi-Pei Li,  Jiashu Liang,  M. Liebenthal,  
 Hung-Hsuan Lin,  You-Sheng Lin,  Fenglai Liu,  Kuan-Yu Liu,  
 M. Loipersberger,  A. Luenser,  A. Manjanath,  P. Manohar,  E. Mansoor,  
 S. F. Manzer,  Shan-Ping Mao,  A. V. Marenich,  T. Markovich,  S. Mason,  
 S. A. Maurer,  P. F. McLaughlin,  M. F. S. J. Menger,  J.-M. Mewes,  
 S. A. Mewes,  P. Morgante,  J. W. Mullinax,  T. S. Nguyen-Beck,  
 K. J. Oosterbaan,  G. Paran,  Alexander C. Paul,  Suranjan K. Paul,  
 F. Pavosevic,  Zheng Pei,  S. Prager,  E. I. Proynov,  E. Ramos,  B. Rana,  
 A. E. Rask,  A. Rettig,  R. M. Richard,  F. Rob,  E. Rossomme,  T. Scheele,  
 M. Scheurer,  M. Schneider,  N. Sergueev,  S. M. Sharada,  W. Skomorowski,  
 D. W. Small,  C. J. Stein,  Yu-Chuan Su,  E. J. Sundstrom,  Zhen Tao,  
 J. Thirman,  T. Tsuchimochi,  N. M. Tubman,  S. P. Veccham,  O. Vydrov,  
 J. Wenzel,  J. Witte,  A. Yamada,  Kun Yao,  S. Yeganeh,  S. R. Yost,  
 A. Zech,  Igor Ying Zhang,  Xing Zhang,  Yu Zhang,  D. Zuev,  
 A. Aspuru-Guzik,  A. T. Bell,  N. A. Besley,  K. B. Bravaya,  B. R. Brooks,  
 D. Casanova,  Jeng-Da Chai,  S. Coriani,  C. J. Cramer,  
 A. E. DePrince, III,  R. A. DiStasio Jr.,  A. Dreuw,  B. D. Dunietz,  
 T. R. Furlani,  W. A. Goddard III,  S. Grimme,  S. Hammes-Schiffer,  
 T. Head-Gordon,  W. J. Hehre,  Chao-Ping Hsu,  T.-C. Jagau,  Yousung Jung,  
 A. Klamt,  Jing Kong,  D. S. Lambrecht,  WanZhen Liang,  N. J. Mayhall,  
 C. W. McCurdy,  J. B. Neaton,  C. Ochsenfeld,  J. A. Parkhill,  R. Peverati,  
 V. A. Rassolov,  Yihan Shao,  L. V. Slipchenko,  T. Stauch,  R. P. Steele,  
 J. E. Subotnik,  A. J. W. Thom,  A. Tkatchenko,  D. G. Truhlar,  
 T. Van Voorhis,  T. A. Wesolowski,  K. B. Whaley,  H. L. Woodcock III,  
 P. M. Zimmerman,  S. Faraji,  P. M. W. Gill,  M. Head-Gordon,  
 J. M. Herbert,  A. I. Krylov

 Contributors to earlier versions of Q-Chem not listed above: 
 R. D. Adamson,  B. Austin,  R. Baer,  J. Baker,  G. J. O. Beran,  
 K. Brandhorst,  S. T. Brown,  E. F. C. Byrd,  A. K. Chakraborty,  
 G. K. L. Chan,  Chun-Min Chang,  Yunqing Chen,  C.-L. Cheng,  
 Siu Hung Chien,  D. M. Chipman,  D. L. Crittenden,  H. Dachsel,  
 R. J. Doerksen,  A. D. Dutoi,  R. G. Edgar,  J. Fosso-Tande,  
 L. Fusti-Molnar,  D. Ghosh,  A. Ghysels,  A. Golubeva-Zadorozhnaya,  
 J. Gonthier,  M. S. Gordon,  S. R. Gwaltney,  G. Hawkins,  J. E. Herr,  
 A. Heyden,  S. Hirata,  E. G. Hohenstein,  G. Kedziora,  F. J. Keil,  
 C. Kelley,  Jihan Kim,  R. A. King,  R. Z. Khaliullin,  P. P. Korambath,  
 W. Kurlancheek,  A. Laurent,  A. M. Lee,  M. S. Lee,  S. V. Levchenko,  
 Ching Yeh Lin,  D. Liotard,  E. Livshits,  R. C. Lochan,  I. Lotan,  
 L. A. Martinez-Martinez,  P. E. Maslen,  N. Nair,  D. P. O'Neill,  
 D. Neuhauser,  E. Neuscamman,  C. M. Oana,  R. Olivares-Amaya,  R. Olson,  
 T. M. Perrine,  B. Peters,  P. A. Pieniazek,  A. Prociuk,  Y. M. Rhee,  
 J. Ritchie,  M. A. Rohrdanz,  E. Rosta,  N. J. Russ,  H. F. Schaefer III,  
 M. W. Schmidt,  N. E. Schultz,  S. Sharma,  N. Shenvi,  C. D. Sherrill,  
 A. C. Simmonett,  A. Sodt,  T. Stein,  D. Stuck,  K. S. Thanthiriwatte,  
 V. Vanovschi,  L. Vogt,  Tao Wang,  A. Warshel,  M. A. Watson,  
 C. F. Williams,  Q. Wu,  X. Xu,  Jun Yang,  W. Zhang,  Yan Zhao

 Please cite Q-Chem as follows:
 Y. Shao et al., Mol. Phys. 113, 184-215 (2015)
 DOI: 10.1080/00268976.2014.952696

 Q-Chem 5.4.0 for Intel X86 EM64T Linux

 Parts of Q-Chem use Armadillo 9.800.1 (Horizon Scraper).
 http://arma.sourceforge.net/

 Q-Chem begins on Fri Dec 15 14:01:37 2023  

 Host: 
0

     Scratch files written to ./qchem161647//
 May1621 |scratch|qcdevops|jenkins|workspace|build_RNUM    
 Parallel job on  1  processors
 Processing $rem in /cm/shared/apps/spack/cpu/opt/spack/linux-centos8-zen2/gcc-10.2.0/qchem-5.4-akfmr7b3t57bfs6qan3padb2wnb2i7cl/config/preferences:
 Processing $rem in /home/rramji/.qchemrc:
 Symmetry turned off for PCM/SM12/SMD calculation
 Core orbitals will be frozen

 Checking the input file for inconsistencies... 	...done.

 Q-Chem warning in module forms1/BasisType.C, line 2236:

 You are not using the predefined 5D/6D in this basis set.


--------------------------------------------------------------
User input:
--------------------------------------------------------------
$molecule
0 1
C	-0.713644	-3.887800	0.124726
C	0.650907	-3.701456	-0.115824
C	1.068646	-2.345170	-0.188844
H	1.346284	-4.545233	-0.238841
C	0.000000	-1.450135	0.000000
S	-1.504375	-2.321334	0.264890
C	2.492978	-1.934439	-0.439816
H	3.147582	-2.819799	-0.555669
H	2.899931	-1.326210	0.394879
H	2.589982	-1.325374	-1.362799
C	0.000000	0.000000	0.000000
C	0.285976	0.794723	1.113020
C	0.757308	2.103412	0.820578
H	0.154498	0.429575	2.142881
C	0.841565	2.336821	-0.563588
S	0.328498	0.913334	-1.464748
C	1.118059	3.105040	1.882380
H	0.966197	2.683616	2.894974
H	0.500773	4.024668	1.808137
H	2.180000	3.419766	1.808230
H	1.166129	3.238200	-1.097114
H	-0.887375	-4.420219	1.066566
H	-1.199130	-4.419395	-0.701364
H	0.187554	-1.450628	1.063590
$end

$rem
JOBTYPE		SP
EXCHANGE	HF
CORRELATION	pRIMP2
BASIS		cc-pvtz
METHOD		rimp2
AUX_BASIS	rimp2-cc-pvtz
SOLVENT_METHOD	PCM
PURECART	11111
SYMMETRY	false
MEM_TOTAL	110000
SCF_CONVERGENCE = 6
THRESH=10
GUI = 2
$end



$solvent
dielectric 4.90
$end
--------------------------------------------------------------
 ----------------------------------------------------------------
             Standard Nuclear Orientation (Angstroms)
    I     Atom           X                Y                Z
 ----------------------------------------------------------------
    1      C      -0.7136440000    -3.8878000000     0.1247260000
    2      C       0.6509070000    -3.7014560000    -0.1158240000
    3      C       1.0686460000    -2.3451700000    -0.1888440000
    4      H       1.3462840000    -4.5452330000    -0.2388410000
    5      C       0.0000000000    -1.4501350000     0.0000000000
    6      S      -1.5043750000    -2.3213340000     0.2648900000
    7      C       2.4929780000    -1.9344390000    -0.4398160000
    8      H       3.1475820000    -2.8197990000    -0.5556690000
    9      H       2.8999310000    -1.3262100000     0.3948790000
   10      H       2.5899820000    -1.3253740000    -1.3627990000
   11      C       0.0000000000     0.0000000000     0.0000000000
   12      C       0.2859760000     0.7947230000     1.1130200000
   13      C       0.7573080000     2.1034120000     0.8205780000
   14      H       0.1544980000     0.4295750000     2.1428810000
   15      C       0.8415650000     2.3368210000    -0.5635880000
   16      S       0.3284980000     0.9133340000    -1.4647480000
   17      C       1.1180590000     3.1050400000     1.8823800000
   18      H       0.9661970000     2.6836160000     2.8949740000
   19      H       0.5007730000     4.0246680000     1.8081370000
   20      H       2.1800000000     3.4197660000     1.8082300000
   21      H       1.1661290000     3.2382000000    -1.0971140000
   22      H      -0.8873750000    -4.4202190000     1.0665660000
   23      H      -1.1991300000    -4.4193950000    -0.7013640000
   24      H       0.1875540000    -1.4506280000     1.0635900000
 ----------------------------------------------------------------
 Nuclear Repulsion Energy =         874.49866364 hartrees
 There are       52 alpha and       52 beta electrons
 Requested basis set is cc-pVTZ
 There are 196 shells and 536 basis functions

 Total QAlloc Memory Limit 110000 MB
 Mega-Array Size       188 MB
 MEM_STATIC part       192 MB
 Discretize the solute cavity surface with Lebedev spheres
	Using 110 Lebedev grid points for each H atom
	Using 194 Lebedev grid points for other atoms
	Atomic van der Waals radii will be scaled by 1.20
 Remove points where switching function is < 1.0e-08
 Keep 1633 surface tesserae and discard 2015 interior tesserae
 Molecular Surface Area = 236.710 Angst**2
 Requested basis set is rimp2-cc-pVTZ
 There are 414 shells and 1414 basis functions
 A cutoff of  1.0D-10 yielded  14131 shell pairs
 There are    102525 function pairs (    131533 Cartesian)
 Smallest overlap matrix eigenvalue = 6.44E-05

 Scale SEOQF with 1.000000e-01/1.000000e-01/1.000000e-01

 Standard Electronic Orientation quadrupole field applied
 Nucleus-field energy     =     0.0000000360 hartrees
 Guess from superposition of atomic densities
 Warning:  Energy on first SCF cycle will be non-variational
 SAD guess density has 104.000000 electrons

 -----------------------------------------------------------------------
  General SCF calculation program by
  Eric Jon Sundstrom, Paul Horn, Yuezhi Mao, Dmitri Zuev, Alec White,
  David Stuck, Shaama M.S., Shane Yost, Joonho Lee, David Small,
  Daniel Levine, Susi Lehtola, Hugh Burton, Evgeny Epifanovsky,
  Bang C. Huynh
 -----------------------------------------------------------------------
 Hartree-Fock
 using 64 threads for integral computing
 -------------------------------------------------------
 OpenMP Integral computing Module                
 Release: version 1.0, May 2013, Q-Chem Inc. Pittsburgh 
 -------------------------------------------------------
 A restricted SCF calculation will be
 performed using DIIS
 SCF converges when DIIS error is below 1.0e-06
 ---------------------------------------
  Cycle       Energy         DIIS error
 ---------------------------------------
    1   -1186.0139664680      2.39e-02  
    2   -1180.6139692277      1.54e-03  
    3   -1180.7379653545      5.80e-04  
    4   -1180.7513796948      3.25e-04  
    5   -1180.7561528611      5.93e-05  
    6   -1180.7563969347      2.42e-05  
    7   -1180.7564561699      9.26e-06  
    8   -1180.7564707229      4.38e-06  
    9   -1180.7564741066      1.59e-06  
   10   -1180.7564746380      5.32e-07  Convergence criterion met
 ---------------------------------------
 SCF time:   CPU 1703.32s  wall 50.00s 

************** Final PCM Free Energy Summary **************
 G_electrostatic  =      -0.00904812 hartree =      -5.67777865 kcal/mol
 G_cavitation     =       0.00000000 hartree =       0.00000000 kcal/mol
 G_dispersion     =       0.00000000 hartree =       0.00000000 kcal/mol
 G_repulsion      =       0.00000000 hartree =       0.00000000 kcal/mol
 --------------------------------------------------
 Non-electrostatic Free Energy =       0.00000000 hartree =       0.00000000 kcal/mol
 Total                         =      -0.00904812 hartree =      -5.67777865 kcal/mol
 --------------------------------------------------
 SCF Energy (H0 + V/2)                       =   -1180.75647464 
 Solute Internal Energy (H0)                 =   -1180.74742652 
 Total Free Energy (H0 + V/2 + non-elec)     =   -1180.75647464 hartree
                                             = -740935.87077992 kcal/mol
***********************************************************

 SCF   energy in the final basis set =    -1180.7564746380
 Total energy in the final basis set =    -1180.7564746380


 --------------------------------------------------------------
  Generalized many-body perturbation theory program
  by Joonho Lee, Fazle Rob, Xintian Feng, Evgeny Epifanovsky

 No regularization used 
 (reg. param. = 0.0000e+00)
  (P|Q)^-1/2 Time:  CPU 19.29 s  wall 0.31 s

 In RI-MP2 calculation: 
 # of frozen core orbitals: 20

 Components of the RIMP2 correlation energy:
        aaaa    correlation energy =        -0.2514495251 a.u.
        abab    correlation energy =        -1.5037991488 a.u.
        bbbb    correlation energy =        -0.2514495251 a.u.
        non-Brillouin singles      =        -0.0000000000 a.u.
        total same-spin energy     =        -0.5028990501 a.u.
        total opposite-spin energy =        -1.5037991488 a.u.

 Total  RIMP2   correlation energy =        -2.0066981989 a.u.
        RIMP2         total energy =     -1182.7631728369 a.u.

 RI-MP2 Energy Time:  CPU 168.75 s  wall 3.00 s
 
 --------------------------------------------------------------
 
                    Orbital Energies (a.u.)
 --------------------------------------------------------------
 
 Alpha MOs
 -- Occupied --
-91.9813 -91.9393 -11.2793 -11.2675 -11.2624 -11.2549 -11.2515 -11.2449
-11.2402 -11.2304 -11.2300 -11.2190  -8.9813  -8.9440  -6.6622  -6.6616
 -6.6611  -6.6254  -6.6244  -6.6231  -1.1977  -1.1540  -1.0571  -1.0241
 -1.0071  -0.9598  -0.9114  -0.9018  -0.8127  -0.7620  -0.7356  -0.7018
 -0.6601  -0.6401  -0.6107  -0.5888  -0.5793  -0.5726  -0.5666  -0.5503
 -0.5413  -0.5287  -0.5163  -0.5042  -0.4944  -0.4771  -0.4595  -0.4478
 -0.3546  -0.3427  -0.3144  -0.2789
 -- Virtual --
  0.0907   0.1345   0.1397   0.1520   0.1586   0.1711   0.1787   0.1801
  0.1888   0.1938   0.2040   0.2111   0.2299   0.2343   0.2385   0.2430
  0.2511   0.2564   0.2621   0.2926   0.3042   0.3341   0.3472   0.3530
  0.3642   0.3740   0.3765   0.3934   0.3982   0.4043   0.4140   0.4219
  0.4316   0.4453   0.4480   0.4585   0.4649   0.4711   0.4795   0.4910
  0.5031   0.5091   0.5169   0.5311   0.5386   0.5448   0.5535   0.5567
  0.5629   0.5706   0.5776   0.5879   0.5996   0.6072   0.6128   0.6203
  0.6240   0.6289   0.6351   0.6413   0.6436   0.6471   0.6491   0.6525
  0.6633   0.6710   0.6792   0.6820   0.6928   0.7064   0.7146   0.7267
  0.7339   0.7471   0.7519   0.7595   0.7917   0.7970   0.8020   0.8206
  0.8257   0.8412   0.8467   0.8566   0.8771   0.8845   0.8885   0.9054
  0.9328   0.9425   0.9494   0.9582   0.9768   0.9916   0.9969   1.0069
  1.0133   1.0250   1.0326   1.0362   1.0502   1.0652   1.0716   1.0757
  1.0915   1.0947   1.1066   1.1213   1.1287   1.1567   1.1658   1.1722
  1.1765   1.1938   1.2041   1.2065   1.2165   1.2183   1.2293   1.2415
  1.2483   1.2608   1.2633   1.2718   1.2783   1.2840   1.2929   1.3069
  1.3270   1.3307   1.3384   1.3550   1.3722   1.4022   1.4030   1.4184
  1.4198   1.4316   1.4397   1.4504   1.4729   1.4805   1.4836   1.5009
  1.5077   1.5124   1.5174   1.5323   1.5340   1.5426   1.5484   1.5562
  1.5685   1.5746   1.5789   1.5894   1.6088   1.6155   1.6252   1.6405
  1.6501   1.6623   1.6818   1.6878   1.6970   1.7091   1.7165   1.7349
  1.7434   1.7544   1.7741   1.7930   1.8056   1.8300   1.8484   1.8657
  1.8738   1.9154   1.9273   1.9373   1.9434   1.9650   1.9918   2.0014
  2.0073   2.0243   2.0421   2.0528   2.0910   2.1310   2.1366   2.1557
  2.1840   2.1907   2.2066   2.2165   2.2341   2.2463   2.2697   2.2782
  2.3113   2.3198   2.3293   2.3575   2.3986   2.4142   2.4447   2.4590
  2.4947   2.5061   2.5328   2.5500   2.5688   2.5779   2.6086   2.6170
  2.6341   2.6484   2.6584   2.6645   2.6769   2.6897   2.7137   2.7163
  2.7366   2.7481   2.7571   2.7661   2.7763   2.7856   2.7906   2.8245
  2.8337   2.8450   2.8593   2.8807   2.8862   2.9064   2.9163   2.9305
  2.9468   2.9590   2.9680   2.9751   3.0079   3.0206   3.0308   3.0376
  3.0446   3.0831   3.0899   3.0981   3.1117   3.1172   3.1213   3.1439
  3.1495   3.1558   3.1633   3.1708   3.1805   3.1928   3.2032   3.2084
  3.2277   3.2381   3.2502   3.2694   3.2758   3.2867   3.2969   3.3071
  3.3157   3.3197   3.3216   3.3368   3.3513   3.3557   3.3578   3.3649
  3.3732   3.3847   3.3936   3.3971   3.4083   3.4097   3.4236   3.4293
  3.4427   3.4536   3.4624   3.4706   3.4813   3.4845   3.5008   3.5049
  3.5136   3.5210   3.5386   3.5409   3.5431   3.5560   3.5710   3.5776
  3.5937   3.6101   3.6120   3.6257   3.6299   3.6440   3.6488   3.6620
  3.6684   3.6785   3.6800   3.6934   3.7057   3.7209   3.7324   3.7382
  3.7453   3.7598   3.7630   3.7688   3.7847   3.7960   3.8036   3.8095
  3.8244   3.8300   3.8468   3.8622   3.8802   3.8882   3.8962   3.9097
  3.9349   3.9429   3.9533   3.9651   3.9694   3.9835   3.9908   4.0125
  4.0269   4.0369   4.0516   4.0523   4.0802   4.0833   4.0886   4.0973
  4.1220   4.1257   4.1403   4.1570   4.1693   4.1743   4.1950   4.2018
  4.2121   4.2168   4.2276   4.2507   4.2567   4.2576   4.2706   4.2826
  4.2889   4.2990   4.3121   4.3292   4.3404   4.3494   4.3559   4.3612
  4.3774   4.3986   4.4006   4.4140   4.4215   4.4221   4.4330   4.4435
  4.4610   4.4682   4.4810   4.4835   4.5067   4.5161   4.5256   4.5491
  4.5622   4.5877   4.6084   4.6274   4.6380   4.6469   4.6707   4.6789
  4.6828   4.7166   4.7358   4.7700   4.7873   4.8022   4.8063   4.8403
  4.8628   4.8670   4.8936   4.9058   4.9331   4.9466   4.9702   4.9892
  5.0229   5.0408   5.0895   5.1027   5.1170   5.1344   5.1389   5.1725
  5.1837   5.1984   5.2306   5.2696   5.2841   5.2860   5.3134   5.3206
  5.3389   5.3609   5.3793   5.3971   5.4123   5.4327   5.4395   5.4560
  5.4641   5.5159   5.5229   5.5347   5.5485   5.5588   5.5674   5.6005
  5.6106   5.6271   5.6288   5.6444   5.6788   5.6935   5.7112   5.7360
  5.7750   5.8117   5.8333   5.9780   5.9926   6.0630   6.1261   6.1369
  6.2078   6.2170   6.2258   6.2347   6.2500   6.2890   6.2909   6.3212
  6.3840   6.4599   9.4777  10.3855  12.0662  12.9309  13.1510  13.9649
 14.0680  14.2036  14.3360  14.7313
 --------------------------------------------------------------
 
          Ground-State Mulliken Net Atomic Charges

     Atom                 Charge (a.u.)
  ----------------------------------------
      1 C                    -0.076315
      2 C                    -0.328491
      3 C                    -0.015059
      4 H                     0.177014
      5 C                     0.064682
      6 S                    -0.183361
      7 C                    -0.269371
      8 H                     0.114465
      9 H                     0.103585
     10 H                     0.108223
     11 C                    -0.062664
     12 C                    -0.250055
     13 C                     0.029047
     14 H                     0.181140
     15 C                    -0.235590
     16 S                     0.006911
     17 C                    -0.270955
     18 H                     0.102416
     19 H                     0.108645
     20 H                     0.107794
     21 H                     0.197565
     22 H                     0.109829
     23 H                     0.111119
     24 H                     0.169425
  ----------------------------------------
  Sum of atomic charges =     0.000000

 -----------------------------------------------------------------
                    Cartesian Multipole Moments
 -----------------------------------------------------------------
    Charge (ESU x 10^10)
                -0.0000
    Dipole Moment (Debye)
         X       3.2428      Y       0.7103      Z       1.8838
       Tot       3.8169
    Quadrupole Moments (Debye-Ang)
        XX     -90.7545     XY      -0.6069     YY     -75.2361
        XZ       0.0891     YZ       0.4712     ZZ     -85.8201
    Octopole Moments (Debye-Ang^2)
       XXX     -69.9379    XXY      50.6261    XYY     -12.0502
       YYY     134.5270    XXZ      -4.5648    XYZ       0.7592
       YYZ      -2.0459    XZZ     -23.9111    YZZ      59.0489
       ZZZ       1.3385
    Hexadecapole Moments (Debye-Ang^3)
      XXXX    -802.1605   XXXY    -188.4577   XXYY    -607.7028
      XYYY    -122.9902   YYYY   -2703.8489   XXXZ       9.4805
      XXYZ     -26.2072   XYYZ      -7.6280   YYYZ    -110.3086
      XXZZ    -235.7704   XYZZ     -41.2914   YYZZ    -586.0622
      XZZZ      15.6339   YZZZ     -96.8436   ZZZZ    -561.6339
 -----------------------------------------------------------------
 Total job time:  59.38s(wall), 1946.26s(cpu) 
 Fri Dec 15 14:02:37 2023

        *************************************************************
        *                                                           *
        *  Thank you very much for using Q-Chem.  Have a nice day.  *
        *                                                           *
        *************************************************************


0 sent ACK to 0 
now end server 0 ... 
cleanup process ... done
remove work dirs ./qchem161647.0 -- ./qchem161647.0
rm -rf ./qchem161647.0
rm -rf ./qchem161647
