You are running Q-Chem version: 5.4.0

#
# job setting
#
local host:  exp-8-02
current dir: /home/rramji/project-csd799/aromodel/p3ht-qchem/hydrogenated-rotation-run
input file:  Methylthiophene_Phi_20_Theta_70_Methylthiophene_Hydrogenated.qcin
output file: 
nprocs     : 1
nthreads   : 64
#
# qchem installation setting
#
QC:          /cm/shared/apps/spack/cpu/opt/spack/linux-centos8-zen2/gcc-10.2.0/qchem-5.4-akfmr7b3t57bfs6qan3padb2wnb2i7cl
QCAUX:       /cm/shared/apps/spack/cpu/opt/spack/linux-centos8-zen2/gcc-10.2.0/qchem-5.4-akfmr7b3t57bfs6qan3padb2wnb2i7cl/qcaux
QCPROG:      /cm/shared/apps/spack/cpu/opt/spack/linux-centos8-zen2/gcc-10.2.0/qchem-5.4-akfmr7b3t57bfs6qan3padb2wnb2i7cl/exe/qcprog.exe
QCPROG_S:    /cm/shared/apps/spack/cpu/opt/spack/linux-centos8-zen2/gcc-10.2.0/qchem-5.4-akfmr7b3t57bfs6qan3padb2wnb2i7cl/exe/qcprog.exe_s
PARALLEL:    -DPARALLEL
QCMPI:       mpich
#
# qchem directory setting
#
qcrun:       qchem161382
QCSCRATCH:   .
QCLOCALSCR:  
QCTMPDIR:    .
QCFILEPREF:  ./qchem161382
QCSAVEDIR:   
workdirs:    ./qchem161382
workdir0:    ./qchem161382
partmpdirs =  
#
# parallel setting
#
QCRSH:           ssh
QCMPI:           mpich
QCMPIRUN:        /cm/shared/apps/spack/cpu/opt/spack/linux-centos8-zen2/gcc-10.2.0/qchem-5.4-akfmr7b3t57bfs6qan3padb2wnb2i7cl/bin/mpi/mpirun_qchem
QCMACHINEFILE:   ./qchem161382/hostfile
exp-8-02

#
# env setting
#
exported envs:   QC QCAUX QCSCRATCH QCRUNNAME QCFILEPREF QCPROG QCPROG_S GUIFILE

Running Job 1 of 1 Methylthiophene_Phi_20_Theta_70_Methylthiophene_Hydrogenated.qcin
qchem Methylthiophene_Phi_20_Theta_70_Methylthiophene_Hydrogenated.qcin_161382.0 ./qchem161382/ 1
/cm/shared/apps/spack/cpu/opt/spack/linux-centos8-zen2/gcc-10.2.0/qchem-5.4-akfmr7b3t57bfs6qan3padb2wnb2i7cl/bin/mpi/mpirun_qchem -machinefile ./qchem161382/hostfile -np 1 /cm/shared/apps/spack/cpu/opt/spack/linux-centos8-zen2/gcc-10.2.0/qchem-5.4-akfmr7b3t57bfs6qan3padb2wnb2i7cl/exe/qcprog.exe Methylthiophene_Phi_20_Theta_70_Methylthiophene_Hydrogenated.qcin_161382.0 ./qchem161382/

Process 0 of 1 is on exp-8-02 - thread support 0
initial socket setup ...start
initial socket setup ...done 
now start server 0 ... 
                  Welcome to Q-Chem
     A Quantum Leap Into The Future Of Chemistry


 Q-Chem 5.4, Q-Chem, Inc., Pleasanton, CA (2021)

 License issued to: University of California, San Diego (site)

 E. Epifanovsky,  A. T. B. Gilbert,  Xintian Feng,  Joonho Lee,  Yuezhi Mao,  
 N. Mardirossian,  P. Pokhilko,  A. White,  M. Wormit,  M. P. Coons,  
 A. L. Dempwolff,  Zhengting Gan,  D. Hait,  P. R. Horn,  L. D. Jacobson,  
 I. Kaliman,  J. Kussmann,  A. W. Lange,  Ka Un Lao,  D. S. Levine,  Jie Liu,  
 S. C. McKenzie,  A. F. Morrison,  K. Nanda,  F. Plasser,  D. R. Rehn,  
 M. L. Vidal,  Zhi-Qiang You,  Ying Zhu,  B. Alam,  B. Albrecht,  
 A. Aldossary,  E. Alguire,  J. H. Andersen,  D. Barton,  K. Begam,  A. Behn,  
 Y. A. Bernard,  E. J. Berquist,  H. Burton,  A. Carreras,  K. Carter-Fenk,  
 R. Chakraborty,  A. D. Chien,  K. D. Closser,  V. Cofer-Shabica,  
 S. Dasgupta,  Jia Deng,  M. de Wergifosse,  M. Diedenhofen,  Hainam Do,  
 S. Ehlert,  Po-Tung Fang,  S. Fatehi,  Qingguo Feng,  J. Gayvert,  
 Qinghui Ge,  G. Gidofalvi,  M. Goldey,  J. Gomes,  C. Gonzalez-Espinoza,  
 S. Gulania,  A. Gunina,  M. W. D. Hanson-Heine,  P. H. P. Harbach,  
 A. W. Hauser,  M. F. Herbst,  M. Hernandez Vera,  M. Hodecker,  
 Z. C. Holden,  S. Houck,  Xunkun Huang,  Kerwin Hui,  B. C. Huynh,  
 M. Ivanov,  Hyunjun Ji,  Hanjie Jiang,  B. Kaduk,  S. Kaehler,  
 K. Khistyaev,  Jaehoon Kim,  P. Klunzinger,  Z. Koczor-Benda,  
 Joong Hoon Koh,  D. Kosenkov,  L. Koulias,  T. Kowalczyk,  C. M. Krauter,  
 K. Kue,  A. Kunitsa,  T. Kus,  A. Landau,  K. V. Lawler,  D. Lefrancois,  
 S. Lehtola,  Rain Li,  Yi-Pei Li,  Jiashu Liang,  M. Liebenthal,  
 Hung-Hsuan Lin,  You-Sheng Lin,  Fenglai Liu,  Kuan-Yu Liu,  
 M. Loipersberger,  A. Luenser,  A. Manjanath,  P. Manohar,  E. Mansoor,  
 S. F. Manzer,  Shan-Ping Mao,  A. V. Marenich,  T. Markovich,  S. Mason,  
 S. A. Maurer,  P. F. McLaughlin,  M. F. S. J. Menger,  J.-M. Mewes,  
 S. A. Mewes,  P. Morgante,  J. W. Mullinax,  T. S. Nguyen-Beck,  
 K. J. Oosterbaan,  G. Paran,  Alexander C. Paul,  Suranjan K. Paul,  
 F. Pavosevic,  Zheng Pei,  S. Prager,  E. I. Proynov,  E. Ramos,  B. Rana,  
 A. E. Rask,  A. Rettig,  R. M. Richard,  F. Rob,  E. Rossomme,  T. Scheele,  
 M. Scheurer,  M. Schneider,  N. Sergueev,  S. M. Sharada,  W. Skomorowski,  
 D. W. Small,  C. J. Stein,  Yu-Chuan Su,  E. J. Sundstrom,  Zhen Tao,  
 J. Thirman,  T. Tsuchimochi,  N. M. Tubman,  S. P. Veccham,  O. Vydrov,  
 J. Wenzel,  J. Witte,  A. Yamada,  Kun Yao,  S. Yeganeh,  S. R. Yost,  
 A. Zech,  Igor Ying Zhang,  Xing Zhang,  Yu Zhang,  D. Zuev,  
 A. Aspuru-Guzik,  A. T. Bell,  N. A. Besley,  K. B. Bravaya,  B. R. Brooks,  
 D. Casanova,  Jeng-Da Chai,  S. Coriani,  C. J. Cramer,  
 A. E. DePrince, III,  R. A. DiStasio Jr.,  A. Dreuw,  B. D. Dunietz,  
 T. R. Furlani,  W. A. Goddard III,  S. Grimme,  S. Hammes-Schiffer,  
 T. Head-Gordon,  W. J. Hehre,  Chao-Ping Hsu,  T.-C. Jagau,  Yousung Jung,  
 A. Klamt,  Jing Kong,  D. S. Lambrecht,  WanZhen Liang,  N. J. Mayhall,  
 C. W. McCurdy,  J. B. Neaton,  C. Ochsenfeld,  J. A. Parkhill,  R. Peverati,  
 V. A. Rassolov,  Yihan Shao,  L. V. Slipchenko,  T. Stauch,  R. P. Steele,  
 J. E. Subotnik,  A. J. W. Thom,  A. Tkatchenko,  D. G. Truhlar,  
 T. Van Voorhis,  T. A. Wesolowski,  K. B. Whaley,  H. L. Woodcock III,  
 P. M. Zimmerman,  S. Faraji,  P. M. W. Gill,  M. Head-Gordon,  
 J. M. Herbert,  A. I. Krylov

 Contributors to earlier versions of Q-Chem not listed above: 
 R. D. Adamson,  B. Austin,  R. Baer,  J. Baker,  G. J. O. Beran,  
 K. Brandhorst,  S. T. Brown,  E. F. C. Byrd,  A. K. Chakraborty,  
 G. K. L. Chan,  Chun-Min Chang,  Yunqing Chen,  C.-L. Cheng,  
 Siu Hung Chien,  D. M. Chipman,  D. L. Crittenden,  H. Dachsel,  
 R. J. Doerksen,  A. D. Dutoi,  R. G. Edgar,  J. Fosso-Tande,  
 L. Fusti-Molnar,  D. Ghosh,  A. Ghysels,  A. Golubeva-Zadorozhnaya,  
 J. Gonthier,  M. S. Gordon,  S. R. Gwaltney,  G. Hawkins,  J. E. Herr,  
 A. Heyden,  S. Hirata,  E. G. Hohenstein,  G. Kedziora,  F. J. Keil,  
 C. Kelley,  Jihan Kim,  R. A. King,  R. Z. Khaliullin,  P. P. Korambath,  
 W. Kurlancheek,  A. Laurent,  A. M. Lee,  M. S. Lee,  S. V. Levchenko,  
 Ching Yeh Lin,  D. Liotard,  E. Livshits,  R. C. Lochan,  I. Lotan,  
 L. A. Martinez-Martinez,  P. E. Maslen,  N. Nair,  D. P. O'Neill,  
 D. Neuhauser,  E. Neuscamman,  C. M. Oana,  R. Olivares-Amaya,  R. Olson,  
 T. M. Perrine,  B. Peters,  P. A. Pieniazek,  A. Prociuk,  Y. M. Rhee,  
 J. Ritchie,  M. A. Rohrdanz,  E. Rosta,  N. J. Russ,  H. F. Schaefer III,  
 M. W. Schmidt,  N. E. Schultz,  S. Sharma,  N. Shenvi,  C. D. Sherrill,  
 A. C. Simmonett,  A. Sodt,  T. Stein,  D. Stuck,  K. S. Thanthiriwatte,  
 V. Vanovschi,  L. Vogt,  Tao Wang,  A. Warshel,  M. A. Watson,  
 C. F. Williams,  Q. Wu,  X. Xu,  Jun Yang,  W. Zhang,  Yan Zhao

 Please cite Q-Chem as follows:
 Y. Shao et al., Mol. Phys. 113, 184-215 (2015)
 DOI: 10.1080/00268976.2014.952696

 Q-Chem 5.4.0 for Intel X86 EM64T Linux

 Parts of Q-Chem use Armadillo 9.800.1 (Horizon Scraper).
 http://arma.sourceforge.net/

 Q-Chem begins on Fri Dec 15 14:00:40 2023  

 Host: 
0

     Scratch files written to ./qchem161382//
 May1621 |scratch|qcdevops|jenkins|workspace|build_RNUM    
 Parallel job on  1  processors
 Processing $rem in /cm/shared/apps/spack/cpu/opt/spack/linux-centos8-zen2/gcc-10.2.0/qchem-5.4-akfmr7b3t57bfs6qan3padb2wnb2i7cl/config/preferences:
 Processing $rem in /home/rramji/.qchemrc:
 Symmetry turned off for PCM/SM12/SMD calculation
 Core orbitals will be frozen

 Checking the input file for inconsistencies... 	...done.

 Q-Chem warning in module forms1/BasisType.C, line 2236:

 You are not using the predefined 5D/6D in this basis set.


--------------------------------------------------------------
User input:
--------------------------------------------------------------
$molecule
0 1
C	-0.681143	-3.887800	0.246754
C	0.620906	-3.701456	-0.227093
C	1.019618	-2.345170	-0.371543
H	1.284357	-4.545233	-0.468992
C	0.000000	-1.450135	0.000000
S	-1.435522	-2.321334	0.522097
C	2.378731	-1.934439	-0.866035
H	3.003272	-2.819799	-1.093799
H	2.924444	-1.326210	-0.114688
H	2.313987	-1.325374	-1.791841
C	0.000000	0.000000	0.000000
C	0.285976	0.794723	1.113020
C	0.757308	2.103412	0.820578
H	0.154498	0.429575	2.142881
C	0.841565	2.336821	-0.563588
S	0.328498	0.913334	-1.464748
C	1.118059	3.105040	1.882380
H	0.966197	2.683616	2.894974
H	0.500773	4.024668	1.808137
H	2.180000	3.419766	1.808230
H	1.166129	3.238200	-1.097114
H	-0.688686	-4.420219	1.204454
H	-1.302703	-4.419395	-0.482482
H	0.369395	-1.450628	1.014863
$end

$rem
JOBTYPE		SP
EXCHANGE	HF
CORRELATION	pRIMP2
BASIS		cc-pvtz
METHOD		rimp2
AUX_BASIS	rimp2-cc-pvtz
SOLVENT_METHOD	PCM
PURECART	11111
SYMMETRY	false
MEM_TOTAL	110000
SCF_CONVERGENCE = 6
THRESH=10
GUI = 2
$end



$solvent
dielectric 4.90
$end
--------------------------------------------------------------
 ----------------------------------------------------------------
             Standard Nuclear Orientation (Angstroms)
    I     Atom           X                Y                Z
 ----------------------------------------------------------------
    1      C      -0.6811430000    -3.8878000000     0.2467540000
    2      C       0.6209060000    -3.7014560000    -0.2270930000
    3      C       1.0196180000    -2.3451700000    -0.3715430000
    4      H       1.2843570000    -4.5452330000    -0.4689920000
    5      C       0.0000000000    -1.4501350000     0.0000000000
    6      S      -1.4355220000    -2.3213340000     0.5220970000
    7      C       2.3787310000    -1.9344390000    -0.8660350000
    8      H       3.0032720000    -2.8197990000    -1.0937990000
    9      H       2.9244440000    -1.3262100000    -0.1146880000
   10      H       2.3139870000    -1.3253740000    -1.7918410000
   11      C       0.0000000000     0.0000000000     0.0000000000
   12      C       0.2859760000     0.7947230000     1.1130200000
   13      C       0.7573080000     2.1034120000     0.8205780000
   14      H       0.1544980000     0.4295750000     2.1428810000
   15      C       0.8415650000     2.3368210000    -0.5635880000
   16      S       0.3284980000     0.9133340000    -1.4647480000
   17      C       1.1180590000     3.1050400000     1.8823800000
   18      H       0.9661970000     2.6836160000     2.8949740000
   19      H       0.5007730000     4.0246680000     1.8081370000
   20      H       2.1800000000     3.4197660000     1.8082300000
   21      H       1.1661290000     3.2382000000    -1.0971140000
   22      H      -0.6886860000    -4.4202190000     1.2044540000
   23      H      -1.3027030000    -4.4193950000    -0.4824820000
   24      H       0.3693950000    -1.4506280000     1.0148630000
 ----------------------------------------------------------------
 Nuclear Repulsion Energy =         874.99520501 hartrees
 There are       52 alpha and       52 beta electrons
 Requested basis set is cc-pVTZ
 There are 196 shells and 536 basis functions

 Total QAlloc Memory Limit 110000 MB
 Mega-Array Size       188 MB
 MEM_STATIC part       192 MB
 Discretize the solute cavity surface with Lebedev spheres
	Using 110 Lebedev grid points for each H atom
	Using 194 Lebedev grid points for other atoms
	Atomic van der Waals radii will be scaled by 1.20
 Remove points where switching function is < 1.0e-08
 Keep 1618 surface tesserae and discard 2030 interior tesserae
 Molecular Surface Area = 235.975 Angst**2
 Requested basis set is rimp2-cc-pVTZ
 There are 414 shells and 1414 basis functions
 A cutoff of  1.0D-10 yielded  14130 shell pairs
 There are    102530 function pairs (    131533 Cartesian)
 Smallest overlap matrix eigenvalue = 6.36E-05

 Scale SEOQF with 1.000000e-01/1.000000e-01/1.000000e-01

 Standard Electronic Orientation quadrupole field applied
 Nucleus-field energy     =     0.0000000346 hartrees
 Guess from superposition of atomic densities
 Warning:  Energy on first SCF cycle will be non-variational
 SAD guess density has 104.000000 electrons

 -----------------------------------------------------------------------
  General SCF calculation program by
  Eric Jon Sundstrom, Paul Horn, Yuezhi Mao, Dmitri Zuev, Alec White,
  David Stuck, Shaama M.S., Shane Yost, Joonho Lee, David Small,
  Daniel Levine, Susi Lehtola, Hugh Burton, Evgeny Epifanovsky,
  Bang C. Huynh
 -----------------------------------------------------------------------
 Hartree-Fock
 using 64 threads for integral computing
 -------------------------------------------------------
 OpenMP Integral computing Module                
 Release: version 1.0, May 2013, Q-Chem Inc. Pittsburgh 
 -------------------------------------------------------
 A restricted SCF calculation will be
 performed using DIIS
 SCF converges when DIIS error is below 1.0e-06
 ---------------------------------------
  Cycle       Energy         DIIS error
 ---------------------------------------
    1   -1186.0182361637      2.39e-02  
    2   -1180.6115495433      1.55e-03  
    3   -1180.7357784503      5.89e-04  
    4   -1180.7494463036      3.30e-04  
    5   -1180.7543770085      5.95e-05  
    6   -1180.7546241564      2.43e-05  
    7   -1180.7546840683      9.26e-06  
    8   -1180.7546986594      4.40e-06  
    9   -1180.7547020660      1.59e-06  
   10   -1180.7547026071      5.34e-07  Convergence criterion met
 ---------------------------------------
 SCF time:   CPU 1669.92s  wall 49.00s 

************** Final PCM Free Energy Summary **************
 G_electrostatic  =      -0.00887239 hartree =      -5.56750825 kcal/mol
 G_cavitation     =       0.00000000 hartree =       0.00000000 kcal/mol
 G_dispersion     =       0.00000000 hartree =       0.00000000 kcal/mol
 G_repulsion      =       0.00000000 hartree =       0.00000000 kcal/mol
 --------------------------------------------------
 Non-electrostatic Free Energy =       0.00000000 hartree =       0.00000000 kcal/mol
 Total                         =      -0.00887239 hartree =      -5.56750825 kcal/mol
 --------------------------------------------------
 SCF Energy (H0 + V/2)                       =   -1180.75470261 
 Solute Internal Energy (H0)                 =   -1180.74583022 
 Total Free Energy (H0 + V/2 + non-elec)     =   -1180.75470261 hartree
                                             = -740934.75881376 kcal/mol
***********************************************************

 SCF   energy in the final basis set =    -1180.7547026071
 Total energy in the final basis set =    -1180.7547026071


 --------------------------------------------------------------
  Generalized many-body perturbation theory program
  by Joonho Lee, Fazle Rob, Xintian Feng, Evgeny Epifanovsky

 No regularization used 
 (reg. param. = 0.0000e+00)
  (P|Q)^-1/2 Time:  CPU 20.14 s  wall 0.32 s

 In RI-MP2 calculation: 
 # of frozen core orbitals: 20

 Components of the RIMP2 correlation energy:
        aaaa    correlation energy =        -0.2515756961 a.u.
        abab    correlation energy =        -1.5040379753 a.u.
        bbbb    correlation energy =        -0.2515756961 a.u.
        non-Brillouin singles      =        -0.0000000000 a.u.
        total same-spin energy     =        -0.5031513923 a.u.
        total opposite-spin energy =        -1.5040379753 a.u.

 Total  RIMP2   correlation energy =        -2.0071893675 a.u.
        RIMP2         total energy =     -1182.7618919746 a.u.

 RI-MP2 Energy Time:  CPU 170.86 s  wall 3.31 s
 
 --------------------------------------------------------------
 
                    Orbital Energies (a.u.)
 --------------------------------------------------------------
 
 Alpha MOs
 -- Occupied --
-91.9819 -91.9397 -11.2804 -11.2659 -11.2627 -11.2550 -11.2514 -11.2430
-11.2405 -11.2301 -11.2297 -11.2191  -8.9817  -8.9445  -6.6626  -6.6621
 -6.6616  -6.6259  -6.6248  -6.6235  -1.1980  -1.1538  -1.0573  -1.0241
 -1.0074  -0.9591  -0.9115  -0.9018  -0.8124  -0.7635  -0.7338  -0.7010
 -0.6606  -0.6404  -0.6105  -0.5879  -0.5793  -0.5728  -0.5671  -0.5506
 -0.5414  -0.5293  -0.5159  -0.5044  -0.4945  -0.4770  -0.4591  -0.4480
 -0.3546  -0.3432  -0.3158  -0.2757
 -- Virtual --
  0.0913   0.1344   0.1404   0.1526   0.1584   0.1706   0.1774   0.1797
  0.1911   0.1957   0.2038   0.2088   0.2288   0.2340   0.2397   0.2432
  0.2507   0.2607   0.2622   0.2920   0.3085   0.3344   0.3463   0.3529
  0.3635   0.3733   0.3765   0.3952   0.3956   0.4027   0.4138   0.4270
  0.4358   0.4435   0.4471   0.4614   0.4638   0.4730   0.4815   0.4922
  0.5072   0.5118   0.5151   0.5346   0.5370   0.5421   0.5512   0.5555
  0.5631   0.5686   0.5778   0.5922   0.5964   0.6084   0.6138   0.6210
  0.6240   0.6300   0.6339   0.6416   0.6428   0.6477   0.6510   0.6527
  0.6650   0.6729   0.6814   0.6837   0.6907   0.7053   0.7113   0.7270
  0.7340   0.7459   0.7503   0.7610   0.7899   0.7940   0.8036   0.8226
  0.8332   0.8386   0.8488   0.8550   0.8683   0.8792   0.8909   0.9069
  0.9345   0.9432   0.9555   0.9627   0.9739   0.9883   0.9995   1.0067
  1.0148   1.0215   1.0288   1.0362   1.0509   1.0680   1.0745   1.0757
  1.0941   1.0962   1.1076   1.1239   1.1317   1.1548   1.1625   1.1716
  1.1773   1.1957   1.2016   1.2063   1.2171   1.2217   1.2297   1.2436
  1.2527   1.2579   1.2621   1.2717   1.2801   1.2842   1.3038   1.3080
  1.3205   1.3310   1.3341   1.3600   1.3735   1.4010   1.4058   1.4160
  1.4207   1.4358   1.4450   1.4501   1.4738   1.4799   1.4924   1.4995
  1.5086   1.5126   1.5177   1.5307   1.5320   1.5427   1.5490   1.5540
  1.5661   1.5767   1.5799   1.5911   1.6046   1.6135   1.6211   1.6432
  1.6479   1.6586   1.6821   1.6922   1.6938   1.7049   1.7176   1.7339
  1.7421   1.7601   1.7759   1.7925   1.8057   1.8284   1.8443   1.8651
  1.8726   1.9121   1.9252   1.9385   1.9572   1.9665   1.9917   1.9946
  2.0142   2.0306   2.0393   2.0552   2.0898   2.1141   2.1286   2.1575
  2.1868   2.1879   2.2079   2.2175   2.2365   2.2565   2.2706   2.2840
  2.3205   2.3328   2.3355   2.3579   2.3975   2.4183   2.4402   2.4578
  2.4989   2.5081   2.5336   2.5509   2.5679   2.5789   2.6047   2.6186
  2.6372   2.6535   2.6561   2.6645   2.6761   2.6973   2.7165   2.7248
  2.7369   2.7473   2.7577   2.7654   2.7763   2.7863   2.7887   2.8202
  2.8301   2.8460   2.8550   2.8771   2.8841   2.9079   2.9150   2.9328
  2.9423   2.9531   2.9614   2.9724   3.0081   3.0241   3.0323   3.0365
  3.0475   3.0893   3.0923   3.1038   3.1117   3.1158   3.1242   3.1376
  3.1483   3.1573   3.1609   3.1719   3.1845   3.1928   3.1960   3.2069
  3.2236   3.2393   3.2515   3.2705   3.2782   3.2841   3.2957   3.3047
  3.3189   3.3197   3.3252   3.3379   3.3517   3.3567   3.3572   3.3668
  3.3724   3.3871   3.3917   3.3980   3.4042   3.4095   3.4239   3.4286
  3.4408   3.4525   3.4606   3.4657   3.4796   3.4836   3.4980   3.5011
  3.5164   3.5234   3.5375   3.5385   3.5441   3.5530   3.5751   3.5807
  3.5905   3.6039   3.6091   3.6303   3.6353   3.6378   3.6457   3.6617
  3.6645   3.6765   3.6878   3.6900   3.7027   3.7218   3.7337   3.7379
  3.7490   3.7550   3.7650   3.7763   3.7827   3.7944   3.7999   3.8153
  3.8276   3.8313   3.8478   3.8646   3.8713   3.8843   3.8946   3.9141
  3.9325   3.9438   3.9526   3.9675   3.9717   3.9811   3.9971   4.0076
  4.0289   4.0396   4.0509   4.0579   4.0794   4.0819   4.0909   4.1081
  4.1211   4.1303   4.1424   4.1582   4.1675   4.1739   4.1909   4.1993
  4.2121   4.2182   4.2296   4.2517   4.2564   4.2616   4.2653   4.2857
  4.2891   4.3021   4.3143   4.3288   4.3369   4.3474   4.3596   4.3624
  4.3765   4.3985   4.4009   4.4180   4.4210   4.4245   4.4300   4.4440
  4.4600   4.4687   4.4793   4.4871   4.5011   4.5077   4.5283   4.5508
  4.5653   4.5862   4.6032   4.6302   4.6413   4.6479   4.6668   4.6833
  4.6873   4.7165   4.7325   4.7684   4.7939   4.8028   4.8113   4.8425
  4.8603   4.8658   4.8911   4.9076   4.9392   4.9427   4.9754   4.9904
  5.0224   5.0381   5.0932   5.0978   5.1169   5.1324   5.1383   5.1705
  5.1816   5.2001   5.2282   5.2692   5.2822   5.2836   5.3128   5.3184
  5.3400   5.3613   5.3811   5.3986   5.4111   5.4304   5.4413   5.4548
  5.4686   5.5139   5.5234   5.5379   5.5494   5.5603   5.5664   5.5943
  5.6180   5.6258   5.6324   5.6433   5.6774   5.6940   5.7073   5.7326
  5.7758   5.8122   5.8300   5.9756   5.9940   6.0912   6.1240   6.1353
  6.2090   6.2174   6.2258   6.2362   6.2549   6.2891   6.2917   6.3224
  6.3831   6.4567   9.4612  10.3929  12.0510  12.9369  13.1504  13.9732
 14.0720  14.2098  14.3135  14.7032
 --------------------------------------------------------------
 
          Ground-State Mulliken Net Atomic Charges

     Atom                 Charge (a.u.)
  ----------------------------------------
      1 C                    -0.075077
      2 C                    -0.328322
      3 C                    -0.018176
      4 H                     0.177374
      5 C                     0.062917
      6 S                    -0.183391
      7 C                    -0.272295
      8 H                     0.114558
      9 H                     0.105758
     10 H                     0.108836
     11 C                    -0.059696
     12 C                    -0.248904
     13 C                     0.027209
     14 H                     0.181150
     15 C                    -0.238729
     16 S                     0.007879
     17 C                    -0.270952
     18 H                     0.102503
     19 H                     0.108609
     20 H                     0.107671
     21 H                     0.197181
     22 H                     0.109635
     23 H                     0.111257
     24 H                     0.173003
  ----------------------------------------
  Sum of atomic charges =     0.000000

 -----------------------------------------------------------------
                    Cartesian Multipole Moments
 -----------------------------------------------------------------
    Charge (ESU x 10^10)
                -0.0000
    Dipole Moment (Debye)
         X       3.2476      Y       0.6130      Z       1.4047
       Tot       3.5910
    Quadrupole Moments (Debye-Ang)
        XX     -90.8467     XY      -0.6900     YY     -75.3710
        XZ       0.1307     YZ       1.1726     ZZ     -85.6718
    Octopole Moments (Debye-Ang^2)
       XXX     -71.2271    XXY      51.0767    XYY     -11.9543
       YYY     133.8603    XXZ      -5.6985    XYZ       1.2493
       YYZ      -1.9019    XZZ     -22.7456    YZZ      58.3438
       ZZZ       2.2048
    Hexadecapole Moments (Debye-Ang^3)
      XXXX    -756.9906   XXXY    -183.6209   XXYY    -603.1224
      XYYY    -123.5388   YYYY   -2704.6933   XXXZ      51.1420
      XXYZ     -20.7757   XYYZ       3.0140   YYYZ    -110.1181
      XXZZ    -232.6656   XYZZ     -44.9585   YYZZ    -591.1102
      XZZZ      59.2310   YZZZ     -97.5990   ZZZZ    -612.2401
 -----------------------------------------------------------------
 Total job time:  54.54s(wall), 1912.34s(cpu) 
 Fri Dec 15 14:01:35 2023

        *************************************************************
        *                                                           *
        *  Thank you very much for using Q-Chem.  Have a nice day.  *
        *                                                           *
        *************************************************************


0 sent ACK to 0 
now end server 0 ... 
cleanup process ... done
remove work dirs ./qchem161382.0 -- ./qchem161382.0
rm -rf ./qchem161382.0
rm -rf ./qchem161382
