You are running Q-Chem version: 5.4.0

#
# job setting
#
local host:  exp-9-54
current dir: /home/rramji/project-csd799/aromodel/p3ht-qchem/hydrogenated-rotation-run
input file:  Methylthiophene_Phi_25_Theta_110_Methylthiophene_Hydrogenated.qcin
output file: 
nprocs     : 1
nthreads   : 64
#
# qchem installation setting
#
QC:          /cm/shared/apps/spack/cpu/opt/spack/linux-centos8-zen2/gcc-10.2.0/qchem-5.4-akfmr7b3t57bfs6qan3padb2wnb2i7cl
QCAUX:       /cm/shared/apps/spack/cpu/opt/spack/linux-centos8-zen2/gcc-10.2.0/qchem-5.4-akfmr7b3t57bfs6qan3padb2wnb2i7cl/qcaux
QCPROG:      /cm/shared/apps/spack/cpu/opt/spack/linux-centos8-zen2/gcc-10.2.0/qchem-5.4-akfmr7b3t57bfs6qan3padb2wnb2i7cl/exe/qcprog.exe
QCPROG_S:    /cm/shared/apps/spack/cpu/opt/spack/linux-centos8-zen2/gcc-10.2.0/qchem-5.4-akfmr7b3t57bfs6qan3padb2wnb2i7cl/exe/qcprog.exe_s
PARALLEL:    -DPARALLEL
QCMPI:       mpich
#
# qchem directory setting
#
qcrun:       qchem3692102
QCSCRATCH:   .
QCLOCALSCR:  
QCTMPDIR:    .
QCFILEPREF:  ./qchem3692102
QCSAVEDIR:   
workdirs:    ./qchem3692102
workdir0:    ./qchem3692102
partmpdirs =  
#
# parallel setting
#
QCRSH:           ssh
QCMPI:           mpich
QCMPIRUN:        /cm/shared/apps/spack/cpu/opt/spack/linux-centos8-zen2/gcc-10.2.0/qchem-5.4-akfmr7b3t57bfs6qan3padb2wnb2i7cl/bin/mpi/mpirun_qchem
QCMACHINEFILE:   ./qchem3692102/hostfile
exp-9-54

#
# env setting
#
exported envs:   QC QCAUX QCSCRATCH QCRUNNAME QCFILEPREF QCPROG QCPROG_S GUIFILE

Running Job 1 of 1 Methylthiophene_Phi_25_Theta_110_Methylthiophene_Hydrogenated.qcin
qchem Methylthiophene_Phi_25_Theta_110_Methylthiophene_Hydrogenated.qcin_3692102.0 ./qchem3692102/ 1
/cm/shared/apps/spack/cpu/opt/spack/linux-centos8-zen2/gcc-10.2.0/qchem-5.4-akfmr7b3t57bfs6qan3padb2wnb2i7cl/bin/mpi/mpirun_qchem -machinefile ./qchem3692102/hostfile -np 1 /cm/shared/apps/spack/cpu/opt/spack/linux-centos8-zen2/gcc-10.2.0/qchem-5.4-akfmr7b3t57bfs6qan3padb2wnb2i7cl/exe/qcprog.exe Methylthiophene_Phi_25_Theta_110_Methylthiophene_Hydrogenated.qcin_3692102.0 ./qchem3692102/

Process 0 of 1 is on exp-9-54 - thread support 0
initial socket setup ...start
initial socket setup ...done 
now start server 0 ... 
                  Welcome to Q-Chem
     A Quantum Leap Into The Future Of Chemistry


 Q-Chem 5.4, Q-Chem, Inc., Pleasanton, CA (2021)

 License issued to: University of California, San Diego (site)

 E. Epifanovsky,  A. T. B. Gilbert,  Xintian Feng,  Joonho Lee,  Yuezhi Mao,  
 N. Mardirossian,  P. Pokhilko,  A. White,  M. Wormit,  M. P. Coons,  
 A. L. Dempwolff,  Zhengting Gan,  D. Hait,  P. R. Horn,  L. D. Jacobson,  
 I. Kaliman,  J. Kussmann,  A. W. Lange,  Ka Un Lao,  D. S. Levine,  Jie Liu,  
 S. C. McKenzie,  A. F. Morrison,  K. Nanda,  F. Plasser,  D. R. Rehn,  
 M. L. Vidal,  Zhi-Qiang You,  Ying Zhu,  B. Alam,  B. Albrecht,  
 A. Aldossary,  E. Alguire,  J. H. Andersen,  D. Barton,  K. Begam,  A. Behn,  
 Y. A. Bernard,  E. J. Berquist,  H. Burton,  A. Carreras,  K. Carter-Fenk,  
 R. Chakraborty,  A. D. Chien,  K. D. Closser,  V. Cofer-Shabica,  
 S. Dasgupta,  Jia Deng,  M. de Wergifosse,  M. Diedenhofen,  Hainam Do,  
 S. Ehlert,  Po-Tung Fang,  S. Fatehi,  Qingguo Feng,  J. Gayvert,  
 Qinghui Ge,  G. Gidofalvi,  M. Goldey,  J. Gomes,  C. Gonzalez-Espinoza,  
 S. Gulania,  A. Gunina,  M. W. D. Hanson-Heine,  P. H. P. Harbach,  
 A. W. Hauser,  M. F. Herbst,  M. Hernandez Vera,  M. Hodecker,  
 Z. C. Holden,  S. Houck,  Xunkun Huang,  Kerwin Hui,  B. C. Huynh,  
 M. Ivanov,  Hyunjun Ji,  Hanjie Jiang,  B. Kaduk,  S. Kaehler,  
 K. Khistyaev,  Jaehoon Kim,  P. Klunzinger,  Z. Koczor-Benda,  
 Joong Hoon Koh,  D. Kosenkov,  L. Koulias,  T. Kowalczyk,  C. M. Krauter,  
 K. Kue,  A. Kunitsa,  T. Kus,  A. Landau,  K. V. Lawler,  D. Lefrancois,  
 S. Lehtola,  Rain Li,  Yi-Pei Li,  Jiashu Liang,  M. Liebenthal,  
 Hung-Hsuan Lin,  You-Sheng Lin,  Fenglai Liu,  Kuan-Yu Liu,  
 M. Loipersberger,  A. Luenser,  A. Manjanath,  P. Manohar,  E. Mansoor,  
 S. F. Manzer,  Shan-Ping Mao,  A. V. Marenich,  T. Markovich,  S. Mason,  
 S. A. Maurer,  P. F. McLaughlin,  M. F. S. J. Menger,  J.-M. Mewes,  
 S. A. Mewes,  P. Morgante,  J. W. Mullinax,  T. S. Nguyen-Beck,  
 K. J. Oosterbaan,  G. Paran,  Alexander C. Paul,  Suranjan K. Paul,  
 F. Pavosevic,  Zheng Pei,  S. Prager,  E. I. Proynov,  E. Ramos,  B. Rana,  
 A. E. Rask,  A. Rettig,  R. M. Richard,  F. Rob,  E. Rossomme,  T. Scheele,  
 M. Scheurer,  M. Schneider,  N. Sergueev,  S. M. Sharada,  W. Skomorowski,  
 D. W. Small,  C. J. Stein,  Yu-Chuan Su,  E. J. Sundstrom,  Zhen Tao,  
 J. Thirman,  T. Tsuchimochi,  N. M. Tubman,  S. P. Veccham,  O. Vydrov,  
 J. Wenzel,  J. Witte,  A. Yamada,  Kun Yao,  S. Yeganeh,  S. R. Yost,  
 A. Zech,  Igor Ying Zhang,  Xing Zhang,  Yu Zhang,  D. Zuev,  
 A. Aspuru-Guzik,  A. T. Bell,  N. A. Besley,  K. B. Bravaya,  B. R. Brooks,  
 D. Casanova,  Jeng-Da Chai,  S. Coriani,  C. J. Cramer,  
 A. E. DePrince, III,  R. A. DiStasio Jr.,  A. Dreuw,  B. D. Dunietz,  
 T. R. Furlani,  W. A. Goddard III,  S. Grimme,  S. Hammes-Schiffer,  
 T. Head-Gordon,  W. J. Hehre,  Chao-Ping Hsu,  T.-C. Jagau,  Yousung Jung,  
 A. Klamt,  Jing Kong,  D. S. Lambrecht,  WanZhen Liang,  N. J. Mayhall,  
 C. W. McCurdy,  J. B. Neaton,  C. Ochsenfeld,  J. A. Parkhill,  R. Peverati,  
 V. A. Rassolov,  Yihan Shao,  L. V. Slipchenko,  T. Stauch,  R. P. Steele,  
 J. E. Subotnik,  A. J. W. Thom,  A. Tkatchenko,  D. G. Truhlar,  
 T. Van Voorhis,  T. A. Wesolowski,  K. B. Whaley,  H. L. Woodcock III,  
 P. M. Zimmerman,  S. Faraji,  P. M. W. Gill,  M. Head-Gordon,  
 J. M. Herbert,  A. I. Krylov

 Contributors to earlier versions of Q-Chem not listed above: 
 R. D. Adamson,  B. Austin,  R. Baer,  J. Baker,  G. J. O. Beran,  
 K. Brandhorst,  S. T. Brown,  E. F. C. Byrd,  A. K. Chakraborty,  
 G. K. L. Chan,  Chun-Min Chang,  Yunqing Chen,  C.-L. Cheng,  
 Siu Hung Chien,  D. M. Chipman,  D. L. Crittenden,  H. Dachsel,  
 R. J. Doerksen,  A. D. Dutoi,  R. G. Edgar,  J. Fosso-Tande,  
 L. Fusti-Molnar,  D. Ghosh,  A. Ghysels,  A. Golubeva-Zadorozhnaya,  
 J. Gonthier,  M. S. Gordon,  S. R. Gwaltney,  G. Hawkins,  J. E. Herr,  
 A. Heyden,  S. Hirata,  E. G. Hohenstein,  G. Kedziora,  F. J. Keil,  
 C. Kelley,  Jihan Kim,  R. A. King,  R. Z. Khaliullin,  P. P. Korambath,  
 W. Kurlancheek,  A. Laurent,  A. M. Lee,  M. S. Lee,  S. V. Levchenko,  
 Ching Yeh Lin,  D. Liotard,  E. Livshits,  R. C. Lochan,  I. Lotan,  
 L. A. Martinez-Martinez,  P. E. Maslen,  N. Nair,  D. P. O'Neill,  
 D. Neuhauser,  E. Neuscamman,  C. M. Oana,  R. Olivares-Amaya,  R. Olson,  
 T. M. Perrine,  B. Peters,  P. A. Pieniazek,  A. Prociuk,  Y. M. Rhee,  
 J. Ritchie,  M. A. Rohrdanz,  E. Rosta,  N. J. Russ,  H. F. Schaefer III,  
 M. W. Schmidt,  N. E. Schultz,  S. Sharma,  N. Shenvi,  C. D. Sherrill,  
 A. C. Simmonett,  A. Sodt,  T. Stein,  D. Stuck,  K. S. Thanthiriwatte,  
 V. Vanovschi,  L. Vogt,  Tao Wang,  A. Warshel,  M. A. Watson,  
 C. F. Williams,  Q. Wu,  X. Xu,  Jun Yang,  W. Zhang,  Yan Zhao

 Please cite Q-Chem as follows:
 Y. Shao et al., Mol. Phys. 113, 184-215 (2015)
 DOI: 10.1080/00268976.2014.952696

 Q-Chem 5.4.0 for Intel X86 EM64T Linux

 Parts of Q-Chem use Armadillo 9.800.1 (Horizon Scraper).
 http://arma.sourceforge.net/

 Q-Chem begins on Fri Dec 15 14:04:54 2023  

 Host: 
0

     Scratch files written to ./qchem3692102//
 May1621 |scratch|qcdevops|jenkins|workspace|build_RNUM    
 Parallel job on  1  processors
 Processing $rem in /cm/shared/apps/spack/cpu/opt/spack/linux-centos8-zen2/gcc-10.2.0/qchem-5.4-akfmr7b3t57bfs6qan3padb2wnb2i7cl/config/preferences:
 Processing $rem in /home/rramji/.qchemrc:
 Symmetry turned off for PCM/SM12/SMD calculation
 Core orbitals will be frozen

 Checking the input file for inconsistencies... 	...done.

 Q-Chem warning in module forms1/BasisType.C, line 2236:

 You are not using the predefined 5D/6D in this basis set.


--------------------------------------------------------------
User input:
--------------------------------------------------------------
$molecule
0 1
C	-0.680396	-3.887800	-0.248806
C	0.621614	-3.701456	0.225147
C	1.019896	-2.345170	0.370780
H	1.285337	-4.545233	0.466300
C	0.000000	-1.450135	0.000000
S	-1.435271	-2.321334	-0.522786
C	2.378891	-1.934439	0.865597
H	3.003720	-2.819799	1.092567
H	2.313975	-1.326210	1.791940
H	2.924390	-1.325374	0.114772
C	0.000000	0.000000	0.000000
C	0.354153	0.766774	1.113020
C	0.937751	2.029404	0.820578
H	0.191350	0.414475	2.142881
C	1.042030	2.254581	-0.563588
S	0.406851	0.881228	-1.464748
C	1.384426	2.995779	1.882380
H	1.196413	2.589194	2.894974
H	0.849641	3.965707	1.808137
H	2.469756	3.216753	1.808230
H	1.443919	3.124243	-1.097114
H	-1.301772	-4.420219	0.479986
H	-0.687795	-4.419395	-1.206964
H	-0.369368	-1.450628	1.014873
$end

$rem
JOBTYPE		SP
EXCHANGE	HF
CORRELATION	pRIMP2
BASIS		cc-pvtz
METHOD		rimp2
AUX_BASIS	rimp2-cc-pvtz
SOLVENT_METHOD	PCM
PURECART	11111
SYMMETRY	false
MEM_TOTAL	110000
SCF_CONVERGENCE = 6
THRESH=10
GUI = 2
$end



$solvent
dielectric 4.90
$end
--------------------------------------------------------------
 ----------------------------------------------------------------
             Standard Nuclear Orientation (Angstroms)
    I     Atom           X                Y                Z
 ----------------------------------------------------------------
    1      C      -0.6803960000    -3.8878000000    -0.2488060000
    2      C       0.6216140000    -3.7014560000     0.2251470000
    3      C       1.0198960000    -2.3451700000     0.3707800000
    4      H       1.2853370000    -4.5452330000     0.4663000000
    5      C       0.0000000000    -1.4501350000     0.0000000000
    6      S      -1.4352710000    -2.3213340000    -0.5227860000
    7      C       2.3788910000    -1.9344390000     0.8655970000
    8      H       3.0037200000    -2.8197990000     1.0925670000
    9      H       2.3139750000    -1.3262100000     1.7919400000
   10      H       2.9243900000    -1.3253740000     0.1147720000
   11      C       0.0000000000     0.0000000000     0.0000000000
   12      C       0.3541530000     0.7667740000     1.1130200000
   13      C       0.9377510000     2.0294040000     0.8205780000
   14      H       0.1913500000     0.4144750000     2.1428810000
   15      C       1.0420300000     2.2545810000    -0.5635880000
   16      S       0.4068510000     0.8812280000    -1.4647480000
   17      C       1.3844260000     2.9957790000     1.8823800000
   18      H       1.1964130000     2.5891940000     2.8949740000
   19      H       0.8496410000     3.9657070000     1.8081370000
   20      H       2.4697560000     3.2167530000     1.8082300000
   21      H       1.4439190000     3.1242430000    -1.0971140000
   22      H      -1.3017720000    -4.4202190000     0.4799860000
   23      H      -0.6877950000    -4.4193950000    -1.2069640000
   24      H      -0.3693680000    -1.4506280000     1.0148730000
 ----------------------------------------------------------------
 Nuclear Repulsion Energy =         876.48223681 hartrees
 There are       52 alpha and       52 beta electrons
 Requested basis set is cc-pVTZ
 There are 196 shells and 536 basis functions

 Total QAlloc Memory Limit 110000 MB
 Mega-Array Size       188 MB
 MEM_STATIC part       192 MB
 Discretize the solute cavity surface with Lebedev spheres
	Using 110 Lebedev grid points for each H atom
	Using 194 Lebedev grid points for other atoms
	Atomic van der Waals radii will be scaled by 1.20
 Remove points where switching function is < 1.0e-08
 Keep 1627 surface tesserae and discard 2021 interior tesserae
 Molecular Surface Area = 236.297 Angst**2
 Requested basis set is rimp2-cc-pVTZ
 There are 414 shells and 1414 basis functions
 A cutoff of  1.0D-10 yielded  14274 shell pairs
 There are    103566 function pairs (    132824 Cartesian)
 Smallest overlap matrix eigenvalue = 6.24E-05

 Scale SEOQF with 1.000000e-01/1.000000e-01/1.000000e-01

 Standard Electronic Orientation quadrupole field applied
 Nucleus-field energy     =     0.0000000342 hartrees
 Guess from superposition of atomic densities
 Warning:  Energy on first SCF cycle will be non-variational
 SAD guess density has 104.000000 electrons

 -----------------------------------------------------------------------
  General SCF calculation program by
  Eric Jon Sundstrom, Paul Horn, Yuezhi Mao, Dmitri Zuev, Alec White,
  David Stuck, Shaama M.S., Shane Yost, Joonho Lee, David Small,
  Daniel Levine, Susi Lehtola, Hugh Burton, Evgeny Epifanovsky,
  Bang C. Huynh
 -----------------------------------------------------------------------
 Hartree-Fock
 using 64 threads for integral computing
 -------------------------------------------------------
 OpenMP Integral computing Module                
 Release: version 1.0, May 2013, Q-Chem Inc. Pittsburgh 
 -------------------------------------------------------
 A restricted SCF calculation will be
 performed using DIIS
 SCF converges when DIIS error is below 1.0e-06
 ---------------------------------------
  Cycle       Energy         DIIS error
 ---------------------------------------
    1   -1186.0156787932      2.39e-02  
    2   -1180.6117799053      1.54e-03  
    3   -1180.7358122488      5.69e-04  
    4   -1180.7490320337      3.16e-04  
    5   -1180.7535541510      5.91e-05  
    6   -1180.7537918900      2.39e-05  
    7   -1180.7538489279      9.20e-06  
    8   -1180.7538627469      4.30e-06  
    9   -1180.7538660051      1.61e-06  
   10   -1180.7538665491      5.56e-07  Convergence criterion met
 ---------------------------------------
 SCF time:   CPU 1690.87s  wall 51.00s 

************** Final PCM Free Energy Summary **************
 G_electrostatic  =      -0.00950455 hartree =      -5.96419444 kcal/mol
 G_cavitation     =       0.00000000 hartree =       0.00000000 kcal/mol
 G_dispersion     =       0.00000000 hartree =       0.00000000 kcal/mol
 G_repulsion      =       0.00000000 hartree =       0.00000000 kcal/mol
 --------------------------------------------------
 Non-electrostatic Free Energy =       0.00000000 hartree =       0.00000000 kcal/mol
 Total                         =      -0.00950455 hartree =      -5.96419444 kcal/mol
 --------------------------------------------------
 SCF Energy (H0 + V/2)                       =   -1180.75386655 
 Solute Internal Energy (H0)                 =   -1180.74436200 
 Total Free Energy (H0 + V/2 + non-elec)     =   -1180.75386655 hartree
                                             = -740934.23417943 kcal/mol
***********************************************************

 SCF   energy in the final basis set =    -1180.7538665491
 Total energy in the final basis set =    -1180.7538665491


 --------------------------------------------------------------
  Generalized many-body perturbation theory program
  by Joonho Lee, Fazle Rob, Xintian Feng, Evgeny Epifanovsky

 No regularization used 
 (reg. param. = 0.0000e+00)
  (P|Q)^-1/2 Time:  CPU 19.17 s  wall 0.31 s

 In RI-MP2 calculation: 
 # of frozen core orbitals: 20

 Components of the RIMP2 correlation energy:
        aaaa    correlation energy =        -0.2517060067 a.u.
        abab    correlation energy =        -1.5046372103 a.u.
        bbbb    correlation energy =        -0.2517060067 a.u.
        non-Brillouin singles      =        -0.0000000000 a.u.
        total same-spin energy     =        -0.5034120135 a.u.
        total opposite-spin energy =        -1.5046372103 a.u.

 Total  RIMP2   correlation energy =        -2.0080492238 a.u.
        RIMP2         total energy =     -1182.7619157729 a.u.

 RI-MP2 Energy Time:  CPU 165.19 s  wall 2.80 s
 
 --------------------------------------------------------------
 
                    Orbital Energies (a.u.)
 --------------------------------------------------------------
 
 Alpha MOs
 -- Occupied --
-91.9800 -91.9395 -11.2769 -11.2693 -11.2623 -11.2554 -11.2519 -11.2465
-11.2402 -11.2308 -11.2303 -11.2191  -8.9801  -8.9442  -6.6610  -6.6604
 -6.6599  -6.6256  -6.6246  -6.6233  -1.1979  -1.1542  -1.0571  -1.0253
 -1.0051  -0.9614  -0.9113  -0.9018  -0.8133  -0.7594  -0.7360  -0.7048
 -0.6583  -0.6407  -0.6113  -0.5902  -0.5817  -0.5720  -0.5638  -0.5520
 -0.5409  -0.5286  -0.5180  -0.5061  -0.4896  -0.4752  -0.4602  -0.4471
 -0.3544  -0.3418  -0.3157  -0.2794
 -- Virtual --
  0.0883   0.1318   0.1409   0.1500   0.1588   0.1716   0.1777   0.1839
  0.1867   0.1912   0.2038   0.2148   0.2288   0.2326   0.2359   0.2443
  0.2496   0.2572   0.2696   0.3003   0.3051   0.3362   0.3449   0.3543
  0.3625   0.3716   0.3840   0.3964   0.3986   0.4059   0.4107   0.4159
  0.4285   0.4392   0.4489   0.4552   0.4675   0.4769   0.4810   0.4878
  0.4950   0.5046   0.5145   0.5284   0.5354   0.5426   0.5529   0.5593
  0.5650   0.5801   0.5861   0.5907   0.5974   0.6068   0.6140   0.6162
  0.6231   0.6256   0.6291   0.6394   0.6413   0.6513   0.6527   0.6574
  0.6586   0.6688   0.6770   0.6873   0.6914   0.7009   0.7254   0.7310
  0.7423   0.7453   0.7577   0.7636   0.7797   0.7892   0.7947   0.8207
  0.8249   0.8464   0.8478   0.8655   0.8763   0.8872   0.8952   0.9067
  0.9266   0.9369   0.9498   0.9676   0.9790   0.9887   1.0056   1.0112
  1.0222   1.0293   1.0367   1.0421   1.0529   1.0647   1.0730   1.0799
  1.0904   1.0925   1.1106   1.1229   1.1385   1.1498   1.1684   1.1819
  1.1882   1.1902   1.1966   1.2017   1.2052   1.2256   1.2355   1.2380
  1.2519   1.2651   1.2673   1.2709   1.2785   1.2863   1.3015   1.3194
  1.3264   1.3286   1.3364   1.3621   1.3708   1.3926   1.4061   1.4119
  1.4216   1.4309   1.4449   1.4611   1.4778   1.4795   1.4845   1.5015
  1.5107   1.5157   1.5329   1.5360   1.5395   1.5443   1.5499   1.5559
  1.5631   1.5804   1.5878   1.5881   1.6145   1.6187   1.6217   1.6330
  1.6467   1.6627   1.6717   1.6883   1.6971   1.7169   1.7239   1.7407
  1.7437   1.7503   1.7670   1.7945   1.8096   1.8163   1.8502   1.8857
  1.8882   1.9044   1.9265   1.9432   1.9569   1.9610   1.9921   2.0052
  2.0268   2.0291   2.0454   2.0561   2.0938   2.1106   2.1384   2.1602
  2.1806   2.1931   2.2095   2.2165   2.2329   2.2461   2.2518   2.2725
  2.2939   2.2997   2.3412   2.3425   2.4031   2.4207   2.4601   2.4692
  2.4881   2.5118   2.5382   2.5577   2.5789   2.5973   2.6000   2.6207
  2.6378   2.6562   2.6629   2.6685   2.6816   2.6883   2.7016   2.7196
  2.7433   2.7529   2.7660   2.7727   2.7787   2.7807   2.7982   2.8219
  2.8440   2.8576   2.8631   2.8804   2.8912   2.9010   2.9124   2.9247
  2.9448   2.9505   2.9596   2.9861   3.0015   3.0132   3.0347   3.0424
  3.0521   3.0681   3.0772   3.1014   3.1113   3.1181   3.1246   3.1411
  3.1442   3.1558   3.1657   3.1728   3.1927   3.1965   3.2089   3.2144
  3.2270   3.2504   3.2593   3.2609   3.2842   3.2928   3.2952   3.3045
  3.3147   3.3197   3.3321   3.3397   3.3429   3.3544   3.3567   3.3620
  3.3721   3.3796   3.3891   3.3997   3.4101   3.4245   3.4299   3.4418
  3.4439   3.4513   3.4566   3.4749   3.4796   3.4861   3.4917   3.5034
  3.5199   3.5233   3.5367   3.5418   3.5506   3.5627   3.5651   3.5771
  3.5900   3.6149   3.6172   3.6254   3.6355   3.6451   3.6575   3.6679
  3.6739   3.6820   3.6950   3.7001   3.7057   3.7228   3.7369   3.7386
  3.7479   3.7570   3.7625   3.7731   3.7927   3.7935   3.8122   3.8220
  3.8271   3.8465   3.8527   3.8671   3.8754   3.8857   3.8945   3.9180
  3.9412   3.9488   3.9521   3.9605   3.9729   3.9913   4.0003   4.0121
  4.0300   4.0323   4.0502   4.0587   4.0690   4.0784   4.0946   4.1039
  4.1187   4.1256   4.1433   4.1557   4.1711   4.1754   4.1955   4.1984
  4.2109   4.2197   4.2290   4.2545   4.2552   4.2605   4.2667   4.2828
  4.2846   4.3052   4.3126   4.3263   4.3338   4.3506   4.3626   4.3646
  4.3802   4.3916   4.3999   4.4116   4.4144   4.4293   4.4393   4.4487
  4.4586   4.4688   4.4751   4.4852   4.5061   4.5146   4.5222   4.5486
  4.5568   4.6056   4.6133   4.6213   4.6352   4.6474   4.6645   4.6751
  4.6869   4.7244   4.7414   4.7602   4.7694   4.7839   4.8238   4.8464
  4.8662   4.8810   4.9052   4.9237   4.9365   4.9554   4.9580   4.9804
  5.0062   5.0465   5.0855   5.1067   5.1210   5.1335   5.1506   5.1691
  5.1814   5.2011   5.2320   5.2619   5.2794   5.2924   5.3068   5.3263
  5.3353   5.3642   5.3833   5.3961   5.4107   5.4315   5.4349   5.4525
  5.4575   5.5144   5.5230   5.5336   5.5488   5.5591   5.5783   5.5967
  5.6165   5.6218   5.6285   5.6544   5.6712   5.6975   5.7125   5.7413
  5.7727   5.7961   5.8291   5.9670   5.9989   6.0457   6.1370   6.1418
  6.2007   6.2263   6.2338   6.2390   6.2516   6.2841   6.2950   6.3114
  6.3837   6.4936   9.4221  10.4116  12.0936  12.8922  13.1568  13.9248
 14.0870  14.2098  14.3720  14.8662
 --------------------------------------------------------------
 
          Ground-State Mulliken Net Atomic Charges

     Atom                 Charge (a.u.)
  ----------------------------------------
      1 C                    -0.074567
      2 C                    -0.325762
      3 C                    -0.025212
      4 H                     0.177328
      5 C                     0.067098
      6 S                    -0.182564
      7 C                    -0.270390
      8 H                     0.115915
      9 H                     0.099328
     10 H                     0.112713
     11 C                    -0.054471
     12 C                    -0.271576
     13 C                     0.038006
     14 H                     0.187889
     15 C                    -0.234202
     16 S                     0.004111
     17 C                    -0.270128
     18 H                     0.102214
     19 H                     0.108910
     20 H                     0.107896
     21 H                     0.198545
     22 H                     0.109373
     23 H                     0.110099
     24 H                     0.169443
  ----------------------------------------
  Sum of atomic charges =     0.000000

 -----------------------------------------------------------------
                    Cartesian Multipole Moments
 -----------------------------------------------------------------
    Charge (ESU x 10^10)
                -0.0000
    Dipole Moment (Debye)
         X       2.9193      Y       0.7099      Z       3.1848
       Tot       4.3783
    Quadrupole Moments (Debye-Ang)
        XX     -89.6973     XY       1.1428     YY     -75.6620
        XZ       0.2892     YZ      -1.5360     ZZ     -86.2256
    Octopole Moments (Debye-Ang^2)
       XXX     -86.8643    XXY      54.9666    XYY     -17.0201
       YYY     138.1946    XXZ      -0.5187    XYZ      -1.6187
       YYZ      -2.5332    XZZ     -27.8838    YZZ      61.6179
       ZZZ      -2.6092
    Hexadecapole Moments (Debye-Ang^3)
      XXXX    -810.7994   XXXY    -209.0818   XXYY    -592.5297
      XYYY    -147.4103   YYYY   -2653.3076   XXXZ    -129.9805
      XXYZ     -44.8396   XYYZ     -43.3507   YYYZ    -104.8769
      XXZZ    -242.9333   XYZZ     -53.9121   YYZZ    -585.9820
      XZZZ    -139.0955   YZZZ     -89.4014   ZZZZ    -615.6834
 -----------------------------------------------------------------
 Total job time:  60.20s(wall), 2069.00s(cpu) 
 Fri Dec 15 14:05:55 2023

        *************************************************************
        *                                                           *
        *  Thank you very much for using Q-Chem.  Have a nice day.  *
        *                                                           *
        *************************************************************


0 sent ACK to 0 
now end server 0 ... 
cleanup process ... done
remove work dirs ./qchem3692102.0 -- ./qchem3692102.0
rm -rf ./qchem3692102.0
rm -rf ./qchem3692102
