You are running Q-Chem version: 5.4.0

#
# job setting
#
local host:  exp-6-20
current dir: /home/rramji/project-csd799/aromodel/p3ht-qchem/hydrogenated-rotation-run
input file:  Methylthiophene_Phi_5_Theta_70_Methylthiophene_Hydrogenated.qcin
output file: 
nprocs     : 1
nthreads   : 64
#
# qchem installation setting
#
QC:          /cm/shared/apps/spack/cpu/opt/spack/linux-centos8-zen2/gcc-10.2.0/qchem-5.4-akfmr7b3t57bfs6qan3padb2wnb2i7cl
QCAUX:       /cm/shared/apps/spack/cpu/opt/spack/linux-centos8-zen2/gcc-10.2.0/qchem-5.4-akfmr7b3t57bfs6qan3padb2wnb2i7cl/qcaux
QCPROG:      /cm/shared/apps/spack/cpu/opt/spack/linux-centos8-zen2/gcc-10.2.0/qchem-5.4-akfmr7b3t57bfs6qan3padb2wnb2i7cl/exe/qcprog.exe
QCPROG_S:    /cm/shared/apps/spack/cpu/opt/spack/linux-centos8-zen2/gcc-10.2.0/qchem-5.4-akfmr7b3t57bfs6qan3padb2wnb2i7cl/exe/qcprog.exe_s
PARALLEL:    -DPARALLEL
QCMPI:       mpich
#
# qchem directory setting
#
qcrun:       qchem2813324
QCSCRATCH:   .
QCLOCALSCR:  
QCTMPDIR:    .
QCFILEPREF:  ./qchem2813324
QCSAVEDIR:   
workdirs:    ./qchem2813324
workdir0:    ./qchem2813324
partmpdirs =  
#
# parallel setting
#
QCRSH:           ssh
QCMPI:           mpich
QCMPIRUN:        /cm/shared/apps/spack/cpu/opt/spack/linux-centos8-zen2/gcc-10.2.0/qchem-5.4-akfmr7b3t57bfs6qan3padb2wnb2i7cl/bin/mpi/mpirun_qchem
QCMACHINEFILE:   ./qchem2813324/hostfile
exp-6-20

#
# env setting
#
exported envs:   QC QCAUX QCSCRATCH QCRUNNAME QCFILEPREF QCPROG QCPROG_S GUIFILE

Running Job 1 of 1 Methylthiophene_Phi_5_Theta_70_Methylthiophene_Hydrogenated.qcin
qchem Methylthiophene_Phi_5_Theta_70_Methylthiophene_Hydrogenated.qcin_2813324.0 ./qchem2813324/ 1
/cm/shared/apps/spack/cpu/opt/spack/linux-centos8-zen2/gcc-10.2.0/qchem-5.4-akfmr7b3t57bfs6qan3padb2wnb2i7cl/bin/mpi/mpirun_qchem -machinefile ./qchem2813324/hostfile -np 1 /cm/shared/apps/spack/cpu/opt/spack/linux-centos8-zen2/gcc-10.2.0/qchem-5.4-akfmr7b3t57bfs6qan3padb2wnb2i7cl/exe/qcprog.exe Methylthiophene_Phi_5_Theta_70_Methylthiophene_Hydrogenated.qcin_2813324.0 ./qchem2813324/

Process 0 of 1 is on exp-6-20 - thread support 0
initial socket setup ...start
initial socket setup ...done 
now start server 0 ... 
                  Welcome to Q-Chem
     A Quantum Leap Into The Future Of Chemistry


 Q-Chem 5.4, Q-Chem, Inc., Pleasanton, CA (2021)

 License issued to: University of California, San Diego (site)

 E. Epifanovsky,  A. T. B. Gilbert,  Xintian Feng,  Joonho Lee,  Yuezhi Mao,  
 N. Mardirossian,  P. Pokhilko,  A. White,  M. Wormit,  M. P. Coons,  
 A. L. Dempwolff,  Zhengting Gan,  D. Hait,  P. R. Horn,  L. D. Jacobson,  
 I. Kaliman,  J. Kussmann,  A. W. Lange,  Ka Un Lao,  D. S. Levine,  Jie Liu,  
 S. C. McKenzie,  A. F. Morrison,  K. Nanda,  F. Plasser,  D. R. Rehn,  
 M. L. Vidal,  Zhi-Qiang You,  Ying Zhu,  B. Alam,  B. Albrecht,  
 A. Aldossary,  E. Alguire,  J. H. Andersen,  D. Barton,  K. Begam,  A. Behn,  
 Y. A. Bernard,  E. J. Berquist,  H. Burton,  A. Carreras,  K. Carter-Fenk,  
 R. Chakraborty,  A. D. Chien,  K. D. Closser,  V. Cofer-Shabica,  
 S. Dasgupta,  Jia Deng,  M. de Wergifosse,  M. Diedenhofen,  Hainam Do,  
 S. Ehlert,  Po-Tung Fang,  S. Fatehi,  Qingguo Feng,  J. Gayvert,  
 Qinghui Ge,  G. Gidofalvi,  M. Goldey,  J. Gomes,  C. Gonzalez-Espinoza,  
 S. Gulania,  A. Gunina,  M. W. D. Hanson-Heine,  P. H. P. Harbach,  
 A. W. Hauser,  M. F. Herbst,  M. Hernandez Vera,  M. Hodecker,  
 Z. C. Holden,  S. Houck,  Xunkun Huang,  Kerwin Hui,  B. C. Huynh,  
 M. Ivanov,  Hyunjun Ji,  Hanjie Jiang,  B. Kaduk,  S. Kaehler,  
 K. Khistyaev,  Jaehoon Kim,  P. Klunzinger,  Z. Koczor-Benda,  
 Joong Hoon Koh,  D. Kosenkov,  L. Koulias,  T. Kowalczyk,  C. M. Krauter,  
 K. Kue,  A. Kunitsa,  T. Kus,  A. Landau,  K. V. Lawler,  D. Lefrancois,  
 S. Lehtola,  Rain Li,  Yi-Pei Li,  Jiashu Liang,  M. Liebenthal,  
 Hung-Hsuan Lin,  You-Sheng Lin,  Fenglai Liu,  Kuan-Yu Liu,  
 M. Loipersberger,  A. Luenser,  A. Manjanath,  P. Manohar,  E. Mansoor,  
 S. F. Manzer,  Shan-Ping Mao,  A. V. Marenich,  T. Markovich,  S. Mason,  
 S. A. Maurer,  P. F. McLaughlin,  M. F. S. J. Menger,  J.-M. Mewes,  
 S. A. Mewes,  P. Morgante,  J. W. Mullinax,  T. S. Nguyen-Beck,  
 K. J. Oosterbaan,  G. Paran,  Alexander C. Paul,  Suranjan K. Paul,  
 F. Pavosevic,  Zheng Pei,  S. Prager,  E. I. Proynov,  E. Ramos,  B. Rana,  
 A. E. Rask,  A. Rettig,  R. M. Richard,  F. Rob,  E. Rossomme,  T. Scheele,  
 M. Scheurer,  M. Schneider,  N. Sergueev,  S. M. Sharada,  W. Skomorowski,  
 D. W. Small,  C. J. Stein,  Yu-Chuan Su,  E. J. Sundstrom,  Zhen Tao,  
 J. Thirman,  T. Tsuchimochi,  N. M. Tubman,  S. P. Veccham,  O. Vydrov,  
 J. Wenzel,  J. Witte,  A. Yamada,  Kun Yao,  S. Yeganeh,  S. R. Yost,  
 A. Zech,  Igor Ying Zhang,  Xing Zhang,  Yu Zhang,  D. Zuev,  
 A. Aspuru-Guzik,  A. T. Bell,  N. A. Besley,  K. B. Bravaya,  B. R. Brooks,  
 D. Casanova,  Jeng-Da Chai,  S. Coriani,  C. J. Cramer,  
 A. E. DePrince, III,  R. A. DiStasio Jr.,  A. Dreuw,  B. D. Dunietz,  
 T. R. Furlani,  W. A. Goddard III,  S. Grimme,  S. Hammes-Schiffer,  
 T. Head-Gordon,  W. J. Hehre,  Chao-Ping Hsu,  T.-C. Jagau,  Yousung Jung,  
 A. Klamt,  Jing Kong,  D. S. Lambrecht,  WanZhen Liang,  N. J. Mayhall,  
 C. W. McCurdy,  J. B. Neaton,  C. Ochsenfeld,  J. A. Parkhill,  R. Peverati,  
 V. A. Rassolov,  Yihan Shao,  L. V. Slipchenko,  T. Stauch,  R. P. Steele,  
 J. E. Subotnik,  A. J. W. Thom,  A. Tkatchenko,  D. G. Truhlar,  
 T. Van Voorhis,  T. A. Wesolowski,  K. B. Whaley,  H. L. Woodcock III,  
 P. M. Zimmerman,  S. Faraji,  P. M. W. Gill,  M. Head-Gordon,  
 J. M. Herbert,  A. I. Krylov

 Contributors to earlier versions of Q-Chem not listed above: 
 R. D. Adamson,  B. Austin,  R. Baer,  J. Baker,  G. J. O. Beran,  
 K. Brandhorst,  S. T. Brown,  E. F. C. Byrd,  A. K. Chakraborty,  
 G. K. L. Chan,  Chun-Min Chang,  Yunqing Chen,  C.-L. Cheng,  
 Siu Hung Chien,  D. M. Chipman,  D. L. Crittenden,  H. Dachsel,  
 R. J. Doerksen,  A. D. Dutoi,  R. G. Edgar,  J. Fosso-Tande,  
 L. Fusti-Molnar,  D. Ghosh,  A. Ghysels,  A. Golubeva-Zadorozhnaya,  
 J. Gonthier,  M. S. Gordon,  S. R. Gwaltney,  G. Hawkins,  J. E. Herr,  
 A. Heyden,  S. Hirata,  E. G. Hohenstein,  G. Kedziora,  F. J. Keil,  
 C. Kelley,  Jihan Kim,  R. A. King,  R. Z. Khaliullin,  P. P. Korambath,  
 W. Kurlancheek,  A. Laurent,  A. M. Lee,  M. S. Lee,  S. V. Levchenko,  
 Ching Yeh Lin,  D. Liotard,  E. Livshits,  R. C. Lochan,  I. Lotan,  
 L. A. Martinez-Martinez,  P. E. Maslen,  N. Nair,  D. P. O'Neill,  
 D. Neuhauser,  E. Neuscamman,  C. M. Oana,  R. Olivares-Amaya,  R. Olson,  
 T. M. Perrine,  B. Peters,  P. A. Pieniazek,  A. Prociuk,  Y. M. Rhee,  
 J. Ritchie,  M. A. Rohrdanz,  E. Rosta,  N. J. Russ,  H. F. Schaefer III,  
 M. W. Schmidt,  N. E. Schultz,  S. Sharma,  N. Shenvi,  C. D. Sherrill,  
 A. C. Simmonett,  A. Sodt,  T. Stein,  D. Stuck,  K. S. Thanthiriwatte,  
 V. Vanovschi,  L. Vogt,  Tao Wang,  A. Warshel,  M. A. Watson,  
 C. F. Williams,  Q. Wu,  X. Xu,  Jun Yang,  W. Zhang,  Yan Zhao

 Please cite Q-Chem as follows:
 Y. Shao et al., Mol. Phys. 113, 184-215 (2015)
 DOI: 10.1080/00268976.2014.952696

 Q-Chem 5.4.0 for Intel X86 EM64T Linux

 Parts of Q-Chem use Armadillo 9.800.1 (Horizon Scraper).
 http://arma.sourceforge.net/

 Q-Chem begins on Fri Dec 15 14:01:01 2023  

 Host: 
0

     Scratch files written to ./qchem2813324//
 May1621 |scratch|qcdevops|jenkins|workspace|build_RNUM    
 Parallel job on  1  processors
 Processing $rem in /cm/shared/apps/spack/cpu/opt/spack/linux-centos8-zen2/gcc-10.2.0/qchem-5.4-akfmr7b3t57bfs6qan3padb2wnb2i7cl/config/preferences:
 Processing $rem in /home/rramji/.qchemrc:
 Symmetry turned off for PCM/SM12/SMD calculation
 Core orbitals will be frozen

 Checking the input file for inconsistencies... 	...done.

 Q-Chem warning in module forms1/BasisType.C, line 2236:

 You are not using the predefined 5D/6D in this basis set.


--------------------------------------------------------------
User input:
--------------------------------------------------------------
$molecule
0 1
C	-0.681143	-3.887800	0.246754
C	0.620906	-3.701456	-0.227093
C	1.019618	-2.345170	-0.371543
H	1.284357	-4.545233	-0.468992
C	-0.000000	-1.450135	-0.000000
S	-1.435522	-2.321334	0.522097
C	2.378731	-1.934439	-0.866035
H	3.003272	-2.819799	-1.093799
H	2.924444	-1.326210	-0.114688
H	2.313987	-1.325374	-1.791841
C	0.000000	0.000000	0.000000
C	0.070542	0.841660	1.113020
C	0.187101	2.227746	0.820578
H	0.038051	0.454925	2.142881
C	0.208076	2.475009	-0.563588
S	0.080917	0.967235	-1.464748
C	0.276318	3.288613	1.882380
H	0.238704	2.842244	2.894974
H	-0.557951	4.017140	1.808137
H	1.220618	3.867466	1.808230
H	0.288286	3.429678	-1.097114
H	-0.688686	-4.420219	1.204454
H	-1.302703	-4.419395	-0.482482
H	0.369395	-1.450628	1.014863
$end

$rem
JOBTYPE		SP
EXCHANGE	HF
CORRELATION	pRIMP2
BASIS		cc-pvtz
METHOD		rimp2
AUX_BASIS	rimp2-cc-pvtz
SOLVENT_METHOD	PCM
PURECART	11111
SYMMETRY	false
MEM_TOTAL	110000
SCF_CONVERGENCE = 6
THRESH=10
GUI = 2
$end



$solvent
dielectric 4.90
$end
--------------------------------------------------------------
 ----------------------------------------------------------------
             Standard Nuclear Orientation (Angstroms)
    I     Atom           X                Y                Z
 ----------------------------------------------------------------
    1      C      -0.6811430000    -3.8878000000     0.2467540000
    2      C       0.6209060000    -3.7014560000    -0.2270930000
    3      C       1.0196180000    -2.3451700000    -0.3715430000
    4      H       1.2843570000    -4.5452330000    -0.4689920000
    5      C       0.0000000000    -1.4501350000     0.0000000000
    6      S      -1.4355220000    -2.3213340000     0.5220970000
    7      C       2.3787310000    -1.9344390000    -0.8660350000
    8      H       3.0032720000    -2.8197990000    -1.0937990000
    9      H       2.9244440000    -1.3262100000    -0.1146880000
   10      H       2.3139870000    -1.3253740000    -1.7918410000
   11      C       0.0000000000     0.0000000000     0.0000000000
   12      C       0.0705420000     0.8416600000     1.1130200000
   13      C       0.1871010000     2.2277460000     0.8205780000
   14      H       0.0380510000     0.4549250000     2.1428810000
   15      C       0.2080760000     2.4750090000    -0.5635880000
   16      S       0.0809170000     0.9672350000    -1.4647480000
   17      C       0.2763180000     3.2886130000     1.8823800000
   18      H       0.2387040000     2.8422440000     2.8949740000
   19      H      -0.5579510000     4.0171400000     1.8081370000
   20      H       1.2206180000     3.8674660000     1.8082300000
   21      H       0.2882860000     3.4296780000    -1.0971140000
   22      H      -0.6886860000    -4.4202190000     1.2044540000
   23      H      -1.3027030000    -4.4193950000    -0.4824820000
   24      H       0.3693950000    -1.4506280000     1.0148630000
 ----------------------------------------------------------------
 Nuclear Repulsion Energy =         871.29932689 hartrees
 There are       52 alpha and       52 beta electrons
 Requested basis set is cc-pVTZ
 There are 196 shells and 536 basis functions

 Total QAlloc Memory Limit 110000 MB
 Mega-Array Size       188 MB
 MEM_STATIC part       192 MB
 Discretize the solute cavity surface with Lebedev spheres
	Using 110 Lebedev grid points for each H atom
	Using 194 Lebedev grid points for other atoms
	Atomic van der Waals radii will be scaled by 1.20
 Remove points where switching function is < 1.0e-08
 Keep 1623 surface tesserae and discard 2025 interior tesserae
 Molecular Surface Area = 238.265 Angst**2
 Requested basis set is rimp2-cc-pVTZ
 There are 414 shells and 1414 basis functions
 A cutoff of  1.0D-10 yielded  13931 shell pairs
 There are    101125 function pairs (    129764 Cartesian)
 Smallest overlap matrix eigenvalue = 6.13E-05

 Scale SEOQF with 1.000000e-01/1.000000e-01/1.000000e-01

 Standard Electronic Orientation quadrupole field applied
 Nucleus-field energy     =     0.0000000354 hartrees
 Guess from superposition of atomic densities
 Warning:  Energy on first SCF cycle will be non-variational
 SAD guess density has 104.000000 electrons

 -----------------------------------------------------------------------
  General SCF calculation program by
  Eric Jon Sundstrom, Paul Horn, Yuezhi Mao, Dmitri Zuev, Alec White,
  David Stuck, Shaama M.S., Shane Yost, Joonho Lee, David Small,
  Daniel Levine, Susi Lehtola, Hugh Burton, Evgeny Epifanovsky,
  Bang C. Huynh
 -----------------------------------------------------------------------
 Hartree-Fock
 using 64 threads for integral computing
 -------------------------------------------------------
 OpenMP Integral computing Module                
 Release: version 1.0, May 2013, Q-Chem Inc. Pittsburgh 
 -------------------------------------------------------
 A restricted SCF calculation will be
 performed using DIIS
 SCF converges when DIIS error is below 1.0e-06
 ---------------------------------------
  Cycle       Energy         DIIS error
 ---------------------------------------
    1   -1186.0010024845      2.38e-02  
    2   -1180.6212342825      1.55e-03  
    3   -1180.7450860028      5.96e-04  
    4   -1180.7588705885      3.33e-04  
    5   -1180.7638698008      5.85e-05  
    6   -1180.7641092024      2.40e-05  
    7   -1180.7641667262      8.88e-06  
    8   -1180.7641803337      4.28e-06  
    9   -1180.7641834083      1.48e-06  
   10   -1180.7641838807      4.98e-07  Convergence criterion met
 ---------------------------------------
 SCF time:   CPU 1653.46s  wall 49.00s 

************** Final PCM Free Energy Summary **************
 G_electrostatic  =      -0.00893233 hartree =      -5.60512445 kcal/mol
 G_cavitation     =       0.00000000 hartree =       0.00000000 kcal/mol
 G_dispersion     =       0.00000000 hartree =       0.00000000 kcal/mol
 G_repulsion      =       0.00000000 hartree =       0.00000000 kcal/mol
 --------------------------------------------------
 Non-electrostatic Free Energy =       0.00000000 hartree =       0.00000000 kcal/mol
 Total                         =      -0.00893233 hartree =      -5.60512445 kcal/mol
 --------------------------------------------------
 SCF Energy (H0 + V/2)                       =   -1180.76418388 
 Solute Internal Energy (H0)                 =   -1180.75525155 
 Total Free Energy (H0 + V/2 + non-elec)     =   -1180.76418388 hartree
                                             = -740940.70840270 kcal/mol
***********************************************************

 SCF   energy in the final basis set =    -1180.7641838807
 Total energy in the final basis set =    -1180.7641838807


 --------------------------------------------------------------
  Generalized many-body perturbation theory program
  by Joonho Lee, Fazle Rob, Xintian Feng, Evgeny Epifanovsky

 No regularization used 
 (reg. param. = 0.0000e+00)
  (P|Q)^-1/2 Time:  CPU 30.03 s  wall 0.49 s

 In RI-MP2 calculation: 
 # of frozen core orbitals: 20

 Components of the RIMP2 correlation energy:
        aaaa    correlation energy =        -0.2510260139 a.u.
        abab    correlation energy =        -1.5023594850 a.u.
        bbbb    correlation energy =        -0.2510260139 a.u.
        non-Brillouin singles      =        -0.0000000000 a.u.
        total same-spin energy     =        -0.5020520278 a.u.
        total opposite-spin energy =        -1.5023594850 a.u.

 Total  RIMP2   correlation energy =        -2.0044115128 a.u.
        RIMP2         total energy =     -1182.7685953935 a.u.

 RI-MP2 Energy Time:  CPU 174.75 s  wall 2.84 s
 
 --------------------------------------------------------------
 
                    Orbital Energies (a.u.)
 --------------------------------------------------------------
 
 Alpha MOs
 -- Occupied --
-91.9815 -91.9417 -11.2828 -11.2638 -11.2628 -11.2564 -11.2510 -11.2417
-11.2413 -11.2311 -11.2293 -11.2198  -8.9814  -8.9463  -6.6623  -6.6618
 -6.6612  -6.6277  -6.6267  -6.6254  -1.1976  -1.1537  -1.0573  -1.0250
 -1.0070  -0.9589  -0.9124  -0.9014  -0.8140  -0.7637  -0.7326  -0.7010
 -0.6610  -0.6411  -0.6106  -0.5881  -0.5795  -0.5723  -0.5670  -0.5505
 -0.5413  -0.5304  -0.5139  -0.5050  -0.4939  -0.4818  -0.4591  -0.4494
 -0.3557  -0.3423  -0.3152  -0.2781
 -- Virtual --
  0.0965   0.1331   0.1421   0.1504   0.1579   0.1705   0.1777   0.1802
  0.1902   0.1973   0.2039   0.2100   0.2290   0.2330   0.2374   0.2456
  0.2494   0.2605   0.2653   0.2944   0.3103   0.3366   0.3470   0.3534
  0.3674   0.3690   0.3777   0.3959   0.3964   0.4014   0.4130   0.4262
  0.4304   0.4466   0.4561   0.4582   0.4675   0.4688   0.4846   0.4873
  0.5081   0.5121   0.5183   0.5297   0.5348   0.5417   0.5478   0.5484
  0.5660   0.5734   0.5803   0.5869   0.6021   0.6058   0.6161   0.6175
  0.6229   0.6267   0.6341   0.6408   0.6432   0.6473   0.6510   0.6572
  0.6616   0.6655   0.6813   0.6873   0.6953   0.7026   0.7072   0.7289
  0.7325   0.7486   0.7535   0.7683   0.7894   0.8014   0.8035   0.8264
  0.8284   0.8348   0.8467   0.8557   0.8711   0.8813   0.8946   0.9170
  0.9220   0.9474   0.9495   0.9690   0.9780   0.9846   0.9958   1.0056
  1.0118   1.0274   1.0326   1.0433   1.0532   1.0736   1.0762   1.0868
  1.0926   1.1000   1.1047   1.1172   1.1281   1.1539   1.1555   1.1685
  1.1757   1.1932   1.2025   1.2046   1.2171   1.2300   1.2338   1.2448
  1.2480   1.2554   1.2650   1.2762   1.2807   1.2867   1.3036   1.3194
  1.3228   1.3328   1.3455   1.3480   1.3631   1.3961   1.4027   1.4171
  1.4236   1.4395   1.4502   1.4539   1.4700   1.4836   1.4941   1.4966
  1.5010   1.5115   1.5197   1.5348   1.5376   1.5449   1.5468   1.5540
  1.5679   1.5749   1.5859   1.5978   1.6063   1.6131   1.6194   1.6382
  1.6438   1.6653   1.6847   1.6857   1.7008   1.7186   1.7239   1.7335
  1.7490   1.7549   1.7835   1.7862   1.7972   1.8271   1.8345   1.8614
  1.8686   1.9009   1.9270   1.9402   1.9495   1.9645   1.9933   2.0016
  2.0137   2.0172   2.0380   2.0664   2.0694   2.1201   2.1354   2.1575
  2.1814   2.1924   2.2112   2.2184   2.2296   2.2636   2.2674   2.2770
  2.3226   2.3294   2.3424   2.3623   2.4077   2.4323   2.4413   2.4665
  2.4859   2.5079   2.5346   2.5460   2.5645   2.5790   2.6162   2.6206
  2.6301   2.6397   2.6529   2.6644   2.6760   2.6905   2.7085   2.7216
  2.7375   2.7460   2.7534   2.7658   2.7758   2.7850   2.7906   2.8136
  2.8296   2.8452   2.8547   2.8774   2.8879   2.9084   2.9115   2.9192
  2.9280   2.9573   2.9727   2.9751   3.0105   3.0209   3.0281   3.0379
  3.0405   3.0864   3.0889   3.1046   3.1114   3.1207   3.1271   3.1396
  3.1501   3.1519   3.1661   3.1688   3.1812   3.1882   3.1970   3.2103
  3.2267   3.2403   3.2540   3.2656   3.2757   3.2887   3.2932   3.3048
  3.3110   3.3179   3.3309   3.3380   3.3417   3.3541   3.3579   3.3750
  3.3785   3.3885   3.3919   3.3994   3.4036   3.4084   3.4163   3.4367
  3.4419   3.4486   3.4515   3.4645   3.4729   3.4864   3.5025   3.5046
  3.5162   3.5241   3.5275   3.5374   3.5457   3.5561   3.5666   3.5805
  3.5942   3.5953   3.6112   3.6180   3.6270   3.6306   3.6430   3.6628
  3.6719   3.6782   3.6840   3.7016   3.7066   3.7233   3.7297   3.7344
  3.7418   3.7517   3.7680   3.7805   3.7864   3.7974   3.7998   3.8074
  3.8277   3.8368   3.8551   3.8669   3.8752   3.8790   3.8984   3.9101
  3.9280   3.9431   3.9510   3.9698   3.9732   3.9840   3.9976   4.0106
  4.0260   4.0401   4.0464   4.0560   4.0742   4.0823   4.0895   4.1101
  4.1251   4.1313   4.1391   4.1595   4.1717   4.1778   4.1832   4.1980
  4.2029   4.2201   4.2343   4.2449   4.2529   4.2641   4.2688   4.2828
  4.2970   4.3040   4.3165   4.3317   4.3341   4.3512   4.3562   4.3658
  4.3793   4.3945   4.4008   4.4113   4.4145   4.4168   4.4294   4.4432
  4.4595   4.4734   4.4788   4.4876   4.4910   4.5080   4.5379   4.5500
  4.5719   4.5872   4.6067   4.6292   4.6361   4.6571   4.6590   4.6665
  4.7021   4.7221   4.7325   4.7567   4.7825   4.8009   4.8170   4.8383
  4.8541   4.8613   4.8877   4.8952   4.9396   4.9434   4.9787   4.9906
  5.0122   5.0382   5.0889   5.0991   5.1134   5.1264   5.1510   5.1822
  5.1843   5.2161   5.2292   5.2718   5.2824   5.2902   5.3104   5.3186
  5.3426   5.3640   5.3818   5.4010   5.4095   5.4288   5.4404   5.4541
  5.4714   5.5170   5.5241   5.5428   5.5493   5.5613   5.5731   5.5930
  5.6237   5.6271   5.6448   5.6511   5.6764   5.6975   5.7082   5.7273
  5.7750   5.7996   5.8335   5.9863   5.9921   6.0948   6.1235   6.1487
  6.2072   6.2171   6.2264   6.2404   6.2480   6.2794   6.3024   6.3288
  6.3846   6.4834   9.4930  10.5283  11.9851  12.9633  13.1602  13.9633
 14.0908  14.2163  14.3042  14.6805
 --------------------------------------------------------------
 
          Ground-State Mulliken Net Atomic Charges

     Atom                 Charge (a.u.)
  ----------------------------------------
      1 C                    -0.077702
      2 C                    -0.328044
      3 C                    -0.018276
      4 H                     0.177716
      5 C                     0.083463
      6 S                    -0.178214
      7 C                    -0.268582
      8 H                     0.113857
      9 H                     0.104085
     10 H                     0.106530
     11 C                    -0.078530
     12 C                    -0.244329
     13 C                     0.022557
     14 H                     0.182077
     15 C                    -0.240779
     16 S                     0.007207
     17 C                    -0.271505
     18 H                     0.102424
     19 H                     0.108744
     20 H                     0.107931
     21 H                     0.197064
     22 H                     0.110820
     23 H                     0.112852
     24 H                     0.168632
  ----------------------------------------
  Sum of atomic charges =     0.000000

 -----------------------------------------------------------------
                    Cartesian Multipole Moments
 -----------------------------------------------------------------
    Charge (ESU x 10^10)
                -0.0000
    Dipole Moment (Debye)
         X       2.7110      Y       0.5070      Z       1.4294
       Tot       3.1064
    Quadrupole Moments (Debye-Ang)
        XX     -91.8807     XY      -3.1852     YY     -73.8467
        XZ      -0.1915     YZ       1.2220     ZZ     -85.8003
    Octopole Moments (Debye-Ang^2)
       XXX     -17.0980    XXY      42.0977    XYY      -2.8867
       YYY     125.7382    XXZ      -5.3612    XYZ       1.8702
       YYZ      -1.8843    XZZ      -6.8725    YZZ      54.6858
       ZZZ       2.3051
    Hexadecapole Moments (Debye-Ang^3)
      XXXX    -647.2674   XXXY     -68.5984   XXYY    -614.6901
      XYYY     -30.7208   YYYY   -2779.2631   XXXZ      76.5147
      XXYZ     -20.6774   XYYZ      14.8077   YYYZ    -118.2229
      XXZZ    -217.8769   XYZZ     -12.4219   YYZZ    -605.4242
      XZZZ      85.4131   YZZZ    -103.5645   ZZZZ    -613.1179
 -----------------------------------------------------------------
 Total job time:  54.30s(wall), 1910.34s(cpu) 
 Fri Dec 15 14:01:56 2023

        *************************************************************
        *                                                           *
        *  Thank you very much for using Q-Chem.  Have a nice day.  *
        *                                                           *
        *************************************************************


0 sent ACK to 0 
now end server 0 ... 
cleanup process ... done
remove work dirs ./qchem2813324.0 -- ./qchem2813324.0
rm -rf ./qchem2813324.0
rm -rf ./qchem2813324
