You are running Q-Chem version: 5.4.0

#
# job setting
#
local host:  exp-9-54
current dir: /home/rramji/project-csd799/aromodel/p3ht-qchem/hydrogenated-rotation-run
input file:  Methylthiophene_Phi_25_Theta_60_Methylthiophene_Hydrogenated.qcin
output file: 
nprocs     : 1
nthreads   : 64
#
# qchem installation setting
#
QC:          /cm/shared/apps/spack/cpu/opt/spack/linux-centos8-zen2/gcc-10.2.0/qchem-5.4-akfmr7b3t57bfs6qan3padb2wnb2i7cl
QCAUX:       /cm/shared/apps/spack/cpu/opt/spack/linux-centos8-zen2/gcc-10.2.0/qchem-5.4-akfmr7b3t57bfs6qan3padb2wnb2i7cl/qcaux
QCPROG:      /cm/shared/apps/spack/cpu/opt/spack/linux-centos8-zen2/gcc-10.2.0/qchem-5.4-akfmr7b3t57bfs6qan3padb2wnb2i7cl/exe/qcprog.exe
QCPROG_S:    /cm/shared/apps/spack/cpu/opt/spack/linux-centos8-zen2/gcc-10.2.0/qchem-5.4-akfmr7b3t57bfs6qan3padb2wnb2i7cl/exe/qcprog.exe_s
PARALLEL:    -DPARALLEL
QCMPI:       mpich
#
# qchem directory setting
#
qcrun:       qchem3689229
QCSCRATCH:   .
QCLOCALSCR:  
QCTMPDIR:    .
QCFILEPREF:  ./qchem3689229
QCSAVEDIR:   
workdirs:    ./qchem3689229
workdir0:    ./qchem3689229
partmpdirs =  
#
# parallel setting
#
QCRSH:           ssh
QCMPI:           mpich
QCMPIRUN:        /cm/shared/apps/spack/cpu/opt/spack/linux-centos8-zen2/gcc-10.2.0/qchem-5.4-akfmr7b3t57bfs6qan3padb2wnb2i7cl/bin/mpi/mpirun_qchem
QCMACHINEFILE:   ./qchem3689229/hostfile
exp-9-54

#
# env setting
#
exported envs:   QC QCAUX QCSCRATCH QCRUNNAME QCFILEPREF QCPROG QCPROG_S GUIFILE

Running Job 1 of 1 Methylthiophene_Phi_25_Theta_60_Methylthiophene_Hydrogenated.qcin
qchem Methylthiophene_Phi_25_Theta_60_Methylthiophene_Hydrogenated.qcin_3689229.0 ./qchem3689229/ 1
/cm/shared/apps/spack/cpu/opt/spack/linux-centos8-zen2/gcc-10.2.0/qchem-5.4-akfmr7b3t57bfs6qan3padb2wnb2i7cl/bin/mpi/mpirun_qchem -machinefile ./qchem3689229/hostfile -np 1 /cm/shared/apps/spack/cpu/opt/spack/linux-centos8-zen2/gcc-10.2.0/qchem-5.4-akfmr7b3t57bfs6qan3padb2wnb2i7cl/exe/qcprog.exe Methylthiophene_Phi_25_Theta_60_Methylthiophene_Hydrogenated.qcin_3689229.0 ./qchem3689229/

Process 0 of 1 is on exp-9-54 - thread support 0
initial socket setup ...start
initial socket setup ...done 
now start server 0 ... 
                  Welcome to Q-Chem
     A Quantum Leap Into The Future Of Chemistry


 Q-Chem 5.4, Q-Chem, Inc., Pleasanton, CA (2021)

 License issued to: University of California, San Diego (site)

 E. Epifanovsky,  A. T. B. Gilbert,  Xintian Feng,  Joonho Lee,  Yuezhi Mao,  
 N. Mardirossian,  P. Pokhilko,  A. White,  M. Wormit,  M. P. Coons,  
 A. L. Dempwolff,  Zhengting Gan,  D. Hait,  P. R. Horn,  L. D. Jacobson,  
 I. Kaliman,  J. Kussmann,  A. W. Lange,  Ka Un Lao,  D. S. Levine,  Jie Liu,  
 S. C. McKenzie,  A. F. Morrison,  K. Nanda,  F. Plasser,  D. R. Rehn,  
 M. L. Vidal,  Zhi-Qiang You,  Ying Zhu,  B. Alam,  B. Albrecht,  
 A. Aldossary,  E. Alguire,  J. H. Andersen,  D. Barton,  K. Begam,  A. Behn,  
 Y. A. Bernard,  E. J. Berquist,  H. Burton,  A. Carreras,  K. Carter-Fenk,  
 R. Chakraborty,  A. D. Chien,  K. D. Closser,  V. Cofer-Shabica,  
 S. Dasgupta,  Jia Deng,  M. de Wergifosse,  M. Diedenhofen,  Hainam Do,  
 S. Ehlert,  Po-Tung Fang,  S. Fatehi,  Qingguo Feng,  J. Gayvert,  
 Qinghui Ge,  G. Gidofalvi,  M. Goldey,  J. Gomes,  C. Gonzalez-Espinoza,  
 S. Gulania,  A. Gunina,  M. W. D. Hanson-Heine,  P. H. P. Harbach,  
 A. W. Hauser,  M. F. Herbst,  M. Hernandez Vera,  M. Hodecker,  
 Z. C. Holden,  S. Houck,  Xunkun Huang,  Kerwin Hui,  B. C. Huynh,  
 M. Ivanov,  Hyunjun Ji,  Hanjie Jiang,  B. Kaduk,  S. Kaehler,  
 K. Khistyaev,  Jaehoon Kim,  P. Klunzinger,  Z. Koczor-Benda,  
 Joong Hoon Koh,  D. Kosenkov,  L. Koulias,  T. Kowalczyk,  C. M. Krauter,  
 K. Kue,  A. Kunitsa,  T. Kus,  A. Landau,  K. V. Lawler,  D. Lefrancois,  
 S. Lehtola,  Rain Li,  Yi-Pei Li,  Jiashu Liang,  M. Liebenthal,  
 Hung-Hsuan Lin,  You-Sheng Lin,  Fenglai Liu,  Kuan-Yu Liu,  
 M. Loipersberger,  A. Luenser,  A. Manjanath,  P. Manohar,  E. Mansoor,  
 S. F. Manzer,  Shan-Ping Mao,  A. V. Marenich,  T. Markovich,  S. Mason,  
 S. A. Maurer,  P. F. McLaughlin,  M. F. S. J. Menger,  J.-M. Mewes,  
 S. A. Mewes,  P. Morgante,  J. W. Mullinax,  T. S. Nguyen-Beck,  
 K. J. Oosterbaan,  G. Paran,  Alexander C. Paul,  Suranjan K. Paul,  
 F. Pavosevic,  Zheng Pei,  S. Prager,  E. I. Proynov,  E. Ramos,  B. Rana,  
 A. E. Rask,  A. Rettig,  R. M. Richard,  F. Rob,  E. Rossomme,  T. Scheele,  
 M. Scheurer,  M. Schneider,  N. Sergueev,  S. M. Sharada,  W. Skomorowski,  
 D. W. Small,  C. J. Stein,  Yu-Chuan Su,  E. J. Sundstrom,  Zhen Tao,  
 J. Thirman,  T. Tsuchimochi,  N. M. Tubman,  S. P. Veccham,  O. Vydrov,  
 J. Wenzel,  J. Witte,  A. Yamada,  Kun Yao,  S. Yeganeh,  S. R. Yost,  
 A. Zech,  Igor Ying Zhang,  Xing Zhang,  Yu Zhang,  D. Zuev,  
 A. Aspuru-Guzik,  A. T. Bell,  N. A. Besley,  K. B. Bravaya,  B. R. Brooks,  
 D. Casanova,  Jeng-Da Chai,  S. Coriani,  C. J. Cramer,  
 A. E. DePrince, III,  R. A. DiStasio Jr.,  A. Dreuw,  B. D. Dunietz,  
 T. R. Furlani,  W. A. Goddard III,  S. Grimme,  S. Hammes-Schiffer,  
 T. Head-Gordon,  W. J. Hehre,  Chao-Ping Hsu,  T.-C. Jagau,  Yousung Jung,  
 A. Klamt,  Jing Kong,  D. S. Lambrecht,  WanZhen Liang,  N. J. Mayhall,  
 C. W. McCurdy,  J. B. Neaton,  C. Ochsenfeld,  J. A. Parkhill,  R. Peverati,  
 V. A. Rassolov,  Yihan Shao,  L. V. Slipchenko,  T. Stauch,  R. P. Steele,  
 J. E. Subotnik,  A. J. W. Thom,  A. Tkatchenko,  D. G. Truhlar,  
 T. Van Voorhis,  T. A. Wesolowski,  K. B. Whaley,  H. L. Woodcock III,  
 P. M. Zimmerman,  S. Faraji,  P. M. W. Gill,  M. Head-Gordon,  
 J. M. Herbert,  A. I. Krylov

 Contributors to earlier versions of Q-Chem not listed above: 
 R. D. Adamson,  B. Austin,  R. Baer,  J. Baker,  G. J. O. Beran,  
 K. Brandhorst,  S. T. Brown,  E. F. C. Byrd,  A. K. Chakraborty,  
 G. K. L. Chan,  Chun-Min Chang,  Yunqing Chen,  C.-L. Cheng,  
 Siu Hung Chien,  D. M. Chipman,  D. L. Crittenden,  H. Dachsel,  
 R. J. Doerksen,  A. D. Dutoi,  R. G. Edgar,  J. Fosso-Tande,  
 L. Fusti-Molnar,  D. Ghosh,  A. Ghysels,  A. Golubeva-Zadorozhnaya,  
 J. Gonthier,  M. S. Gordon,  S. R. Gwaltney,  G. Hawkins,  J. E. Herr,  
 A. Heyden,  S. Hirata,  E. G. Hohenstein,  G. Kedziora,  F. J. Keil,  
 C. Kelley,  Jihan Kim,  R. A. King,  R. Z. Khaliullin,  P. P. Korambath,  
 W. Kurlancheek,  A. Laurent,  A. M. Lee,  M. S. Lee,  S. V. Levchenko,  
 Ching Yeh Lin,  D. Liotard,  E. Livshits,  R. C. Lochan,  I. Lotan,  
 L. A. Martinez-Martinez,  P. E. Maslen,  N. Nair,  D. P. O'Neill,  
 D. Neuhauser,  E. Neuscamman,  C. M. Oana,  R. Olivares-Amaya,  R. Olson,  
 T. M. Perrine,  B. Peters,  P. A. Pieniazek,  A. Prociuk,  Y. M. Rhee,  
 J. Ritchie,  M. A. Rohrdanz,  E. Rosta,  N. J. Russ,  H. F. Schaefer III,  
 M. W. Schmidt,  N. E. Schultz,  S. Sharma,  N. Shenvi,  C. D. Sherrill,  
 A. C. Simmonett,  A. Sodt,  T. Stein,  D. Stuck,  K. S. Thanthiriwatte,  
 V. Vanovschi,  L. Vogt,  Tao Wang,  A. Warshel,  M. A. Watson,  
 C. F. Williams,  Q. Wu,  X. Xu,  Jun Yang,  W. Zhang,  Yan Zhao

 Please cite Q-Chem as follows:
 Y. Shao et al., Mol. Phys. 113, 184-215 (2015)
 DOI: 10.1080/00268976.2014.952696

 Q-Chem 5.4.0 for Intel X86 EM64T Linux

 Parts of Q-Chem use Armadillo 9.800.1 (Horizon Scraper).
 http://arma.sourceforge.net/

 Q-Chem begins on Fri Dec 15 13:59:49 2023  

 Host: 
0

     Scratch files written to ./qchem3689229//
 May1621 |scratch|qcdevops|jenkins|workspace|build_RNUM    
 Parallel job on  1  processors
 Processing $rem in /cm/shared/apps/spack/cpu/opt/spack/linux-centos8-zen2/gcc-10.2.0/qchem-5.4-akfmr7b3t57bfs6qan3padb2wnb2i7cl/config/preferences:
 Processing $rem in /home/rramji/.qchemrc:
 Symmetry turned off for PCM/SM12/SMD calculation
 Core orbitals will be frozen

 Checking the input file for inconsistencies... 	...done.

 Q-Chem warning in module forms1/BasisType.C, line 2236:

 You are not using the predefined 5D/6D in this basis set.


--------------------------------------------------------------
User input:
--------------------------------------------------------------
$molecule
0 1
C	-0.627947	-3.887800	0.361285
C	0.572038	-3.701456	-0.331462
C	0.939610	-2.345170	-0.542953
H	1.183405	-4.545233	-0.684893
C	0.000000	-1.450135	0.000000
S	-1.323052	-2.321334	0.763441
C	2.192207	-1.934439	-1.265941
H	2.767709	-2.819799	-1.598695
H	2.860100	-1.326210	-0.620770
H	1.967682	-1.325374	-2.166438
C	0.000000	0.000000	0.000000
C	0.354153	0.766774	1.113020
C	0.937751	2.029404	0.820578
H	0.191350	0.414475	2.142881
C	1.042030	2.254581	-0.563588
S	0.406851	0.881228	-1.464748
C	1.384426	2.995779	1.882380
H	1.196413	2.589194	2.894974
H	0.849641	3.965707	1.808137
H	2.469756	3.216753	1.808230
H	1.443919	3.124243	-1.097114
H	-0.469073	-4.420219	1.305744
H	-1.366694	-4.419395	-0.248940
H	0.540012	-1.450628	0.935300
$end

$rem
JOBTYPE		SP
EXCHANGE	HF
CORRELATION	pRIMP2
BASIS		cc-pvtz
METHOD		rimp2
AUX_BASIS	rimp2-cc-pvtz
SOLVENT_METHOD	PCM
PURECART	11111
SYMMETRY	false
MEM_TOTAL	110000
SCF_CONVERGENCE = 6
THRESH=10
GUI = 2
$end



$solvent
dielectric 4.90
$end
--------------------------------------------------------------
 ----------------------------------------------------------------
             Standard Nuclear Orientation (Angstroms)
    I     Atom           X                Y                Z
 ----------------------------------------------------------------
    1      C      -0.6279470000    -3.8878000000     0.3612850000
    2      C       0.5720380000    -3.7014560000    -0.3314620000
    3      C       0.9396100000    -2.3451700000    -0.5429530000
    4      H       1.1834050000    -4.5452330000    -0.6848930000
    5      C       0.0000000000    -1.4501350000     0.0000000000
    6      S      -1.3230520000    -2.3213340000     0.7634410000
    7      C       2.1922070000    -1.9344390000    -1.2659410000
    8      H       2.7677090000    -2.8197990000    -1.5986950000
    9      H       2.8601000000    -1.3262100000    -0.6207700000
   10      H       1.9676820000    -1.3253740000    -2.1664380000
   11      C       0.0000000000     0.0000000000     0.0000000000
   12      C       0.3541530000     0.7667740000     1.1130200000
   13      C       0.9377510000     2.0294040000     0.8205780000
   14      H       0.1913500000     0.4144750000     2.1428810000
   15      C       1.0420300000     2.2545810000    -0.5635880000
   16      S       0.4068510000     0.8812280000    -1.4647480000
   17      C       1.3844260000     2.9957790000     1.8823800000
   18      H       1.1964130000     2.5891940000     2.8949740000
   19      H       0.8496410000     3.9657070000     1.8081370000
   20      H       2.4697560000     3.2167530000     1.8082300000
   21      H       1.4439190000     3.1242430000    -1.0971140000
   22      H      -0.4690730000    -4.4202190000     1.3057440000
   23      H      -1.3666940000    -4.4193950000    -0.2489400000
   24      H       0.5400120000    -1.4506280000     0.9353000000
 ----------------------------------------------------------------
 Nuclear Repulsion Energy =         877.80133367 hartrees
 There are       52 alpha and       52 beta electrons
 Requested basis set is cc-pVTZ
 There are 196 shells and 536 basis functions

 Total QAlloc Memory Limit 110000 MB
 Mega-Array Size       188 MB
 MEM_STATIC part       192 MB
 Discretize the solute cavity surface with Lebedev spheres
	Using 110 Lebedev grid points for each H atom
	Using 194 Lebedev grid points for other atoms
	Atomic van der Waals radii will be scaled by 1.20
 Remove points where switching function is < 1.0e-08
 Keep 1601 surface tesserae and discard 2047 interior tesserae
 Molecular Surface Area = 234.277 Angst**2
 Requested basis set is rimp2-cc-pVTZ
 There are 414 shells and 1414 basis functions
 A cutoff of  1.0D-10 yielded  14172 shell pairs
 There are    102768 function pairs (    131778 Cartesian)
 Smallest overlap matrix eigenvalue = 6.39E-05

 Scale SEOQF with 1.000000e-01/1.000000e-01/1.000000e-01

 Standard Electronic Orientation quadrupole field applied
 Nucleus-field energy     =     0.0000000320 hartrees
 Guess from superposition of atomic densities
 Warning:  Energy on first SCF cycle will be non-variational
 SAD guess density has 104.000000 electrons

 -----------------------------------------------------------------------
  General SCF calculation program by
  Eric Jon Sundstrom, Paul Horn, Yuezhi Mao, Dmitri Zuev, Alec White,
  David Stuck, Shaama M.S., Shane Yost, Joonho Lee, David Small,
  Daniel Levine, Susi Lehtola, Hugh Burton, Evgeny Epifanovsky,
  Bang C. Huynh
 -----------------------------------------------------------------------
 Hartree-Fock
 using 64 threads for integral computing
 -------------------------------------------------------
 OpenMP Integral computing Module                
 Release: version 1.0, May 2013, Q-Chem Inc. Pittsburgh 
 -------------------------------------------------------
 A restricted SCF calculation will be
 performed using DIIS
 SCF converges when DIIS error is below 1.0e-06
 ---------------------------------------
  Cycle       Energy         DIIS error
 ---------------------------------------
    1   -1186.0356936829      2.39e-02  
    2   -1180.6026384043      1.55e-03  
    3   -1180.7274172825      5.97e-04  
    4   -1180.7413666560      3.33e-04  
    5   -1180.7464243959      6.04e-05  
    6   -1180.7466786509      2.47e-05  
    7   -1180.7467404655      9.43e-06  
    8   -1180.7467554986      4.48e-06  
    9   -1180.7467591051      1.67e-06  
   10   -1180.7467596962      5.70e-07  Convergence criterion met
 ---------------------------------------
 SCF time:   CPU 1661.88s  wall 50.00s 

************** Final PCM Free Energy Summary **************
 G_electrostatic  =      -0.00867465 hartree =      -5.44342748 kcal/mol
 G_cavitation     =       0.00000000 hartree =       0.00000000 kcal/mol
 G_dispersion     =       0.00000000 hartree =       0.00000000 kcal/mol
 G_repulsion      =       0.00000000 hartree =       0.00000000 kcal/mol
 --------------------------------------------------
 Non-electrostatic Free Energy =       0.00000000 hartree =       0.00000000 kcal/mol
 Total                         =      -0.00867465 hartree =      -5.44342748 kcal/mol
 --------------------------------------------------
 SCF Energy (H0 + V/2)                       =   -1180.74675970 
 Solute Internal Energy (H0)                 =   -1180.73808504 
 Total Free Energy (H0 + V/2 + non-elec)     =   -1180.74675970 hartree
                                             = -740929.77456193 kcal/mol
***********************************************************

 SCF   energy in the final basis set =    -1180.7467596962
 Total energy in the final basis set =    -1180.7467596962


 --------------------------------------------------------------
  Generalized many-body perturbation theory program
  by Joonho Lee, Fazle Rob, Xintian Feng, Evgeny Epifanovsky

 No regularization used 
 (reg. param. = 0.0000e+00)
  (P|Q)^-1/2 Time:  CPU 20.57 s  wall 0.33 s

 In RI-MP2 calculation: 
 # of frozen core orbitals: 20

 Components of the RIMP2 correlation energy:
        aaaa    correlation energy =        -0.2520844513 a.u.
        abab    correlation energy =        -1.5053685881 a.u.
        bbbb    correlation energy =        -0.2520844513 a.u.
        non-Brillouin singles      =        -0.0000000000 a.u.
        total same-spin energy     =        -0.5041689026 a.u.
        total opposite-spin energy =        -1.5053685881 a.u.

 Total  RIMP2   correlation energy =        -2.0095374907 a.u.
        RIMP2         total energy =     -1182.7562971869 a.u.

 RI-MP2 Energy Time:  CPU 174.54 s  wall 3.62 s
 
 --------------------------------------------------------------
 
                    Orbital Energies (a.u.)
 --------------------------------------------------------------
 
 Alpha MOs
 -- Occupied --
-91.9823 -91.9398 -11.2802 -11.2651 -11.2628 -11.2549 -11.2514 -11.2412
-11.2406 -11.2295 -11.2293 -11.2188  -8.9822  -8.9445  -6.6630  -6.6625
 -6.6620  -6.6259  -6.6249  -6.6236  -1.1989  -1.1534  -1.0576  -1.0238
 -1.0078  -0.9583  -0.9113  -0.9021  -0.8113  -0.7651  -0.7319  -0.7003
 -0.6609  -0.6406  -0.6103  -0.5866  -0.5797  -0.5734  -0.5674  -0.5514
 -0.5417  -0.5295  -0.5160  -0.5055  -0.4941  -0.4746  -0.4582  -0.4477
 -0.3544  -0.3436  -0.3176  -0.2712
 -- Virtual --
  0.0893   0.1342   0.1409   0.1537   0.1585   0.1702   0.1768   0.1794
  0.1932   0.1966   0.2032   0.2066   0.2266   0.2352   0.2407   0.2424
  0.2509   0.2614   0.2670   0.2927   0.3153   0.3351   0.3443   0.3539
  0.3613   0.3724   0.3776   0.3894   0.3969   0.4022   0.4129   0.4321
  0.4374   0.4447   0.4477   0.4601   0.4643   0.4787   0.4834   0.4966
  0.5071   0.5126   0.5165   0.5328   0.5374   0.5404   0.5529   0.5555
  0.5654   0.5714   0.5787   0.5897   0.5948   0.6114   0.6148   0.6215
  0.6250   0.6278   0.6348   0.6389   0.6448   0.6471   0.6536   0.6553
  0.6663   0.6762   0.6811   0.6844   0.6891   0.7027   0.7160   0.7251
  0.7331   0.7443   0.7534   0.7627   0.7827   0.7946   0.8022   0.8257
  0.8276   0.8396   0.8542   0.8595   0.8645   0.8848   0.8945   0.9043
  0.9373   0.9412   0.9530   0.9648   0.9759   0.9808   1.0020   1.0069
  1.0094   1.0270   1.0323   1.0416   1.0511   1.0578   1.0728   1.0782
  1.0940   1.1006   1.1147   1.1296   1.1420   1.1495   1.1658   1.1707
  1.1796   1.1946   1.1987   1.2054   1.2192   1.2244   1.2281   1.2453
  1.2585   1.2603   1.2628   1.2722   1.2766   1.2867   1.3006   1.3091
  1.3140   1.3315   1.3357   1.3629   1.3822   1.3992   1.4125   1.4166
  1.4220   1.4381   1.4522   1.4535   1.4735   1.4794   1.4913   1.5018
  1.5059   1.5159   1.5246   1.5265   1.5329   1.5441   1.5487   1.5544
  1.5627   1.5770   1.5802   1.5923   1.6036   1.6140   1.6217   1.6382
  1.6548   1.6577   1.6748   1.6857   1.6913   1.7047   1.7185   1.7379
  1.7408   1.7672   1.7725   1.7961   1.8074   1.8285   1.8426   1.8612
  1.8762   1.9134   1.9268   1.9479   1.9603   1.9828   1.9915   2.0004
  2.0200   2.0353   2.0441   2.0559   2.0883   2.1039   2.1181   2.1557
  2.1855   2.1890   2.2091   2.2193   2.2332   2.2554   2.2819   2.2900
  2.3176   2.3338   2.3461   2.3727   2.3837   2.4136   2.4492   2.4593
  2.5021   2.5113   2.5386   2.5491   2.5702   2.5830   2.5973   2.6156
  2.6456   2.6519   2.6631   2.6655   2.6794   2.7038   2.7210   2.7295
  2.7394   2.7531   2.7584   2.7747   2.7778   2.7817   2.7907   2.8218
  2.8293   2.8457   2.8615   2.8665   2.8903   2.9009   2.9209   2.9262
  2.9370   2.9556   2.9668   2.9765   3.0049   3.0278   3.0299   3.0393
  3.0522   3.0899   3.0935   3.1028   3.1120   3.1129   3.1255   3.1357
  3.1476   3.1605   3.1646   3.1741   3.1817   3.1939   3.1983   3.2099
  3.2241   3.2425   3.2526   3.2700   3.2760   3.2852   3.2969   3.2996
  3.3194   3.3221   3.3299   3.3374   3.3497   3.3558   3.3595   3.3657
  3.3777   3.3841   3.3902   3.3998   3.4046   3.4127   3.4203   3.4292
  3.4359   3.4557   3.4598   3.4628   3.4770   3.4799   3.4994   3.5007
  3.5182   3.5275   3.5348   3.5419   3.5462   3.5523   3.5748   3.5833
  3.5908   3.6033   3.6096   3.6280   3.6363   3.6425   3.6477   3.6554
  3.6630   3.6783   3.6868   3.7008   3.7058   3.7246   3.7356   3.7395
  3.7491   3.7562   3.7637   3.7836   3.7857   3.7909   3.8030   3.8143
  3.8340   3.8385   3.8509   3.8654   3.8766   3.8818   3.8972   3.9236
  3.9284   3.9440   3.9561   3.9685   3.9762   3.9823   4.0034   4.0073
  4.0274   4.0394   4.0521   4.0582   4.0825   4.0865   4.0924   4.1122
  4.1164   4.1383   4.1439   4.1544   4.1624   4.1741   4.1913   4.1990
  4.2141   4.2238   4.2365   4.2499   4.2562   4.2637   4.2700   4.2831
  4.2908   4.3068   4.3153   4.3299   4.3351   4.3464   4.3623   4.3686
  4.3772   4.3967   4.4015   4.4106   4.4211   4.4277   4.4396   4.4477
  4.4622   4.4660   4.4779   4.4873   4.4969   4.5136   4.5335   4.5554
  4.5649   4.5884   4.5981   4.6320   4.6442   4.6481   4.6661   4.6850
  4.6923   4.7149   4.7328   4.7719   4.7904   4.8041   4.8175   4.8535
  4.8595   4.8699   4.8914   4.9108   4.9437   4.9506   4.9762   5.0030
  5.0140   5.0363   5.0916   5.1015   5.1178   5.1325   5.1395   5.1640
  5.1793   5.1971   5.2277   5.2666   5.2807   5.2824   5.3112   5.3187
  5.3383   5.3632   5.3826   5.4004   5.4096   5.4280   5.4430   5.4544
  5.4743   5.5101   5.5221   5.5393   5.5494   5.5612   5.5680   5.5892
  5.6199   5.6250   5.6346   5.6476   5.6759   5.6945   5.7030   5.7330
  5.7760   5.8084   5.8269   5.9712   5.9963   6.1169   6.1262   6.1345
  6.2077   6.2263   6.2270   6.2347   6.2688   6.2904   6.2973   6.3210
  6.3852   6.4458   9.4083  10.3941  12.0797  12.9182  13.1525  13.9632
 14.0720  14.2170  14.3085  14.6791
 --------------------------------------------------------------
 
          Ground-State Mulliken Net Atomic Charges

     Atom                 Charge (a.u.)
  ----------------------------------------
      1 C                    -0.072991
      2 C                    -0.327939
      3 C                    -0.025094
      4 H                     0.177590
      5 C                     0.058179
      6 S                    -0.185522
      7 C                    -0.277863
      8 H                     0.114219
      9 H                     0.109005
     10 H                     0.110888
     11 C                    -0.051695
     12 C                    -0.248700
     13 C                     0.025630
     14 H                     0.181891
     15 C                    -0.241348
     16 S                     0.009566
     17 C                    -0.270307
     18 H                     0.102667
     19 H                     0.108437
     20 H                     0.107243
     21 H                     0.197086
     22 H                     0.109186
     23 H                     0.111012
     24 H                     0.178861
  ----------------------------------------
  Sum of atomic charges =     0.000000

 -----------------------------------------------------------------
                    Cartesian Multipole Moments
 -----------------------------------------------------------------
    Charge (ESU x 10^10)
                -0.0000
    Dipole Moment (Debye)
         X       3.3601      Y       0.5160      Z       0.8995
       Tot       3.5165
    Quadrupole Moments (Debye-Ang)
        XX     -90.2679     XY       0.0506     YY     -76.3245
        XZ       0.2857     YZ       1.8041     ZZ     -85.4690
    Octopole Moments (Debye-Ang^2)
       XXX     -89.0995    XXY      56.4463    XYY     -15.8665
       YYY     137.6929    XXZ      -6.2909    XYZ       1.2675
       YYZ      -1.7085    XZZ     -26.1426    YZZ      59.6638
       ZZZ       2.1221
    Hexadecapole Moments (Debye-Ang^3)
      XXXX    -745.8697   XXXY    -203.7720   XXYY    -589.7974
      XYYY    -150.9875   YYYY   -2660.3098   XXXZ      75.6864
      XXYZ     -18.0477   XYYZ       8.1464   YYYZ    -105.5645
      XXZZ    -237.9374   XYZZ     -58.5027   YYZZ    -591.4289
      XZZZ      81.3687   YZZZ     -92.6598   ZZZZ    -688.3668
 -----------------------------------------------------------------
 Total job time:  55.40s(wall), 1921.95s(cpu) 
 Fri Dec 15 14:00:45 2023

        *************************************************************
        *                                                           *
        *  Thank you very much for using Q-Chem.  Have a nice day.  *
        *                                                           *
        *************************************************************


0 sent ACK to 0 
now end server 0 ... 
cleanup process ... done
remove work dirs ./qchem3689229.0 -- ./qchem3689229.0
rm -rf ./qchem3689229.0
rm -rf ./qchem3689229
