You are running Q-Chem version: 5.4.0

#
# job setting
#
local host:  exp-6-20
current dir: /home/rramji/project-csd799/aromodel/p3ht-qchem/hydrogenated-rotation-run
input file:  Methylthiophene_Phi_60_Theta_190_Methylthiophene_Hydrogenated.qcin
output file: 
nprocs     : 1
nthreads   : 64
#
# qchem installation setting
#
QC:          /cm/shared/apps/spack/cpu/opt/spack/linux-centos8-zen2/gcc-10.2.0/qchem-5.4-akfmr7b3t57bfs6qan3padb2wnb2i7cl
QCAUX:       /cm/shared/apps/spack/cpu/opt/spack/linux-centos8-zen2/gcc-10.2.0/qchem-5.4-akfmr7b3t57bfs6qan3padb2wnb2i7cl/qcaux
QCPROG:      /cm/shared/apps/spack/cpu/opt/spack/linux-centos8-zen2/gcc-10.2.0/qchem-5.4-akfmr7b3t57bfs6qan3padb2wnb2i7cl/exe/qcprog.exe
QCPROG_S:    /cm/shared/apps/spack/cpu/opt/spack/linux-centos8-zen2/gcc-10.2.0/qchem-5.4-akfmr7b3t57bfs6qan3padb2wnb2i7cl/exe/qcprog.exe_s
PARALLEL:    -DPARALLEL
QCMPI:       mpich
#
# qchem directory setting
#
qcrun:       qchem2820785
QCSCRATCH:   .
QCLOCALSCR:  
QCTMPDIR:    .
QCFILEPREF:  ./qchem2820785
QCSAVEDIR:   
workdirs:    ./qchem2820785
workdir0:    ./qchem2820785
partmpdirs =  
#
# parallel setting
#
QCRSH:           ssh
QCMPI:           mpich
QCMPIRUN:        /cm/shared/apps/spack/cpu/opt/spack/linux-centos8-zen2/gcc-10.2.0/qchem-5.4-akfmr7b3t57bfs6qan3padb2wnb2i7cl/bin/mpi/mpirun_qchem
QCMACHINEFILE:   ./qchem2820785/hostfile
exp-6-20

#
# env setting
#
exported envs:   QC QCAUX QCSCRATCH QCRUNNAME QCFILEPREF QCPROG QCPROG_S GUIFILE

Running Job 1 of 1 Methylthiophene_Phi_60_Theta_190_Methylthiophene_Hydrogenated.qcin
qchem Methylthiophene_Phi_60_Theta_190_Methylthiophene_Hydrogenated.qcin_2820785.0 ./qchem2820785/ 1
/cm/shared/apps/spack/cpu/opt/spack/linux-centos8-zen2/gcc-10.2.0/qchem-5.4-akfmr7b3t57bfs6qan3padb2wnb2i7cl/bin/mpi/mpirun_qchem -machinefile ./qchem2820785/hostfile -np 1 /cm/shared/apps/spack/cpu/opt/spack/linux-centos8-zen2/gcc-10.2.0/qchem-5.4-akfmr7b3t57bfs6qan3padb2wnb2i7cl/exe/qcprog.exe Methylthiophene_Phi_60_Theta_190_Methylthiophene_Hydrogenated.qcin_2820785.0 ./qchem2820785/

Process 0 of 1 is on exp-6-20 - thread support 0
initial socket setup ...start
initial socket setup ...done 
now start server 0 ... 
                  Welcome to Q-Chem
     A Quantum Leap Into The Future Of Chemistry


 Q-Chem 5.4, Q-Chem, Inc., Pleasanton, CA (2021)

 License issued to: University of California, San Diego (site)

 E. Epifanovsky,  A. T. B. Gilbert,  Xintian Feng,  Joonho Lee,  Yuezhi Mao,  
 N. Mardirossian,  P. Pokhilko,  A. White,  M. Wormit,  M. P. Coons,  
 A. L. Dempwolff,  Zhengting Gan,  D. Hait,  P. R. Horn,  L. D. Jacobson,  
 I. Kaliman,  J. Kussmann,  A. W. Lange,  Ka Un Lao,  D. S. Levine,  Jie Liu,  
 S. C. McKenzie,  A. F. Morrison,  K. Nanda,  F. Plasser,  D. R. Rehn,  
 M. L. Vidal,  Zhi-Qiang You,  Ying Zhu,  B. Alam,  B. Albrecht,  
 A. Aldossary,  E. Alguire,  J. H. Andersen,  D. Barton,  K. Begam,  A. Behn,  
 Y. A. Bernard,  E. J. Berquist,  H. Burton,  A. Carreras,  K. Carter-Fenk,  
 R. Chakraborty,  A. D. Chien,  K. D. Closser,  V. Cofer-Shabica,  
 S. Dasgupta,  Jia Deng,  M. de Wergifosse,  M. Diedenhofen,  Hainam Do,  
 S. Ehlert,  Po-Tung Fang,  S. Fatehi,  Qingguo Feng,  J. Gayvert,  
 Qinghui Ge,  G. Gidofalvi,  M. Goldey,  J. Gomes,  C. Gonzalez-Espinoza,  
 S. Gulania,  A. Gunina,  M. W. D. Hanson-Heine,  P. H. P. Harbach,  
 A. W. Hauser,  M. F. Herbst,  M. Hernandez Vera,  M. Hodecker,  
 Z. C. Holden,  S. Houck,  Xunkun Huang,  Kerwin Hui,  B. C. Huynh,  
 M. Ivanov,  Hyunjun Ji,  Hanjie Jiang,  B. Kaduk,  S. Kaehler,  
 K. Khistyaev,  Jaehoon Kim,  P. Klunzinger,  Z. Koczor-Benda,  
 Joong Hoon Koh,  D. Kosenkov,  L. Koulias,  T. Kowalczyk,  C. M. Krauter,  
 K. Kue,  A. Kunitsa,  T. Kus,  A. Landau,  K. V. Lawler,  D. Lefrancois,  
 S. Lehtola,  Rain Li,  Yi-Pei Li,  Jiashu Liang,  M. Liebenthal,  
 Hung-Hsuan Lin,  You-Sheng Lin,  Fenglai Liu,  Kuan-Yu Liu,  
 M. Loipersberger,  A. Luenser,  A. Manjanath,  P. Manohar,  E. Mansoor,  
 S. F. Manzer,  Shan-Ping Mao,  A. V. Marenich,  T. Markovich,  S. Mason,  
 S. A. Maurer,  P. F. McLaughlin,  M. F. S. J. Menger,  J.-M. Mewes,  
 S. A. Mewes,  P. Morgante,  J. W. Mullinax,  T. S. Nguyen-Beck,  
 K. J. Oosterbaan,  G. Paran,  Alexander C. Paul,  Suranjan K. Paul,  
 F. Pavosevic,  Zheng Pei,  S. Prager,  E. I. Proynov,  E. Ramos,  B. Rana,  
 A. E. Rask,  A. Rettig,  R. M. Richard,  F. Rob,  E. Rossomme,  T. Scheele,  
 M. Scheurer,  M. Schneider,  N. Sergueev,  S. M. Sharada,  W. Skomorowski,  
 D. W. Small,  C. J. Stein,  Yu-Chuan Su,  E. J. Sundstrom,  Zhen Tao,  
 J. Thirman,  T. Tsuchimochi,  N. M. Tubman,  S. P. Veccham,  O. Vydrov,  
 J. Wenzel,  J. Witte,  A. Yamada,  Kun Yao,  S. Yeganeh,  S. R. Yost,  
 A. Zech,  Igor Ying Zhang,  Xing Zhang,  Yu Zhang,  D. Zuev,  
 A. Aspuru-Guzik,  A. T. Bell,  N. A. Besley,  K. B. Bravaya,  B. R. Brooks,  
 D. Casanova,  Jeng-Da Chai,  S. Coriani,  C. J. Cramer,  
 A. E. DePrince, III,  R. A. DiStasio Jr.,  A. Dreuw,  B. D. Dunietz,  
 T. R. Furlani,  W. A. Goddard III,  S. Grimme,  S. Hammes-Schiffer,  
 T. Head-Gordon,  W. J. Hehre,  Chao-Ping Hsu,  T.-C. Jagau,  Yousung Jung,  
 A. Klamt,  Jing Kong,  D. S. Lambrecht,  WanZhen Liang,  N. J. Mayhall,  
 C. W. McCurdy,  J. B. Neaton,  C. Ochsenfeld,  J. A. Parkhill,  R. Peverati,  
 V. A. Rassolov,  Yihan Shao,  L. V. Slipchenko,  T. Stauch,  R. P. Steele,  
 J. E. Subotnik,  A. J. W. Thom,  A. Tkatchenko,  D. G. Truhlar,  
 T. Van Voorhis,  T. A. Wesolowski,  K. B. Whaley,  H. L. Woodcock III,  
 P. M. Zimmerman,  S. Faraji,  P. M. W. Gill,  M. Head-Gordon,  
 J. M. Herbert,  A. I. Krylov

 Contributors to earlier versions of Q-Chem not listed above: 
 R. D. Adamson,  B. Austin,  R. Baer,  J. Baker,  G. J. O. Beran,  
 K. Brandhorst,  S. T. Brown,  E. F. C. Byrd,  A. K. Chakraborty,  
 G. K. L. Chan,  Chun-Min Chang,  Yunqing Chen,  C.-L. Cheng,  
 Siu Hung Chien,  D. M. Chipman,  D. L. Crittenden,  H. Dachsel,  
 R. J. Doerksen,  A. D. Dutoi,  R. G. Edgar,  J. Fosso-Tande,  
 L. Fusti-Molnar,  D. Ghosh,  A. Ghysels,  A. Golubeva-Zadorozhnaya,  
 J. Gonthier,  M. S. Gordon,  S. R. Gwaltney,  G. Hawkins,  J. E. Herr,  
 A. Heyden,  S. Hirata,  E. G. Hohenstein,  G. Kedziora,  F. J. Keil,  
 C. Kelley,  Jihan Kim,  R. A. King,  R. Z. Khaliullin,  P. P. Korambath,  
 W. Kurlancheek,  A. Laurent,  A. M. Lee,  M. S. Lee,  S. V. Levchenko,  
 Ching Yeh Lin,  D. Liotard,  E. Livshits,  R. C. Lochan,  I. Lotan,  
 L. A. Martinez-Martinez,  P. E. Maslen,  N. Nair,  D. P. O'Neill,  
 D. Neuhauser,  E. Neuscamman,  C. M. Oana,  R. Olivares-Amaya,  R. Olson,  
 T. M. Perrine,  B. Peters,  P. A. Pieniazek,  A. Prociuk,  Y. M. Rhee,  
 J. Ritchie,  M. A. Rohrdanz,  E. Rosta,  N. J. Russ,  H. F. Schaefer III,  
 M. W. Schmidt,  N. E. Schultz,  S. Sharma,  N. Shenvi,  C. D. Sherrill,  
 A. C. Simmonett,  A. Sodt,  T. Stein,  D. Stuck,  K. S. Thanthiriwatte,  
 V. Vanovschi,  L. Vogt,  Tao Wang,  A. Warshel,  M. A. Watson,  
 C. F. Williams,  Q. Wu,  X. Xu,  Jun Yang,  W. Zhang,  Yan Zhao

 Please cite Q-Chem as follows:
 Y. Shao et al., Mol. Phys. 113, 184-215 (2015)
 DOI: 10.1080/00268976.2014.952696

 Q-Chem 5.4.0 for Intel X86 EM64T Linux

 Parts of Q-Chem use Armadillo 9.800.1 (Horizon Scraper).
 http://arma.sourceforge.net/

 Q-Chem begins on Fri Dec 15 14:17:21 2023  

 Host: 
0

     Scratch files written to ./qchem2820785//
 May1621 |scratch|qcdevops|jenkins|workspace|build_RNUM    
 Parallel job on  1  processors
 Processing $rem in /cm/shared/apps/spack/cpu/opt/spack/linux-centos8-zen2/gcc-10.2.0/qchem-5.4-akfmr7b3t57bfs6qan3padb2wnb2i7cl/config/preferences:
 Processing $rem in /home/rramji/.qchemrc:
 Symmetry turned off for PCM/SM12/SMD calculation
 Core orbitals will be frozen

 Checking the input file for inconsistencies... 	...done.

 Q-Chem warning in module forms1/BasisType.C, line 2236:

 You are not using the predefined 5D/6D in this basis set.


--------------------------------------------------------------
User input:
--------------------------------------------------------------
$molecule
0 1
C	0.126876	-3.887800	-0.713264
C	-0.113784	-3.701456	0.651267
C	-0.188043	-2.345170	1.068787
H	-0.236019	-4.545233	1.346782
C	0.000000	-1.450135	0.000000
S	0.265612	-2.321334	-1.504247
C	-0.439357	-1.934439	2.493059
H	-0.554378	-2.819799	3.147809
H	-1.362899	-1.326210	2.589987
H	0.394786	-1.325374	2.899892
C	0.000000	0.000000	0.000000
C	0.729909	0.424971	1.113020
C	1.932179	1.124518	0.820578
H	0.394478	0.229765	2.142881
C	2.146756	1.249161	-0.563588
S	0.838724	0.488500	-1.464748
C	2.852364	1.659924	1.882380
H	2.465145	1.434710	2.894974
H	2.970621	2.761183	1.808137
H	3.868160	1.218416	1.808230
H	2.974781	1.731032	-1.097114
H	-0.698744	-4.420219	-1.198647
H	1.069193	-4.419395	-0.886933
H	-1.063595	-1.450628	-0.187526
$end

$rem
JOBTYPE		SP
EXCHANGE	HF
CORRELATION	pRIMP2
BASIS		cc-pvtz
METHOD		rimp2
AUX_BASIS	rimp2-cc-pvtz
SOLVENT_METHOD	PCM
PURECART	11111
SYMMETRY	false
MEM_TOTAL	110000
SCF_CONVERGENCE = 6
THRESH=10
GUI = 2
$end



$solvent
dielectric 4.90
$end
--------------------------------------------------------------
 ----------------------------------------------------------------
             Standard Nuclear Orientation (Angstroms)
    I     Atom           X                Y                Z
 ----------------------------------------------------------------
    1      C       0.1268760000    -3.8878000000    -0.7132640000
    2      C      -0.1137840000    -3.7014560000     0.6512670000
    3      C      -0.1880430000    -2.3451700000     1.0687870000
    4      H      -0.2360190000    -4.5452330000     1.3467820000
    5      C       0.0000000000    -1.4501350000     0.0000000000
    6      S       0.2656120000    -2.3213340000    -1.5042470000
    7      C      -0.4393570000    -1.9344390000     2.4930590000
    8      H      -0.5543780000    -2.8197990000     3.1478090000
    9      H      -1.3628990000    -1.3262100000     2.5899870000
   10      H       0.3947860000    -1.3253740000     2.8998920000
   11      C       0.0000000000     0.0000000000     0.0000000000
   12      C       0.7299090000     0.4249710000     1.1130200000
   13      C       1.9321790000     1.1245180000     0.8205780000
   14      H       0.3944780000     0.2297650000     2.1428810000
   15      C       2.1467560000     1.2491610000    -0.5635880000
   16      S       0.8387240000     0.4885000000    -1.4647480000
   17      C       2.8523640000     1.6599240000     1.8823800000
   18      H       2.4651450000     1.4347100000     2.8949740000
   19      H       2.9706210000     2.7611830000     1.8081370000
   20      H       3.8681600000     1.2184160000     1.8082300000
   21      H       2.9747810000     1.7310320000    -1.0971140000
   22      H      -0.6987440000    -4.4202190000    -1.1986470000
   23      H       1.0691930000    -4.4193950000    -0.8869330000
   24      H      -1.0635950000    -1.4506280000    -0.1875260000
 ----------------------------------------------------------------
 Nuclear Repulsion Energy =         903.15903147 hartrees
 There are       52 alpha and       52 beta electrons
 Requested basis set is cc-pVTZ
 There are 196 shells and 536 basis functions

 Total QAlloc Memory Limit 110000 MB
 Mega-Array Size       188 MB
 MEM_STATIC part       192 MB
 Discretize the solute cavity surface with Lebedev spheres
	Using 110 Lebedev grid points for each H atom
	Using 194 Lebedev grid points for other atoms
	Atomic van der Waals radii will be scaled by 1.20
 Remove points where switching function is < 1.0e-08
 Keep 1545 surface tesserae and discard 2103 interior tesserae
 Molecular Surface Area = 225.938 Angst**2
 Requested basis set is rimp2-cc-pVTZ
 There are 414 shells and 1414 basis functions
 A cutoff of  1.0D-10 yielded  14647 shell pairs
 There are    106193 function pairs (    136095 Cartesian)
 Smallest overlap matrix eigenvalue = 6.82E-05

 Scale SEOQF with 1.000000e-01/1.000000e-01/1.000000e-01

 Standard Electronic Orientation quadrupole field applied
 Nucleus-field energy     =     0.0000000161 hartrees
 Guess from superposition of atomic densities
 Warning:  Energy on first SCF cycle will be non-variational
 SAD guess density has 104.000000 electrons

 -----------------------------------------------------------------------
  General SCF calculation program by
  Eric Jon Sundstrom, Paul Horn, Yuezhi Mao, Dmitri Zuev, Alec White,
  David Stuck, Shaama M.S., Shane Yost, Joonho Lee, David Small,
  Daniel Levine, Susi Lehtola, Hugh Burton, Evgeny Epifanovsky,
  Bang C. Huynh
 -----------------------------------------------------------------------
 Hartree-Fock
 using 64 threads for integral computing
 -------------------------------------------------------
 OpenMP Integral computing Module                
 Release: version 1.0, May 2013, Q-Chem Inc. Pittsburgh 
 -------------------------------------------------------
 A restricted SCF calculation will be
 performed using DIIS
 SCF converges when DIIS error is below 1.0e-06
 ---------------------------------------
  Cycle       Energy         DIIS error
 ---------------------------------------
    1   -1186.2057774101      2.41e-02  
    2   -1180.5127427335      1.54e-03  
    3   -1180.6409512519      5.50e-04  
    4   -1180.6549787754      2.86e-04  
    5   -1180.6590317319      6.28e-05  
    6   -1180.6593714001      2.84e-05  
    7   -1180.6594910925      1.56e-05  
    8   -1180.6595379953      7.64e-06  
    9   -1180.6595543927      3.54e-06  
   10   -1180.6595573514      1.37e-06  
   11   -1180.6595578134      6.78e-07  Convergence criterion met
 ---------------------------------------
 SCF time:   CPU 1913.32s  wall 57.00s 

************** Final PCM Free Energy Summary **************
 G_electrostatic  =      -0.01038283 hartree =      -6.51532719 kcal/mol
 G_cavitation     =       0.00000000 hartree =       0.00000000 kcal/mol
 G_dispersion     =       0.00000000 hartree =       0.00000000 kcal/mol
 G_repulsion      =       0.00000000 hartree =       0.00000000 kcal/mol
 --------------------------------------------------
 Non-electrostatic Free Energy =       0.00000000 hartree =       0.00000000 kcal/mol
 Total                         =      -0.01038283 hartree =      -6.51532719 kcal/mol
 --------------------------------------------------
 SCF Energy (H0 + V/2)                       =   -1180.65955781 
 Solute Internal Energy (H0)                 =   -1180.64917498 
 Total Free Energy (H0 + V/2 + non-elec)     =   -1180.65955781 hartree
                                             = -740875.05455456 kcal/mol
***********************************************************

 SCF   energy in the final basis set =    -1180.6595578134
 Total energy in the final basis set =    -1180.6595578134


 --------------------------------------------------------------
  Generalized many-body perturbation theory program
  by Joonho Lee, Fazle Rob, Xintian Feng, Evgeny Epifanovsky

 No regularization used 
 (reg. param. = 0.0000e+00)
  (P|Q)^-1/2 Time:  CPU 19.58 s  wall 0.31 s

 In RI-MP2 calculation: 
 # of frozen core orbitals: 20

 Components of the RIMP2 correlation energy:
        aaaa    correlation energy =        -0.2558439584 a.u.
        abab    correlation energy =        -1.5170180938 a.u.
        bbbb    correlation energy =        -0.2558439584 a.u.
        non-Brillouin singles      =        -0.0000000000 a.u.
        total same-spin energy     =        -0.5116879167 a.u.
        total opposite-spin energy =        -1.5170180938 a.u.

 Total  RIMP2   correlation energy =        -2.0287060105 a.u.
        RIMP2         total energy =     -1182.6882638239 a.u.

 RI-MP2 Energy Time:  CPU 172.83 s  wall 2.81 s
 
 --------------------------------------------------------------
 
                    Orbital Energies (a.u.)
 --------------------------------------------------------------
 
 Alpha MOs
 -- Occupied --
-91.9786 -91.9384 -11.2840 -11.2595 -11.2543 -11.2515 -11.2501 -11.2458
-11.2356 -11.2318 -11.2304 -11.2113  -8.9797  -8.9430  -6.6605  -6.6595
 -6.6593  -6.6242  -6.6232  -6.6219  -1.2034  -1.1528  -1.0566  -1.0327
 -0.9965  -0.9661  -0.9120  -0.9018  -0.8121  -0.7583  -0.7354  -0.7110
 -0.6482  -0.6395  -0.6129  -0.5980  -0.5866  -0.5682  -0.5661  -0.5484
 -0.5424  -0.5340  -0.5201  -0.5046  -0.4805  -0.4758  -0.4446  -0.4323
 -0.3615  -0.3370  -0.3217  -0.2499
 -- Virtual --
  0.0579   0.1323   0.1412   0.1519   0.1601   0.1704   0.1783   0.1829
  0.1854   0.2038   0.2103   0.2178   0.2233   0.2301   0.2403   0.2422
  0.2542   0.2645   0.2759   0.3062   0.3131   0.3190   0.3323   0.3643
  0.3664   0.3707   0.3846   0.3953   0.3987   0.4093   0.4218   0.4222
  0.4369   0.4388   0.4555   0.4668   0.4772   0.4826   0.4849   0.4980
  0.5046   0.5155   0.5196   0.5225   0.5377   0.5421   0.5552   0.5631
  0.5749   0.5774   0.5856   0.5942   0.6030   0.6112   0.6130   0.6206
  0.6280   0.6289   0.6319   0.6338   0.6463   0.6497   0.6528   0.6617
  0.6773   0.6839   0.6866   0.6904   0.7042   0.7059   0.7142   0.7257
  0.7394   0.7490   0.7589   0.7728   0.7846   0.7913   0.8134   0.8284
  0.8474   0.8550   0.8626   0.8677   0.8805   0.8910   0.8998   0.9027
  0.9205   0.9447   0.9586   0.9664   0.9713   0.9844   1.0015   1.0183
  1.0302   1.0360   1.0397   1.0526   1.0562   1.0728   1.0811   1.0866
  1.0922   1.1071   1.1157   1.1404   1.1524   1.1557   1.1642   1.1802
  1.1856   1.1986   1.2065   1.2109   1.2239   1.2258   1.2379   1.2520
  1.2574   1.2610   1.2682   1.2773   1.2853   1.3017   1.3111   1.3177
  1.3313   1.3423   1.3578   1.3681   1.3893   1.3952   1.4071   1.4157
  1.4202   1.4300   1.4455   1.4527   1.4727   1.4747   1.4929   1.5047
  1.5164   1.5174   1.5279   1.5345   1.5417   1.5530   1.5570   1.5623
  1.5820   1.5873   1.5979   1.6112   1.6226   1.6305   1.6507   1.6525
  1.6609   1.6675   1.6830   1.7002   1.7103   1.7129   1.7197   1.7376
  1.7539   1.7616   1.7960   1.8009   1.8131   1.8244   1.8506   1.8764
  1.8821   1.8988   1.9311   1.9377   1.9615   1.9929   2.0027   2.0137
  2.0334   2.0380   2.0621   2.0838   2.0884   2.1241   2.1290   2.1520
  2.1872   2.2024   2.2128   2.2148   2.2328   2.2443   2.2605   2.2885
  2.3052   2.3139   2.3560   2.4053   2.4166   2.4470   2.4581   2.4638
  2.5015   2.5308   2.5363   2.5484   2.5810   2.6050   2.6165   2.6240
  2.6442   2.6579   2.6625   2.6826   2.6906   2.6957   2.7207   2.7275
  2.7541   2.7607   2.7716   2.7782   2.7940   2.8035   2.8133   2.8285
  2.8396   2.8518   2.8684   2.8892   2.8935   2.9124   2.9259   2.9423
  2.9486   2.9750   2.9924   3.0038   3.0117   3.0235   3.0273   3.0349
  3.0484   3.0754   3.0972   3.1111   3.1240   3.1267   3.1326   3.1419
  3.1524   3.1582   3.1689   3.1846   3.1911   3.2009   3.2096   3.2258
  3.2377   3.2448   3.2551   3.2563   3.2762   3.2795   3.2998   3.3053
  3.3128   3.3219   3.3343   3.3360   3.3500   3.3557   3.3650   3.3665
  3.3754   3.3793   3.4037   3.4099   3.4128   3.4222   3.4294   3.4491
  3.4504   3.4581   3.4605   3.4672   3.4820   3.5002   3.5075   3.5139
  3.5271   3.5348   3.5419   3.5449   3.5628   3.5663   3.5740   3.5830
  3.5906   3.6134   3.6164   3.6396   3.6407   3.6543   3.6627   3.6786
  3.6856   3.6928   3.7057   3.7138   3.7274   3.7376   3.7435   3.7469
  3.7699   3.7782   3.7842   3.7976   3.8084   3.8115   3.8295   3.8365
  3.8516   3.8618   3.8686   3.8893   3.8934   3.9052   3.9182   3.9267
  3.9626   3.9671   3.9728   3.9860   4.0039   4.0126   4.0318   4.0464
  4.0490   4.0600   4.0702   4.0741   4.0848   4.1029   4.1194   4.1257
  4.1346   4.1548   4.1577   4.1702   4.1759   4.1870   4.1943   4.2119
  4.2212   4.2305   4.2445   4.2572   4.2697   4.2710   4.2797   4.2946
  4.3099   4.3242   4.3375   4.3449   4.3494   4.3621   4.3674   4.3876
  4.4007   4.4056   4.4157   4.4210   4.4375   4.4501   4.4610   4.4704
  4.4772   4.4822   4.4981   4.5046   4.5232   4.5487   4.5801   4.5893
  4.5947   4.6151   4.6255   4.6377   4.6466   4.6597   4.6785   4.7092
  4.7192   4.7407   4.7567   4.7751   4.8004   4.8238   4.8401   4.8437
  4.8885   4.8994   4.9248   4.9302   4.9519   4.9756   4.9911   5.0107
  5.0485   5.0646   5.0798   5.0902   5.1132   5.1256   5.1411   5.1700
  5.2009   5.2192   5.2324   5.2733   5.2832   5.3026   5.3136   5.3179
  5.3432   5.3792   5.3840   5.4045   5.4164   5.4419   5.4483   5.4723
  5.4901   5.5014   5.5346   5.5454   5.5553   5.5638   5.5817   5.6065
  5.6152   5.6266   5.6354   5.6774   5.6873   5.6993   5.7112   5.7206
  5.7803   5.8144   5.8357   6.0130   6.0312   6.0353   6.1132   6.1627
  6.2171   6.2306   6.2393   6.2475   6.2738   6.2791   6.3052   6.3314
  6.3859   6.4437   9.5166  10.4488  12.5486  12.8309  13.1819  13.9536
 14.1526  14.2294  14.3151  14.7323
 --------------------------------------------------------------
 
          Ground-State Mulliken Net Atomic Charges

     Atom                 Charge (a.u.)
  ----------------------------------------
      1 C                    -0.080195
      2 C                    -0.343821
      3 C                    -0.033498
      4 H                     0.173739
      5 C                     0.063100
      6 S                    -0.187780
      7 C                    -0.287688
      8 H                     0.119287
      9 H                     0.109455
     10 H                     0.097670
     11 C                    -0.154570
     12 C                    -0.140232
     13 C                    -0.018987
     14 H                     0.199008
     15 C                    -0.183460
     16 S                     0.025743
     17 C                    -0.269789
     18 H                     0.101064
     19 H                     0.108806
     20 H                     0.106043
     21 H                     0.201114
     22 H                     0.106686
     23 H                     0.108110
     24 H                     0.180193
  ----------------------------------------
  Sum of atomic charges =     0.000000

 -----------------------------------------------------------------
                    Cartesian Multipole Moments
 -----------------------------------------------------------------
    Charge (ESU x 10^10)
                -0.0000
    Dipole Moment (Debye)
         X       1.4334      Y       0.6965      Z       3.7736
       Tot       4.0963
    Quadrupole Moments (Debye-Ang)
        XX     -82.6305     XY       7.1995     YY     -84.3132
        XZ       0.6380     YZ      -2.6029     ZZ     -84.8161
    Octopole Moments (Debye-Ang^2)
       XXX    -154.5839    XXY      99.7075    XYY     -53.9220
       YYY     213.1274    XXZ      -8.5200    XYZ      -1.4442
       YYZ      -5.9173    XZZ     -54.7818    YZZ      83.1280
       ZZZ       2.2373
    Hexadecapole Moments (Debye-Ang^3)
      XXXX    -825.5826   XXXY    -175.4416   XXYY    -534.4208
      XYYY    -203.0730   YYYY   -2209.3496   XXXZ     -49.9377
      XXYZ     -22.7677   XYYZ     -20.6766   YYYZ     -45.2235
      XXZZ    -322.3435   XYZZ     -53.5763   YYZZ    -564.9755
      XZZZ     -42.4925   YZZZ     -78.0835   ZZZZ   -1083.6997
 -----------------------------------------------------------------
 Total job time:  61.76s(wall), 2163.52s(cpu) 
 Fri Dec 15 14:18:23 2023

        *************************************************************
        *                                                           *
        *  Thank you very much for using Q-Chem.  Have a nice day.  *
        *                                                           *
        *************************************************************


0 sent ACK to 0 
now end server 0 ... 
cleanup process ... done
remove work dirs ./qchem2820785.0 -- ./qchem2820785.0
rm -rf ./qchem2820785.0
rm -rf ./qchem2820785
