You are running Q-Chem version: 5.4.0

#
# job setting
#
local host:  exp-7-18
current dir: /home/rramji/project-csd799/aromodel/p3ht-qchem/hydrogenated-rotation-run
input file:  Methylthiophene_Phi_10_Theta_190_Methylthiophene_Hydrogenated.qcin
output file: 
nprocs     : 1
nthreads   : 64
#
# qchem installation setting
#
QC:          /cm/shared/apps/spack/cpu/opt/spack/linux-centos8-zen2/gcc-10.2.0/qchem-5.4-akfmr7b3t57bfs6qan3padb2wnb2i7cl
QCAUX:       /cm/shared/apps/spack/cpu/opt/spack/linux-centos8-zen2/gcc-10.2.0/qchem-5.4-akfmr7b3t57bfs6qan3padb2wnb2i7cl/qcaux
QCPROG:      /cm/shared/apps/spack/cpu/opt/spack/linux-centos8-zen2/gcc-10.2.0/qchem-5.4-akfmr7b3t57bfs6qan3padb2wnb2i7cl/exe/qcprog.exe
QCPROG_S:    /cm/shared/apps/spack/cpu/opt/spack/linux-centos8-zen2/gcc-10.2.0/qchem-5.4-akfmr7b3t57bfs6qan3padb2wnb2i7cl/exe/qcprog.exe_s
PARALLEL:    -DPARALLEL
QCMPI:       mpich
#
# qchem directory setting
#
qcrun:       qchem2328421
QCSCRATCH:   .
QCLOCALSCR:  
QCTMPDIR:    .
QCFILEPREF:  ./qchem2328421
QCSAVEDIR:   
workdirs:    ./qchem2328421
workdir0:    ./qchem2328421
partmpdirs =  
#
# parallel setting
#
QCRSH:           ssh
QCMPI:           mpich
QCMPIRUN:        /cm/shared/apps/spack/cpu/opt/spack/linux-centos8-zen2/gcc-10.2.0/qchem-5.4-akfmr7b3t57bfs6qan3padb2wnb2i7cl/bin/mpi/mpirun_qchem
QCMACHINEFILE:   ./qchem2328421/hostfile
exp-7-18

#
# env setting
#
exported envs:   QC QCAUX QCSCRATCH QCRUNNAME QCFILEPREF QCPROG QCPROG_S GUIFILE

Running Job 1 of 1 Methylthiophene_Phi_10_Theta_190_Methylthiophene_Hydrogenated.qcin
qchem Methylthiophene_Phi_10_Theta_190_Methylthiophene_Hydrogenated.qcin_2328421.0 ./qchem2328421/ 1
/cm/shared/apps/spack/cpu/opt/spack/linux-centos8-zen2/gcc-10.2.0/qchem-5.4-akfmr7b3t57bfs6qan3padb2wnb2i7cl/bin/mpi/mpirun_qchem -machinefile ./qchem2328421/hostfile -np 1 /cm/shared/apps/spack/cpu/opt/spack/linux-centos8-zen2/gcc-10.2.0/qchem-5.4-akfmr7b3t57bfs6qan3padb2wnb2i7cl/exe/qcprog.exe Methylthiophene_Phi_10_Theta_190_Methylthiophene_Hydrogenated.qcin_2328421.0 ./qchem2328421/

Process 0 of 1 is on exp-7-18 - thread support 0
initial socket setup ...start
initial socket setup ...done 
now start server 0 ... 
                  Welcome to Q-Chem
     A Quantum Leap Into The Future Of Chemistry


 Q-Chem 5.4, Q-Chem, Inc., Pleasanton, CA (2021)

 License issued to: University of California, San Diego (site)

 E. Epifanovsky,  A. T. B. Gilbert,  Xintian Feng,  Joonho Lee,  Yuezhi Mao,  
 N. Mardirossian,  P. Pokhilko,  A. White,  M. Wormit,  M. P. Coons,  
 A. L. Dempwolff,  Zhengting Gan,  D. Hait,  P. R. Horn,  L. D. Jacobson,  
 I. Kaliman,  J. Kussmann,  A. W. Lange,  Ka Un Lao,  D. S. Levine,  Jie Liu,  
 S. C. McKenzie,  A. F. Morrison,  K. Nanda,  F. Plasser,  D. R. Rehn,  
 M. L. Vidal,  Zhi-Qiang You,  Ying Zhu,  B. Alam,  B. Albrecht,  
 A. Aldossary,  E. Alguire,  J. H. Andersen,  D. Barton,  K. Begam,  A. Behn,  
 Y. A. Bernard,  E. J. Berquist,  H. Burton,  A. Carreras,  K. Carter-Fenk,  
 R. Chakraborty,  A. D. Chien,  K. D. Closser,  V. Cofer-Shabica,  
 S. Dasgupta,  Jia Deng,  M. de Wergifosse,  M. Diedenhofen,  Hainam Do,  
 S. Ehlert,  Po-Tung Fang,  S. Fatehi,  Qingguo Feng,  J. Gayvert,  
 Qinghui Ge,  G. Gidofalvi,  M. Goldey,  J. Gomes,  C. Gonzalez-Espinoza,  
 S. Gulania,  A. Gunina,  M. W. D. Hanson-Heine,  P. H. P. Harbach,  
 A. W. Hauser,  M. F. Herbst,  M. Hernandez Vera,  M. Hodecker,  
 Z. C. Holden,  S. Houck,  Xunkun Huang,  Kerwin Hui,  B. C. Huynh,  
 M. Ivanov,  Hyunjun Ji,  Hanjie Jiang,  B. Kaduk,  S. Kaehler,  
 K. Khistyaev,  Jaehoon Kim,  P. Klunzinger,  Z. Koczor-Benda,  
 Joong Hoon Koh,  D. Kosenkov,  L. Koulias,  T. Kowalczyk,  C. M. Krauter,  
 K. Kue,  A. Kunitsa,  T. Kus,  A. Landau,  K. V. Lawler,  D. Lefrancois,  
 S. Lehtola,  Rain Li,  Yi-Pei Li,  Jiashu Liang,  M. Liebenthal,  
 Hung-Hsuan Lin,  You-Sheng Lin,  Fenglai Liu,  Kuan-Yu Liu,  
 M. Loipersberger,  A. Luenser,  A. Manjanath,  P. Manohar,  E. Mansoor,  
 S. F. Manzer,  Shan-Ping Mao,  A. V. Marenich,  T. Markovich,  S. Mason,  
 S. A. Maurer,  P. F. McLaughlin,  M. F. S. J. Menger,  J.-M. Mewes,  
 S. A. Mewes,  P. Morgante,  J. W. Mullinax,  T. S. Nguyen-Beck,  
 K. J. Oosterbaan,  G. Paran,  Alexander C. Paul,  Suranjan K. Paul,  
 F. Pavosevic,  Zheng Pei,  S. Prager,  E. I. Proynov,  E. Ramos,  B. Rana,  
 A. E. Rask,  A. Rettig,  R. M. Richard,  F. Rob,  E. Rossomme,  T. Scheele,  
 M. Scheurer,  M. Schneider,  N. Sergueev,  S. M. Sharada,  W. Skomorowski,  
 D. W. Small,  C. J. Stein,  Yu-Chuan Su,  E. J. Sundstrom,  Zhen Tao,  
 J. Thirman,  T. Tsuchimochi,  N. M. Tubman,  S. P. Veccham,  O. Vydrov,  
 J. Wenzel,  J. Witte,  A. Yamada,  Kun Yao,  S. Yeganeh,  S. R. Yost,  
 A. Zech,  Igor Ying Zhang,  Xing Zhang,  Yu Zhang,  D. Zuev,  
 A. Aspuru-Guzik,  A. T. Bell,  N. A. Besley,  K. B. Bravaya,  B. R. Brooks,  
 D. Casanova,  Jeng-Da Chai,  S. Coriani,  C. J. Cramer,  
 A. E. DePrince, III,  R. A. DiStasio Jr.,  A. Dreuw,  B. D. Dunietz,  
 T. R. Furlani,  W. A. Goddard III,  S. Grimme,  S. Hammes-Schiffer,  
 T. Head-Gordon,  W. J. Hehre,  Chao-Ping Hsu,  T.-C. Jagau,  Yousung Jung,  
 A. Klamt,  Jing Kong,  D. S. Lambrecht,  WanZhen Liang,  N. J. Mayhall,  
 C. W. McCurdy,  J. B. Neaton,  C. Ochsenfeld,  J. A. Parkhill,  R. Peverati,  
 V. A. Rassolov,  Yihan Shao,  L. V. Slipchenko,  T. Stauch,  R. P. Steele,  
 J. E. Subotnik,  A. J. W. Thom,  A. Tkatchenko,  D. G. Truhlar,  
 T. Van Voorhis,  T. A. Wesolowski,  K. B. Whaley,  H. L. Woodcock III,  
 P. M. Zimmerman,  S. Faraji,  P. M. W. Gill,  M. Head-Gordon,  
 J. M. Herbert,  A. I. Krylov

 Contributors to earlier versions of Q-Chem not listed above: 
 R. D. Adamson,  B. Austin,  R. Baer,  J. Baker,  G. J. O. Beran,  
 K. Brandhorst,  S. T. Brown,  E. F. C. Byrd,  A. K. Chakraborty,  
 G. K. L. Chan,  Chun-Min Chang,  Yunqing Chen,  C.-L. Cheng,  
 Siu Hung Chien,  D. M. Chipman,  D. L. Crittenden,  H. Dachsel,  
 R. J. Doerksen,  A. D. Dutoi,  R. G. Edgar,  J. Fosso-Tande,  
 L. Fusti-Molnar,  D. Ghosh,  A. Ghysels,  A. Golubeva-Zadorozhnaya,  
 J. Gonthier,  M. S. Gordon,  S. R. Gwaltney,  G. Hawkins,  J. E. Herr,  
 A. Heyden,  S. Hirata,  E. G. Hohenstein,  G. Kedziora,  F. J. Keil,  
 C. Kelley,  Jihan Kim,  R. A. King,  R. Z. Khaliullin,  P. P. Korambath,  
 W. Kurlancheek,  A. Laurent,  A. M. Lee,  M. S. Lee,  S. V. Levchenko,  
 Ching Yeh Lin,  D. Liotard,  E. Livshits,  R. C. Lochan,  I. Lotan,  
 L. A. Martinez-Martinez,  P. E. Maslen,  N. Nair,  D. P. O'Neill,  
 D. Neuhauser,  E. Neuscamman,  C. M. Oana,  R. Olivares-Amaya,  R. Olson,  
 T. M. Perrine,  B. Peters,  P. A. Pieniazek,  A. Prociuk,  Y. M. Rhee,  
 J. Ritchie,  M. A. Rohrdanz,  E. Rosta,  N. J. Russ,  H. F. Schaefer III,  
 M. W. Schmidt,  N. E. Schultz,  S. Sharma,  N. Shenvi,  C. D. Sherrill,  
 A. C. Simmonett,  A. Sodt,  T. Stein,  D. Stuck,  K. S. Thanthiriwatte,  
 V. Vanovschi,  L. Vogt,  Tao Wang,  A. Warshel,  M. A. Watson,  
 C. F. Williams,  Q. Wu,  X. Xu,  Jun Yang,  W. Zhang,  Yan Zhao

 Please cite Q-Chem as follows:
 Y. Shao et al., Mol. Phys. 113, 184-215 (2015)
 DOI: 10.1080/00268976.2014.952696

 Q-Chem 5.4.0 for Intel X86 EM64T Linux

 Parts of Q-Chem use Armadillo 9.800.1 (Horizon Scraper).
 http://arma.sourceforge.net/

 Q-Chem begins on Fri Dec 15 14:12:48 2023  

 Host: 
0

     Scratch files written to ./qchem2328421//
 May1621 |scratch|qcdevops|jenkins|workspace|build_RNUM    
 Parallel job on  1  processors
 Processing $rem in /cm/shared/apps/spack/cpu/opt/spack/linux-centos8-zen2/gcc-10.2.0/qchem-5.4-akfmr7b3t57bfs6qan3padb2wnb2i7cl/config/preferences:
 Processing $rem in /home/rramji/.qchemrc:
 Symmetry turned off for PCM/SM12/SMD calculation
 Core orbitals will be frozen

 Checking the input file for inconsistencies... 	...done.

 Q-Chem warning in module forms1/BasisType.C, line 2236:

 You are not using the predefined 5D/6D in this basis set.


--------------------------------------------------------------
User input:
--------------------------------------------------------------
$molecule
0 1
C	0.126876	-3.887800	-0.713264
C	-0.113784	-3.701456	0.651267
C	-0.188043	-2.345170	1.068787
H	-0.236019	-4.545233	1.346782
C	0.000000	-1.450135	0.000000
S	0.265612	-2.321334	-1.504247
C	-0.439357	-1.934439	2.493059
H	-0.554378	-2.819799	3.147809
H	-1.362899	-1.326210	2.589987
H	0.394786	-1.325374	2.899892
C	0.000000	0.000000	0.000000
C	0.143630	0.832309	1.113020
C	0.380550	2.202961	0.820578
H	0.077556	0.449877	2.142881
C	0.422995	2.447456	-0.563588
S	0.164909	0.956502	-1.464748
C	0.561888	3.252016	1.882380
H	0.485513	2.810624	2.894974
H	-0.205711	4.050482	1.808137
H	1.553045	3.746365	1.808230
H	0.586105	3.391501	-1.097114
H	-0.698744	-4.420219	-1.198647
H	1.069193	-4.419395	-0.886933
H	-1.063595	-1.450628	-0.187526
$end

$rem
JOBTYPE		SP
EXCHANGE	HF
CORRELATION	pRIMP2
BASIS		cc-pvtz
METHOD		rimp2
AUX_BASIS	rimp2-cc-pvtz
SOLVENT_METHOD	PCM
PURECART	11111
SYMMETRY	false
MEM_TOTAL	110000
SCF_CONVERGENCE = 6
THRESH=10
GUI = 2
$end



$solvent
dielectric 4.90
$end
--------------------------------------------------------------
 ----------------------------------------------------------------
             Standard Nuclear Orientation (Angstroms)
    I     Atom           X                Y                Z
 ----------------------------------------------------------------
    1      C       0.1268760000    -3.8878000000    -0.7132640000
    2      C      -0.1137840000    -3.7014560000     0.6512670000
    3      C      -0.1880430000    -2.3451700000     1.0687870000
    4      H      -0.2360190000    -4.5452330000     1.3467820000
    5      C       0.0000000000    -1.4501350000     0.0000000000
    6      S       0.2656120000    -2.3213340000    -1.5042470000
    7      C      -0.4393570000    -1.9344390000     2.4930590000
    8      H      -0.5543780000    -2.8197990000     3.1478090000
    9      H      -1.3628990000    -1.3262100000     2.5899870000
   10      H       0.3947860000    -1.3253740000     2.8998920000
   11      C       0.0000000000     0.0000000000     0.0000000000
   12      C       0.1436300000     0.8323090000     1.1130200000
   13      C       0.3805500000     2.2029610000     0.8205780000
   14      H       0.0775560000     0.4498770000     2.1428810000
   15      C       0.4229950000     2.4474560000    -0.5635880000
   16      S       0.1649090000     0.9565020000    -1.4647480000
   17      C       0.5618880000     3.2520160000     1.8823800000
   18      H       0.4855130000     2.8106240000     2.8949740000
   19      H      -0.2057110000     4.0504820000     1.8081370000
   20      H       1.5530450000     3.7463650000     1.8082300000
   21      H       0.5861050000     3.3915010000    -1.0971140000
   22      H      -0.6987440000    -4.4202190000    -1.1986470000
   23      H       1.0691930000    -4.4193950000    -0.8869330000
   24      H      -1.0635950000    -1.4506280000    -0.1875260000
 ----------------------------------------------------------------
 Nuclear Repulsion Energy =         875.55353677 hartrees
 There are       52 alpha and       52 beta electrons
 Requested basis set is cc-pVTZ
 There are 196 shells and 536 basis functions

 Total QAlloc Memory Limit 110000 MB
 Mega-Array Size       188 MB
 MEM_STATIC part       192 MB
 Discretize the solute cavity surface with Lebedev spheres
	Using 110 Lebedev grid points for each H atom
	Using 194 Lebedev grid points for other atoms
	Atomic van der Waals radii will be scaled by 1.20
 Remove points where switching function is < 1.0e-08
 Keep 1585 surface tesserae and discard 2063 interior tesserae
 Molecular Surface Area = 231.028 Angst**2
 Requested basis set is rimp2-cc-pVTZ
 There are 414 shells and 1414 basis functions
 A cutoff of  1.0D-10 yielded  14033 shell pairs
 There are    101651 function pairs (    130244 Cartesian)
 Smallest overlap matrix eigenvalue = 5.28E-05

 Scale SEOQF with 1.000000e-01/1.000000e-01/1.000000e-01

 Standard Electronic Orientation quadrupole field applied
 Nucleus-field energy     =     0.0000000213 hartrees
 Guess from superposition of atomic densities
 Warning:  Energy on first SCF cycle will be non-variational
 SAD guess density has 104.000000 electrons

 -----------------------------------------------------------------------
  General SCF calculation program by
  Eric Jon Sundstrom, Paul Horn, Yuezhi Mao, Dmitri Zuev, Alec White,
  David Stuck, Shaama M.S., Shane Yost, Joonho Lee, David Small,
  Daniel Levine, Susi Lehtola, Hugh Burton, Evgeny Epifanovsky,
  Bang C. Huynh
 -----------------------------------------------------------------------
 Hartree-Fock
 using 64 threads for integral computing
 -------------------------------------------------------
 OpenMP Integral computing Module                
 Release: version 1.0, May 2013, Q-Chem Inc. Pittsburgh 
 -------------------------------------------------------
 A restricted SCF calculation will be
 performed using DIIS
 SCF converges when DIIS error is below 1.0e-06
 ---------------------------------------
  Cycle       Energy         DIIS error
 ---------------------------------------
    1   -1186.0429210584      2.39e-02  
    2   -1180.6041170698      1.59e-03  
    3   -1180.7314062044      6.67e-04  
    4   -1180.7480190489      3.45e-04  
    5   -1180.7536417931      6.02e-05  
    6   -1180.7538965947      2.51e-05  
    7   -1180.7539576713      8.94e-06  
    8   -1180.7539707971      4.30e-06  
    9   -1180.7539736914      1.44e-06  
   10   -1180.7539741248      5.07e-07  Convergence criterion met
 ---------------------------------------
 SCF time:   CPU 1707.29s  wall 50.00s 

************** Final PCM Free Energy Summary **************
 G_electrostatic  =      -0.00957672 hartree =      -6.00948307 kcal/mol
 G_cavitation     =       0.00000000 hartree =       0.00000000 kcal/mol
 G_dispersion     =       0.00000000 hartree =       0.00000000 kcal/mol
 G_repulsion      =       0.00000000 hartree =       0.00000000 kcal/mol
 --------------------------------------------------
 Non-electrostatic Free Energy =       0.00000000 hartree =       0.00000000 kcal/mol
 Total                         =      -0.00957672 hartree =      -6.00948307 kcal/mol
 --------------------------------------------------
 SCF Energy (H0 + V/2)                       =   -1180.75397412 
 Solute Internal Energy (H0)                 =   -1180.74439740 
 Total Free Energy (H0 + V/2 + non-elec)     =   -1180.75397412 hartree
                                             = -740934.30168423 kcal/mol
***********************************************************

 SCF   energy in the final basis set =    -1180.7539741248
 Total energy in the final basis set =    -1180.7539741248


 --------------------------------------------------------------
  Generalized many-body perturbation theory program
  by Joonho Lee, Fazle Rob, Xintian Feng, Evgeny Epifanovsky

 No regularization used 
 (reg. param. = 0.0000e+00)
  (P|Q)^-1/2 Time:  CPU 20.59 s  wall 0.33 s

 In RI-MP2 calculation: 
 # of frozen core orbitals: 20

 Components of the RIMP2 correlation energy:
        aaaa    correlation energy =        -0.2514673623 a.u.
        abab    correlation energy =        -1.5031858623 a.u.
        bbbb    correlation energy =        -0.2514673623 a.u.
        non-Brillouin singles      =        -0.0000000000 a.u.
        total same-spin energy     =        -0.5029347246 a.u.
        total opposite-spin energy =        -1.5031858623 a.u.

 Total  RIMP2   correlation energy =        -2.0061205869 a.u.
        RIMP2         total energy =     -1182.7600947118 a.u.

 RI-MP2 Energy Time:  CPU 167.95 s  wall 3.46 s
 
 --------------------------------------------------------------
 
                    Orbital Energies (a.u.)
 --------------------------------------------------------------
 
 Alpha MOs
 -- Occupied --
-91.9843 -91.9469 -11.2892 -11.2665 -11.2617 -11.2548 -11.2498 -11.2450
-11.2342 -11.2283 -11.2281 -11.2236  -8.9839  -8.9515  -6.6649  -6.6643
 -6.6637  -6.6329  -6.6319  -6.6306  -1.2016  -1.1525  -1.0593  -1.0320
 -1.0012  -0.9618  -0.9167  -0.8998  -0.8176  -0.7623  -0.7303  -0.7062
 -0.6558  -0.6473  -0.6106  -0.5947  -0.5849  -0.5685  -0.5629  -0.5498
 -0.5467  -0.5348  -0.5237  -0.5003  -0.4874  -0.4819  -0.4685  -0.4447
 -0.3608  -0.3434  -0.3247  -0.2642
 -- Virtual --
  0.1045   0.1321   0.1396   0.1473   0.1568   0.1713   0.1773   0.1850
  0.1877   0.2032   0.2078   0.2166   0.2178   0.2308   0.2373   0.2419
  0.2613   0.2751   0.2847   0.3092   0.3148   0.3223   0.3538   0.3638
  0.3672   0.3801   0.3847   0.3925   0.4025   0.4052   0.4163   0.4236
  0.4338   0.4565   0.4636   0.4715   0.4751   0.4814   0.4875   0.4948
  0.5065   0.5162   0.5279   0.5332   0.5341   0.5475   0.5521   0.5649
  0.5724   0.5834   0.5880   0.5978   0.6019   0.6092   0.6154   0.6219
  0.6249   0.6314   0.6322   0.6348   0.6393   0.6497   0.6573   0.6616
  0.6716   0.6779   0.6798   0.6939   0.6952   0.7163   0.7237   0.7292
  0.7435   0.7574   0.7655   0.7678   0.7898   0.7956   0.8039   0.8232
  0.8396   0.8438   0.8530   0.8767   0.8817   0.8951   0.9021   0.9193
  0.9420   0.9453   0.9502   0.9659   0.9742   0.9906   1.0024   1.0093
  1.0252   1.0366   1.0440   1.0477   1.0543   1.0636   1.0757   1.0814
  1.0851   1.0949   1.1071   1.1287   1.1416   1.1477   1.1599   1.1742
  1.1853   1.1887   1.2028   1.2078   1.2159   1.2223   1.2286   1.2389
  1.2444   1.2585   1.2679   1.2717   1.2795   1.2891   1.2969   1.3188
  1.3243   1.3301   1.3416   1.3654   1.3680   1.3754   1.4128   1.4162
  1.4317   1.4395   1.4476   1.4656   1.4770   1.4834   1.4885   1.4986
  1.5097   1.5213   1.5263   1.5329   1.5413   1.5420   1.5526   1.5643
  1.5682   1.5999   1.6045   1.6093   1.6165   1.6258   1.6357   1.6488
  1.6594   1.6761   1.6806   1.6985   1.7030   1.7229   1.7244   1.7318
  1.7578   1.7637   1.7685   1.8068   1.8282   1.8341   1.8548   1.8686
  1.8902   1.8943   1.9085   1.9321   1.9516   1.9629   1.9903   2.0007
  2.0159   2.0363   2.0583   2.0705   2.0801   2.1065   2.1335   2.1729
  2.1866   2.2017   2.2018   2.2199   2.2313   2.2535   2.2712   2.2824
  2.2907   2.3011   2.3274   2.3921   2.4179   2.4503   2.4629   2.4699
  2.5007   2.5170   2.5269   2.5451   2.5656   2.5885   2.5926   2.6043
  2.6402   2.6529   2.6561   2.6756   2.6796   2.7060   2.7157   2.7370
  2.7492   2.7580   2.7714   2.7772   2.7958   2.8012   2.8021   2.8147
  2.8228   2.8526   2.8535   2.8675   2.8889   2.8977   2.9141   2.9327
  2.9469   2.9634   2.9738   2.9939   3.0031   3.0293   3.0356   3.0505
  3.0721   3.0818   3.0937   3.0986   3.1117   3.1146   3.1269   3.1365
  3.1383   3.1604   3.1639   3.1713   3.1840   3.1949   3.1997   3.2146
  3.2239   3.2368   3.2456   3.2673   3.2758   3.2808   3.2963   3.3061
  3.3146   3.3293   3.3362   3.3393   3.3524   3.3606   3.3633   3.3682
  3.3755   3.3835   3.3925   3.3959   3.4083   3.4179   3.4246   3.4351
  3.4410   3.4507   3.4574   3.4606   3.4798   3.4865   3.4943   3.5051
  3.5120   3.5283   3.5298   3.5375   3.5536   3.5581   3.5684   3.5750
  3.5938   3.6024   3.6064   3.6154   3.6257   3.6345   3.6542   3.6605
  3.6723   3.6849   3.6934   3.7051   3.7105   3.7224   3.7339   3.7378
  3.7486   3.7586   3.7714   3.7755   3.7886   3.7931   3.8016   3.8154
  3.8235   3.8385   3.8636   3.8677   3.8758   3.8907   3.8942   3.9122
  3.9236   3.9466   3.9618   3.9660   3.9846   4.0009   4.0177   4.0300
  4.0357   4.0476   4.0557   4.0622   4.0791   4.0794   4.0931   4.0984
  4.1268   4.1415   4.1511   4.1591   4.1637   4.1742   4.1856   4.2009
  4.2137   4.2261   4.2299   4.2445   4.2527   4.2676   4.2698   4.2949
  4.3087   4.3165   4.3271   4.3367   4.3459   4.3602   4.3638   4.3682
  4.3740   4.3940   4.4018   4.4215   4.4240   4.4373   4.4436   4.4531
  4.4628   4.4726   4.4876   4.4966   4.5029   4.5149   4.5502   4.5912
  4.6020   4.6057   4.6215   4.6280   4.6442   4.6490   4.6553   4.6922
  4.7038   4.7373   4.7776   4.7799   4.7884   4.8117   4.8275   4.8544
  4.8617   4.8707   4.8858   4.9200   4.9309   4.9543   4.9932   4.9993
  5.0487   5.0637   5.0929   5.1132   5.1179   5.1282   5.1636   5.2047
  5.2193   5.2370   5.2552   5.2729   5.2971   5.3021   5.3109   5.3271
  5.3579   5.3697   5.3765   5.4045   5.4090   5.4235   5.4374   5.4430
  5.4733   5.5239   5.5301   5.5429   5.5522   5.5672   5.5762   5.6031
  5.6181   5.6234   5.6287   5.6579   5.6878   5.7032   5.7131   5.7329
  5.7725   5.8137   5.8457   5.9829   6.0284   6.0865   6.1379   6.1795
  6.2153   6.2274   6.2448   6.2608   6.2682   6.2896   6.3325   6.4262
  6.4541   6.5681   9.5696  11.0111  12.0020  12.9690  13.1809  13.9713
 14.1192  14.2071  14.3938  15.0387
 --------------------------------------------------------------
 
          Ground-State Mulliken Net Atomic Charges

     Atom                 Charge (a.u.)
  ----------------------------------------
      1 C                    -0.072068
      2 C                    -0.316240
      3 C                    -0.043238
      4 H                     0.179994
      5 C                     0.128242
      6 S                    -0.178607
      7 C                    -0.303222
      8 H                     0.123126
      9 H                     0.111125
     10 H                     0.105044
     11 C                    -0.065979
     12 C                    -0.262405
     13 C                     0.031467
     14 H                     0.191509
     15 C                    -0.277073
     16 S                     0.001425
     17 C                    -0.272876
     18 H                     0.100273
     19 H                     0.108368
     20 H                     0.108683
     21 H                     0.197694
     22 H                     0.111093
     23 H                     0.114352
     24 H                     0.179311
  ----------------------------------------
  Sum of atomic charges =     0.000000

 -----------------------------------------------------------------
                    Cartesian Multipole Moments
 -----------------------------------------------------------------
    Charge (ESU x 10^10)
                -0.0000
    Dipole Moment (Debye)
         X      -1.0547      Y      -0.4209      Z       3.6035
       Tot       3.7782
    Quadrupole Moments (Debye-Ang)
        XX     -91.6145     XY       3.7489     YY     -73.0752
        XZ       0.3581     YZ      -2.0916     ZZ     -85.5809
    Octopole Moments (Debye-Ang^2)
       XXX     -35.4257    XXY      46.3065    XYY      -7.3741
       YYY     115.5265    XXZ      -5.2893    XYZ       0.0690
       YYZ      -6.3209    XZZ     -12.0200    YZZ      50.0554
       ZZZ       1.3941
    Hexadecapole Moments (Debye-Ang^3)
      XXXX    -183.8523   XXXY     -87.4910   XXYY    -554.1155
      XYYY     -61.5640   YYYY   -2736.7235   XXXZ      34.9279
      XXYZ     -29.5279   XYYZ       4.2602   YYYZ    -105.6349
      XXZZ    -224.3358   XYZZ     -16.1020   YYZZ    -654.5223
      XZZZ      28.7466   YZZZ    -131.0554   ZZZZ   -1085.9952
 -----------------------------------------------------------------
 Total job time:  55.24s(wall), 1935.16s(cpu) 
 Fri Dec 15 14:13:44 2023

        *************************************************************
        *                                                           *
        *  Thank you very much for using Q-Chem.  Have a nice day.  *
        *                                                           *
        *************************************************************


0 sent ACK to 0 
now end server 0 ... 
cleanup process ... done
remove work dirs ./qchem2328421.0 -- ./qchem2328421.0
rm -rf ./qchem2328421.0
rm -rf ./qchem2328421
