You are running Q-Chem version: 5.4.0

#
# job setting
#
local host:  exp-6-20
current dir: /home/rramji/project-csd799/aromodel/p3ht-qchem/hydrogenated-rotation-run
input file:  Methylthiophene_Phi_60_Theta_170_Methylthiophene_Hydrogenated.qcin
output file: 
nprocs     : 1
nthreads   : 64
#
# qchem installation setting
#
QC:          /cm/shared/apps/spack/cpu/opt/spack/linux-centos8-zen2/gcc-10.2.0/qchem-5.4-akfmr7b3t57bfs6qan3padb2wnb2i7cl
QCAUX:       /cm/shared/apps/spack/cpu/opt/spack/linux-centos8-zen2/gcc-10.2.0/qchem-5.4-akfmr7b3t57bfs6qan3padb2wnb2i7cl/qcaux
QCPROG:      /cm/shared/apps/spack/cpu/opt/spack/linux-centos8-zen2/gcc-10.2.0/qchem-5.4-akfmr7b3t57bfs6qan3padb2wnb2i7cl/exe/qcprog.exe
QCPROG_S:    /cm/shared/apps/spack/cpu/opt/spack/linux-centos8-zen2/gcc-10.2.0/qchem-5.4-akfmr7b3t57bfs6qan3padb2wnb2i7cl/exe/qcprog.exe_s
PARALLEL:    -DPARALLEL
QCMPI:       mpich
#
# qchem directory setting
#
qcrun:       qchem2819886
QCSCRATCH:   .
QCLOCALSCR:  
QCTMPDIR:    .
QCFILEPREF:  ./qchem2819886
QCSAVEDIR:   
workdirs:    ./qchem2819886
workdir0:    ./qchem2819886
partmpdirs =  
#
# parallel setting
#
QCRSH:           ssh
QCMPI:           mpich
QCMPIRUN:        /cm/shared/apps/spack/cpu/opt/spack/linux-centos8-zen2/gcc-10.2.0/qchem-5.4-akfmr7b3t57bfs6qan3padb2wnb2i7cl/bin/mpi/mpirun_qchem
QCMACHINEFILE:   ./qchem2819886/hostfile
exp-6-20

#
# env setting
#
exported envs:   QC QCAUX QCSCRATCH QCRUNNAME QCFILEPREF QCPROG QCPROG_S GUIFILE

Running Job 1 of 1 Methylthiophene_Phi_60_Theta_170_Methylthiophene_Hydrogenated.qcin
qchem Methylthiophene_Phi_60_Theta_170_Methylthiophene_Hydrogenated.qcin_2819886.0 ./qchem2819886/ 1
/cm/shared/apps/spack/cpu/opt/spack/linux-centos8-zen2/gcc-10.2.0/qchem-5.4-akfmr7b3t57bfs6qan3padb2wnb2i7cl/bin/mpi/mpirun_qchem -machinefile ./qchem2819886/hostfile -np 1 /cm/shared/apps/spack/cpu/opt/spack/linux-centos8-zen2/gcc-10.2.0/qchem-5.4-akfmr7b3t57bfs6qan3padb2wnb2i7cl/exe/qcprog.exe Methylthiophene_Phi_60_Theta_170_Methylthiophene_Hydrogenated.qcin_2819886.0 ./qchem2819886/

Process 0 of 1 is on exp-6-20 - thread support 0
initial socket setup ...start
initial socket setup ...done 
now start server 0 ... 
                  Welcome to Q-Chem
     A Quantum Leap Into The Future Of Chemistry


 Q-Chem 5.4, Q-Chem, Inc., Pleasanton, CA (2021)

 License issued to: University of California, San Diego (site)

 E. Epifanovsky,  A. T. B. Gilbert,  Xintian Feng,  Joonho Lee,  Yuezhi Mao,  
 N. Mardirossian,  P. Pokhilko,  A. White,  M. Wormit,  M. P. Coons,  
 A. L. Dempwolff,  Zhengting Gan,  D. Hait,  P. R. Horn,  L. D. Jacobson,  
 I. Kaliman,  J. Kussmann,  A. W. Lange,  Ka Un Lao,  D. S. Levine,  Jie Liu,  
 S. C. McKenzie,  A. F. Morrison,  K. Nanda,  F. Plasser,  D. R. Rehn,  
 M. L. Vidal,  Zhi-Qiang You,  Ying Zhu,  B. Alam,  B. Albrecht,  
 A. Aldossary,  E. Alguire,  J. H. Andersen,  D. Barton,  K. Begam,  A. Behn,  
 Y. A. Bernard,  E. J. Berquist,  H. Burton,  A. Carreras,  K. Carter-Fenk,  
 R. Chakraborty,  A. D. Chien,  K. D. Closser,  V. Cofer-Shabica,  
 S. Dasgupta,  Jia Deng,  M. de Wergifosse,  M. Diedenhofen,  Hainam Do,  
 S. Ehlert,  Po-Tung Fang,  S. Fatehi,  Qingguo Feng,  J. Gayvert,  
 Qinghui Ge,  G. Gidofalvi,  M. Goldey,  J. Gomes,  C. Gonzalez-Espinoza,  
 S. Gulania,  A. Gunina,  M. W. D. Hanson-Heine,  P. H. P. Harbach,  
 A. W. Hauser,  M. F. Herbst,  M. Hernandez Vera,  M. Hodecker,  
 Z. C. Holden,  S. Houck,  Xunkun Huang,  Kerwin Hui,  B. C. Huynh,  
 M. Ivanov,  Hyunjun Ji,  Hanjie Jiang,  B. Kaduk,  S. Kaehler,  
 K. Khistyaev,  Jaehoon Kim,  P. Klunzinger,  Z. Koczor-Benda,  
 Joong Hoon Koh,  D. Kosenkov,  L. Koulias,  T. Kowalczyk,  C. M. Krauter,  
 K. Kue,  A. Kunitsa,  T. Kus,  A. Landau,  K. V. Lawler,  D. Lefrancois,  
 S. Lehtola,  Rain Li,  Yi-Pei Li,  Jiashu Liang,  M. Liebenthal,  
 Hung-Hsuan Lin,  You-Sheng Lin,  Fenglai Liu,  Kuan-Yu Liu,  
 M. Loipersberger,  A. Luenser,  A. Manjanath,  P. Manohar,  E. Mansoor,  
 S. F. Manzer,  Shan-Ping Mao,  A. V. Marenich,  T. Markovich,  S. Mason,  
 S. A. Maurer,  P. F. McLaughlin,  M. F. S. J. Menger,  J.-M. Mewes,  
 S. A. Mewes,  P. Morgante,  J. W. Mullinax,  T. S. Nguyen-Beck,  
 K. J. Oosterbaan,  G. Paran,  Alexander C. Paul,  Suranjan K. Paul,  
 F. Pavosevic,  Zheng Pei,  S. Prager,  E. I. Proynov,  E. Ramos,  B. Rana,  
 A. E. Rask,  A. Rettig,  R. M. Richard,  F. Rob,  E. Rossomme,  T. Scheele,  
 M. Scheurer,  M. Schneider,  N. Sergueev,  S. M. Sharada,  W. Skomorowski,  
 D. W. Small,  C. J. Stein,  Yu-Chuan Su,  E. J. Sundstrom,  Zhen Tao,  
 J. Thirman,  T. Tsuchimochi,  N. M. Tubman,  S. P. Veccham,  O. Vydrov,  
 J. Wenzel,  J. Witte,  A. Yamada,  Kun Yao,  S. Yeganeh,  S. R. Yost,  
 A. Zech,  Igor Ying Zhang,  Xing Zhang,  Yu Zhang,  D. Zuev,  
 A. Aspuru-Guzik,  A. T. Bell,  N. A. Besley,  K. B. Bravaya,  B. R. Brooks,  
 D. Casanova,  Jeng-Da Chai,  S. Coriani,  C. J. Cramer,  
 A. E. DePrince, III,  R. A. DiStasio Jr.,  A. Dreuw,  B. D. Dunietz,  
 T. R. Furlani,  W. A. Goddard III,  S. Grimme,  S. Hammes-Schiffer,  
 T. Head-Gordon,  W. J. Hehre,  Chao-Ping Hsu,  T.-C. Jagau,  Yousung Jung,  
 A. Klamt,  Jing Kong,  D. S. Lambrecht,  WanZhen Liang,  N. J. Mayhall,  
 C. W. McCurdy,  J. B. Neaton,  C. Ochsenfeld,  J. A. Parkhill,  R. Peverati,  
 V. A. Rassolov,  Yihan Shao,  L. V. Slipchenko,  T. Stauch,  R. P. Steele,  
 J. E. Subotnik,  A. J. W. Thom,  A. Tkatchenko,  D. G. Truhlar,  
 T. Van Voorhis,  T. A. Wesolowski,  K. B. Whaley,  H. L. Woodcock III,  
 P. M. Zimmerman,  S. Faraji,  P. M. W. Gill,  M. Head-Gordon,  
 J. M. Herbert,  A. I. Krylov

 Contributors to earlier versions of Q-Chem not listed above: 
 R. D. Adamson,  B. Austin,  R. Baer,  J. Baker,  G. J. O. Beran,  
 K. Brandhorst,  S. T. Brown,  E. F. C. Byrd,  A. K. Chakraborty,  
 G. K. L. Chan,  Chun-Min Chang,  Yunqing Chen,  C.-L. Cheng,  
 Siu Hung Chien,  D. M. Chipman,  D. L. Crittenden,  H. Dachsel,  
 R. J. Doerksen,  A. D. Dutoi,  R. G. Edgar,  J. Fosso-Tande,  
 L. Fusti-Molnar,  D. Ghosh,  A. Ghysels,  A. Golubeva-Zadorozhnaya,  
 J. Gonthier,  M. S. Gordon,  S. R. Gwaltney,  G. Hawkins,  J. E. Herr,  
 A. Heyden,  S. Hirata,  E. G. Hohenstein,  G. Kedziora,  F. J. Keil,  
 C. Kelley,  Jihan Kim,  R. A. King,  R. Z. Khaliullin,  P. P. Korambath,  
 W. Kurlancheek,  A. Laurent,  A. M. Lee,  M. S. Lee,  S. V. Levchenko,  
 Ching Yeh Lin,  D. Liotard,  E. Livshits,  R. C. Lochan,  I. Lotan,  
 L. A. Martinez-Martinez,  P. E. Maslen,  N. Nair,  D. P. O'Neill,  
 D. Neuhauser,  E. Neuscamman,  C. M. Oana,  R. Olivares-Amaya,  R. Olson,  
 T. M. Perrine,  B. Peters,  P. A. Pieniazek,  A. Prociuk,  Y. M. Rhee,  
 J. Ritchie,  M. A. Rohrdanz,  E. Rosta,  N. J. Russ,  H. F. Schaefer III,  
 M. W. Schmidt,  N. E. Schultz,  S. Sharma,  N. Shenvi,  C. D. Sherrill,  
 A. C. Simmonett,  A. Sodt,  T. Stein,  D. Stuck,  K. S. Thanthiriwatte,  
 V. Vanovschi,  L. Vogt,  Tao Wang,  A. Warshel,  M. A. Watson,  
 C. F. Williams,  Q. Wu,  X. Xu,  Jun Yang,  W. Zhang,  Yan Zhao

 Please cite Q-Chem as follows:
 Y. Shao et al., Mol. Phys. 113, 184-215 (2015)
 DOI: 10.1080/00268976.2014.952696

 Q-Chem 5.4.0 for Intel X86 EM64T Linux

 Parts of Q-Chem use Armadillo 9.800.1 (Horizon Scraper).
 http://arma.sourceforge.net/

 Q-Chem begins on Fri Dec 15 14:15:04 2023  

 Host: 
0

     Scratch files written to ./qchem2819886//
 May1621 |scratch|qcdevops|jenkins|workspace|build_RNUM    
 Parallel job on  1  processors
 Processing $rem in /cm/shared/apps/spack/cpu/opt/spack/linux-centos8-zen2/gcc-10.2.0/qchem-5.4-akfmr7b3t57bfs6qan3padb2wnb2i7cl/config/preferences:
 Processing $rem in /home/rramji/.qchemrc:
 Symmetry turned off for PCM/SM12/SMD calculation
 Core orbitals will be frozen

 Checking the input file for inconsistencies... 	...done.

 Q-Chem warning in module forms1/BasisType.C, line 2236:

 You are not using the predefined 5D/6D in this basis set.


--------------------------------------------------------------
User input:
--------------------------------------------------------------
$molecule
0 1
C	-0.124726	-3.887800	-0.713644
C	0.115824	-3.701456	0.650907
C	0.188844	-2.345170	1.068646
H	0.238841	-4.545233	1.346284
C	0.000000	-1.450135	0.000000
S	-0.264890	-2.321334	-1.504375
C	0.439816	-1.934439	2.492978
H	0.555669	-2.819799	3.147582
H	-0.394879	-1.326210	2.899931
H	1.362799	-1.325374	2.589982
C	0.000000	0.000000	0.000000
C	0.729909	0.424971	1.113020
C	1.932179	1.124518	0.820578
H	0.394478	0.229765	2.142881
C	2.146756	1.249161	-0.563588
S	0.838724	0.488500	-1.464748
C	2.852364	1.659924	1.882380
H	2.465145	1.434710	2.894974
H	2.970621	2.761183	1.808137
H	3.868160	1.218416	1.808230
H	2.974781	1.731032	-1.097114
H	-1.066566	-4.420219	-0.887375
H	0.701364	-4.419395	-1.199130
H	-1.063590	-1.450628	0.187554
$end

$rem
JOBTYPE		SP
EXCHANGE	HF
CORRELATION	pRIMP2
BASIS		cc-pvtz
METHOD		rimp2
AUX_BASIS	rimp2-cc-pvtz
SOLVENT_METHOD	PCM
PURECART	11111
SYMMETRY	false
MEM_TOTAL	110000
SCF_CONVERGENCE = 6
THRESH=10
GUI = 2
$end



$solvent
dielectric 4.90
$end
--------------------------------------------------------------
 ----------------------------------------------------------------
             Standard Nuclear Orientation (Angstroms)
    I     Atom           X                Y                Z
 ----------------------------------------------------------------
    1      C      -0.1247260000    -3.8878000000    -0.7136440000
    2      C       0.1158240000    -3.7014560000     0.6509070000
    3      C       0.1888440000    -2.3451700000     1.0686460000
    4      H       0.2388410000    -4.5452330000     1.3462840000
    5      C       0.0000000000    -1.4501350000     0.0000000000
    6      S      -0.2648900000    -2.3213340000    -1.5043750000
    7      C       0.4398160000    -1.9344390000     2.4929780000
    8      H       0.5556690000    -2.8197990000     3.1475820000
    9      H      -0.3948790000    -1.3262100000     2.8999310000
   10      H       1.3627990000    -1.3253740000     2.5899820000
   11      C       0.0000000000     0.0000000000     0.0000000000
   12      C       0.7299090000     0.4249710000     1.1130200000
   13      C       1.9321790000     1.1245180000     0.8205780000
   14      H       0.3944780000     0.2297650000     2.1428810000
   15      C       2.1467560000     1.2491610000    -0.5635880000
   16      S       0.8387240000     0.4885000000    -1.4647480000
   17      C       2.8523640000     1.6599240000     1.8823800000
   18      H       2.4651450000     1.4347100000     2.8949740000
   19      H       2.9706210000     2.7611830000     1.8081370000
   20      H       3.8681600000     1.2184160000     1.8082300000
   21      H       2.9747810000     1.7310320000    -1.0971140000
   22      H      -1.0665660000    -4.4202190000    -0.8873750000
   23      H       0.7013640000    -4.4193950000    -1.1991300000
   24      H      -1.0635900000    -1.4506280000     0.1875540000
 ----------------------------------------------------------------
 Nuclear Repulsion Energy =         903.47504689 hartrees
 There are       52 alpha and       52 beta electrons
 Requested basis set is cc-pVTZ
 There are 196 shells and 536 basis functions

 Total QAlloc Memory Limit 110000 MB
 Mega-Array Size       188 MB
 MEM_STATIC part       192 MB
 Discretize the solute cavity surface with Lebedev spheres
	Using 110 Lebedev grid points for each H atom
	Using 194 Lebedev grid points for other atoms
	Atomic van der Waals radii will be scaled by 1.20
 Remove points where switching function is < 1.0e-08
 Keep 1547 surface tesserae and discard 2101 interior tesserae
 Molecular Surface Area = 224.879 Angst**2
 Requested basis set is rimp2-cc-pVTZ
 There are 414 shells and 1414 basis functions
 A cutoff of  1.0D-10 yielded  14810 shell pairs
 There are    107578 function pairs (    137864 Cartesian)
 Smallest overlap matrix eigenvalue = 6.47E-05

 Scale SEOQF with 1.000000e-01/1.000000e-01/1.000000e-01

 Standard Electronic Orientation quadrupole field applied
 Nucleus-field energy     =     0.0000000161 hartrees
 Guess from superposition of atomic densities
 Warning:  Energy on first SCF cycle will be non-variational
 SAD guess density has 104.000000 electrons

 -----------------------------------------------------------------------
  General SCF calculation program by
  Eric Jon Sundstrom, Paul Horn, Yuezhi Mao, Dmitri Zuev, Alec White,
  David Stuck, Shaama M.S., Shane Yost, Joonho Lee, David Small,
  Daniel Levine, Susi Lehtola, Hugh Burton, Evgeny Epifanovsky,
  Bang C. Huynh
 -----------------------------------------------------------------------
 Hartree-Fock
 using 64 threads for integral computing
 -------------------------------------------------------
 OpenMP Integral computing Module                
 Release: version 1.0, May 2013, Q-Chem Inc. Pittsburgh 
 -------------------------------------------------------
 A restricted SCF calculation will be
 performed using DIIS
 SCF converges when DIIS error is below 1.0e-06
 ---------------------------------------
  Cycle       Energy         DIIS error
 ---------------------------------------
    1   -1186.2247549542      2.41e-02  
    2   -1180.5130810720      1.54e-03  
    3   -1180.6410327672      5.45e-04  
    4   -1180.6549550711      2.81e-04  
    5   -1180.6588866626      6.23e-05  
    6   -1180.6592206121      2.82e-05  
    7   -1180.6593363602      1.54e-05  
    8   -1180.6593808737      7.45e-06  
    9   -1180.6593961474      3.52e-06  
   10   -1180.6593989533      1.33e-06  
   11   -1180.6593993881      6.33e-07  Convergence criterion met
 ---------------------------------------
 SCF time:   CPU 1980.70s  wall 59.00s 

************** Final PCM Free Energy Summary **************
 G_electrostatic  =      -0.01112588 hartree =      -6.98159544 kcal/mol
 G_cavitation     =       0.00000000 hartree =       0.00000000 kcal/mol
 G_dispersion     =       0.00000000 hartree =       0.00000000 kcal/mol
 G_repulsion      =       0.00000000 hartree =       0.00000000 kcal/mol
 --------------------------------------------------
 Non-electrostatic Free Energy =       0.00000000 hartree =       0.00000000 kcal/mol
 Total                         =      -0.01112588 hartree =      -6.98159544 kcal/mol
 --------------------------------------------------
 SCF Energy (H0 + V/2)                       =   -1180.65939939 
 Solute Internal Energy (H0)                 =   -1180.64827351 
 Total Free Energy (H0 + V/2 + non-elec)     =   -1180.65939939 hartree
                                             = -740874.95514122 kcal/mol
***********************************************************

 SCF   energy in the final basis set =    -1180.6593993881
 Total energy in the final basis set =    -1180.6593993881


 --------------------------------------------------------------
  Generalized many-body perturbation theory program
  by Joonho Lee, Fazle Rob, Xintian Feng, Evgeny Epifanovsky

 No regularization used 
 (reg. param. = 0.0000e+00)
  (P|Q)^-1/2 Time:  CPU 27.02 s  wall 0.43 s

 In RI-MP2 calculation: 
 # of frozen core orbitals: 20

 Components of the RIMP2 correlation energy:
        aaaa    correlation energy =        -0.2560927992 a.u.
        abab    correlation energy =        -1.5174928084 a.u.
        bbbb    correlation energy =        -0.2560927992 a.u.
        non-Brillouin singles      =        -0.0000000000 a.u.
        total same-spin energy     =        -0.5121855985 a.u.
        total opposite-spin energy =        -1.5174928084 a.u.

 Total  RIMP2   correlation energy =        -2.0296784069 a.u.
        RIMP2         total energy =     -1182.6890777950 a.u.

 RI-MP2 Energy Time:  CPU 177.51 s  wall 3.60 s
 
 --------------------------------------------------------------
 
                    Orbital Energies (a.u.)
 --------------------------------------------------------------
 
 Alpha MOs
 -- Occupied --
-91.9757 -91.9382 -11.2843 -11.2608 -11.2545 -11.2511 -11.2498 -11.2474
-11.2382 -11.2330 -11.2308 -11.2123  -8.9768  -8.9429  -6.6576  -6.6566
 -6.6564  -6.6242  -6.6232  -6.6220  -1.2040  -1.1530  -1.0573  -1.0341
 -0.9970  -0.9652  -0.9144  -0.9022  -0.8106  -0.7595  -0.7330  -0.7143
 -0.6477  -0.6432  -0.6131  -0.5989  -0.5905  -0.5690  -0.5608  -0.5476
 -0.5448  -0.5342  -0.5249  -0.5049  -0.4782  -0.4709  -0.4427  -0.4361
 -0.3604  -0.3371  -0.3216  -0.2526
 -- Virtual --
  0.0607   0.1292   0.1437   0.1493   0.1591   0.1713   0.1768   0.1856
  0.1885   0.2053   0.2077   0.2157   0.2232   0.2309   0.2367   0.2411
  0.2485   0.2683   0.2861   0.3032   0.3169   0.3209   0.3315   0.3631
  0.3661   0.3712   0.3802   0.3892   0.4026   0.4127   0.4234   0.4251
  0.4316   0.4454   0.4659   0.4690   0.4750   0.4870   0.4897   0.5006
  0.5083   0.5127   0.5196   0.5223   0.5412   0.5449   0.5525   0.5557
  0.5749   0.5789   0.5854   0.5925   0.5977   0.6084   0.6144   0.6223
  0.6263   0.6272   0.6346   0.6391   0.6443   0.6495   0.6583   0.6626
  0.6715   0.6772   0.6873   0.6892   0.7038   0.7161   0.7263   0.7383
  0.7434   0.7559   0.7711   0.7752   0.7835   0.7924   0.7948   0.8323
  0.8409   0.8591   0.8610   0.8692   0.8744   0.8861   0.9051   0.9158
  0.9322   0.9428   0.9505   0.9622   0.9751   0.9946   0.9956   1.0108
  1.0308   1.0334   1.0416   1.0544   1.0642   1.0715   1.0856   1.0914
  1.1125   1.1181   1.1239   1.1363   1.1373   1.1514   1.1694   1.1723
  1.1844   1.1927   1.1981   1.2204   1.2257   1.2314   1.2451   1.2551
  1.2619   1.2745   1.2804   1.2810   1.2942   1.3062   1.3146   1.3167
  1.3348   1.3391   1.3617   1.3706   1.3927   1.3980   1.4025   1.4129
  1.4308   1.4441   1.4499   1.4632   1.4732   1.4868   1.4919   1.5022
  1.5166   1.5258   1.5321   1.5407   1.5524   1.5564   1.5589   1.5694
  1.5755   1.5814   1.6020   1.6076   1.6317   1.6374   1.6388   1.6495
  1.6652   1.6716   1.6904   1.6952   1.7237   1.7283   1.7355   1.7480
  1.7547   1.7855   1.7950   1.8037   1.8156   1.8263   1.8517   1.8540
  1.8953   1.9055   1.9271   1.9493   1.9734   1.9852   2.0015   2.0131
  2.0255   2.0406   2.0506   2.0834   2.0940   2.1021   2.1327   2.1545
  2.1792   2.1967   2.2127   2.2131   2.2282   2.2416   2.2570   2.2939
  2.3042   2.3234   2.3565   2.3716   2.4304   2.4359   2.4608   2.4842
  2.4871   2.5034   2.5396   2.5626   2.5779   2.6103   2.6283   2.6342
  2.6392   2.6495   2.6716   2.6774   2.6878   2.7156   2.7287   2.7459
  2.7556   2.7659   2.7767   2.7828   2.7903   2.8015   2.8265   2.8435
  2.8512   2.8653   2.8802   2.8898   2.9099   2.9216   2.9307   2.9354
  2.9560   2.9634   2.9921   3.0021   3.0127   3.0214   3.0274   3.0446
  3.0486   3.0848   3.0967   3.1110   3.1190   3.1229   3.1286   3.1399
  3.1637   3.1662   3.1723   3.1788   3.1919   3.2004   3.2167   3.2273
  3.2331   3.2426   3.2596   3.2678   3.2749   3.2906   3.2965   3.3034
  3.3128   3.3270   3.3378   3.3463   3.3514   3.3559   3.3678   3.3776
  3.3819   3.3878   3.4001   3.4034   3.4164   3.4275   3.4385   3.4472
  3.4492   3.4666   3.4704   3.4819   3.4851   3.5055   3.5132   3.5211
  3.5314   3.5367   3.5457   3.5571   3.5644   3.5665   3.5786   3.5837
  3.5968   3.6065   3.6221   3.6291   3.6500   3.6600   3.6823   3.6914
  3.6937   3.6968   3.7196   3.7235   3.7264   3.7369   3.7386   3.7517
  3.7629   3.7762   3.7796   3.7904   3.7955   3.8095   3.8218   3.8356
  3.8504   3.8716   3.8825   3.8836   3.9049   3.9221   3.9332   3.9481
  3.9591   3.9692   3.9812   3.9873   4.0004   4.0177   4.0355   4.0392
  4.0501   4.0605   4.0768   4.0842   4.0861   4.1086   4.1194   4.1371
  4.1470   4.1578   4.1699   4.1726   4.1889   4.1926   4.2023   4.2176
  4.2222   4.2371   4.2470   4.2624   4.2705   4.2736   4.2843   4.2948
  4.3108   4.3175   4.3445   4.3526   4.3536   4.3754   4.3850   4.3878
  4.4050   4.4089   4.4158   4.4224   4.4393   4.4472   4.4595   4.4673
  4.4725   4.4882   4.5060   4.5193   4.5387   4.5651   4.5799   4.5967
  4.6200   4.6335   4.6393   4.6567   4.6674   4.6697   4.6862   4.7208
  4.7240   4.7296   4.7603   4.8000   4.8295   4.8353   4.8517   4.8717
  4.8845   4.9064   4.9265   4.9409   4.9609   4.9731   4.9878   5.0054
  5.0532   5.0601   5.0976   5.1026   5.1222   5.1321   5.1548   5.1777
  5.2032   5.2126   5.2310   5.2595   5.2859   5.3117   5.3136   5.3214
  5.3395   5.3735   5.3852   5.4130   5.4187   5.4298   5.4478   5.4517
  5.4852   5.5044   5.5404   5.5445   5.5589   5.5783   5.5873   5.6088
  5.6255   5.6479   5.6512   5.6727   5.6956   5.7089   5.7140   5.7329
  5.7763   5.7997   5.8252   5.9693   6.0255   6.0556   6.1006   6.1647
  6.2149   6.2317   6.2484   6.2626   6.2682   6.2837   6.3190   6.3265
  6.4071   6.4579   9.5601  10.4550  12.5712  12.8369  13.1806  14.1125
 14.1625  14.2130  14.4257  14.8292
 --------------------------------------------------------------
 
          Ground-State Mulliken Net Atomic Charges

     Atom                 Charge (a.u.)
  ----------------------------------------
      1 C                    -0.075158
      2 C                    -0.345580
      3 C                    -0.041913
      4 H                     0.175283
      5 C                     0.070954
      6 S                    -0.194425
      7 C                    -0.281013
      8 H                     0.119999
      9 H                     0.099214
     10 H                     0.106730
     11 C                    -0.152077
     12 C                    -0.169167
     13 C                    -0.006418
     14 H                     0.202251
     15 C                    -0.184043
     16 S                     0.027703
     17 C                    -0.278863
     18 H                     0.102007
     19 H                     0.114565
     20 H                     0.107217
     21 H                     0.199731
     22 H                     0.108132
     23 H                     0.109493
     24 H                     0.185377
  ----------------------------------------
  Sum of atomic charges =     0.000000

 -----------------------------------------------------------------
                    Cartesian Multipole Moments
 -----------------------------------------------------------------
    Charge (ESU x 10^10)
                -0.0000
    Dipole Moment (Debye)
         X       2.2142      Y       0.5116      Z       4.2467
       Tot       4.8165
    Quadrupole Moments (Debye-Ang)
        XX     -82.5831     XY       5.9300     YY     -83.6902
        XZ       0.8949     YZ      -3.0575     ZZ     -85.0763
    Octopole Moments (Debye-Ang^2)
       XXX    -158.0264    XXY      99.0738    XYY     -54.4543
       YYY     210.3018    XXZ      -8.0397    XYZ      -2.8519
       YYZ      -5.6008    XZZ     -52.1585    YZZ      83.2859
       ZZZ       3.3864
    Hexadecapole Moments (Debye-Ang^3)
      XXXX    -825.8294   XXXY    -171.8726   XXYY    -532.6785
      XYYY    -201.5865   YYYY   -2195.8085   XXXZ    -151.1584
      XXYZ     -22.2979   XYYZ     -43.7125   YYYZ     -44.3096
      XXZZ    -322.2708   XYZZ     -67.1697   YYZZ    -565.6022
      XZZZ    -132.1550   YZZZ     -78.4042   ZZZZ   -1086.8649
 -----------------------------------------------------------------
 Total job time:  67.05s(wall), 2226.23s(cpu) 
 Fri Dec 15 14:16:11 2023

        *************************************************************
        *                                                           *
        *  Thank you very much for using Q-Chem.  Have a nice day.  *
        *                                                           *
        *************************************************************


0 sent ACK to 0 
now end server 0 ... 
cleanup process ... done
remove work dirs ./qchem2819886.0 -- ./qchem2819886.0
rm -rf ./qchem2819886.0
rm -rf ./qchem2819886
