You are running Q-Chem version: 5.4.0

#
# job setting
#
local host:  exp-9-54
current dir: /home/rramji/project-csd799/aromodel/p3ht-qchem/hydrogenated-rotation-run
input file:  Methylthiophene_Phi_25_Theta_70_Methylthiophene_Hydrogenated.qcin
output file: 
nprocs     : 1
nthreads   : 64
#
# qchem installation setting
#
QC:          /cm/shared/apps/spack/cpu/opt/spack/linux-centos8-zen2/gcc-10.2.0/qchem-5.4-akfmr7b3t57bfs6qan3padb2wnb2i7cl
QCAUX:       /cm/shared/apps/spack/cpu/opt/spack/linux-centos8-zen2/gcc-10.2.0/qchem-5.4-akfmr7b3t57bfs6qan3padb2wnb2i7cl/qcaux
QCPROG:      /cm/shared/apps/spack/cpu/opt/spack/linux-centos8-zen2/gcc-10.2.0/qchem-5.4-akfmr7b3t57bfs6qan3padb2wnb2i7cl/exe/qcprog.exe
QCPROG_S:    /cm/shared/apps/spack/cpu/opt/spack/linux-centos8-zen2/gcc-10.2.0/qchem-5.4-akfmr7b3t57bfs6qan3padb2wnb2i7cl/exe/qcprog.exe_s
PARALLEL:    -DPARALLEL
QCMPI:       mpich
#
# qchem directory setting
#
qcrun:       qchem3689900
QCSCRATCH:   .
QCLOCALSCR:  
QCTMPDIR:    .
QCFILEPREF:  ./qchem3689900
QCSAVEDIR:   
workdirs:    ./qchem3689900
workdir0:    ./qchem3689900
partmpdirs =  
#
# parallel setting
#
QCRSH:           ssh
QCMPI:           mpich
QCMPIRUN:        /cm/shared/apps/spack/cpu/opt/spack/linux-centos8-zen2/gcc-10.2.0/qchem-5.4-akfmr7b3t57bfs6qan3padb2wnb2i7cl/bin/mpi/mpirun_qchem
QCMACHINEFILE:   ./qchem3689900/hostfile
exp-9-54

#
# env setting
#
exported envs:   QC QCAUX QCSCRATCH QCRUNNAME QCFILEPREF QCPROG QCPROG_S GUIFILE

Running Job 1 of 1 Methylthiophene_Phi_25_Theta_70_Methylthiophene_Hydrogenated.qcin
qchem Methylthiophene_Phi_25_Theta_70_Methylthiophene_Hydrogenated.qcin_3689900.0 ./qchem3689900/ 1
/cm/shared/apps/spack/cpu/opt/spack/linux-centos8-zen2/gcc-10.2.0/qchem-5.4-akfmr7b3t57bfs6qan3padb2wnb2i7cl/bin/mpi/mpirun_qchem -machinefile ./qchem3689900/hostfile -np 1 /cm/shared/apps/spack/cpu/opt/spack/linux-centos8-zen2/gcc-10.2.0/qchem-5.4-akfmr7b3t57bfs6qan3padb2wnb2i7cl/exe/qcprog.exe Methylthiophene_Phi_25_Theta_70_Methylthiophene_Hydrogenated.qcin_3689900.0 ./qchem3689900/

Process 0 of 1 is on exp-9-54 - thread support 0
initial socket setup ...start
initial socket setup ...done 
now start server 0 ... 
                  Welcome to Q-Chem
     A Quantum Leap Into The Future Of Chemistry


 Q-Chem 5.4, Q-Chem, Inc., Pleasanton, CA (2021)

 License issued to: University of California, San Diego (site)

 E. Epifanovsky,  A. T. B. Gilbert,  Xintian Feng,  Joonho Lee,  Yuezhi Mao,  
 N. Mardirossian,  P. Pokhilko,  A. White,  M. Wormit,  M. P. Coons,  
 A. L. Dempwolff,  Zhengting Gan,  D. Hait,  P. R. Horn,  L. D. Jacobson,  
 I. Kaliman,  J. Kussmann,  A. W. Lange,  Ka Un Lao,  D. S. Levine,  Jie Liu,  
 S. C. McKenzie,  A. F. Morrison,  K. Nanda,  F. Plasser,  D. R. Rehn,  
 M. L. Vidal,  Zhi-Qiang You,  Ying Zhu,  B. Alam,  B. Albrecht,  
 A. Aldossary,  E. Alguire,  J. H. Andersen,  D. Barton,  K. Begam,  A. Behn,  
 Y. A. Bernard,  E. J. Berquist,  H. Burton,  A. Carreras,  K. Carter-Fenk,  
 R. Chakraborty,  A. D. Chien,  K. D. Closser,  V. Cofer-Shabica,  
 S. Dasgupta,  Jia Deng,  M. de Wergifosse,  M. Diedenhofen,  Hainam Do,  
 S. Ehlert,  Po-Tung Fang,  S. Fatehi,  Qingguo Feng,  J. Gayvert,  
 Qinghui Ge,  G. Gidofalvi,  M. Goldey,  J. Gomes,  C. Gonzalez-Espinoza,  
 S. Gulania,  A. Gunina,  M. W. D. Hanson-Heine,  P. H. P. Harbach,  
 A. W. Hauser,  M. F. Herbst,  M. Hernandez Vera,  M. Hodecker,  
 Z. C. Holden,  S. Houck,  Xunkun Huang,  Kerwin Hui,  B. C. Huynh,  
 M. Ivanov,  Hyunjun Ji,  Hanjie Jiang,  B. Kaduk,  S. Kaehler,  
 K. Khistyaev,  Jaehoon Kim,  P. Klunzinger,  Z. Koczor-Benda,  
 Joong Hoon Koh,  D. Kosenkov,  L. Koulias,  T. Kowalczyk,  C. M. Krauter,  
 K. Kue,  A. Kunitsa,  T. Kus,  A. Landau,  K. V. Lawler,  D. Lefrancois,  
 S. Lehtola,  Rain Li,  Yi-Pei Li,  Jiashu Liang,  M. Liebenthal,  
 Hung-Hsuan Lin,  You-Sheng Lin,  Fenglai Liu,  Kuan-Yu Liu,  
 M. Loipersberger,  A. Luenser,  A. Manjanath,  P. Manohar,  E. Mansoor,  
 S. F. Manzer,  Shan-Ping Mao,  A. V. Marenich,  T. Markovich,  S. Mason,  
 S. A. Maurer,  P. F. McLaughlin,  M. F. S. J. Menger,  J.-M. Mewes,  
 S. A. Mewes,  P. Morgante,  J. W. Mullinax,  T. S. Nguyen-Beck,  
 K. J. Oosterbaan,  G. Paran,  Alexander C. Paul,  Suranjan K. Paul,  
 F. Pavosevic,  Zheng Pei,  S. Prager,  E. I. Proynov,  E. Ramos,  B. Rana,  
 A. E. Rask,  A. Rettig,  R. M. Richard,  F. Rob,  E. Rossomme,  T. Scheele,  
 M. Scheurer,  M. Schneider,  N. Sergueev,  S. M. Sharada,  W. Skomorowski,  
 D. W. Small,  C. J. Stein,  Yu-Chuan Su,  E. J. Sundstrom,  Zhen Tao,  
 J. Thirman,  T. Tsuchimochi,  N. M. Tubman,  S. P. Veccham,  O. Vydrov,  
 J. Wenzel,  J. Witte,  A. Yamada,  Kun Yao,  S. Yeganeh,  S. R. Yost,  
 A. Zech,  Igor Ying Zhang,  Xing Zhang,  Yu Zhang,  D. Zuev,  
 A. Aspuru-Guzik,  A. T. Bell,  N. A. Besley,  K. B. Bravaya,  B. R. Brooks,  
 D. Casanova,  Jeng-Da Chai,  S. Coriani,  C. J. Cramer,  
 A. E. DePrince, III,  R. A. DiStasio Jr.,  A. Dreuw,  B. D. Dunietz,  
 T. R. Furlani,  W. A. Goddard III,  S. Grimme,  S. Hammes-Schiffer,  
 T. Head-Gordon,  W. J. Hehre,  Chao-Ping Hsu,  T.-C. Jagau,  Yousung Jung,  
 A. Klamt,  Jing Kong,  D. S. Lambrecht,  WanZhen Liang,  N. J. Mayhall,  
 C. W. McCurdy,  J. B. Neaton,  C. Ochsenfeld,  J. A. Parkhill,  R. Peverati,  
 V. A. Rassolov,  Yihan Shao,  L. V. Slipchenko,  T. Stauch,  R. P. Steele,  
 J. E. Subotnik,  A. J. W. Thom,  A. Tkatchenko,  D. G. Truhlar,  
 T. Van Voorhis,  T. A. Wesolowski,  K. B. Whaley,  H. L. Woodcock III,  
 P. M. Zimmerman,  S. Faraji,  P. M. W. Gill,  M. Head-Gordon,  
 J. M. Herbert,  A. I. Krylov

 Contributors to earlier versions of Q-Chem not listed above: 
 R. D. Adamson,  B. Austin,  R. Baer,  J. Baker,  G. J. O. Beran,  
 K. Brandhorst,  S. T. Brown,  E. F. C. Byrd,  A. K. Chakraborty,  
 G. K. L. Chan,  Chun-Min Chang,  Yunqing Chen,  C.-L. Cheng,  
 Siu Hung Chien,  D. M. Chipman,  D. L. Crittenden,  H. Dachsel,  
 R. J. Doerksen,  A. D. Dutoi,  R. G. Edgar,  J. Fosso-Tande,  
 L. Fusti-Molnar,  D. Ghosh,  A. Ghysels,  A. Golubeva-Zadorozhnaya,  
 J. Gonthier,  M. S. Gordon,  S. R. Gwaltney,  G. Hawkins,  J. E. Herr,  
 A. Heyden,  S. Hirata,  E. G. Hohenstein,  G. Kedziora,  F. J. Keil,  
 C. Kelley,  Jihan Kim,  R. A. King,  R. Z. Khaliullin,  P. P. Korambath,  
 W. Kurlancheek,  A. Laurent,  A. M. Lee,  M. S. Lee,  S. V. Levchenko,  
 Ching Yeh Lin,  D. Liotard,  E. Livshits,  R. C. Lochan,  I. Lotan,  
 L. A. Martinez-Martinez,  P. E. Maslen,  N. Nair,  D. P. O'Neill,  
 D. Neuhauser,  E. Neuscamman,  C. M. Oana,  R. Olivares-Amaya,  R. Olson,  
 T. M. Perrine,  B. Peters,  P. A. Pieniazek,  A. Prociuk,  Y. M. Rhee,  
 J. Ritchie,  M. A. Rohrdanz,  E. Rosta,  N. J. Russ,  H. F. Schaefer III,  
 M. W. Schmidt,  N. E. Schultz,  S. Sharma,  N. Shenvi,  C. D. Sherrill,  
 A. C. Simmonett,  A. Sodt,  T. Stein,  D. Stuck,  K. S. Thanthiriwatte,  
 V. Vanovschi,  L. Vogt,  Tao Wang,  A. Warshel,  M. A. Watson,  
 C. F. Williams,  Q. Wu,  X. Xu,  Jun Yang,  W. Zhang,  Yan Zhao

 Please cite Q-Chem as follows:
 Y. Shao et al., Mol. Phys. 113, 184-215 (2015)
 DOI: 10.1080/00268976.2014.952696

 Q-Chem 5.4.0 for Intel X86 EM64T Linux

 Parts of Q-Chem use Armadillo 9.800.1 (Horizon Scraper).
 http://arma.sourceforge.net/

 Q-Chem begins on Fri Dec 15 14:00:48 2023  

 Host: 
0

     Scratch files written to ./qchem3689900//
 May1621 |scratch|qcdevops|jenkins|workspace|build_RNUM    
 Parallel job on  1  processors
 Processing $rem in /cm/shared/apps/spack/cpu/opt/spack/linux-centos8-zen2/gcc-10.2.0/qchem-5.4-akfmr7b3t57bfs6qan3padb2wnb2i7cl/config/preferences:
 Processing $rem in /home/rramji/.qchemrc:
 Symmetry turned off for PCM/SM12/SMD calculation
 Core orbitals will be frozen

 Checking the input file for inconsistencies... 	...done.

 Q-Chem warning in module forms1/BasisType.C, line 2236:

 You are not using the predefined 5D/6D in this basis set.


--------------------------------------------------------------
User input:
--------------------------------------------------------------
$molecule
0 1
C	-0.681143	-3.887800	0.246754
C	0.620906	-3.701456	-0.227093
C	1.019618	-2.345170	-0.371543
H	1.284357	-4.545233	-0.468992
C	0.000000	-1.450135	0.000000
S	-1.435522	-2.321334	0.522097
C	2.378731	-1.934439	-0.866035
H	3.003272	-2.819799	-1.093799
H	2.924444	-1.326210	-0.114688
H	2.313987	-1.325374	-1.791841
C	0.000000	0.000000	0.000000
C	0.354153	0.766774	1.113020
C	0.937751	2.029404	0.820578
H	0.191350	0.414475	2.142881
C	1.042030	2.254581	-0.563588
S	0.406851	0.881228	-1.464748
C	1.384426	2.995779	1.882380
H	1.196413	2.589194	2.894974
H	0.849641	3.965707	1.808137
H	2.469756	3.216753	1.808230
H	1.443919	3.124243	-1.097114
H	-0.688686	-4.420219	1.204454
H	-1.302703	-4.419395	-0.482482
H	0.369395	-1.450628	1.014863
$end

$rem
JOBTYPE		SP
EXCHANGE	HF
CORRELATION	pRIMP2
BASIS		cc-pvtz
METHOD		rimp2
AUX_BASIS	rimp2-cc-pvtz
SOLVENT_METHOD	PCM
PURECART	11111
SYMMETRY	false
MEM_TOTAL	110000
SCF_CONVERGENCE = 6
THRESH=10
GUI = 2
$end



$solvent
dielectric 4.90
$end
--------------------------------------------------------------
 ----------------------------------------------------------------
             Standard Nuclear Orientation (Angstroms)
    I     Atom           X                Y                Z
 ----------------------------------------------------------------
    1      C      -0.6811430000    -3.8878000000     0.2467540000
    2      C       0.6209060000    -3.7014560000    -0.2270930000
    3      C       1.0196180000    -2.3451700000    -0.3715430000
    4      H       1.2843570000    -4.5452330000    -0.4689920000
    5      C       0.0000000000    -1.4501350000     0.0000000000
    6      S      -1.4355220000    -2.3213340000     0.5220970000
    7      C       2.3787310000    -1.9344390000    -0.8660350000
    8      H       3.0032720000    -2.8197990000    -1.0937990000
    9      H       2.9244440000    -1.3262100000    -0.1146880000
   10      H       2.3139870000    -1.3253740000    -1.7918410000
   11      C       0.0000000000     0.0000000000     0.0000000000
   12      C       0.3541530000     0.7667740000     1.1130200000
   13      C       0.9377510000     2.0294040000     0.8205780000
   14      H       0.1913500000     0.4144750000     2.1428810000
   15      C       1.0420300000     2.2545810000    -0.5635880000
   16      S       0.4068510000     0.8812280000    -1.4647480000
   17      C       1.3844260000     2.9957790000     1.8823800000
   18      H       1.1964130000     2.5891940000     2.8949740000
   19      H       0.8496410000     3.9657070000     1.8081370000
   20      H       2.4697560000     3.2167530000     1.8082300000
   21      H       1.4439190000     3.1242430000    -1.0971140000
   22      H      -0.6886860000    -4.4202190000     1.2044540000
   23      H      -1.3027030000    -4.4193950000    -0.4824820000
   24      H       0.3693950000    -1.4506280000     1.0148630000
 ----------------------------------------------------------------
 Nuclear Repulsion Energy =         877.10538933 hartrees
 There are       52 alpha and       52 beta electrons
 Requested basis set is cc-pVTZ
 There are 196 shells and 536 basis functions

 Total QAlloc Memory Limit 110000 MB
 Mega-Array Size       188 MB
 MEM_STATIC part       192 MB
 Discretize the solute cavity surface with Lebedev spheres
	Using 110 Lebedev grid points for each H atom
	Using 194 Lebedev grid points for other atoms
	Atomic van der Waals radii will be scaled by 1.20
 Remove points where switching function is < 1.0e-08
 Keep 1616 surface tesserae and discard 2032 interior tesserae
 Molecular Surface Area = 235.319 Angst**2
 Requested basis set is rimp2-cc-pVTZ
 There are 414 shells and 1414 basis functions
 A cutoff of  1.0D-10 yielded  14196 shell pairs
 There are    102928 function pairs (    132011 Cartesian)
 Smallest overlap matrix eigenvalue = 6.52E-05

 Scale SEOQF with 1.000000e-01/1.000000e-01/1.000000e-01

 Standard Electronic Orientation quadrupole field applied
 Nucleus-field energy     =     0.0000000342 hartrees
 Guess from superposition of atomic densities
 Warning:  Energy on first SCF cycle will be non-variational
 SAD guess density has 104.000000 electrons

 -----------------------------------------------------------------------
  General SCF calculation program by
  Eric Jon Sundstrom, Paul Horn, Yuezhi Mao, Dmitri Zuev, Alec White,
  David Stuck, Shaama M.S., Shane Yost, Joonho Lee, David Small,
  Daniel Levine, Susi Lehtola, Hugh Burton, Evgeny Epifanovsky,
  Bang C. Huynh
 -----------------------------------------------------------------------
 Hartree-Fock
 using 64 threads for integral computing
 -------------------------------------------------------
 OpenMP Integral computing Module                
 Release: version 1.0, May 2013, Q-Chem Inc. Pittsburgh 
 -------------------------------------------------------
 A restricted SCF calculation will be
 performed using DIIS
 SCF converges when DIIS error is below 1.0e-06
 ---------------------------------------
  Cycle       Energy         DIIS error
 ---------------------------------------
    1   -1186.0284388021      2.39e-02  
    2   -1180.6060697878      1.55e-03  
    3   -1180.7304835228      5.84e-04  
    4   -1180.7440515150      3.27e-04  
    5   -1180.7489077374      6.01e-05  
    6   -1180.7491593157      2.45e-05  
    7   -1180.7492209408      9.51e-06  
    8   -1180.7492362933      4.50e-06  
    9   -1180.7492399653      1.68e-06  
   10   -1180.7492405609      5.66e-07  Convergence criterion met
 ---------------------------------------
 SCF time:   CPU 1679.67s  wall 50.00s 

************** Final PCM Free Energy Summary **************
 G_electrostatic  =      -0.00890748 hartree =      -5.58953084 kcal/mol
 G_cavitation     =       0.00000000 hartree =       0.00000000 kcal/mol
 G_dispersion     =       0.00000000 hartree =       0.00000000 kcal/mol
 G_repulsion      =       0.00000000 hartree =       0.00000000 kcal/mol
 --------------------------------------------------
 Non-electrostatic Free Energy =       0.00000000 hartree =       0.00000000 kcal/mol
 Total                         =      -0.00890748 hartree =      -5.58953084 kcal/mol
 --------------------------------------------------
 SCF Energy (H0 + V/2)                       =   -1180.74924056 
 Solute Internal Energy (H0)                 =   -1180.74033308 
 Total Free Energy (H0 + V/2 + non-elec)     =   -1180.74924056 hartree
                                             = -740931.33132802 kcal/mol
***********************************************************

 SCF   energy in the final basis set =    -1180.7492405609
 Total energy in the final basis set =    -1180.7492405609


 --------------------------------------------------------------
  Generalized many-body perturbation theory program
  by Joonho Lee, Fazle Rob, Xintian Feng, Evgeny Epifanovsky

 No regularization used 
 (reg. param. = 0.0000e+00)
  (P|Q)^-1/2 Time:  CPU 19.99 s  wall 0.32 s

 In RI-MP2 calculation: 
 # of frozen core orbitals: 20

 Components of the RIMP2 correlation energy:
        aaaa    correlation energy =        -0.2518901521 a.u.
        abab    correlation energy =        -1.5049971426 a.u.
        bbbb    correlation energy =        -0.2518901521 a.u.
        non-Brillouin singles      =        -0.0000000000 a.u.
        total same-spin energy     =        -0.5037803042 a.u.
        total opposite-spin energy =        -1.5049971426 a.u.

 Total  RIMP2   correlation energy =        -2.0087774468 a.u.
        RIMP2         total energy =     -1182.7580180077 a.u.

 RI-MP2 Energy Time:  CPU 165.60 s  wall 3.34 s
 
 --------------------------------------------------------------
 
                    Orbital Energies (a.u.)
 --------------------------------------------------------------
 
 Alpha MOs
 -- Occupied --
-91.9818 -91.9388 -11.2787 -11.2673 -11.2624 -11.2543 -11.2516 -11.2440
-11.2400 -11.2299 -11.2296 -11.2186  -8.9818  -8.9436  -6.6627  -6.6621
 -6.6616  -6.6250  -6.6239  -6.6227  -1.1983  -1.1538  -1.0573  -1.0236
 -1.0076  -0.9591  -0.9111  -0.9020  -0.8116  -0.7634  -0.7345  -0.7009
 -0.6603  -0.6399  -0.6105  -0.5879  -0.5793  -0.5731  -0.5670  -0.5507
 -0.5415  -0.5288  -0.5167  -0.5043  -0.4945  -0.4747  -0.4591  -0.4473
 -0.3541  -0.3435  -0.3160  -0.2746
 -- Virtual --
  0.0881   0.1348   0.1397   0.1533   0.1587   0.1706   0.1769   0.1797
  0.1915   0.1954   0.2039   0.2085   0.2288   0.2347   0.2402   0.2427
  0.2513   0.2607   0.2617   0.2911   0.3074   0.3328   0.3457   0.3527
  0.3627   0.3741   0.3761   0.3938   0.3955   0.4036   0.4139   0.4268
  0.4380   0.4407   0.4445   0.4613   0.4632   0.4745   0.4815   0.4943
  0.5055   0.5102   0.5139   0.5347   0.5377   0.5433   0.5529   0.5560
  0.5640   0.5708   0.5773   0.5946   0.5958   0.6091   0.6130   0.6217
  0.6243   0.6285   0.6353   0.6417   0.6442   0.6465   0.6492   0.6547
  0.6667   0.6750   0.6787   0.6823   0.6912   0.7055   0.7132   0.7266
  0.7349   0.7448   0.7508   0.7602   0.7873   0.7959   0.8005   0.8216
  0.8334   0.8412   0.8481   0.8556   0.8692   0.8816   0.8900   0.9025
  0.9359   0.9414   0.9524   0.9648   0.9724   0.9878   1.0005   1.0079
  1.0128   1.0236   1.0306   1.0384   1.0512   1.0592   1.0713   1.0771
  1.0924   1.0979   1.1092   1.1236   1.1351   1.1556   1.1663   1.1714
  1.1782   1.1942   1.2025   1.2067   1.2206   1.2225   1.2292   1.2437
  1.2534   1.2576   1.2623   1.2697   1.2774   1.2846   1.3003   1.3095
  1.3191   1.3286   1.3345   1.3633   1.3785   1.4004   1.4104   1.4159
  1.4218   1.4342   1.4458   1.4506   1.4738   1.4796   1.4910   1.4999
  1.5096   1.5142   1.5174   1.5279   1.5308   1.5430   1.5503   1.5540
  1.5662   1.5740   1.5819   1.5896   1.6051   1.6128   1.6230   1.6442
  1.6483   1.6596   1.6774   1.6868   1.6945   1.7037   1.7180   1.7359
  1.7418   1.7605   1.7713   1.7960   1.8077   1.8296   1.8485   1.8652
  1.8778   1.9120   1.9271   1.9455   1.9568   1.9691   1.9906   1.9939
  2.0137   2.0340   2.0370   2.0533   2.0958   2.1140   2.1246   2.1564
  2.1842   2.1900   2.2078   2.2196   2.2378   2.2535   2.2731   2.2847
  2.3162   2.3272   2.3355   2.3611   2.3936   2.4119   2.4426   2.4566
  2.5012   2.5105   2.5319   2.5497   2.5693   2.5779   2.6038   2.6169
  2.6418   2.6558   2.6613   2.6655   2.6769   2.6958   2.7168   2.7295
  2.7376   2.7469   2.7584   2.7676   2.7775   2.7870   2.7879   2.8280
  2.8313   2.8462   2.8563   2.8718   2.8900   2.9035   2.9149   2.9337
  2.9411   2.9569   2.9695   2.9741   3.0033   3.0242   3.0283   3.0363
  3.0523   3.0853   3.0947   3.1003   3.1128   3.1152   3.1254   3.1371
  3.1504   3.1588   3.1626   3.1727   3.1813   3.1938   3.1987   3.2106
  3.2248   3.2387   3.2519   3.2697   3.2804   3.2845   3.2981   3.3024
  3.3195   3.3208   3.3250   3.3371   3.3513   3.3560   3.3617   3.3681
  3.3725   3.3824   3.3862   3.3983   3.4062   3.4095   3.4220   3.4277
  3.4390   3.4578   3.4604   3.4643   3.4802   3.4864   3.5005   3.5029
  3.5162   3.5236   3.5380   3.5427   3.5456   3.5538   3.5731   3.5826
  3.5894   3.6063   3.6099   3.6312   3.6361   3.6439   3.6490   3.6582
  3.6657   3.6794   3.6892   3.6912   3.7055   3.7214   3.7336   3.7364
  3.7491   3.7538   3.7644   3.7792   3.7850   3.7937   3.7991   3.8182
  3.8255   3.8321   3.8488   3.8633   3.8733   3.8844   3.8956   3.9186
  3.9346   3.9444   3.9572   3.9657   3.9760   3.9849   3.9956   4.0080
  4.0291   4.0373   4.0524   4.0573   4.0820   4.0857   4.0914   4.1038
  4.1221   4.1327   4.1429   4.1585   4.1635   4.1776   4.1947   4.1993
  4.2109   4.2220   4.2294   4.2535   4.2581   4.2623   4.2637   4.2854
  4.2863   4.3033   4.3111   4.3285   4.3410   4.3468   4.3601   4.3657
  4.3764   4.3987   4.4011   4.4182   4.4229   4.4259   4.4314   4.4456
  4.4612   4.4659   4.4808   4.4888   4.5025   4.5099   4.5265   4.5517
  4.5632   4.5865   4.6029   4.6313   4.6424   4.6445   4.6691   4.6838
  4.6868   4.7164   4.7314   4.7736   4.7976   4.8067   4.8091   4.8443
  4.8637   4.8688   4.8945   4.9113   4.9386   4.9455   4.9706   4.9980
  5.0222   5.0376   5.0943   5.0978   5.1181   5.1330   5.1361   5.1686
  5.1794   5.1929   5.2291   5.2668   5.2823   5.2836   5.3137   5.3183
  5.3390   5.3623   5.3810   5.3984   5.4111   5.4315   5.4419   5.4558
  5.4683   5.5128   5.5240   5.5358   5.5485   5.5601   5.5657   5.5927
  5.6147   5.6263   5.6307   5.6440   5.6803   5.6936   5.7080   5.7352
  5.7756   5.8142   5.8280   5.9745   5.9942   6.0958   6.1208   6.1335
  6.2096   6.2175   6.2259   6.2334   6.2588   6.2885   6.2945   6.3190
  6.3819   6.4452   9.4560  10.3717  12.0902  12.9219  13.1534  13.9716
 14.0666  14.2101  14.3194  14.6906
 --------------------------------------------------------------
 
          Ground-State Mulliken Net Atomic Charges

     Atom                 Charge (a.u.)
  ----------------------------------------
      1 C                    -0.074074
      2 C                    -0.328863
      3 C                    -0.022088
      4 H                     0.177240
      5 C                     0.062536
      6 S                    -0.187006
      7 C                    -0.274099
      8 H                     0.114929
      9 H                     0.106171
     10 H                     0.109860
     11 C                    -0.058085
     12 C                    -0.246209
     13 C                     0.027101
     14 H                     0.181035
     15 C                    -0.235866
     16 S                     0.008030
     17 C                    -0.270442
     18 H                     0.102592
     19 H                     0.108505
     20 H                     0.107422
     21 H                     0.197384
     22 H                     0.109077
     23 H                     0.110580
     24 H                     0.174269
  ----------------------------------------
  Sum of atomic charges =     0.000000

 -----------------------------------------------------------------
                    Cartesian Multipole Moments
 -----------------------------------------------------------------
    Charge (ESU x 10^10)
                -0.0000
    Dipole Moment (Debye)
         X       3.4495      Y       0.6717      Z       1.4006
       Tot       3.7831
    Quadrupole Moments (Debye-Ang)
        XX     -90.2281     XY      -0.0045     YY     -76.2155
        XZ       0.2172     YZ       1.1420     ZZ     -85.6032
    Octopole Moments (Debye-Ang^2)
       XXX     -87.2947    XXY      56.0608    XYY     -15.7119
       YYY     138.9643    XXZ      -5.8991    XYZ       1.0238
       YYZ      -1.8804    XZZ     -27.7287    YZZ      60.5117
       ZZZ       2.1989
    Hexadecapole Moments (Debye-Ang^3)
      XXXX    -817.5898   XXXY    -210.8070   XXYY    -597.7826
      XYYY    -150.8048   YYYY   -2660.8925   XXXZ      42.6355
      XXYZ     -20.7260   XYYZ      -0.3474   YYYZ    -105.5160
      XXZZ    -241.0406   XYZZ     -53.5617   YYZZ    -582.9648
      XZZZ      50.9201   YZZZ     -94.0169   ZZZZ    -611.7859
 -----------------------------------------------------------------
 Total job time:  68.12s(wall), 2569.36s(cpu) 
 Fri Dec 15 14:01:56 2023

        *************************************************************
        *                                                           *
        *  Thank you very much for using Q-Chem.  Have a nice day.  *
        *                                                           *
        *************************************************************


0 sent ACK to 0 
now end server 0 ... 
cleanup process ... done
remove work dirs ./qchem3689900.0 -- ./qchem3689900.0
rm -rf ./qchem3689900.0
rm -rf ./qchem3689900
