You are running Q-Chem version: 5.4.0

#
# job setting
#
local host:  exp-6-19
current dir: /home/rramji/project-csd799/aromodel/p3ht-qchem/hydrogenated-rotation-run
input file:  Methylthiophene_Phi_50_Theta_100_Methylthiophene_Hydrogenated.qcin
output file: 
nprocs     : 1
nthreads   : 64
#
# qchem installation setting
#
QC:          /cm/shared/apps/spack/cpu/opt/spack/linux-centos8-zen2/gcc-10.2.0/qchem-5.4-akfmr7b3t57bfs6qan3padb2wnb2i7cl
QCAUX:       /cm/shared/apps/spack/cpu/opt/spack/linux-centos8-zen2/gcc-10.2.0/qchem-5.4-akfmr7b3t57bfs6qan3padb2wnb2i7cl/qcaux
QCPROG:      /cm/shared/apps/spack/cpu/opt/spack/linux-centos8-zen2/gcc-10.2.0/qchem-5.4-akfmr7b3t57bfs6qan3padb2wnb2i7cl/exe/qcprog.exe
QCPROG_S:    /cm/shared/apps/spack/cpu/opt/spack/linux-centos8-zen2/gcc-10.2.0/qchem-5.4-akfmr7b3t57bfs6qan3padb2wnb2i7cl/exe/qcprog.exe_s
PARALLEL:    -DPARALLEL
QCMPI:       mpich
#
# qchem directory setting
#
qcrun:       qchem2713769
QCSCRATCH:   .
QCLOCALSCR:  
QCTMPDIR:    .
QCFILEPREF:  ./qchem2713769
QCSAVEDIR:   
workdirs:    ./qchem2713769
workdir0:    ./qchem2713769
partmpdirs =  
#
# parallel setting
#
QCRSH:           ssh
QCMPI:           mpich
QCMPIRUN:        /cm/shared/apps/spack/cpu/opt/spack/linux-centos8-zen2/gcc-10.2.0/qchem-5.4-akfmr7b3t57bfs6qan3padb2wnb2i7cl/bin/mpi/mpirun_qchem
QCMACHINEFILE:   ./qchem2713769/hostfile
exp-6-19

#
# env setting
#
exported envs:   QC QCAUX QCSCRATCH QCRUNNAME QCFILEPREF QCPROG QCPROG_S GUIFILE

Running Job 1 of 1 Methylthiophene_Phi_50_Theta_100_Methylthiophene_Hydrogenated.qcin
qchem Methylthiophene_Phi_50_Theta_100_Methylthiophene_Hydrogenated.qcin_2713769.0 ./qchem2713769/ 1
/cm/shared/apps/spack/cpu/opt/spack/linux-centos8-zen2/gcc-10.2.0/qchem-5.4-akfmr7b3t57bfs6qan3padb2wnb2i7cl/bin/mpi/mpirun_qchem -machinefile ./qchem2713769/hostfile -np 1 /cm/shared/apps/spack/cpu/opt/spack/linux-centos8-zen2/gcc-10.2.0/qchem-5.4-akfmr7b3t57bfs6qan3padb2wnb2i7cl/exe/qcprog.exe Methylthiophene_Phi_50_Theta_100_Methylthiophene_Hydrogenated.qcin_2713769.0 ./qchem2713769/

Process 0 of 1 is on exp-6-19 - thread support 0
initial socket setup ...start
initial socket setup ...done 
now start server 0 ... 
                  Welcome to Q-Chem
     A Quantum Leap Into The Future Of Chemistry


 Q-Chem 5.4, Q-Chem, Inc., Pleasanton, CA (2021)

 License issued to: University of California, San Diego (site)

 E. Epifanovsky,  A. T. B. Gilbert,  Xintian Feng,  Joonho Lee,  Yuezhi Mao,  
 N. Mardirossian,  P. Pokhilko,  A. White,  M. Wormit,  M. P. Coons,  
 A. L. Dempwolff,  Zhengting Gan,  D. Hait,  P. R. Horn,  L. D. Jacobson,  
 I. Kaliman,  J. Kussmann,  A. W. Lange,  Ka Un Lao,  D. S. Levine,  Jie Liu,  
 S. C. McKenzie,  A. F. Morrison,  K. Nanda,  F. Plasser,  D. R. Rehn,  
 M. L. Vidal,  Zhi-Qiang You,  Ying Zhu,  B. Alam,  B. Albrecht,  
 A. Aldossary,  E. Alguire,  J. H. Andersen,  D. Barton,  K. Begam,  A. Behn,  
 Y. A. Bernard,  E. J. Berquist,  H. Burton,  A. Carreras,  K. Carter-Fenk,  
 R. Chakraborty,  A. D. Chien,  K. D. Closser,  V. Cofer-Shabica,  
 S. Dasgupta,  Jia Deng,  M. de Wergifosse,  M. Diedenhofen,  Hainam Do,  
 S. Ehlert,  Po-Tung Fang,  S. Fatehi,  Qingguo Feng,  J. Gayvert,  
 Qinghui Ge,  G. Gidofalvi,  M. Goldey,  J. Gomes,  C. Gonzalez-Espinoza,  
 S. Gulania,  A. Gunina,  M. W. D. Hanson-Heine,  P. H. P. Harbach,  
 A. W. Hauser,  M. F. Herbst,  M. Hernandez Vera,  M. Hodecker,  
 Z. C. Holden,  S. Houck,  Xunkun Huang,  Kerwin Hui,  B. C. Huynh,  
 M. Ivanov,  Hyunjun Ji,  Hanjie Jiang,  B. Kaduk,  S. Kaehler,  
 K. Khistyaev,  Jaehoon Kim,  P. Klunzinger,  Z. Koczor-Benda,  
 Joong Hoon Koh,  D. Kosenkov,  L. Koulias,  T. Kowalczyk,  C. M. Krauter,  
 K. Kue,  A. Kunitsa,  T. Kus,  A. Landau,  K. V. Lawler,  D. Lefrancois,  
 S. Lehtola,  Rain Li,  Yi-Pei Li,  Jiashu Liang,  M. Liebenthal,  
 Hung-Hsuan Lin,  You-Sheng Lin,  Fenglai Liu,  Kuan-Yu Liu,  
 M. Loipersberger,  A. Luenser,  A. Manjanath,  P. Manohar,  E. Mansoor,  
 S. F. Manzer,  Shan-Ping Mao,  A. V. Marenich,  T. Markovich,  S. Mason,  
 S. A. Maurer,  P. F. McLaughlin,  M. F. S. J. Menger,  J.-M. Mewes,  
 S. A. Mewes,  P. Morgante,  J. W. Mullinax,  T. S. Nguyen-Beck,  
 K. J. Oosterbaan,  G. Paran,  Alexander C. Paul,  Suranjan K. Paul,  
 F. Pavosevic,  Zheng Pei,  S. Prager,  E. I. Proynov,  E. Ramos,  B. Rana,  
 A. E. Rask,  A. Rettig,  R. M. Richard,  F. Rob,  E. Rossomme,  T. Scheele,  
 M. Scheurer,  M. Schneider,  N. Sergueev,  S. M. Sharada,  W. Skomorowski,  
 D. W. Small,  C. J. Stein,  Yu-Chuan Su,  E. J. Sundstrom,  Zhen Tao,  
 J. Thirman,  T. Tsuchimochi,  N. M. Tubman,  S. P. Veccham,  O. Vydrov,  
 J. Wenzel,  J. Witte,  A. Yamada,  Kun Yao,  S. Yeganeh,  S. R. Yost,  
 A. Zech,  Igor Ying Zhang,  Xing Zhang,  Yu Zhang,  D. Zuev,  
 A. Aspuru-Guzik,  A. T. Bell,  N. A. Besley,  K. B. Bravaya,  B. R. Brooks,  
 D. Casanova,  Jeng-Da Chai,  S. Coriani,  C. J. Cramer,  
 A. E. DePrince, III,  R. A. DiStasio Jr.,  A. Dreuw,  B. D. Dunietz,  
 T. R. Furlani,  W. A. Goddard III,  S. Grimme,  S. Hammes-Schiffer,  
 T. Head-Gordon,  W. J. Hehre,  Chao-Ping Hsu,  T.-C. Jagau,  Yousung Jung,  
 A. Klamt,  Jing Kong,  D. S. Lambrecht,  WanZhen Liang,  N. J. Mayhall,  
 C. W. McCurdy,  J. B. Neaton,  C. Ochsenfeld,  J. A. Parkhill,  R. Peverati,  
 V. A. Rassolov,  Yihan Shao,  L. V. Slipchenko,  T. Stauch,  R. P. Steele,  
 J. E. Subotnik,  A. J. W. Thom,  A. Tkatchenko,  D. G. Truhlar,  
 T. Van Voorhis,  T. A. Wesolowski,  K. B. Whaley,  H. L. Woodcock III,  
 P. M. Zimmerman,  S. Faraji,  P. M. W. Gill,  M. Head-Gordon,  
 J. M. Herbert,  A. I. Krylov

 Contributors to earlier versions of Q-Chem not listed above: 
 R. D. Adamson,  B. Austin,  R. Baer,  J. Baker,  G. J. O. Beran,  
 K. Brandhorst,  S. T. Brown,  E. F. C. Byrd,  A. K. Chakraborty,  
 G. K. L. Chan,  Chun-Min Chang,  Yunqing Chen,  C.-L. Cheng,  
 Siu Hung Chien,  D. M. Chipman,  D. L. Crittenden,  H. Dachsel,  
 R. J. Doerksen,  A. D. Dutoi,  R. G. Edgar,  J. Fosso-Tande,  
 L. Fusti-Molnar,  D. Ghosh,  A. Ghysels,  A. Golubeva-Zadorozhnaya,  
 J. Gonthier,  M. S. Gordon,  S. R. Gwaltney,  G. Hawkins,  J. E. Herr,  
 A. Heyden,  S. Hirata,  E. G. Hohenstein,  G. Kedziora,  F. J. Keil,  
 C. Kelley,  Jihan Kim,  R. A. King,  R. Z. Khaliullin,  P. P. Korambath,  
 W. Kurlancheek,  A. Laurent,  A. M. Lee,  M. S. Lee,  S. V. Levchenko,  
 Ching Yeh Lin,  D. Liotard,  E. Livshits,  R. C. Lochan,  I. Lotan,  
 L. A. Martinez-Martinez,  P. E. Maslen,  N. Nair,  D. P. O'Neill,  
 D. Neuhauser,  E. Neuscamman,  C. M. Oana,  R. Olivares-Amaya,  R. Olson,  
 T. M. Perrine,  B. Peters,  P. A. Pieniazek,  A. Prociuk,  Y. M. Rhee,  
 J. Ritchie,  M. A. Rohrdanz,  E. Rosta,  N. J. Russ,  H. F. Schaefer III,  
 M. W. Schmidt,  N. E. Schultz,  S. Sharma,  N. Shenvi,  C. D. Sherrill,  
 A. C. Simmonett,  A. Sodt,  T. Stein,  D. Stuck,  K. S. Thanthiriwatte,  
 V. Vanovschi,  L. Vogt,  Tao Wang,  A. Warshel,  M. A. Watson,  
 C. F. Williams,  Q. Wu,  X. Xu,  Jun Yang,  W. Zhang,  Yan Zhao

 Please cite Q-Chem as follows:
 Y. Shao et al., Mol. Phys. 113, 184-215 (2015)
 DOI: 10.1080/00268976.2014.952696

 Q-Chem 5.4.0 for Intel X86 EM64T Linux

 Parts of Q-Chem use Armadillo 9.800.1 (Horizon Scraper).
 http://arma.sourceforge.net/

 Q-Chem begins on Fri Dec 15 14:05:29 2023  

 Host: 
0

     Scratch files written to ./qchem2713769//
 May1621 |scratch|qcdevops|jenkins|workspace|build_RNUM    
 Parallel job on  1  processors
 Processing $rem in /cm/shared/apps/spack/cpu/opt/spack/linux-centos8-zen2/gcc-10.2.0/qchem-5.4-akfmr7b3t57bfs6qan3padb2wnb2i7cl/config/preferences:
 Processing $rem in /home/rramji/.qchemrc:
 Symmetry turned off for PCM/SM12/SMD calculation
 Core orbitals will be frozen

 Checking the input file for inconsistencies... 	...done.

 Q-Chem warning in module forms1/BasisType.C, line 2236:

 You are not using the predefined 5D/6D in this basis set.


--------------------------------------------------------------
User input:
--------------------------------------------------------------
$molecule
0 1
C	-0.713264	-3.887800	-0.126876
C	0.651267	-3.701456	0.113784
C	1.068787	-2.345170	0.188043
H	1.346782	-4.545233	0.236019
C	0.000000	-1.450135	0.000000
S	-1.504247	-2.321334	-0.265612
C	2.493059	-1.934439	0.439357
H	3.147809	-2.819799	0.554378
H	2.589987	-1.326210	1.362899
H	2.899892	-1.325374	-0.394786
C	0.000000	0.000000	0.000000
C	0.645024	0.545262	1.113020
C	1.707554	1.442954	0.820578
H	0.348587	0.294774	2.142881
C	1.897227	1.602964	-0.563588
S	0.741155	0.626722	-1.464748
C	2.520787	2.130014	1.882380
H	2.178559	1.840981	2.894974
H	2.446016	3.235078	1.808137
H	3.597818	1.871604	1.808230
H	2.628997	2.221299	-1.097114
H	-1.198647	-4.420219	0.698744
H	-0.886933	-4.419395	-1.069193
H	-0.187526	-1.450628	1.063595
$end

$rem
JOBTYPE		SP
EXCHANGE	HF
CORRELATION	pRIMP2
BASIS		cc-pvtz
METHOD		rimp2
AUX_BASIS	rimp2-cc-pvtz
SOLVENT_METHOD	PCM
PURECART	11111
SYMMETRY	false
MEM_TOTAL	110000
SCF_CONVERGENCE = 6
THRESH=10
GUI = 2
$end



$solvent
dielectric 4.90
$end
--------------------------------------------------------------
 ----------------------------------------------------------------
             Standard Nuclear Orientation (Angstroms)
    I     Atom           X                Y                Z
 ----------------------------------------------------------------
    1      C      -0.7132640000    -3.8878000000    -0.1268760000
    2      C       0.6512670000    -3.7014560000     0.1137840000
    3      C       1.0687870000    -2.3451700000     0.1880430000
    4      H       1.3467820000    -4.5452330000     0.2360190000
    5      C       0.0000000000    -1.4501350000     0.0000000000
    6      S      -1.5042470000    -2.3213340000    -0.2656120000
    7      C       2.4930590000    -1.9344390000     0.4393570000
    8      H       3.1478090000    -2.8197990000     0.5543780000
    9      H       2.5899870000    -1.3262100000     1.3628990000
   10      H       2.8998920000    -1.3253740000    -0.3947860000
   11      C       0.0000000000     0.0000000000     0.0000000000
   12      C       0.6450240000     0.5452620000     1.1130200000
   13      C       1.7075540000     1.4429540000     0.8205780000
   14      H       0.3485870000     0.2947740000     2.1428810000
   15      C       1.8972270000     1.6029640000    -0.5635880000
   16      S       0.7411550000     0.6267220000    -1.4647480000
   17      C       2.5207870000     2.1300140000     1.8823800000
   18      H       2.1785590000     1.8409810000     2.8949740000
   19      H       2.4460160000     3.2350780000     1.8081370000
   20      H       3.5978180000     1.8716040000     1.8082300000
   21      H       2.6289970000     2.2212990000    -1.0971140000
   22      H      -1.1986470000    -4.4202190000     0.6987440000
   23      H      -0.8869330000    -4.4193950000    -1.0691930000
   24      H      -0.1875260000    -1.4506280000     1.0635950000
 ----------------------------------------------------------------
 Nuclear Repulsion Energy =         893.86969273 hartrees
 There are       52 alpha and       52 beta electrons
 Requested basis set is cc-pVTZ
 There are 196 shells and 536 basis functions

 Total QAlloc Memory Limit 110000 MB
 Mega-Array Size       188 MB
 MEM_STATIC part       192 MB
 Discretize the solute cavity surface with Lebedev spheres
	Using 110 Lebedev grid points for each H atom
	Using 194 Lebedev grid points for other atoms
	Atomic van der Waals radii will be scaled by 1.20
 Remove points where switching function is < 1.0e-08
 Keep 1568 surface tesserae and discard 2080 interior tesserae
 Molecular Surface Area = 228.849 Angst**2
 Requested basis set is rimp2-cc-pVTZ
 There are 414 shells and 1414 basis functions
 A cutoff of  1.0D-10 yielded  14838 shell pairs
 There are    108346 function pairs (    139099 Cartesian)
 Smallest overlap matrix eigenvalue = 7.15E-05

 Scale SEOQF with 1.000000e-01/1.000000e-01/1.000000e-01

 Standard Electronic Orientation quadrupole field applied
 Nucleus-field energy     =     0.0000000326 hartrees
 Guess from superposition of atomic densities
 Warning:  Energy on first SCF cycle will be non-variational
 SAD guess density has 104.000000 electrons

 -----------------------------------------------------------------------
  General SCF calculation program by
  Eric Jon Sundstrom, Paul Horn, Yuezhi Mao, Dmitri Zuev, Alec White,
  David Stuck, Shaama M.S., Shane Yost, Joonho Lee, David Small,
  Daniel Levine, Susi Lehtola, Hugh Burton, Evgeny Epifanovsky,
  Bang C. Huynh
 -----------------------------------------------------------------------
 Hartree-Fock
 using 64 threads for integral computing
 -------------------------------------------------------
 OpenMP Integral computing Module                
 Release: version 1.0, May 2013, Q-Chem Inc. Pittsburgh 
 -------------------------------------------------------
 A restricted SCF calculation will be
 performed using DIIS
 SCF converges when DIIS error is below 1.0e-06
 ---------------------------------------
  Cycle       Energy         DIIS error
 ---------------------------------------
    1   -1186.1013785923      2.40e-02  
    2   -1180.5726479208      1.52e-03  
    3   -1180.6978549342      5.24e-04  
    4   -1180.7106307885      2.76e-04  
    5   -1180.7141612765      5.79e-05  
    6   -1180.7144137379      2.44e-05  
    7   -1180.7144830733      1.15e-05  
    8   -1180.7145047342      5.26e-06  
    9   -1180.7145108307      2.25e-06  
   10   -1180.7145118651      7.93e-07  Convergence criterion met
 ---------------------------------------
 SCF time:   CPU 1769.69s  wall 53.00s 

************** Final PCM Free Energy Summary **************
 G_electrostatic  =      -0.01058396 hartree =      -6.64153324 kcal/mol
 G_cavitation     =       0.00000000 hartree =       0.00000000 kcal/mol
 G_dispersion     =       0.00000000 hartree =       0.00000000 kcal/mol
 G_repulsion      =       0.00000000 hartree =       0.00000000 kcal/mol
 --------------------------------------------------
 Non-electrostatic Free Energy =       0.00000000 hartree =       0.00000000 kcal/mol
 Total                         =      -0.01058396 hartree =      -6.64153324 kcal/mol
 --------------------------------------------------
 SCF Energy (H0 + V/2)                       =   -1180.71451187 
 Solute Internal Energy (H0)                 =   -1180.70392791 
 Total Free Energy (H0 + V/2 + non-elec)     =   -1180.71451187 hartree
                                             = -740909.53874251 kcal/mol
***********************************************************

 SCF   energy in the final basis set =    -1180.7145118651
 Total energy in the final basis set =    -1180.7145118651


 --------------------------------------------------------------
  Generalized many-body perturbation theory program
  by Joonho Lee, Fazle Rob, Xintian Feng, Evgeny Epifanovsky

 No regularization used 
 (reg. param. = 0.0000e+00)
  (P|Q)^-1/2 Time:  CPU 22.51 s  wall 0.36 s

 In RI-MP2 calculation: 
 # of frozen core orbitals: 20

 Components of the RIMP2 correlation energy:
        aaaa    correlation energy =        -0.2538409150 a.u.
        abab    correlation energy =        -1.5110030804 a.u.
        bbbb    correlation energy =        -0.2538409150 a.u.
        non-Brillouin singles      =        -0.0000000000 a.u.
        total same-spin energy     =        -0.5076818301 a.u.
        total opposite-spin energy =        -1.5110030804 a.u.

 Total  RIMP2   correlation energy =        -2.0186849104 a.u.
        RIMP2         total energy =     -1182.7331967756 a.u.

 RI-MP2 Energy Time:  CPU 167.89 s  wall 2.74 s
 
 --------------------------------------------------------------
 
                    Orbital Energies (a.u.)
 --------------------------------------------------------------
 
 Alpha MOs
 -- Occupied --
-91.9788 -91.9330 -11.2824 -11.2615 -11.2590 -11.2583 -11.2531 -11.2512
-11.2368 -11.2319 -11.2287 -11.2164  -8.9795  -8.9379  -6.6603  -6.6596
 -6.6592  -6.6193  -6.6183  -6.6170  -1.2019  -1.1544  -1.0578  -1.0232
 -1.0066  -0.9617  -0.9105  -0.9022  -0.8087  -0.7589  -0.7432  -0.7037
 -0.6557  -0.6375  -0.6131  -0.5921  -0.5828  -0.5728  -0.5652  -0.5512
 -0.5409  -0.5256  -0.5225  -0.5046  -0.4900  -0.4639  -0.4539  -0.4426
 -0.3511  -0.3430  -0.3170  -0.2756
 -- Virtual --
  0.0663   0.1321   0.1415   0.1514   0.1609   0.1706   0.1799   0.1833
  0.1866   0.1909   0.2047   0.2140   0.2334   0.2369   0.2396   0.2428
  0.2496   0.2537   0.2625   0.2939   0.3041   0.3275   0.3436   0.3533
  0.3657   0.3699   0.3857   0.3880   0.4005   0.4099   0.4153   0.4285
  0.4375   0.4386   0.4436   0.4566   0.4666   0.4746   0.4789   0.4925
  0.4968   0.5011   0.5127   0.5301   0.5386   0.5405   0.5520   0.5578
  0.5672   0.5760   0.5888   0.5891   0.5988   0.6081   0.6124   0.6232
  0.6262   0.6272   0.6376   0.6441   0.6464   0.6497   0.6504   0.6591
  0.6738   0.6820   0.6839   0.6906   0.6947   0.7177   0.7211   0.7317
  0.7398   0.7448   0.7646   0.7743   0.7916   0.7967   0.8142   0.8211
  0.8359   0.8418   0.8578   0.8654   0.8738   0.8865   0.9007   0.9104
  0.9269   0.9453   0.9601   0.9681   0.9740   0.9903   1.0007   1.0182
  1.0296   1.0358   1.0387   1.0562   1.0659   1.0721   1.0797   1.0816
  1.0942   1.1081   1.1244   1.1312   1.1587   1.1682   1.1699   1.1802
  1.1858   1.1928   1.2002   1.2075   1.2223   1.2247   1.2393   1.2492
  1.2577   1.2683   1.2723   1.2753   1.2884   1.2970   1.3087   1.3198
  1.3267   1.3326   1.3560   1.3704   1.3929   1.4068   1.4138   1.4221
  1.4279   1.4403   1.4510   1.4610   1.4766   1.4827   1.4915   1.4974
  1.5075   1.5127   1.5268   1.5330   1.5451   1.5508   1.5558   1.5663
  1.5726   1.5878   1.6022   1.6070   1.6090   1.6283   1.6306   1.6340
  1.6489   1.6690   1.6729   1.6975   1.7064   1.7206   1.7298   1.7443
  1.7526   1.7645   1.7808   1.8004   1.8208   1.8233   1.8577   1.8768
  1.9039   1.9098   1.9293   1.9569   1.9618   1.9808   1.9922   2.0014
  2.0200   2.0334   2.0400   2.0620   2.0917   2.1105   2.1155   2.1501
  2.1757   2.1943   2.2032   2.2165   2.2282   2.2389   2.2634   2.2765
  2.3023   2.3247   2.3355   2.3624   2.4123   2.4402   2.4516   2.4639
  2.4815   2.5088   2.5386   2.5554   2.5777   2.6067   2.6230   2.6408
  2.6537   2.6636   2.6744   2.6778   2.6907   2.7047   2.7258   2.7381
  2.7492   2.7631   2.7738   2.7827   2.7885   2.8075   2.8119   2.8283
  2.8404   2.8575   2.8752   2.8816   2.8926   2.9067   2.9145   2.9298
  2.9391   2.9715   2.9849   2.9861   3.0158   3.0173   3.0289   3.0458
  3.0560   3.0796   3.0988   3.1046   3.1156   3.1240   3.1409   3.1530
  3.1605   3.1672   3.1697   3.1811   3.1895   3.2013   3.2213   3.2302
  3.2509   3.2537   3.2583   3.2645   3.2727   3.2837   3.2980   3.3064
  3.3156   3.3257   3.3349   3.3442   3.3512   3.3530   3.3654   3.3766
  3.3813   3.3858   3.4005   3.4032   3.4105   3.4311   3.4355   3.4460
  3.4476   3.4599   3.4674   3.4698   3.4767   3.4838   3.5119   3.5124
  3.5218   3.5317   3.5339   3.5497   3.5585   3.5784   3.5883   3.6016
  3.6052   3.6125   3.6221   3.6358   3.6378   3.6493   3.6563   3.6691
  3.6869   3.6888   3.7030   3.7058   3.7227   3.7251   3.7395   3.7521
  3.7577   3.7621   3.7774   3.7893   3.7938   3.7963   3.8156   3.8272
  3.8428   3.8467   3.8697   3.8804   3.8832   3.9091   3.9190   3.9335
  3.9408   3.9573   3.9702   3.9828   3.9880   4.0048   4.0177   4.0281
  4.0297   4.0473   4.0563   4.0678   4.0769   4.0995   4.1128   4.1246
  4.1330   4.1454   4.1587   4.1769   4.1850   4.1870   4.1952   4.2162
  4.2244   4.2320   4.2383   4.2541   4.2583   4.2735   4.2783   4.2900
  4.3026   4.3080   4.3234   4.3454   4.3475   4.3611   4.3669   4.3799
  4.3861   4.3961   4.3993   4.4079   4.4224   4.4330   4.4456   4.4580
  4.4756   4.4813   4.4886   4.4914   4.5080   4.5271   4.5459   4.5638
  4.5915   4.6019   4.6212   4.6323   4.6473   4.6598   4.6679   4.6858
  4.6973   4.7365   4.7452   4.7540   4.7997   4.8096   4.8413   4.8557
  4.8773   4.8863   4.9050   4.9154   4.9343   4.9684   4.9751   5.0145
  5.0395   5.0413   5.0865   5.1051   5.1199   5.1339   5.1352   5.1499
  5.1885   5.2033   5.2281   5.2781   5.2944   5.3009   5.3157   5.3240
  5.3436   5.3687   5.3869   5.4038   5.4072   5.4393   5.4407   5.4583
  5.4677   5.5113   5.5377   5.5430   5.5500   5.5650   5.5813   5.6030
  5.6126   5.6307   5.6329   5.6622   5.6814   5.7022   5.7151   5.7287
  5.7707   5.8022   5.8218   5.9893   6.0112   6.0370   6.1102   6.1428
  6.2051   6.2234   6.2437   6.2458   6.2663   6.2830   6.3152   6.3169
  6.3926   6.4305   9.7183  10.4200  12.5465  12.8580  13.1794  13.9578
 14.0744  14.2219  14.4117  14.8304
 --------------------------------------------------------------
 
          Ground-State Mulliken Net Atomic Charges

     Atom                 Charge (a.u.)
  ----------------------------------------
      1 C                    -0.073142
      2 C                    -0.325723
      3 C                    -0.026680
      4 H                     0.175918
      5 C                     0.078802
      6 S                    -0.210447
      7 C                    -0.299423
      8 H                     0.123363
      9 H                     0.104452
     10 H                     0.115193
     11 C                    -0.104983
     12 C                    -0.218713
     13 C                     0.038335
     14 H                     0.191778
     15 C                    -0.204630
     16 S                     0.007069
     17 C                    -0.269405
     18 H                     0.103784
     19 H                     0.114210
     20 H                     0.106718
     21 H                     0.200852
     22 H                     0.105572
     23 H                     0.107313
     24 H                     0.159789
  ----------------------------------------
  Sum of atomic charges =     0.000000

 -----------------------------------------------------------------
                    Cartesian Multipole Moments
 -----------------------------------------------------------------
    Charge (ESU x 10^10)
                -0.0000
    Dipole Moment (Debye)
         X       4.5196      Y       1.0210      Z       2.9648
       Tot       5.5008
    Quadrupole Moments (Debye-Ang)
        XX     -84.9072     XY       2.2516     YY     -81.2768
        XZ       0.4241     YZ      -1.2770     ZZ     -85.7847
    Octopole Moments (Debye-Ang^2)
       XXX    -141.6633    XXY      86.2929    XYY     -40.9912
       YYY     183.8214    XXZ      -3.1218    XYZ      -1.2298
       YYZ      -1.4133    XZZ     -50.2674    YZZ      78.9586
       ZZZ      -0.3295
    Hexadecapole Moments (Debye-Ang^3)
      XXXX   -1225.6011   XXXY    -237.4246   XXYY    -588.8455
      XYYY    -220.8891   YYYY   -2334.5929   XXXZ    -133.1965
      XXYZ     -36.4055   XYYZ     -46.1926   YYYZ     -72.1215
      XXZZ    -301.3118   XYZZ     -65.8549   YYZZ    -524.8642
      XZZZ    -129.4120   YZZZ     -61.9099   ZZZZ    -561.3162
 -----------------------------------------------------------------
 Total job time:  58.11s(wall), 1999.48s(cpu) 
 Fri Dec 15 14:06:27 2023

        *************************************************************
        *                                                           *
        *  Thank you very much for using Q-Chem.  Have a nice day.  *
        *                                                           *
        *************************************************************


0 sent ACK to 0 
now end server 0 ... 
cleanup process ... done
remove work dirs ./qchem2713769.0 -- ./qchem2713769.0
rm -rf ./qchem2713769.0
rm -rf ./qchem2713769
