You are running Q-Chem version: 5.4.0

#
# job setting
#
local host:  exp-6-17
current dir: /home/rramji/project-csd799/aromodel/p3ht-qchem/hydrogenated-rotation-run
input file:  Methylthiophene_Phi_0_Theta_250_Methylthiophene_Hydrogenated.qcin
output file: 
nprocs     : 1
nthreads   : 64
#
# qchem installation setting
#
QC:          /cm/shared/apps/spack/cpu/opt/spack/linux-centos8-zen2/gcc-10.2.0/qchem-5.4-akfmr7b3t57bfs6qan3padb2wnb2i7cl
QCAUX:       /cm/shared/apps/spack/cpu/opt/spack/linux-centos8-zen2/gcc-10.2.0/qchem-5.4-akfmr7b3t57bfs6qan3padb2wnb2i7cl/qcaux
QCPROG:      /cm/shared/apps/spack/cpu/opt/spack/linux-centos8-zen2/gcc-10.2.0/qchem-5.4-akfmr7b3t57bfs6qan3padb2wnb2i7cl/exe/qcprog.exe
QCPROG_S:    /cm/shared/apps/spack/cpu/opt/spack/linux-centos8-zen2/gcc-10.2.0/qchem-5.4-akfmr7b3t57bfs6qan3padb2wnb2i7cl/exe/qcprog.exe_s
PARALLEL:    -DPARALLEL
QCMPI:       mpich
#
# qchem directory setting
#
qcrun:       qchem973259
QCSCRATCH:   .
QCLOCALSCR:  
QCTMPDIR:    .
QCFILEPREF:  ./qchem973259
QCSAVEDIR:   
workdirs:    ./qchem973259
workdir0:    ./qchem973259
partmpdirs =  
#
# parallel setting
#
QCRSH:           ssh
QCMPI:           mpich
QCMPIRUN:        /cm/shared/apps/spack/cpu/opt/spack/linux-centos8-zen2/gcc-10.2.0/qchem-5.4-akfmr7b3t57bfs6qan3padb2wnb2i7cl/bin/mpi/mpirun_qchem
QCMACHINEFILE:   ./qchem973259/hostfile
exp-6-17

#
# env setting
#
exported envs:   QC QCAUX QCSCRATCH QCRUNNAME QCFILEPREF QCPROG QCPROG_S GUIFILE

Running Job 1 of 1 Methylthiophene_Phi_0_Theta_250_Methylthiophene_Hydrogenated.qcin
qchem Methylthiophene_Phi_0_Theta_250_Methylthiophene_Hydrogenated.qcin_973259.0 ./qchem973259/ 1
/cm/shared/apps/spack/cpu/opt/spack/linux-centos8-zen2/gcc-10.2.0/qchem-5.4-akfmr7b3t57bfs6qan3padb2wnb2i7cl/bin/mpi/mpirun_qchem -machinefile ./qchem973259/hostfile -np 1 /cm/shared/apps/spack/cpu/opt/spack/linux-centos8-zen2/gcc-10.2.0/qchem-5.4-akfmr7b3t57bfs6qan3padb2wnb2i7cl/exe/qcprog.exe Methylthiophene_Phi_0_Theta_250_Methylthiophene_Hydrogenated.qcin_973259.0 ./qchem973259/

Process 0 of 1 is on exp-6-17 - thread support 0
initial socket setup ...start
initial socket setup ...done 
now start server 0 ... 
                  Welcome to Q-Chem
     A Quantum Leap Into The Future Of Chemistry


 Q-Chem 5.4, Q-Chem, Inc., Pleasanton, CA (2021)

 License issued to: University of California, San Diego (site)

 E. Epifanovsky,  A. T. B. Gilbert,  Xintian Feng,  Joonho Lee,  Yuezhi Mao,  
 N. Mardirossian,  P. Pokhilko,  A. White,  M. Wormit,  M. P. Coons,  
 A. L. Dempwolff,  Zhengting Gan,  D. Hait,  P. R. Horn,  L. D. Jacobson,  
 I. Kaliman,  J. Kussmann,  A. W. Lange,  Ka Un Lao,  D. S. Levine,  Jie Liu,  
 S. C. McKenzie,  A. F. Morrison,  K. Nanda,  F. Plasser,  D. R. Rehn,  
 M. L. Vidal,  Zhi-Qiang You,  Ying Zhu,  B. Alam,  B. Albrecht,  
 A. Aldossary,  E. Alguire,  J. H. Andersen,  D. Barton,  K. Begam,  A. Behn,  
 Y. A. Bernard,  E. J. Berquist,  H. Burton,  A. Carreras,  K. Carter-Fenk,  
 R. Chakraborty,  A. D. Chien,  K. D. Closser,  V. Cofer-Shabica,  
 S. Dasgupta,  Jia Deng,  M. de Wergifosse,  M. Diedenhofen,  Hainam Do,  
 S. Ehlert,  Po-Tung Fang,  S. Fatehi,  Qingguo Feng,  J. Gayvert,  
 Qinghui Ge,  G. Gidofalvi,  M. Goldey,  J. Gomes,  C. Gonzalez-Espinoza,  
 S. Gulania,  A. Gunina,  M. W. D. Hanson-Heine,  P. H. P. Harbach,  
 A. W. Hauser,  M. F. Herbst,  M. Hernandez Vera,  M. Hodecker,  
 Z. C. Holden,  S. Houck,  Xunkun Huang,  Kerwin Hui,  B. C. Huynh,  
 M. Ivanov,  Hyunjun Ji,  Hanjie Jiang,  B. Kaduk,  S. Kaehler,  
 K. Khistyaev,  Jaehoon Kim,  P. Klunzinger,  Z. Koczor-Benda,  
 Joong Hoon Koh,  D. Kosenkov,  L. Koulias,  T. Kowalczyk,  C. M. Krauter,  
 K. Kue,  A. Kunitsa,  T. Kus,  A. Landau,  K. V. Lawler,  D. Lefrancois,  
 S. Lehtola,  Rain Li,  Yi-Pei Li,  Jiashu Liang,  M. Liebenthal,  
 Hung-Hsuan Lin,  You-Sheng Lin,  Fenglai Liu,  Kuan-Yu Liu,  
 M. Loipersberger,  A. Luenser,  A. Manjanath,  P. Manohar,  E. Mansoor,  
 S. F. Manzer,  Shan-Ping Mao,  A. V. Marenich,  T. Markovich,  S. Mason,  
 S. A. Maurer,  P. F. McLaughlin,  M. F. S. J. Menger,  J.-M. Mewes,  
 S. A. Mewes,  P. Morgante,  J. W. Mullinax,  T. S. Nguyen-Beck,  
 K. J. Oosterbaan,  G. Paran,  Alexander C. Paul,  Suranjan K. Paul,  
 F. Pavosevic,  Zheng Pei,  S. Prager,  E. I. Proynov,  E. Ramos,  B. Rana,  
 A. E. Rask,  A. Rettig,  R. M. Richard,  F. Rob,  E. Rossomme,  T. Scheele,  
 M. Scheurer,  M. Schneider,  N. Sergueev,  S. M. Sharada,  W. Skomorowski,  
 D. W. Small,  C. J. Stein,  Yu-Chuan Su,  E. J. Sundstrom,  Zhen Tao,  
 J. Thirman,  T. Tsuchimochi,  N. M. Tubman,  S. P. Veccham,  O. Vydrov,  
 J. Wenzel,  J. Witte,  A. Yamada,  Kun Yao,  S. Yeganeh,  S. R. Yost,  
 A. Zech,  Igor Ying Zhang,  Xing Zhang,  Yu Zhang,  D. Zuev,  
 A. Aspuru-Guzik,  A. T. Bell,  N. A. Besley,  K. B. Bravaya,  B. R. Brooks,  
 D. Casanova,  Jeng-Da Chai,  S. Coriani,  C. J. Cramer,  
 A. E. DePrince, III,  R. A. DiStasio Jr.,  A. Dreuw,  B. D. Dunietz,  
 T. R. Furlani,  W. A. Goddard III,  S. Grimme,  S. Hammes-Schiffer,  
 T. Head-Gordon,  W. J. Hehre,  Chao-Ping Hsu,  T.-C. Jagau,  Yousung Jung,  
 A. Klamt,  Jing Kong,  D. S. Lambrecht,  WanZhen Liang,  N. J. Mayhall,  
 C. W. McCurdy,  J. B. Neaton,  C. Ochsenfeld,  J. A. Parkhill,  R. Peverati,  
 V. A. Rassolov,  Yihan Shao,  L. V. Slipchenko,  T. Stauch,  R. P. Steele,  
 J. E. Subotnik,  A. J. W. Thom,  A. Tkatchenko,  D. G. Truhlar,  
 T. Van Voorhis,  T. A. Wesolowski,  K. B. Whaley,  H. L. Woodcock III,  
 P. M. Zimmerman,  S. Faraji,  P. M. W. Gill,  M. Head-Gordon,  
 J. M. Herbert,  A. I. Krylov

 Contributors to earlier versions of Q-Chem not listed above: 
 R. D. Adamson,  B. Austin,  R. Baer,  J. Baker,  G. J. O. Beran,  
 K. Brandhorst,  S. T. Brown,  E. F. C. Byrd,  A. K. Chakraborty,  
 G. K. L. Chan,  Chun-Min Chang,  Yunqing Chen,  C.-L. Cheng,  
 Siu Hung Chien,  D. M. Chipman,  D. L. Crittenden,  H. Dachsel,  
 R. J. Doerksen,  A. D. Dutoi,  R. G. Edgar,  J. Fosso-Tande,  
 L. Fusti-Molnar,  D. Ghosh,  A. Ghysels,  A. Golubeva-Zadorozhnaya,  
 J. Gonthier,  M. S. Gordon,  S. R. Gwaltney,  G. Hawkins,  J. E. Herr,  
 A. Heyden,  S. Hirata,  E. G. Hohenstein,  G. Kedziora,  F. J. Keil,  
 C. Kelley,  Jihan Kim,  R. A. King,  R. Z. Khaliullin,  P. P. Korambath,  
 W. Kurlancheek,  A. Laurent,  A. M. Lee,  M. S. Lee,  S. V. Levchenko,  
 Ching Yeh Lin,  D. Liotard,  E. Livshits,  R. C. Lochan,  I. Lotan,  
 L. A. Martinez-Martinez,  P. E. Maslen,  N. Nair,  D. P. O'Neill,  
 D. Neuhauser,  E. Neuscamman,  C. M. Oana,  R. Olivares-Amaya,  R. Olson,  
 T. M. Perrine,  B. Peters,  P. A. Pieniazek,  A. Prociuk,  Y. M. Rhee,  
 J. Ritchie,  M. A. Rohrdanz,  E. Rosta,  N. J. Russ,  H. F. Schaefer III,  
 M. W. Schmidt,  N. E. Schultz,  S. Sharma,  N. Shenvi,  C. D. Sherrill,  
 A. C. Simmonett,  A. Sodt,  T. Stein,  D. Stuck,  K. S. Thanthiriwatte,  
 V. Vanovschi,  L. Vogt,  Tao Wang,  A. Warshel,  M. A. Watson,  
 C. F. Williams,  Q. Wu,  X. Xu,  Jun Yang,  W. Zhang,  Yan Zhao

 Please cite Q-Chem as follows:
 Y. Shao et al., Mol. Phys. 113, 184-215 (2015)
 DOI: 10.1080/00268976.2014.952696

 Q-Chem 5.4.0 for Intel X86 EM64T Linux

 Parts of Q-Chem use Armadillo 9.800.1 (Horizon Scraper).
 http://arma.sourceforge.net/

 Q-Chem begins on Fri Dec 15 14:20:15 2023  

 Host: 
0

     Scratch files written to ./qchem973259//
 May1621 |scratch|qcdevops|jenkins|workspace|build_RNUM    
 Parallel job on  1  processors
 Processing $rem in /cm/shared/apps/spack/cpu/opt/spack/linux-centos8-zen2/gcc-10.2.0/qchem-5.4-akfmr7b3t57bfs6qan3padb2wnb2i7cl/config/preferences:
 Processing $rem in /home/rramji/.qchemrc:
 Symmetry turned off for PCM/SM12/SMD calculation
 Core orbitals will be frozen

 Checking the input file for inconsistencies... 	...done.

 Q-Chem warning in module forms1/BasisType.C, line 2236:

 You are not using the predefined 5D/6D in this basis set.


--------------------------------------------------------------
User input:
--------------------------------------------------------------
$molecule
0 1
C	0.681143	-3.887800	-0.246754
C	-0.620906	-3.701456	0.227093
C	-1.019618	-2.345170	0.371543
H	-1.284357	-4.545233	0.468992
C	0.000000	-1.450135	0.000000
S	1.435522	-2.321334	-0.522097
C	-2.378731	-1.934439	0.866035
H	-3.003272	-2.819799	1.093799
H	-2.924444	-1.326210	0.114688
H	-2.313987	-1.325374	1.791841
C	0.000000	0.000000	0.000000
C	-0.003081	0.844605	1.113020
C	-0.007772	2.235575	0.820578
H	-0.001743	0.456510	2.142881
C	-0.008427	2.483726	-0.563588
S	-0.003691	0.970607	-1.464748
C	-0.011355	3.300181	1.882380
H	-0.009922	2.852233	2.894974
H	-0.905944	3.953225	1.808137
H	0.878901	3.959133	1.808230
H	-0.011727	3.441752	-1.097114
H	0.688686	-4.420219	-1.204454
H	1.302703	-4.419395	0.482482
H	-0.369395	-1.450628	-1.014863
$end

$rem
JOBTYPE		SP
EXCHANGE	HF
CORRELATION	pRIMP2
BASIS		cc-pvtz
METHOD		rimp2
AUX_BASIS	rimp2-cc-pvtz
SOLVENT_METHOD	PCM
PURECART	11111
SYMMETRY	false
MEM_TOTAL	110000
SCF_CONVERGENCE = 6
THRESH=10
GUI = 2
$end



$solvent
dielectric 4.90
$end
--------------------------------------------------------------
 ----------------------------------------------------------------
             Standard Nuclear Orientation (Angstroms)
    I     Atom           X                Y                Z
 ----------------------------------------------------------------
    1      C       0.6811430000    -3.8878000000    -0.2467540000
    2      C      -0.6209060000    -3.7014560000     0.2270930000
    3      C      -1.0196180000    -2.3451700000     0.3715430000
    4      H      -1.2843570000    -4.5452330000     0.4689920000
    5      C       0.0000000000    -1.4501350000     0.0000000000
    6      S       1.4355220000    -2.3213340000    -0.5220970000
    7      C      -2.3787310000    -1.9344390000     0.8660350000
    8      H      -3.0032720000    -2.8197990000     1.0937990000
    9      H      -2.9244440000    -1.3262100000     0.1146880000
   10      H      -2.3139870000    -1.3253740000     1.7918410000
   11      C       0.0000000000     0.0000000000     0.0000000000
   12      C      -0.0030810000     0.8446050000     1.1130200000
   13      C      -0.0077720000     2.2355750000     0.8205780000
   14      H      -0.0017430000     0.4565100000     2.1428810000
   15      C      -0.0084270000     2.4837260000    -0.5635880000
   16      S      -0.0036910000     0.9706070000    -1.4647480000
   17      C      -0.0113550000     3.3001810000     1.8823800000
   18      H      -0.0099220000     2.8522330000     2.8949740000
   19      H      -0.9059440000     3.9532250000     1.8081370000
   20      H       0.8789010000     3.9591330000     1.8082300000
   21      H      -0.0117270000     3.4417520000    -1.0971140000
   22      H       0.6886860000    -4.4202190000    -1.2044540000
   23      H       1.3027030000    -4.4193950000     0.4824820000
   24      H      -0.3693950000    -1.4506280000    -1.0148630000
 ----------------------------------------------------------------
 Nuclear Repulsion Energy =         871.22874964 hartrees
 There are       52 alpha and       52 beta electrons
 Requested basis set is cc-pVTZ
 There are 196 shells and 536 basis functions

 Total QAlloc Memory Limit 110000 MB
 Mega-Array Size       188 MB
 MEM_STATIC part       192 MB
 Discretize the solute cavity surface with Lebedev spheres
	Using 110 Lebedev grid points for each H atom
	Using 194 Lebedev grid points for other atoms
	Atomic van der Waals radii will be scaled by 1.20
 Remove points where switching function is < 1.0e-08
 Keep 1632 surface tesserae and discard 2016 interior tesserae
 Molecular Surface Area = 238.960 Angst**2
 Requested basis set is rimp2-cc-pVTZ
 There are 414 shells and 1414 basis functions
 A cutoff of  1.0D-10 yielded  13921 shell pairs
 There are    100969 function pairs (    129556 Cartesian)
 Smallest overlap matrix eigenvalue = 6.13E-05

 Scale SEOQF with 1.000000e-01/1.000000e-01/1.000000e-01

 Standard Electronic Orientation quadrupole field applied
 Nucleus-field energy     =     0.0000000354 hartrees
 Guess from superposition of atomic densities
 Warning:  Energy on first SCF cycle will be non-variational
 SAD guess density has 104.000000 electrons

 -----------------------------------------------------------------------
  General SCF calculation program by
  Eric Jon Sundstrom, Paul Horn, Yuezhi Mao, Dmitri Zuev, Alec White,
  David Stuck, Shaama M.S., Shane Yost, Joonho Lee, David Small,
  Daniel Levine, Susi Lehtola, Hugh Burton, Evgeny Epifanovsky,
  Bang C. Huynh
 -----------------------------------------------------------------------
 Hartree-Fock
 using 64 threads for integral computing
 -------------------------------------------------------
 OpenMP Integral computing Module                
 Release: version 1.0, May 2013, Q-Chem Inc. Pittsburgh 
 -------------------------------------------------------
 A restricted SCF calculation will be
 performed using DIIS
 SCF converges when DIIS error is below 1.0e-06
 ---------------------------------------
  Cycle       Energy         DIIS error
 ---------------------------------------
    1   -1185.9975635901      2.38e-02  
    2   -1180.6167714579      1.56e-03  
    3   -1180.7417117260      6.08e-04  
    4   -1180.7560593510      3.27e-04  
    5   -1180.7609804877      6.02e-05  
    6   -1180.7612264346      2.45e-05  
    7   -1180.7612856351      9.07e-06  
    8   -1180.7612991070      4.43e-06  
    9   -1180.7613021933      1.45e-06  
   10   -1180.7613026507      5.07e-07  Convergence criterion met
 ---------------------------------------
 SCF time:   CPU 1580.72s  wall 51.00s 

************** Final PCM Free Energy Summary **************
 G_electrostatic  =      -0.00904750 hartree =      -5.67739254 kcal/mol
 G_cavitation     =       0.00000000 hartree =       0.00000000 kcal/mol
 G_dispersion     =       0.00000000 hartree =       0.00000000 kcal/mol
 G_repulsion      =       0.00000000 hartree =       0.00000000 kcal/mol
 --------------------------------------------------
 Non-electrostatic Free Energy =       0.00000000 hartree =       0.00000000 kcal/mol
 Total                         =      -0.00904750 hartree =      -5.67739254 kcal/mol
 --------------------------------------------------
 SCF Energy (H0 + V/2)                       =   -1180.76130265 
 Solute Internal Energy (H0)                 =   -1180.75225515 
 Total Free Energy (H0 + V/2 + non-elec)     =   -1180.76130265 hartree
                                             = -740938.90040359 kcal/mol
***********************************************************

 SCF   energy in the final basis set =    -1180.7613026507
 Total energy in the final basis set =    -1180.7613026507


 --------------------------------------------------------------
  Generalized many-body perturbation theory program
  by Joonho Lee, Fazle Rob, Xintian Feng, Evgeny Epifanovsky

 No regularization used 
 (reg. param. = 0.0000e+00)
  (P|Q)^-1/2 Time:  CPU 36.45 s  wall 0.61 s

 In RI-MP2 calculation: 
 # of frozen core orbitals: 20

 Components of the RIMP2 correlation energy:
        aaaa    correlation energy =        -0.2507630965 a.u.
        abab    correlation energy =        -1.5021054160 a.u.
        bbbb    correlation energy =        -0.2507630965 a.u.
        non-Brillouin singles      =        -0.0000000000 a.u.
        total same-spin energy     =        -0.5015261930 a.u.
        total opposite-spin energy =        -1.5021054160 a.u.

 Total  RIMP2   correlation energy =        -2.0036316090 a.u.
        RIMP2         total energy =     -1182.7649342597 a.u.

 RI-MP2 Energy Time:  CPU 182.35 s  wall 3.11 s
 
 --------------------------------------------------------------
 
                    Orbital Energies (a.u.)
 --------------------------------------------------------------
 
 Alpha MOs
 -- Occupied --
-91.9863 -91.9417 -11.2803 -11.2649 -11.2630 -11.2561 -11.2509 -11.2414
-11.2375 -11.2315 -11.2289 -11.2194  -8.9859  -8.9464  -6.6668  -6.6663
 -6.6656  -6.6277  -6.6267  -6.6254  -1.1974  -1.1537  -1.0575  -1.0266
 -1.0021  -0.9631  -0.9128  -0.9006  -0.8131  -0.7600  -0.7425  -0.7031
 -0.6536  -0.6347  -0.6113  -0.5880  -0.5776  -0.5708  -0.5681  -0.5540
 -0.5428  -0.5296  -0.5135  -0.5053  -0.4919  -0.4822  -0.4631  -0.4496
 -0.3563  -0.3413  -0.3154  -0.2789
 -- Virtual --
  0.0963   0.1289   0.1400   0.1516   0.1590   0.1686   0.1766   0.1841
  0.1889   0.1942   0.2047   0.2133   0.2309   0.2337   0.2368   0.2452
  0.2466   0.2586   0.2734   0.2930   0.3106   0.3385   0.3443   0.3538
  0.3673   0.3707   0.3743   0.3864   0.3945   0.3987   0.4118   0.4179
  0.4313   0.4454   0.4522   0.4620   0.4716   0.4781   0.4851   0.4888
  0.5003   0.5051   0.5196   0.5293   0.5338   0.5371   0.5463   0.5577
  0.5666   0.5775   0.5868   0.5930   0.6037   0.6079   0.6110   0.6169
  0.6209   0.6259   0.6302   0.6401   0.6435   0.6491   0.6499   0.6526
  0.6558   0.6684   0.6815   0.6836   0.6939   0.7011   0.7068   0.7304
  0.7359   0.7473   0.7606   0.7685   0.7720   0.7978   0.8144   0.8258
  0.8340   0.8436   0.8442   0.8686   0.8718   0.8932   0.9059   0.9075
  0.9182   0.9392   0.9498   0.9595   0.9641   0.9868   1.0000   1.0102
  1.0209   1.0220   1.0310   1.0393   1.0492   1.0607   1.0708   1.0782
  1.0851   1.0988   1.1057   1.1211   1.1290   1.1538   1.1592   1.1796
  1.1832   1.1898   1.1975   1.2050   1.2100   1.2273   1.2356   1.2385
  1.2492   1.2608   1.2679   1.2709   1.2738   1.2864   1.3046   1.3165
  1.3287   1.3387   1.3520   1.3676   1.3856   1.3861   1.4064   1.4105
  1.4222   1.4332   1.4530   1.4590   1.4674   1.4793   1.4885   1.4954
  1.5040   1.5091   1.5206   1.5331   1.5352   1.5435   1.5459   1.5586
  1.5696   1.5748   1.5850   1.5956   1.6079   1.6196   1.6345   1.6388
  1.6563   1.6682   1.6837   1.6891   1.7081   1.7093   1.7232   1.7309
  1.7438   1.7513   1.7676   1.7849   1.8136   1.8226   1.8516   1.8674
  1.8757   1.8995   1.9205   1.9253   1.9528   1.9656   1.9873   2.0109
  2.0125   2.0240   2.0262   2.0546   2.0811   2.1179   2.1282   2.1502
  2.1825   2.1934   2.2027   2.2191   2.2245   2.2405   2.2636   2.2857
  2.3096   2.3318   2.3432   2.3767   2.4103   2.4503   2.4565   2.4652
  2.5035   2.5047   2.5200   2.5430   2.5690   2.5940   2.6027   2.6110
  2.6286   2.6474   2.6527   2.6568   2.6724   2.6827   2.6991   2.7249
  2.7381   2.7450   2.7586   2.7643   2.7731   2.7764   2.8000   2.8309
  2.8436   2.8550   2.8594   2.8685   2.8840   2.9033   2.9086   2.9248
  2.9281   2.9452   2.9602   2.9753   3.0051   3.0270   3.0323   3.0364
  3.0541   3.0762   3.0903   3.1120   3.1123   3.1193   3.1362   3.1412
  3.1572   3.1574   3.1589   3.1814   3.1873   3.1904   3.2044   3.2102
  3.2321   3.2413   3.2481   3.2691   3.2713   3.2850   3.3007   3.3057
  3.3123   3.3294   3.3310   3.3337   3.3420   3.3554   3.3600   3.3624
  3.3748   3.3835   3.3893   3.3914   3.4024   3.4120   3.4159   3.4293
  3.4306   3.4479   3.4522   3.4637   3.4784   3.4795   3.5062   3.5119
  3.5166   3.5285   3.5335   3.5453   3.5501   3.5540   3.5729   3.5747
  3.5842   3.6064   3.6118   3.6164   3.6337   3.6425   3.6431   3.6618
  3.6670   3.6794   3.6806   3.6945   3.7057   3.7161   3.7282   3.7360
  3.7447   3.7495   3.7614   3.7792   3.7829   3.7882   3.8033   3.8134
  3.8324   3.8398   3.8571   3.8692   3.8731   3.8889   3.9051   3.9169
  3.9238   3.9425   3.9588   3.9694   3.9750   3.9851   4.0005   4.0055
  4.0285   4.0466   4.0522   4.0592   4.0761   4.0798   4.0923   4.0965
  4.1213   4.1379   4.1508   4.1516   4.1626   4.1678   4.1763   4.2019
  4.2136   4.2190   4.2305   4.2389   4.2533   4.2644   4.2766   4.2811
  4.2915   4.2984   4.3185   4.3217   4.3422   4.3480   4.3628   4.3717
  4.3825   4.3926   4.4002   4.4057   4.4142   4.4244   4.4299   4.4505
  4.4642   4.4751   4.4789   4.4805   4.4920   4.5231   4.5340   4.5590
  4.5719   4.5813   4.6149   4.6167   4.6255   4.6361   4.6527   4.6600
  4.6927   4.7045   4.7395   4.7619   4.7696   4.8004   4.8155   4.8423
  4.8470   4.8745   4.8933   4.8974   4.9161   4.9516   4.9747   4.9977
  5.0165   5.0450   5.0819   5.1071   5.1137   5.1289   5.1538   5.1781
  5.2044   5.2152   5.2293   5.2629   5.2745   5.2850   5.3054   5.3245
  5.3498   5.3663   5.3789   5.3984   5.4098   5.4228   5.4426   5.4505
  5.4662   5.5213   5.5272   5.5389   5.5480   5.5564   5.5737   5.5967
  5.6170   5.6240   5.6310   5.6696   5.6812   5.6921   5.7032   5.7301
  5.7647   5.7865   5.8319   5.9645   5.9958   6.0648   6.1320   6.1423
  6.2101   6.2117   6.2255   6.2316   6.2535   6.2785   6.3086   6.3283
  6.3827   6.5163   9.3724  10.6646  12.0385  12.9517  13.1837  14.0036
 14.0580  14.1991  14.3311  14.6858
 --------------------------------------------------------------
 
          Ground-State Mulliken Net Atomic Charges

     Atom                 Charge (a.u.)
  ----------------------------------------
      1 C                    -0.076670
      2 C                    -0.330893
      3 C                    -0.015555
      4 H                     0.177565
      5 C                     0.106497
      6 S                    -0.178683
      7 C                    -0.267396
      8 H                     0.114167
      9 H                     0.104187
     10 H                     0.103992
     11 C                    -0.118516
     12 C                    -0.220596
     13 C                     0.014382
     14 H                     0.187872
     15 C                    -0.243374
     16 S                     0.014189
     17 C                    -0.272608
     18 H                     0.102656
     19 H                     0.107514
     20 H                     0.108684
     21 H                     0.199048
     22 H                     0.110621
     23 H                     0.113834
     24 H                     0.159080
  ----------------------------------------
  Sum of atomic charges =     0.000000

 -----------------------------------------------------------------
                    Cartesian Multipole Moments
 -----------------------------------------------------------------
    Charge (ESU x 10^10)
                -0.0000
    Dipole Moment (Debye)
         X      -2.5579      Y       0.6457      Z       1.5930
       Tot       3.0818
    Quadrupole Moments (Debye-Ang)
        XX     -91.9739     XY       3.9724     YY     -73.5925
        XZ      -0.2647     YZ       1.1044     ZZ     -85.7506
    Octopole Moments (Debye-Ang^2)
       XXX      -0.2997    XXY      41.6295    XYY       0.5324
       YYY     126.0320    XXZ       0.1374    XYZ       2.1033
       YYZ      -7.3543    XZZ       1.9621    YZZ      54.9783
       ZZZ      -2.3481
    Hexadecapole Moments (Debye-Ang^3)
      XXXX    -640.2327   XXXY      27.5600   XXYY    -615.5027
      XYYY      -0.1538   YYYY   -2783.2244   XXXZ      85.3058
      XXYZ     -44.0060   XYYZ      19.5890   YYYZ    -111.7901
      XXZZ    -217.1365   XYZZ       1.1606   YYZZ    -606.0699
      XZZZ      94.6469   YZZZ    -100.3186   ZZZZ    -612.4290
 -----------------------------------------------------------------
 Total job time:  61.01s(wall), 1839.63s(cpu) 
 Fri Dec 15 14:21:16 2023

        *************************************************************
        *                                                           *
        *  Thank you very much for using Q-Chem.  Have a nice day.  *
        *                                                           *
        *************************************************************


0 sent ACK to 0 
now end server 0 ... 
cleanup process ... done
remove work dirs ./qchem973259.0 -- ./qchem973259.0
rm -rf ./qchem973259.0
rm -rf ./qchem973259
