You are running Q-Chem version: 5.4.0

#
# job setting
#
local host:  exp-8-02
current dir: /home/rramji/project-csd799/aromodel/p3ht-qchem/hydrogenated-rotation-run
input file:  Methylthiophene_Phi_20_Theta_280_Methylthiophene_Hydrogenated.qcin
output file: 
nprocs     : 1
nthreads   : 64
#
# qchem installation setting
#
QC:          /cm/shared/apps/spack/cpu/opt/spack/linux-centos8-zen2/gcc-10.2.0/qchem-5.4-akfmr7b3t57bfs6qan3padb2wnb2i7cl
QCAUX:       /cm/shared/apps/spack/cpu/opt/spack/linux-centos8-zen2/gcc-10.2.0/qchem-5.4-akfmr7b3t57bfs6qan3padb2wnb2i7cl/qcaux
QCPROG:      /cm/shared/apps/spack/cpu/opt/spack/linux-centos8-zen2/gcc-10.2.0/qchem-5.4-akfmr7b3t57bfs6qan3padb2wnb2i7cl/exe/qcprog.exe
QCPROG_S:    /cm/shared/apps/spack/cpu/opt/spack/linux-centos8-zen2/gcc-10.2.0/qchem-5.4-akfmr7b3t57bfs6qan3padb2wnb2i7cl/exe/qcprog.exe_s
PARALLEL:    -DPARALLEL
QCMPI:       mpich
#
# qchem directory setting
#
qcrun:       qchem168750
QCSCRATCH:   .
QCLOCALSCR:  
QCTMPDIR:    .
QCFILEPREF:  ./qchem168750
QCSAVEDIR:   
workdirs:    ./qchem168750
workdir0:    ./qchem168750
partmpdirs =  
#
# parallel setting
#
QCRSH:           ssh
QCMPI:           mpich
QCMPIRUN:        /cm/shared/apps/spack/cpu/opt/spack/linux-centos8-zen2/gcc-10.2.0/qchem-5.4-akfmr7b3t57bfs6qan3padb2wnb2i7cl/bin/mpi/mpirun_qchem
QCMACHINEFILE:   ./qchem168750/hostfile
exp-8-02

#
# env setting
#
exported envs:   QC QCAUX QCSCRATCH QCRUNNAME QCFILEPREF QCPROG QCPROG_S GUIFILE

Running Job 1 of 1 Methylthiophene_Phi_20_Theta_280_Methylthiophene_Hydrogenated.qcin
qchem Methylthiophene_Phi_20_Theta_280_Methylthiophene_Hydrogenated.qcin_168750.0 ./qchem168750/ 1
/cm/shared/apps/spack/cpu/opt/spack/linux-centos8-zen2/gcc-10.2.0/qchem-5.4-akfmr7b3t57bfs6qan3padb2wnb2i7cl/bin/mpi/mpirun_qchem -machinefile ./qchem168750/hostfile -np 1 /cm/shared/apps/spack/cpu/opt/spack/linux-centos8-zen2/gcc-10.2.0/qchem-5.4-akfmr7b3t57bfs6qan3padb2wnb2i7cl/exe/qcprog.exe Methylthiophene_Phi_20_Theta_280_Methylthiophene_Hydrogenated.qcin_168750.0 ./qchem168750/

Process 0 of 1 is on exp-8-02 - thread support 0
initial socket setup ...start
initial socket setup ...done 
now start server 0 ... 
                  Welcome to Q-Chem
     A Quantum Leap Into The Future Of Chemistry


 Q-Chem 5.4, Q-Chem, Inc., Pleasanton, CA (2021)

 License issued to: University of California, San Diego (site)

 E. Epifanovsky,  A. T. B. Gilbert,  Xintian Feng,  Joonho Lee,  Yuezhi Mao,  
 N. Mardirossian,  P. Pokhilko,  A. White,  M. Wormit,  M. P. Coons,  
 A. L. Dempwolff,  Zhengting Gan,  D. Hait,  P. R. Horn,  L. D. Jacobson,  
 I. Kaliman,  J. Kussmann,  A. W. Lange,  Ka Un Lao,  D. S. Levine,  Jie Liu,  
 S. C. McKenzie,  A. F. Morrison,  K. Nanda,  F. Plasser,  D. R. Rehn,  
 M. L. Vidal,  Zhi-Qiang You,  Ying Zhu,  B. Alam,  B. Albrecht,  
 A. Aldossary,  E. Alguire,  J. H. Andersen,  D. Barton,  K. Begam,  A. Behn,  
 Y. A. Bernard,  E. J. Berquist,  H. Burton,  A. Carreras,  K. Carter-Fenk,  
 R. Chakraborty,  A. D. Chien,  K. D. Closser,  V. Cofer-Shabica,  
 S. Dasgupta,  Jia Deng,  M. de Wergifosse,  M. Diedenhofen,  Hainam Do,  
 S. Ehlert,  Po-Tung Fang,  S. Fatehi,  Qingguo Feng,  J. Gayvert,  
 Qinghui Ge,  G. Gidofalvi,  M. Goldey,  J. Gomes,  C. Gonzalez-Espinoza,  
 S. Gulania,  A. Gunina,  M. W. D. Hanson-Heine,  P. H. P. Harbach,  
 A. W. Hauser,  M. F. Herbst,  M. Hernandez Vera,  M. Hodecker,  
 Z. C. Holden,  S. Houck,  Xunkun Huang,  Kerwin Hui,  B. C. Huynh,  
 M. Ivanov,  Hyunjun Ji,  Hanjie Jiang,  B. Kaduk,  S. Kaehler,  
 K. Khistyaev,  Jaehoon Kim,  P. Klunzinger,  Z. Koczor-Benda,  
 Joong Hoon Koh,  D. Kosenkov,  L. Koulias,  T. Kowalczyk,  C. M. Krauter,  
 K. Kue,  A. Kunitsa,  T. Kus,  A. Landau,  K. V. Lawler,  D. Lefrancois,  
 S. Lehtola,  Rain Li,  Yi-Pei Li,  Jiashu Liang,  M. Liebenthal,  
 Hung-Hsuan Lin,  You-Sheng Lin,  Fenglai Liu,  Kuan-Yu Liu,  
 M. Loipersberger,  A. Luenser,  A. Manjanath,  P. Manohar,  E. Mansoor,  
 S. F. Manzer,  Shan-Ping Mao,  A. V. Marenich,  T. Markovich,  S. Mason,  
 S. A. Maurer,  P. F. McLaughlin,  M. F. S. J. Menger,  J.-M. Mewes,  
 S. A. Mewes,  P. Morgante,  J. W. Mullinax,  T. S. Nguyen-Beck,  
 K. J. Oosterbaan,  G. Paran,  Alexander C. Paul,  Suranjan K. Paul,  
 F. Pavosevic,  Zheng Pei,  S. Prager,  E. I. Proynov,  E. Ramos,  B. Rana,  
 A. E. Rask,  A. Rettig,  R. M. Richard,  F. Rob,  E. Rossomme,  T. Scheele,  
 M. Scheurer,  M. Schneider,  N. Sergueev,  S. M. Sharada,  W. Skomorowski,  
 D. W. Small,  C. J. Stein,  Yu-Chuan Su,  E. J. Sundstrom,  Zhen Tao,  
 J. Thirman,  T. Tsuchimochi,  N. M. Tubman,  S. P. Veccham,  O. Vydrov,  
 J. Wenzel,  J. Witte,  A. Yamada,  Kun Yao,  S. Yeganeh,  S. R. Yost,  
 A. Zech,  Igor Ying Zhang,  Xing Zhang,  Yu Zhang,  D. Zuev,  
 A. Aspuru-Guzik,  A. T. Bell,  N. A. Besley,  K. B. Bravaya,  B. R. Brooks,  
 D. Casanova,  Jeng-Da Chai,  S. Coriani,  C. J. Cramer,  
 A. E. DePrince, III,  R. A. DiStasio Jr.,  A. Dreuw,  B. D. Dunietz,  
 T. R. Furlani,  W. A. Goddard III,  S. Grimme,  S. Hammes-Schiffer,  
 T. Head-Gordon,  W. J. Hehre,  Chao-Ping Hsu,  T.-C. Jagau,  Yousung Jung,  
 A. Klamt,  Jing Kong,  D. S. Lambrecht,  WanZhen Liang,  N. J. Mayhall,  
 C. W. McCurdy,  J. B. Neaton,  C. Ochsenfeld,  J. A. Parkhill,  R. Peverati,  
 V. A. Rassolov,  Yihan Shao,  L. V. Slipchenko,  T. Stauch,  R. P. Steele,  
 J. E. Subotnik,  A. J. W. Thom,  A. Tkatchenko,  D. G. Truhlar,  
 T. Van Voorhis,  T. A. Wesolowski,  K. B. Whaley,  H. L. Woodcock III,  
 P. M. Zimmerman,  S. Faraji,  P. M. W. Gill,  M. Head-Gordon,  
 J. M. Herbert,  A. I. Krylov

 Contributors to earlier versions of Q-Chem not listed above: 
 R. D. Adamson,  B. Austin,  R. Baer,  J. Baker,  G. J. O. Beran,  
 K. Brandhorst,  S. T. Brown,  E. F. C. Byrd,  A. K. Chakraborty,  
 G. K. L. Chan,  Chun-Min Chang,  Yunqing Chen,  C.-L. Cheng,  
 Siu Hung Chien,  D. M. Chipman,  D. L. Crittenden,  H. Dachsel,  
 R. J. Doerksen,  A. D. Dutoi,  R. G. Edgar,  J. Fosso-Tande,  
 L. Fusti-Molnar,  D. Ghosh,  A. Ghysels,  A. Golubeva-Zadorozhnaya,  
 J. Gonthier,  M. S. Gordon,  S. R. Gwaltney,  G. Hawkins,  J. E. Herr,  
 A. Heyden,  S. Hirata,  E. G. Hohenstein,  G. Kedziora,  F. J. Keil,  
 C. Kelley,  Jihan Kim,  R. A. King,  R. Z. Khaliullin,  P. P. Korambath,  
 W. Kurlancheek,  A. Laurent,  A. M. Lee,  M. S. Lee,  S. V. Levchenko,  
 Ching Yeh Lin,  D. Liotard,  E. Livshits,  R. C. Lochan,  I. Lotan,  
 L. A. Martinez-Martinez,  P. E. Maslen,  N. Nair,  D. P. O'Neill,  
 D. Neuhauser,  E. Neuscamman,  C. M. Oana,  R. Olivares-Amaya,  R. Olson,  
 T. M. Perrine,  B. Peters,  P. A. Pieniazek,  A. Prociuk,  Y. M. Rhee,  
 J. Ritchie,  M. A. Rohrdanz,  E. Rosta,  N. J. Russ,  H. F. Schaefer III,  
 M. W. Schmidt,  N. E. Schultz,  S. Sharma,  N. Shenvi,  C. D. Sherrill,  
 A. C. Simmonett,  A. Sodt,  T. Stein,  D. Stuck,  K. S. Thanthiriwatte,  
 V. Vanovschi,  L. Vogt,  Tao Wang,  A. Warshel,  M. A. Watson,  
 C. F. Williams,  Q. Wu,  X. Xu,  Jun Yang,  W. Zhang,  Yan Zhao

 Please cite Q-Chem as follows:
 Y. Shao et al., Mol. Phys. 113, 184-215 (2015)
 DOI: 10.1080/00268976.2014.952696

 Q-Chem 5.4.0 for Intel X86 EM64T Linux

 Parts of Q-Chem use Armadillo 9.800.1 (Horizon Scraper).
 http://arma.sourceforge.net/

 Q-Chem begins on Fri Dec 15 14:21:45 2023  

 Host: 
0

     Scratch files written to ./qchem168750//
 May1621 |scratch|qcdevops|jenkins|workspace|build_RNUM    
 Parallel job on  1  processors
 Processing $rem in /cm/shared/apps/spack/cpu/opt/spack/linux-centos8-zen2/gcc-10.2.0/qchem-5.4-akfmr7b3t57bfs6qan3padb2wnb2i7cl/config/preferences:
 Processing $rem in /home/rramji/.qchemrc:
 Symmetry turned off for PCM/SM12/SMD calculation
 Core orbitals will be frozen

 Checking the input file for inconsistencies... 	...done.

 Q-Chem warning in module forms1/BasisType.C, line 2236:

 You are not using the predefined 5D/6D in this basis set.


--------------------------------------------------------------
User input:
--------------------------------------------------------------
$molecule
0 1
C	0.713264	-3.887800	0.126876
C	-0.651267	-3.701456	-0.113784
C	-1.068787	-2.345170	-0.188043
H	-1.346782	-4.545233	-0.236019
C	0.000000	-1.450135	0.000000
S	1.504247	-2.321334	0.265612
C	-2.493059	-1.934439	-0.439357
H	-3.147809	-2.819799	-0.554378
H	-2.589987	-1.326210	-1.362899
H	-2.899892	-1.325374	0.394786
C	0.000000	0.000000	0.000000
C	0.285976	0.794723	1.113020
C	0.757308	2.103412	0.820578
H	0.154498	0.429575	2.142881
C	0.841565	2.336821	-0.563588
S	0.328498	0.913334	-1.464748
C	1.118059	3.105040	1.882380
H	0.966197	2.683616	2.894974
H	0.500773	4.024668	1.808137
H	2.180000	3.419766	1.808230
H	1.166129	3.238200	-1.097114
H	1.198647	-4.420219	-0.698744
H	0.886933	-4.419395	1.069193
H	0.187526	-1.450628	-1.063595
$end

$rem
JOBTYPE		SP
EXCHANGE	HF
CORRELATION	pRIMP2
BASIS		cc-pvtz
METHOD		rimp2
AUX_BASIS	rimp2-cc-pvtz
SOLVENT_METHOD	PCM
PURECART	11111
SYMMETRY	false
MEM_TOTAL	110000
SCF_CONVERGENCE = 6
THRESH=10
GUI = 2
$end



$solvent
dielectric 4.90
$end
--------------------------------------------------------------
 ----------------------------------------------------------------
             Standard Nuclear Orientation (Angstroms)
    I     Atom           X                Y                Z
 ----------------------------------------------------------------
    1      C       0.7132640000    -3.8878000000     0.1268760000
    2      C      -0.6512670000    -3.7014560000    -0.1137840000
    3      C      -1.0687870000    -2.3451700000    -0.1880430000
    4      H      -1.3467820000    -4.5452330000    -0.2360190000
    5      C       0.0000000000    -1.4501350000     0.0000000000
    6      S       1.5042470000    -2.3213340000     0.2656120000
    7      C      -2.4930590000    -1.9344390000    -0.4393570000
    8      H      -3.1478090000    -2.8197990000    -0.5543780000
    9      H      -2.5899870000    -1.3262100000    -1.3628990000
   10      H      -2.8998920000    -1.3253740000     0.3947860000
   11      C       0.0000000000     0.0000000000     0.0000000000
   12      C       0.2859760000     0.7947230000     1.1130200000
   13      C       0.7573080000     2.1034120000     0.8205780000
   14      H       0.1544980000     0.4295750000     2.1428810000
   15      C       0.8415650000     2.3368210000    -0.5635880000
   16      S       0.3284980000     0.9133340000    -1.4647480000
   17      C       1.1180590000     3.1050400000     1.8823800000
   18      H       0.9661970000     2.6836160000     2.8949740000
   19      H       0.5007730000     4.0246680000     1.8081370000
   20      H       2.1800000000     3.4197660000     1.8082300000
   21      H       1.1661290000     3.2382000000    -1.0971140000
   22      H       1.1986470000    -4.4202190000    -0.6987440000
   23      H       0.8869330000    -4.4193950000     1.0691930000
   24      H       0.1875260000    -1.4506280000    -1.0635950000
 ----------------------------------------------------------------
 Nuclear Repulsion Energy =         873.73445930 hartrees
 There are       52 alpha and       52 beta electrons
 Requested basis set is cc-pVTZ
 There are 196 shells and 536 basis functions

 Total QAlloc Memory Limit 110000 MB
 Mega-Array Size       188 MB
 MEM_STATIC part       192 MB
 Discretize the solute cavity surface with Lebedev spheres
	Using 110 Lebedev grid points for each H atom
	Using 194 Lebedev grid points for other atoms
	Atomic van der Waals radii will be scaled by 1.20
 Remove points where switching function is < 1.0e-08
 Keep 1635 surface tesserae and discard 2013 interior tesserae
 Molecular Surface Area = 238.246 Angst**2
 Requested basis set is rimp2-cc-pVTZ
 There are 414 shells and 1414 basis functions
 A cutoff of  1.0D-10 yielded  13875 shell pairs
 There are    100273 function pairs (    128553 Cartesian)
 Smallest overlap matrix eigenvalue = 7.15E-05

 Scale SEOQF with 1.000000e-01/1.000000e-01/1.000000e-01

 Standard Electronic Orientation quadrupole field applied
 Nucleus-field energy     =     0.0000000360 hartrees
 Guess from superposition of atomic densities
 Warning:  Energy on first SCF cycle will be non-variational
 SAD guess density has 104.000000 electrons

 -----------------------------------------------------------------------
  General SCF calculation program by
  Eric Jon Sundstrom, Paul Horn, Yuezhi Mao, Dmitri Zuev, Alec White,
  David Stuck, Shaama M.S., Shane Yost, Joonho Lee, David Small,
  Daniel Levine, Susi Lehtola, Hugh Burton, Evgeny Epifanovsky,
  Bang C. Huynh
 -----------------------------------------------------------------------
 Hartree-Fock
 using 64 threads for integral computing
 -------------------------------------------------------
 OpenMP Integral computing Module                
 Release: version 1.0, May 2013, Q-Chem Inc. Pittsburgh 
 -------------------------------------------------------
 A restricted SCF calculation will be
 performed using DIIS
 SCF converges when DIIS error is below 1.0e-06
 ---------------------------------------
  Cycle       Energy         DIIS error
 ---------------------------------------
    1   -1186.0101330352      2.39e-02  
    2   -1180.6103191474      1.56e-03  
    3   -1180.7352953503      5.94e-04  
    4   -1180.7492700773      3.21e-04  
    5   -1180.7540042380      6.07e-05  
    6   -1180.7542533427      2.47e-05  
    7   -1180.7543149661      9.36e-06  
    8   -1180.7543295004      4.57e-06  
    9   -1180.7543329724      1.54e-06  
   10   -1180.7543335003      5.16e-07  Convergence criterion met
 ---------------------------------------
 SCF time:   CPU 1656.64s  wall 49.00s 

************** Final PCM Free Energy Summary **************
 G_electrostatic  =      -0.00870861 hartree =      -5.46473509 kcal/mol
 G_cavitation     =       0.00000000 hartree =       0.00000000 kcal/mol
 G_dispersion     =       0.00000000 hartree =       0.00000000 kcal/mol
 G_repulsion      =       0.00000000 hartree =       0.00000000 kcal/mol
 --------------------------------------------------
 Non-electrostatic Free Energy =       0.00000000 hartree =       0.00000000 kcal/mol
 Total                         =      -0.00870861 hartree =      -5.46473509 kcal/mol
 --------------------------------------------------
 SCF Energy (H0 + V/2)                       =   -1180.75433350 
 Solute Internal Energy (H0)                 =   -1180.74562489 
 Total Free Energy (H0 + V/2 + non-elec)     =   -1180.75433350 hartree
                                             = -740934.52719574 kcal/mol
***********************************************************

 SCF   energy in the final basis set =    -1180.7543335003
 Total energy in the final basis set =    -1180.7543335003


 --------------------------------------------------------------
  Generalized many-body perturbation theory program
  by Joonho Lee, Fazle Rob, Xintian Feng, Evgeny Epifanovsky

 No regularization used 
 (reg. param. = 0.0000e+00)
  (P|Q)^-1/2 Time:  CPU 20.31 s  wall 0.32 s

 In RI-MP2 calculation: 
 # of frozen core orbitals: 20

 Components of the RIMP2 correlation energy:
        aaaa    correlation energy =        -0.2510683557 a.u.
        abab    correlation energy =        -1.5031364370 a.u.
        bbbb    correlation energy =        -0.2510683557 a.u.
        non-Brillouin singles      =        -0.0000000000 a.u.
        total same-spin energy     =        -0.5021367114 a.u.
        total opposite-spin energy =        -1.5031364370 a.u.

 Total  RIMP2   correlation energy =        -2.0052731484 a.u.
        RIMP2         total energy =     -1182.7596066487 a.u.

 RI-MP2 Energy Time:  CPU 168.57 s  wall 2.95 s
 
 --------------------------------------------------------------
 
                    Orbital Energies (a.u.)
 --------------------------------------------------------------
 
 Alpha MOs
 -- Occupied --
-91.9858 -91.9418 -11.2765 -11.2675 -11.2607 -11.2547 -11.2511 -11.2406
-11.2398 -11.2310 -11.2288 -11.2173  -8.9855  -8.9463  -6.6664  -6.6659
 -6.6653  -6.6276  -6.6266  -6.6253  -1.1974  -1.1537  -1.0573  -1.0255
 -1.0027  -0.9620  -0.9129  -0.9004  -0.8117  -0.7633  -0.7384  -0.7032
 -0.6531  -0.6333  -0.6114  -0.5876  -0.5771  -0.5730  -0.5681  -0.5527
 -0.5416  -0.5302  -0.5104  -0.5061  -0.4898  -0.4817  -0.4634  -0.4484
 -0.3565  -0.3401  -0.3135  -0.2807
 -- Virtual --
  0.0887   0.1287   0.1435   0.1499   0.1597   0.1681   0.1773   0.1835
  0.1863   0.1966   0.2051   0.2176   0.2217   0.2338   0.2386   0.2448
  0.2490   0.2546   0.2689   0.2940   0.3046   0.3347   0.3373   0.3534
  0.3670   0.3766   0.3773   0.3852   0.3932   0.4020   0.4134   0.4236
  0.4376   0.4410   0.4480   0.4607   0.4658   0.4732   0.4835   0.4873
  0.4949   0.5103   0.5193   0.5248   0.5321   0.5402   0.5435   0.5590
  0.5685   0.5775   0.5872   0.5976   0.6010   0.6062   0.6142   0.6210
  0.6233   0.6275   0.6300   0.6323   0.6365   0.6458   0.6494   0.6560
  0.6620   0.6710   0.6785   0.6837   0.6907   0.6994   0.7147   0.7212
  0.7393   0.7469   0.7511   0.7646   0.7880   0.7985   0.8082   0.8161
  0.8310   0.8343   0.8424   0.8533   0.8647   0.8927   0.9039   0.9231
  0.9304   0.9390   0.9442   0.9508   0.9810   0.9844   1.0029   1.0121
  1.0143   1.0292   1.0365   1.0454   1.0553   1.0660   1.0735   1.0812
  1.0860   1.0981   1.1100   1.1248   1.1326   1.1404   1.1535   1.1659
  1.1758   1.1820   1.1911   1.2099   1.2158   1.2263   1.2365   1.2389
  1.2544   1.2631   1.2669   1.2699   1.2839   1.2911   1.3054   1.3139
  1.3293   1.3403   1.3519   1.3594   1.3645   1.3830   1.3992   1.4162
  1.4232   1.4278   1.4481   1.4548   1.4579   1.4766   1.4869   1.4977
  1.5069   1.5149   1.5188   1.5254   1.5334   1.5344   1.5541   1.5565
  1.5672   1.5743   1.5780   1.5873   1.6150   1.6231   1.6299   1.6343
  1.6566   1.6732   1.6771   1.6854   1.7050   1.7091   1.7138   1.7285
  1.7351   1.7511   1.7632   1.7781   1.7928   1.8248   1.8313   1.8524
  1.8724   1.9146   1.9265   1.9359   1.9585   1.9779   1.9934   2.0038
  2.0090   2.0172   2.0255   2.0697   2.0980   2.1119   2.1247   2.1297
  2.1857   2.1902   2.1977   2.2196   2.2332   2.2454   2.2644   2.2697
  2.3073   2.3283   2.3381   2.3782   2.4206   2.4418   2.4532   2.4598
  2.4920   2.5162   2.5250   2.5423   2.5591   2.5917   2.5955   2.6130
  2.6284   2.6508   2.6530   2.6573   2.6787   2.6840   2.6946   2.7200
  2.7431   2.7472   2.7667   2.7714   2.7808   2.7824   2.7989   2.8283
  2.8413   2.8471   2.8646   2.8814   2.8855   2.8992   2.9087   2.9191
  2.9373   2.9528   2.9726   2.9803   3.0010   3.0231   3.0335   3.0359
  3.0475   3.0651   3.0837   3.1096   3.1115   3.1212   3.1268   3.1361
  3.1462   3.1502   3.1630   3.1796   3.1841   3.1908   3.2052   3.2228
  3.2327   3.2431   3.2448   3.2603   3.2766   3.2909   3.2966   3.3001
  3.3186   3.3262   3.3367   3.3374   3.3425   3.3518   3.3605   3.3652
  3.3721   3.3793   3.3872   3.3943   3.4096   3.4179   3.4222   3.4257
  3.4382   3.4458   3.4545   3.4690   3.4807   3.4936   3.5042   3.5098
  3.5121   3.5289   3.5334   3.5379   3.5508   3.5590   3.5729   3.5834
  3.5951   3.6101   3.6196   3.6264   3.6311   3.6466   3.6578   3.6590
  3.6686   3.6795   3.6913   3.7063   3.7078   3.7133   3.7287   3.7403
  3.7478   3.7557   3.7594   3.7722   3.7852   3.7951   3.8058   3.8110
  3.8280   3.8351   3.8513   3.8686   3.8836   3.8891   3.9003   3.9053
  3.9235   3.9370   3.9475   3.9549   3.9728   3.9829   3.9997   4.0123
  4.0238   4.0337   4.0483   4.0537   4.0622   4.0842   4.0908   4.1101
  4.1177   4.1330   4.1477   4.1596   4.1656   4.1710   4.1787   4.1937
  4.2116   4.2191   4.2270   4.2431   4.2476   4.2571   4.2732   4.2848
  4.2884   4.2981   4.3096   4.3199   4.3420   4.3466   4.3651   4.3695
  4.3805   4.3841   4.3956   4.4021   4.4142   4.4236   4.4321   4.4458
  4.4576   4.4636   4.4763   4.4805   4.5040   4.5093   4.5192   4.5490
  4.5694   4.5741   4.6097   4.6260   4.6315   4.6401   4.6514   4.6646
  4.7027   4.7120   4.7288   4.7544   4.7678   4.7995   4.8254   4.8300
  4.8472   4.8801   4.8914   4.9111   4.9353   4.9499   4.9736   4.9807
  5.0176   5.0351   5.0679   5.0935   5.1101   5.1306   5.1545   5.1693
  5.1841   5.2123   5.2217   5.2616   5.2796   5.2872   5.3116   5.3158
  5.3478   5.3672   5.3785   5.3959   5.4030   5.4168   5.4426   5.4509
  5.4775   5.5092   5.5282   5.5393   5.5540   5.5602   5.5716   5.5812
  5.6207   5.6261   5.6456   5.6557   5.6773   5.7019   5.7109   5.7486
  5.7543   5.7875   5.8291   5.9408   5.9754   6.0396   6.1183   6.1441
  6.2047   6.2210   6.2257   6.2402   6.2495   6.2763   6.3055   6.3087
  6.3695   6.4820   9.3990  10.6296  12.0398  12.9009  13.1695  13.9433
 14.0403  14.2148  14.3373  14.5594
 --------------------------------------------------------------
 
          Ground-State Mulliken Net Atomic Charges

     Atom                 Charge (a.u.)
  ----------------------------------------
      1 C                    -0.073054
      2 C                    -0.327193
      3 C                    -0.042652
      4 H                     0.175938
      5 C                     0.097037
      6 S                    -0.173499
      7 C                    -0.268982
      8 H                     0.112197
      9 H                     0.101142
     10 H                     0.106638
     11 C                    -0.088409
     12 C                    -0.240752
     13 C                     0.035598
     14 H                     0.183572
     15 C                    -0.242565
     16 S                     0.012908
     17 C                    -0.271040
     18 H                     0.103105
     19 H                     0.107584
     20 H                     0.108234
     21 H                     0.199473
     22 H                     0.109452
     23 H                     0.110530
     24 H                     0.164736
  ----------------------------------------
  Sum of atomic charges =     0.000000

 -----------------------------------------------------------------
                    Cartesian Multipole Moments
 -----------------------------------------------------------------
    Charge (ESU x 10^10)
                -0.0000
    Dipole Moment (Debye)
         X      -1.5462      Y       0.7888      Z       0.3886
       Tot       1.7787
    Quadrupole Moments (Debye-Ang)
        XX     -90.3581     XY       6.8864     YY     -75.1674
        XZ       0.1337     YZ       2.9988     ZZ     -85.9289
    Octopole Moments (Debye-Ang^2)
       XXX     -74.6710    XXY      49.8489    XYY      -9.7559
       YYY     135.0998    XXZ      -4.0562    XYZ      -0.8276
       YYZ      -6.7399    XZZ     -18.4985    YZZ      60.0934
       ZZZ       2.3583
    Hexadecapole Moments (Debye-Ang^3)
      XXXX    -797.5155   XXXY    -127.2725   XXYY    -604.5968
      XYYY    -127.7731   YYYY   -2706.7253   XXXZ     -80.8420
      XXYZ     -25.2511   XYYZ     -30.3545   YYYZ    -104.5553
      XXZZ    -236.5484   XYZZ     -46.2062   YYZZ    -587.3067
      XZZZ     -86.9281   YZZZ     -98.3927   ZZZZ    -561.6164
 -----------------------------------------------------------------
 Total job time:  55.25s(wall), 1883.52s(cpu) 
 Fri Dec 15 14:22:41 2023

        *************************************************************
        *                                                           *
        *  Thank you very much for using Q-Chem.  Have a nice day.  *
        *                                                           *
        *************************************************************


0 sent ACK to 0 
now end server 0 ... 
cleanup process ... done
remove work dirs ./qchem168750.0 -- ./qchem168750.0
rm -rf ./qchem168750.0
rm -rf ./qchem168750
