You are running Q-Chem version: 5.4.0

#
# job setting
#
local host:  exp-9-54
current dir: /home/rramji/project-csd799/aromodel/p3ht-qchem/hydrogenated-rotation-run
input file:  Methylthiophene_Phi_30_Theta_140_Methylthiophene_Hydrogenated.qcin
output file: 
nprocs     : 1
nthreads   : 64
#
# qchem installation setting
#
QC:          /cm/shared/apps/spack/cpu/opt/spack/linux-centos8-zen2/gcc-10.2.0/qchem-5.4-akfmr7b3t57bfs6qan3padb2wnb2i7cl
QCAUX:       /cm/shared/apps/spack/cpu/opt/spack/linux-centos8-zen2/gcc-10.2.0/qchem-5.4-akfmr7b3t57bfs6qan3padb2wnb2i7cl/qcaux
QCPROG:      /cm/shared/apps/spack/cpu/opt/spack/linux-centos8-zen2/gcc-10.2.0/qchem-5.4-akfmr7b3t57bfs6qan3padb2wnb2i7cl/exe/qcprog.exe
QCPROG_S:    /cm/shared/apps/spack/cpu/opt/spack/linux-centos8-zen2/gcc-10.2.0/qchem-5.4-akfmr7b3t57bfs6qan3padb2wnb2i7cl/exe/qcprog.exe_s
PARALLEL:    -DPARALLEL
QCMPI:       mpich
#
# qchem directory setting
#
qcrun:       qchem3693098
QCSCRATCH:   .
QCLOCALSCR:  
QCTMPDIR:    .
QCFILEPREF:  ./qchem3693098
QCSAVEDIR:   
workdirs:    ./qchem3693098
workdir0:    ./qchem3693098
partmpdirs =  
#
# parallel setting
#
QCRSH:           ssh
QCMPI:           mpich
QCMPIRUN:        /cm/shared/apps/spack/cpu/opt/spack/linux-centos8-zen2/gcc-10.2.0/qchem-5.4-akfmr7b3t57bfs6qan3padb2wnb2i7cl/bin/mpi/mpirun_qchem
QCMACHINEFILE:   ./qchem3693098/hostfile
exp-9-54

#
# env setting
#
exported envs:   QC QCAUX QCSCRATCH QCRUNNAME QCFILEPREF QCPROG QCPROG_S GUIFILE

Running Job 1 of 1 Methylthiophene_Phi_30_Theta_140_Methylthiophene_Hydrogenated.qcin
qchem Methylthiophene_Phi_30_Theta_140_Methylthiophene_Hydrogenated.qcin_3693098.0 ./qchem3693098/ 1
/cm/shared/apps/spack/cpu/opt/spack/linux-centos8-zen2/gcc-10.2.0/qchem-5.4-akfmr7b3t57bfs6qan3padb2wnb2i7cl/bin/mpi/mpirun_qchem -machinefile ./qchem3693098/hostfile -np 1 /cm/shared/apps/spack/cpu/opt/spack/linux-centos8-zen2/gcc-10.2.0/qchem-5.4-akfmr7b3t57bfs6qan3padb2wnb2i7cl/exe/qcprog.exe Methylthiophene_Phi_30_Theta_140_Methylthiophene_Hydrogenated.qcin_3693098.0 ./qchem3693098/

Process 0 of 1 is on exp-9-54 - thread support 0
initial socket setup ...start
initial socket setup ...done 
now start server 0 ... 
                  Welcome to Q-Chem
     A Quantum Leap Into The Future Of Chemistry


 Q-Chem 5.4, Q-Chem, Inc., Pleasanton, CA (2021)

 License issued to: University of California, San Diego (site)

 E. Epifanovsky,  A. T. B. Gilbert,  Xintian Feng,  Joonho Lee,  Yuezhi Mao,  
 N. Mardirossian,  P. Pokhilko,  A. White,  M. Wormit,  M. P. Coons,  
 A. L. Dempwolff,  Zhengting Gan,  D. Hait,  P. R. Horn,  L. D. Jacobson,  
 I. Kaliman,  J. Kussmann,  A. W. Lange,  Ka Un Lao,  D. S. Levine,  Jie Liu,  
 S. C. McKenzie,  A. F. Morrison,  K. Nanda,  F. Plasser,  D. R. Rehn,  
 M. L. Vidal,  Zhi-Qiang You,  Ying Zhu,  B. Alam,  B. Albrecht,  
 A. Aldossary,  E. Alguire,  J. H. Andersen,  D. Barton,  K. Begam,  A. Behn,  
 Y. A. Bernard,  E. J. Berquist,  H. Burton,  A. Carreras,  K. Carter-Fenk,  
 R. Chakraborty,  A. D. Chien,  K. D. Closser,  V. Cofer-Shabica,  
 S. Dasgupta,  Jia Deng,  M. de Wergifosse,  M. Diedenhofen,  Hainam Do,  
 S. Ehlert,  Po-Tung Fang,  S. Fatehi,  Qingguo Feng,  J. Gayvert,  
 Qinghui Ge,  G. Gidofalvi,  M. Goldey,  J. Gomes,  C. Gonzalez-Espinoza,  
 S. Gulania,  A. Gunina,  M. W. D. Hanson-Heine,  P. H. P. Harbach,  
 A. W. Hauser,  M. F. Herbst,  M. Hernandez Vera,  M. Hodecker,  
 Z. C. Holden,  S. Houck,  Xunkun Huang,  Kerwin Hui,  B. C. Huynh,  
 M. Ivanov,  Hyunjun Ji,  Hanjie Jiang,  B. Kaduk,  S. Kaehler,  
 K. Khistyaev,  Jaehoon Kim,  P. Klunzinger,  Z. Koczor-Benda,  
 Joong Hoon Koh,  D. Kosenkov,  L. Koulias,  T. Kowalczyk,  C. M. Krauter,  
 K. Kue,  A. Kunitsa,  T. Kus,  A. Landau,  K. V. Lawler,  D. Lefrancois,  
 S. Lehtola,  Rain Li,  Yi-Pei Li,  Jiashu Liang,  M. Liebenthal,  
 Hung-Hsuan Lin,  You-Sheng Lin,  Fenglai Liu,  Kuan-Yu Liu,  
 M. Loipersberger,  A. Luenser,  A. Manjanath,  P. Manohar,  E. Mansoor,  
 S. F. Manzer,  Shan-Ping Mao,  A. V. Marenich,  T. Markovich,  S. Mason,  
 S. A. Maurer,  P. F. McLaughlin,  M. F. S. J. Menger,  J.-M. Mewes,  
 S. A. Mewes,  P. Morgante,  J. W. Mullinax,  T. S. Nguyen-Beck,  
 K. J. Oosterbaan,  G. Paran,  Alexander C. Paul,  Suranjan K. Paul,  
 F. Pavosevic,  Zheng Pei,  S. Prager,  E. I. Proynov,  E. Ramos,  B. Rana,  
 A. E. Rask,  A. Rettig,  R. M. Richard,  F. Rob,  E. Rossomme,  T. Scheele,  
 M. Scheurer,  M. Schneider,  N. Sergueev,  S. M. Sharada,  W. Skomorowski,  
 D. W. Small,  C. J. Stein,  Yu-Chuan Su,  E. J. Sundstrom,  Zhen Tao,  
 J. Thirman,  T. Tsuchimochi,  N. M. Tubman,  S. P. Veccham,  O. Vydrov,  
 J. Wenzel,  J. Witte,  A. Yamada,  Kun Yao,  S. Yeganeh,  S. R. Yost,  
 A. Zech,  Igor Ying Zhang,  Xing Zhang,  Yu Zhang,  D. Zuev,  
 A. Aspuru-Guzik,  A. T. Bell,  N. A. Besley,  K. B. Bravaya,  B. R. Brooks,  
 D. Casanova,  Jeng-Da Chai,  S. Coriani,  C. J. Cramer,  
 A. E. DePrince, III,  R. A. DiStasio Jr.,  A. Dreuw,  B. D. Dunietz,  
 T. R. Furlani,  W. A. Goddard III,  S. Grimme,  S. Hammes-Schiffer,  
 T. Head-Gordon,  W. J. Hehre,  Chao-Ping Hsu,  T.-C. Jagau,  Yousung Jung,  
 A. Klamt,  Jing Kong,  D. S. Lambrecht,  WanZhen Liang,  N. J. Mayhall,  
 C. W. McCurdy,  J. B. Neaton,  C. Ochsenfeld,  J. A. Parkhill,  R. Peverati,  
 V. A. Rassolov,  Yihan Shao,  L. V. Slipchenko,  T. Stauch,  R. P. Steele,  
 J. E. Subotnik,  A. J. W. Thom,  A. Tkatchenko,  D. G. Truhlar,  
 T. Van Voorhis,  T. A. Wesolowski,  K. B. Whaley,  H. L. Woodcock III,  
 P. M. Zimmerman,  S. Faraji,  P. M. W. Gill,  M. Head-Gordon,  
 J. M. Herbert,  A. I. Krylov

 Contributors to earlier versions of Q-Chem not listed above: 
 R. D. Adamson,  B. Austin,  R. Baer,  J. Baker,  G. J. O. Beran,  
 K. Brandhorst,  S. T. Brown,  E. F. C. Byrd,  A. K. Chakraborty,  
 G. K. L. Chan,  Chun-Min Chang,  Yunqing Chen,  C.-L. Cheng,  
 Siu Hung Chien,  D. M. Chipman,  D. L. Crittenden,  H. Dachsel,  
 R. J. Doerksen,  A. D. Dutoi,  R. G. Edgar,  J. Fosso-Tande,  
 L. Fusti-Molnar,  D. Ghosh,  A. Ghysels,  A. Golubeva-Zadorozhnaya,  
 J. Gonthier,  M. S. Gordon,  S. R. Gwaltney,  G. Hawkins,  J. E. Herr,  
 A. Heyden,  S. Hirata,  E. G. Hohenstein,  G. Kedziora,  F. J. Keil,  
 C. Kelley,  Jihan Kim,  R. A. King,  R. Z. Khaliullin,  P. P. Korambath,  
 W. Kurlancheek,  A. Laurent,  A. M. Lee,  M. S. Lee,  S. V. Levchenko,  
 Ching Yeh Lin,  D. Liotard,  E. Livshits,  R. C. Lochan,  I. Lotan,  
 L. A. Martinez-Martinez,  P. E. Maslen,  N. Nair,  D. P. O'Neill,  
 D. Neuhauser,  E. Neuscamman,  C. M. Oana,  R. Olivares-Amaya,  R. Olson,  
 T. M. Perrine,  B. Peters,  P. A. Pieniazek,  A. Prociuk,  Y. M. Rhee,  
 J. Ritchie,  M. A. Rohrdanz,  E. Rosta,  N. J. Russ,  H. F. Schaefer III,  
 M. W. Schmidt,  N. E. Schultz,  S. Sharma,  N. Shenvi,  C. D. Sherrill,  
 A. C. Simmonett,  A. Sodt,  T. Stein,  D. Stuck,  K. S. Thanthiriwatte,  
 V. Vanovschi,  L. Vogt,  Tao Wang,  A. Warshel,  M. A. Watson,  
 C. F. Williams,  Q. Wu,  X. Xu,  Jun Yang,  W. Zhang,  Yan Zhao

 Please cite Q-Chem as follows:
 Y. Shao et al., Mol. Phys. 113, 184-215 (2015)
 DOI: 10.1080/00268976.2014.952696

 Q-Chem 5.4.0 for Intel X86 EM64T Linux

 Parts of Q-Chem use Armadillo 9.800.1 (Horizon Scraper).
 http://arma.sourceforge.net/

 Q-Chem begins on Fri Dec 15 14:07:55 2023  

 Host: 
0

     Scratch files written to ./qchem3693098//
 May1621 |scratch|qcdevops|jenkins|workspace|build_RNUM    
 Parallel job on  1  processors
 Processing $rem in /cm/shared/apps/spack/cpu/opt/spack/linux-centos8-zen2/gcc-10.2.0/qchem-5.4-akfmr7b3t57bfs6qan3padb2wnb2i7cl/config/preferences:
 Processing $rem in /home/rramji/.qchemrc:
 Symmetry turned off for PCM/SM12/SMD calculation
 Core orbitals will be frozen

 Checking the input file for inconsistencies... 	...done.

 Q-Chem warning in module forms1/BasisType.C, line 2236:

 You are not using the predefined 5D/6D in this basis set.


--------------------------------------------------------------
User input:
--------------------------------------------------------------
$molecule
0 1
C	-0.464838	-3.887800	-0.555670
C	0.425760	-3.701456	0.505790
C	0.697866	-2.345170	0.831053
H	0.879984	-4.545233	1.046496
C	0.000000	-1.450135	0.000000
S	-0.981588	-2.321334	-1.170382
C	1.627381	-1.934439	1.939074
H	2.055015	-2.819799	2.448051
H	1.107991	-1.326210	2.708853
H	2.475210	-1.325374	1.561590
C	0.000000	0.000000	0.000000
C	0.419634	0.732990	1.113020
C	1.111057	1.939951	0.820578
H	0.226746	0.396221	2.142881
C	1.234565	2.155183	-0.563588
S	0.482106	0.842416	-1.464748
C	1.640257	2.863718	1.882380
H	1.417524	2.475067	2.894974
H	1.192042	3.876565	1.808137
H	2.740717	2.989259	1.808230
H	1.710720	2.986508	-1.097114
H	-1.367361	-4.420219	-0.235206
H	0.007834	-4.419395	-1.389159
H	-0.827319	-1.450628	0.694221
$end

$rem
JOBTYPE		SP
EXCHANGE	HF
CORRELATION	pRIMP2
BASIS		cc-pvtz
METHOD		rimp2
AUX_BASIS	rimp2-cc-pvtz
SOLVENT_METHOD	PCM
PURECART	11111
SYMMETRY	false
MEM_TOTAL	110000
SCF_CONVERGENCE = 6
THRESH=10
GUI = 2
$end



$solvent
dielectric 4.90
$end
--------------------------------------------------------------
 ----------------------------------------------------------------
             Standard Nuclear Orientation (Angstroms)
    I     Atom           X                Y                Z
 ----------------------------------------------------------------
    1      C      -0.4648380000    -3.8878000000    -0.5556700000
    2      C       0.4257600000    -3.7014560000     0.5057900000
    3      C       0.6978660000    -2.3451700000     0.8310530000
    4      H       0.8799840000    -4.5452330000     1.0464960000
    5      C       0.0000000000    -1.4501350000     0.0000000000
    6      S      -0.9815880000    -2.3213340000    -1.1703820000
    7      C       1.6273810000    -1.9344390000     1.9390740000
    8      H       2.0550150000    -2.8197990000     2.4480510000
    9      H       1.1079910000    -1.3262100000     2.7088530000
   10      H       2.4752100000    -1.3253740000     1.5615900000
   11      C       0.0000000000     0.0000000000     0.0000000000
   12      C       0.4196340000     0.7329900000     1.1130200000
   13      C       1.1110570000     1.9399510000     0.8205780000
   14      H       0.2267460000     0.3962210000     2.1428810000
   15      C       1.2345650000     2.1551830000    -0.5635880000
   16      S       0.4821060000     0.8424160000    -1.4647480000
   17      C       1.6402570000     2.8637180000     1.8823800000
   18      H       1.4175240000     2.4750670000     2.8949740000
   19      H       1.1920420000     3.8765650000     1.8081370000
   20      H       2.7407170000     2.9892590000     1.8082300000
   21      H       1.7107200000     2.9865080000    -1.0971140000
   22      H      -1.3673610000    -4.4202190000    -0.2352060000
   23      H       0.0078340000    -4.4193950000    -1.3891590000
   24      H      -0.8273190000    -1.4506280000     0.6942210000
 ----------------------------------------------------------------
 Nuclear Repulsion Energy =         880.32039753 hartrees
 There are       52 alpha and       52 beta electrons
 Requested basis set is cc-pVTZ
 There are 196 shells and 536 basis functions

 Total QAlloc Memory Limit 110000 MB
 Mega-Array Size       188 MB
 MEM_STATIC part       192 MB
 Discretize the solute cavity surface with Lebedev spheres
	Using 110 Lebedev grid points for each H atom
	Using 194 Lebedev grid points for other atoms
	Atomic van der Waals radii will be scaled by 1.20
 Remove points where switching function is < 1.0e-08
 Keep 1570 surface tesserae and discard 2078 interior tesserae
 Molecular Surface Area = 232.255 Angst**2
 Requested basis set is rimp2-cc-pVTZ
 There are 414 shells and 1414 basis functions
 A cutoff of  1.0D-10 yielded  14327 shell pairs
 There are    104001 function pairs (    133320 Cartesian)
 Smallest overlap matrix eigenvalue = 5.52E-05

 Scale SEOQF with 1.000000e-01/1.000000e-01/1.000000e-01

 Standard Electronic Orientation quadrupole field applied
 Nucleus-field energy     =     0.0000000260 hartrees
 Guess from superposition of atomic densities
 Warning:  Energy on first SCF cycle will be non-variational
 SAD guess density has 104.000000 electrons

 -----------------------------------------------------------------------
  General SCF calculation program by
  Eric Jon Sundstrom, Paul Horn, Yuezhi Mao, Dmitri Zuev, Alec White,
  David Stuck, Shaama M.S., Shane Yost, Joonho Lee, David Small,
  Daniel Levine, Susi Lehtola, Hugh Burton, Evgeny Epifanovsky,
  Bang C. Huynh
 -----------------------------------------------------------------------
 Hartree-Fock
 using 64 threads for integral computing
 -------------------------------------------------------
 OpenMP Integral computing Module                
 Release: version 1.0, May 2013, Q-Chem Inc. Pittsburgh 
 -------------------------------------------------------
 A restricted SCF calculation will be
 performed using DIIS
 SCF converges when DIIS error is below 1.0e-06
 ---------------------------------------
  Cycle       Energy         DIIS error
 ---------------------------------------
    1   -1186.0466246175      2.39e-02  
    2   -1180.5965354713      1.55e-03  
    3   -1180.7217983171      5.90e-04  
    4   -1180.7356938464      3.24e-04  
    5   -1180.7405250330      6.07e-05  
    6   -1180.7407734219      2.45e-05  
    7   -1180.7408327923      9.36e-06  
    8   -1180.7408466813      4.37e-06  
    9   -1180.7408500637      1.69e-06  
   10   -1180.7408506522      6.12e-07  Convergence criterion met
 ---------------------------------------
 SCF time:   CPU 1676.03s  wall 49.00s 

************** Final PCM Free Energy Summary **************
 G_electrostatic  =      -0.00985966 hartree =      -6.18703259 kcal/mol
 G_cavitation     =       0.00000000 hartree =       0.00000000 kcal/mol
 G_dispersion     =       0.00000000 hartree =       0.00000000 kcal/mol
 G_repulsion      =       0.00000000 hartree =       0.00000000 kcal/mol
 --------------------------------------------------
 Non-electrostatic Free Energy =       0.00000000 hartree =       0.00000000 kcal/mol
 Total                         =      -0.00985966 hartree =      -6.18703259 kcal/mol
 --------------------------------------------------
 SCF Energy (H0 + V/2)                       =   -1180.74085065 
 Solute Internal Energy (H0)                 =   -1180.73099099 
 Total Free Energy (H0 + V/2 + non-elec)     =   -1180.74085065 hartree
                                             = -740926.06658087 kcal/mol
***********************************************************

 SCF   energy in the final basis set =    -1180.7408506522
 Total energy in the final basis set =    -1180.7408506522


 --------------------------------------------------------------
  Generalized many-body perturbation theory program
  by Joonho Lee, Fazle Rob, Xintian Feng, Evgeny Epifanovsky

 No regularization used 
 (reg. param. = 0.0000e+00)
  (P|Q)^-1/2 Time:  CPU 20.92 s  wall 0.33 s

 In RI-MP2 calculation: 
 # of frozen core orbitals: 20

 Components of the RIMP2 correlation energy:
        aaaa    correlation energy =        -0.2525370481 a.u.
        abab    correlation energy =        -1.5069108031 a.u.
        bbbb    correlation energy =        -0.2525370481 a.u.
        non-Brillouin singles      =        -0.0000000000 a.u.
        total same-spin energy     =        -0.5050740963 a.u.
        total opposite-spin energy =        -1.5069108031 a.u.

 Total  RIMP2   correlation energy =        -2.0119848993 a.u.
        RIMP2         total energy =     -1182.7528355516 a.u.

 RI-MP2 Energy Time:  CPU 167.65 s  wall 2.95 s
 
 --------------------------------------------------------------
 
                    Orbital Energies (a.u.)
 --------------------------------------------------------------
 
 Alpha MOs
 -- Occupied --
-91.9799 -91.9420 -11.2773 -11.2662 -11.2634 -11.2563 -11.2516 -11.2421
-11.2416 -11.2314 -11.2298 -11.2195  -8.9800  -8.9466  -6.6609  -6.6602
 -6.6597  -6.6281  -6.6271  -6.6258  -1.1993  -1.1536  -1.0576  -1.0282
 -1.0023  -0.9623  -0.9130  -0.9012  -0.8140  -0.7600  -0.7310  -0.7088
 -0.6551  -0.6438  -0.6116  -0.5915  -0.5880  -0.5709  -0.5590  -0.5537
 -0.5407  -0.5318  -0.5208  -0.5070  -0.4834  -0.4733  -0.4623  -0.4457
 -0.3559  -0.3414  -0.3216  -0.2694
 -- Virtual --
  0.0887   0.1295   0.1440   0.1477   0.1575   0.1698   0.1752   0.1839
  0.1943   0.1951   0.2038   0.2167   0.2226   0.2330   0.2425   0.2435
  0.2526   0.2674   0.2788   0.2966   0.3156   0.3363   0.3446   0.3510
  0.3654   0.3749   0.3801   0.3935   0.4051   0.4125   0.4159   0.4255
  0.4352   0.4484   0.4552   0.4613   0.4692   0.4776   0.4843   0.4877
  0.4972   0.5000   0.5208   0.5261   0.5388   0.5410   0.5457   0.5562
  0.5669   0.5782   0.5844   0.5952   0.6031   0.6054   0.6124   0.6184
  0.6205   0.6243   0.6363   0.6395   0.6408   0.6471   0.6566   0.6589
  0.6640   0.6730   0.6834   0.6934   0.6983   0.7109   0.7189   0.7298
  0.7383   0.7479   0.7658   0.7710   0.7854   0.7870   0.8052   0.8125
  0.8296   0.8409   0.8509   0.8604   0.8729   0.8933   0.9074   0.9231
  0.9320   0.9410   0.9456   0.9600   0.9777   0.9881   0.9968   1.0162
  1.0180   1.0274   1.0421   1.0462   1.0566   1.0604   1.0699   1.0842
  1.0912   1.1027   1.1245   1.1308   1.1370   1.1648   1.1692   1.1768
  1.1850   1.1942   1.1970   1.2096   1.2198   1.2256   1.2387   1.2422
  1.2576   1.2646   1.2694   1.2823   1.2899   1.2981   1.3100   1.3231
  1.3275   1.3387   1.3557   1.3714   1.3773   1.3837   1.3880   1.4142
  1.4261   1.4339   1.4485   1.4579   1.4682   1.4796   1.4871   1.4992
  1.5065   1.5093   1.5194   1.5308   1.5363   1.5457   1.5527   1.5602
  1.5761   1.5785   1.5929   1.6021   1.6139   1.6242   1.6374   1.6487
  1.6557   1.6632   1.6846   1.7019   1.7069   1.7232   1.7352   1.7391
  1.7507   1.7562   1.7711   1.7947   1.8007   1.8404   1.8522   1.8821
  1.9029   1.9225   1.9344   1.9522   1.9620   1.9627   1.9861   2.0007
  2.0162   2.0368   2.0518   2.0581   2.0932   2.1250   2.1322   2.1704
  2.1850   2.1903   2.2145   2.2250   2.2432   2.2547   2.2605   2.2755
  2.2854   2.3035   2.3160   2.3410   2.4055   2.4432   2.4480   2.4704
  2.4943   2.5180   2.5433   2.5771   2.5852   2.5943   2.5966   2.6174
  2.6388   2.6460   2.6632   2.6672   2.6783   2.6864   2.7193   2.7301
  2.7386   2.7604   2.7642   2.7757   2.7803   2.8004   2.8094   2.8271
  2.8336   2.8584   2.8635   2.8708   2.8917   2.9056   2.9168   2.9360
  2.9541   2.9654   2.9831   2.9927   3.0138   3.0195   3.0298   3.0460
  3.0493   3.0678   3.0962   3.1014   3.1120   3.1243   3.1322   3.1410
  3.1627   3.1656   3.1695   3.1810   3.1877   3.1987   3.2054   3.2175
  3.2242   3.2484   3.2528   3.2648   3.2768   3.2808   3.2923   3.2978
  3.3079   3.3247   3.3307   3.3351   3.3410   3.3504   3.3584   3.3633
  3.3704   3.3846   3.3885   3.3963   3.4101   3.4219   3.4281   3.4287
  3.4429   3.4496   3.4577   3.4611   3.4840   3.4876   3.4988   3.5099
  3.5179   3.5303   3.5408   3.5434   3.5525   3.5643   3.5729   3.5773
  3.5959   3.6109   3.6128   3.6276   3.6330   3.6412   3.6515   3.6662
  3.6814   3.6892   3.7030   3.7137   3.7237   3.7339   3.7388   3.7511
  3.7564   3.7693   3.7722   3.7792   3.7977   3.7981   3.8141   3.8217
  3.8277   3.8525   3.8571   3.8746   3.8837   3.8982   3.9113   3.9192
  3.9378   3.9491   3.9635   3.9673   3.9727   3.9930   4.0014   4.0211
  4.0330   4.0416   4.0483   4.0592   4.0773   4.0896   4.0984   4.1117
  4.1222   4.1437   4.1456   4.1583   4.1734   4.1838   4.1997   4.2062
  4.2104   4.2291   4.2352   4.2477   4.2528   4.2661   4.2693   4.2910
  4.2980   4.3101   4.3148   4.3353   4.3527   4.3615   4.3730   4.3777
  4.3797   4.3998   4.4049   4.4121   4.4188   4.4414   4.4452   4.4594
  4.4613   4.4707   4.4989   4.5058   4.5185   4.5386   4.5413   4.5568
  4.5919   4.5973   4.6125   4.6404   4.6491   4.6556   4.6778   4.6858
  4.6926   4.7308   4.7383   4.7630   4.7730   4.8060   4.8228   4.8554
  4.8641   4.8779   4.8993   4.9204   4.9362   4.9542   4.9639   4.9752
  5.0421   5.0688   5.0852   5.1039   5.1163   5.1232   5.1312   5.1799
  5.2025   5.2131   5.2383   5.2597   5.2770   5.2925   5.3095   5.3185
  5.3414   5.3662   5.3810   5.4054   5.4116   5.4169   5.4385   5.4496
  5.4642   5.5104   5.5207   5.5363   5.5568   5.5699   5.5772   5.5967
  5.6168   5.6258   5.6440   5.6525   5.6692   5.7044   5.7139   5.7552
  5.7645   5.7880   5.8236   5.9930   6.0393   6.0509   6.1354   6.1578
  6.2037   6.2304   6.2392   6.2402   6.2555   6.2915   6.2980   6.3128
  6.4115   6.5127   9.3540  10.5201  12.1124  12.9210  13.1453  13.9633
 14.0892  14.2085  14.4078  14.9240
 --------------------------------------------------------------
 
          Ground-State Mulliken Net Atomic Charges

     Atom                 Charge (a.u.)
  ----------------------------------------
      1 C                    -0.072133
      2 C                    -0.323380
      3 C                    -0.062735
      4 H                     0.178792
      5 C                     0.105584
      6 S                    -0.181472
      7 C                    -0.286720
      8 H                     0.120128
      9 H                     0.095839
     10 H                     0.116435
     11 C                    -0.049266
     12 C                    -0.295785
     13 C                     0.046623
     14 H                     0.192579
     15 C                    -0.241852
     16 S                     0.012565
     17 C                    -0.271524
     18 H                     0.101638
     19 H                     0.109497
     20 H                     0.107932
     21 H                     0.197068
     22 H                     0.109541
     23 H                     0.110599
     24 H                     0.180046
  ----------------------------------------
  Sum of atomic charges =     0.000000

 -----------------------------------------------------------------
                    Cartesian Multipole Moments
 -----------------------------------------------------------------
    Charge (ESU x 10^10)
                -0.0000
    Dipole Moment (Debye)
         X       1.9153      Y       0.3545      Z       3.9990
       Tot       4.4482
    Quadrupole Moments (Debye-Ang)
        XX     -88.7489     XY       3.4970     YY     -76.3398
        XZ       0.7787     YZ      -2.6404     ZZ     -86.2443
    Octopole Moments (Debye-Ang^2)
       XXX    -105.6856    XXY      61.5225    XYY     -22.8917
       YYY     139.9438    XXZ      -1.6190    XYZ      -3.2258
       YYZ      -4.0691    XZZ     -28.7133    YZZ      61.9054
       ZZZ      -1.8176
    Hexadecapole Moments (Debye-Ang^3)
      XXXX    -617.8794   XXXY    -207.8531   XXYY    -555.0730
      XYYY    -170.2256   YYYY   -2591.3586   XXXZ    -189.8859
      XXYZ     -42.4701   XYYZ     -54.8473   YYYZ     -94.3513
      XXZZ    -246.5156   XYZZ     -73.3303   YYZZ    -607.4924
      XZZZ    -188.6064   YZZZ     -98.1850   ZZZZ    -886.7710
 -----------------------------------------------------------------
 Total job time:  54.13s(wall), 1910.78s(cpu) 
 Fri Dec 15 14:08:50 2023

        *************************************************************
        *                                                           *
        *  Thank you very much for using Q-Chem.  Have a nice day.  *
        *                                                           *
        *************************************************************


0 sent ACK to 0 
now end server 0 ... 
cleanup process ... done
remove work dirs ./qchem3693098.0 -- ./qchem3693098.0
rm -rf ./qchem3693098.0
rm -rf ./qchem3693098
