You are running Q-Chem version: 5.4.0

#
# job setting
#
local host:  exp-8-02
current dir: /home/rramji/project-csd799/aromodel/p3ht-qchem/hydrogenated-rotation-run
input file:  Methylthiophene_Phi_20_Theta_190_Methylthiophene_Hydrogenated.qcin
output file: 
nprocs     : 1
nthreads   : 64
#
# qchem installation setting
#
QC:          /cm/shared/apps/spack/cpu/opt/spack/linux-centos8-zen2/gcc-10.2.0/qchem-5.4-akfmr7b3t57bfs6qan3padb2wnb2i7cl
QCAUX:       /cm/shared/apps/spack/cpu/opt/spack/linux-centos8-zen2/gcc-10.2.0/qchem-5.4-akfmr7b3t57bfs6qan3padb2wnb2i7cl/qcaux
QCPROG:      /cm/shared/apps/spack/cpu/opt/spack/linux-centos8-zen2/gcc-10.2.0/qchem-5.4-akfmr7b3t57bfs6qan3padb2wnb2i7cl/exe/qcprog.exe
QCPROG_S:    /cm/shared/apps/spack/cpu/opt/spack/linux-centos8-zen2/gcc-10.2.0/qchem-5.4-akfmr7b3t57bfs6qan3padb2wnb2i7cl/exe/qcprog.exe_s
PARALLEL:    -DPARALLEL
QCMPI:       mpich
#
# qchem directory setting
#
qcrun:       qchem166064
QCSCRATCH:   .
QCLOCALSCR:  
QCTMPDIR:    .
QCFILEPREF:  ./qchem166064
QCSAVEDIR:   
workdirs:    ./qchem166064
workdir0:    ./qchem166064
partmpdirs =  
#
# parallel setting
#
QCRSH:           ssh
QCMPI:           mpich
QCMPIRUN:        /cm/shared/apps/spack/cpu/opt/spack/linux-centos8-zen2/gcc-10.2.0/qchem-5.4-akfmr7b3t57bfs6qan3padb2wnb2i7cl/bin/mpi/mpirun_qchem
QCMACHINEFILE:   ./qchem166064/hostfile
exp-8-02

#
# env setting
#
exported envs:   QC QCAUX QCSCRATCH QCRUNNAME QCFILEPREF QCPROG QCPROG_S GUIFILE

Running Job 1 of 1 Methylthiophene_Phi_20_Theta_190_Methylthiophene_Hydrogenated.qcin
qchem Methylthiophene_Phi_20_Theta_190_Methylthiophene_Hydrogenated.qcin_166064.0 ./qchem166064/ 1
/cm/shared/apps/spack/cpu/opt/spack/linux-centos8-zen2/gcc-10.2.0/qchem-5.4-akfmr7b3t57bfs6qan3padb2wnb2i7cl/bin/mpi/mpirun_qchem -machinefile ./qchem166064/hostfile -np 1 /cm/shared/apps/spack/cpu/opt/spack/linux-centos8-zen2/gcc-10.2.0/qchem-5.4-akfmr7b3t57bfs6qan3padb2wnb2i7cl/exe/qcprog.exe Methylthiophene_Phi_20_Theta_190_Methylthiophene_Hydrogenated.qcin_166064.0 ./qchem166064/

Process 0 of 1 is on exp-8-02 - thread support 0
initial socket setup ...start
initial socket setup ...done 
now start server 0 ... 
                  Welcome to Q-Chem
     A Quantum Leap Into The Future Of Chemistry


 Q-Chem 5.4, Q-Chem, Inc., Pleasanton, CA (2021)

 License issued to: University of California, San Diego (site)

 E. Epifanovsky,  A. T. B. Gilbert,  Xintian Feng,  Joonho Lee,  Yuezhi Mao,  
 N. Mardirossian,  P. Pokhilko,  A. White,  M. Wormit,  M. P. Coons,  
 A. L. Dempwolff,  Zhengting Gan,  D. Hait,  P. R. Horn,  L. D. Jacobson,  
 I. Kaliman,  J. Kussmann,  A. W. Lange,  Ka Un Lao,  D. S. Levine,  Jie Liu,  
 S. C. McKenzie,  A. F. Morrison,  K. Nanda,  F. Plasser,  D. R. Rehn,  
 M. L. Vidal,  Zhi-Qiang You,  Ying Zhu,  B. Alam,  B. Albrecht,  
 A. Aldossary,  E. Alguire,  J. H. Andersen,  D. Barton,  K. Begam,  A. Behn,  
 Y. A. Bernard,  E. J. Berquist,  H. Burton,  A. Carreras,  K. Carter-Fenk,  
 R. Chakraborty,  A. D. Chien,  K. D. Closser,  V. Cofer-Shabica,  
 S. Dasgupta,  Jia Deng,  M. de Wergifosse,  M. Diedenhofen,  Hainam Do,  
 S. Ehlert,  Po-Tung Fang,  S. Fatehi,  Qingguo Feng,  J. Gayvert,  
 Qinghui Ge,  G. Gidofalvi,  M. Goldey,  J. Gomes,  C. Gonzalez-Espinoza,  
 S. Gulania,  A. Gunina,  M. W. D. Hanson-Heine,  P. H. P. Harbach,  
 A. W. Hauser,  M. F. Herbst,  M. Hernandez Vera,  M. Hodecker,  
 Z. C. Holden,  S. Houck,  Xunkun Huang,  Kerwin Hui,  B. C. Huynh,  
 M. Ivanov,  Hyunjun Ji,  Hanjie Jiang,  B. Kaduk,  S. Kaehler,  
 K. Khistyaev,  Jaehoon Kim,  P. Klunzinger,  Z. Koczor-Benda,  
 Joong Hoon Koh,  D. Kosenkov,  L. Koulias,  T. Kowalczyk,  C. M. Krauter,  
 K. Kue,  A. Kunitsa,  T. Kus,  A. Landau,  K. V. Lawler,  D. Lefrancois,  
 S. Lehtola,  Rain Li,  Yi-Pei Li,  Jiashu Liang,  M. Liebenthal,  
 Hung-Hsuan Lin,  You-Sheng Lin,  Fenglai Liu,  Kuan-Yu Liu,  
 M. Loipersberger,  A. Luenser,  A. Manjanath,  P. Manohar,  E. Mansoor,  
 S. F. Manzer,  Shan-Ping Mao,  A. V. Marenich,  T. Markovich,  S. Mason,  
 S. A. Maurer,  P. F. McLaughlin,  M. F. S. J. Menger,  J.-M. Mewes,  
 S. A. Mewes,  P. Morgante,  J. W. Mullinax,  T. S. Nguyen-Beck,  
 K. J. Oosterbaan,  G. Paran,  Alexander C. Paul,  Suranjan K. Paul,  
 F. Pavosevic,  Zheng Pei,  S. Prager,  E. I. Proynov,  E. Ramos,  B. Rana,  
 A. E. Rask,  A. Rettig,  R. M. Richard,  F. Rob,  E. Rossomme,  T. Scheele,  
 M. Scheurer,  M. Schneider,  N. Sergueev,  S. M. Sharada,  W. Skomorowski,  
 D. W. Small,  C. J. Stein,  Yu-Chuan Su,  E. J. Sundstrom,  Zhen Tao,  
 J. Thirman,  T. Tsuchimochi,  N. M. Tubman,  S. P. Veccham,  O. Vydrov,  
 J. Wenzel,  J. Witte,  A. Yamada,  Kun Yao,  S. Yeganeh,  S. R. Yost,  
 A. Zech,  Igor Ying Zhang,  Xing Zhang,  Yu Zhang,  D. Zuev,  
 A. Aspuru-Guzik,  A. T. Bell,  N. A. Besley,  K. B. Bravaya,  B. R. Brooks,  
 D. Casanova,  Jeng-Da Chai,  S. Coriani,  C. J. Cramer,  
 A. E. DePrince, III,  R. A. DiStasio Jr.,  A. Dreuw,  B. D. Dunietz,  
 T. R. Furlani,  W. A. Goddard III,  S. Grimme,  S. Hammes-Schiffer,  
 T. Head-Gordon,  W. J. Hehre,  Chao-Ping Hsu,  T.-C. Jagau,  Yousung Jung,  
 A. Klamt,  Jing Kong,  D. S. Lambrecht,  WanZhen Liang,  N. J. Mayhall,  
 C. W. McCurdy,  J. B. Neaton,  C. Ochsenfeld,  J. A. Parkhill,  R. Peverati,  
 V. A. Rassolov,  Yihan Shao,  L. V. Slipchenko,  T. Stauch,  R. P. Steele,  
 J. E. Subotnik,  A. J. W. Thom,  A. Tkatchenko,  D. G. Truhlar,  
 T. Van Voorhis,  T. A. Wesolowski,  K. B. Whaley,  H. L. Woodcock III,  
 P. M. Zimmerman,  S. Faraji,  P. M. W. Gill,  M. Head-Gordon,  
 J. M. Herbert,  A. I. Krylov

 Contributors to earlier versions of Q-Chem not listed above: 
 R. D. Adamson,  B. Austin,  R. Baer,  J. Baker,  G. J. O. Beran,  
 K. Brandhorst,  S. T. Brown,  E. F. C. Byrd,  A. K. Chakraborty,  
 G. K. L. Chan,  Chun-Min Chang,  Yunqing Chen,  C.-L. Cheng,  
 Siu Hung Chien,  D. M. Chipman,  D. L. Crittenden,  H. Dachsel,  
 R. J. Doerksen,  A. D. Dutoi,  R. G. Edgar,  J. Fosso-Tande,  
 L. Fusti-Molnar,  D. Ghosh,  A. Ghysels,  A. Golubeva-Zadorozhnaya,  
 J. Gonthier,  M. S. Gordon,  S. R. Gwaltney,  G. Hawkins,  J. E. Herr,  
 A. Heyden,  S. Hirata,  E. G. Hohenstein,  G. Kedziora,  F. J. Keil,  
 C. Kelley,  Jihan Kim,  R. A. King,  R. Z. Khaliullin,  P. P. Korambath,  
 W. Kurlancheek,  A. Laurent,  A. M. Lee,  M. S. Lee,  S. V. Levchenko,  
 Ching Yeh Lin,  D. Liotard,  E. Livshits,  R. C. Lochan,  I. Lotan,  
 L. A. Martinez-Martinez,  P. E. Maslen,  N. Nair,  D. P. O'Neill,  
 D. Neuhauser,  E. Neuscamman,  C. M. Oana,  R. Olivares-Amaya,  R. Olson,  
 T. M. Perrine,  B. Peters,  P. A. Pieniazek,  A. Prociuk,  Y. M. Rhee,  
 J. Ritchie,  M. A. Rohrdanz,  E. Rosta,  N. J. Russ,  H. F. Schaefer III,  
 M. W. Schmidt,  N. E. Schultz,  S. Sharma,  N. Shenvi,  C. D. Sherrill,  
 A. C. Simmonett,  A. Sodt,  T. Stein,  D. Stuck,  K. S. Thanthiriwatte,  
 V. Vanovschi,  L. Vogt,  Tao Wang,  A. Warshel,  M. A. Watson,  
 C. F. Williams,  Q. Wu,  X. Xu,  Jun Yang,  W. Zhang,  Yan Zhao

 Please cite Q-Chem as follows:
 Y. Shao et al., Mol. Phys. 113, 184-215 (2015)
 DOI: 10.1080/00268976.2014.952696

 Q-Chem 5.4.0 for Intel X86 EM64T Linux

 Parts of Q-Chem use Armadillo 9.800.1 (Horizon Scraper).
 http://arma.sourceforge.net/

 Q-Chem begins on Fri Dec 15 14:12:45 2023  

 Host: 
0

     Scratch files written to ./qchem166064//
 May1621 |scratch|qcdevops|jenkins|workspace|build_RNUM    
 Parallel job on  1  processors
 Processing $rem in /cm/shared/apps/spack/cpu/opt/spack/linux-centos8-zen2/gcc-10.2.0/qchem-5.4-akfmr7b3t57bfs6qan3padb2wnb2i7cl/config/preferences:
 Processing $rem in /home/rramji/.qchemrc:
 Symmetry turned off for PCM/SM12/SMD calculation
 Core orbitals will be frozen

 Checking the input file for inconsistencies... 	...done.

 Q-Chem warning in module forms1/BasisType.C, line 2236:

 You are not using the predefined 5D/6D in this basis set.


--------------------------------------------------------------
User input:
--------------------------------------------------------------
$molecule
0 1
C	0.126876	-3.887800	-0.713264
C	-0.113784	-3.701456	0.651267
C	-0.188043	-2.345170	1.068787
H	-0.236019	-4.545233	1.346782
C	0.000000	-1.450135	0.000000
S	0.265612	-2.321334	-1.504247
C	-0.439357	-1.934439	2.493059
H	-0.554378	-2.819799	3.147809
H	-1.362899	-1.326210	2.589987
H	0.394786	-1.325374	2.899892
C	0.000000	0.000000	0.000000
C	0.285976	0.794723	1.113020
C	0.757308	2.103412	0.820578
H	0.154498	0.429575	2.142881
C	0.841565	2.336821	-0.563588
S	0.328498	0.913334	-1.464748
C	1.118059	3.105040	1.882380
H	0.966197	2.683616	2.894974
H	0.500773	4.024668	1.808137
H	2.180000	3.419766	1.808230
H	1.166129	3.238200	-1.097114
H	-0.698744	-4.420219	-1.198647
H	1.069193	-4.419395	-0.886933
H	-1.063595	-1.450628	-0.187526
$end

$rem
JOBTYPE		SP
EXCHANGE	HF
CORRELATION	pRIMP2
BASIS		cc-pvtz
METHOD		rimp2
AUX_BASIS	rimp2-cc-pvtz
SOLVENT_METHOD	PCM
PURECART	11111
SYMMETRY	false
MEM_TOTAL	110000
SCF_CONVERGENCE = 6
THRESH=10
GUI = 2
$end



$solvent
dielectric 4.90
$end
--------------------------------------------------------------
 ----------------------------------------------------------------
             Standard Nuclear Orientation (Angstroms)
    I     Atom           X                Y                Z
 ----------------------------------------------------------------
    1      C       0.1268760000    -3.8878000000    -0.7132640000
    2      C      -0.1137840000    -3.7014560000     0.6512670000
    3      C      -0.1880430000    -2.3451700000     1.0687870000
    4      H      -0.2360190000    -4.5452330000     1.3467820000
    5      C       0.0000000000    -1.4501350000     0.0000000000
    6      S       0.2656120000    -2.3213340000    -1.5042470000
    7      C      -0.4393570000    -1.9344390000     2.4930590000
    8      H      -0.5543780000    -2.8197990000     3.1478090000
    9      H      -1.3628990000    -1.3262100000     2.5899870000
   10      H       0.3947860000    -1.3253740000     2.8998920000
   11      C       0.0000000000     0.0000000000     0.0000000000
   12      C       0.2859760000     0.7947230000     1.1130200000
   13      C       0.7573080000     2.1034120000     0.8205780000
   14      H       0.1544980000     0.4295750000     2.1428810000
   15      C       0.8415650000     2.3368210000    -0.5635880000
   16      S       0.3284980000     0.9133340000    -1.4647480000
   17      C       1.1180590000     3.1050400000     1.8823800000
   18      H       0.9661970000     2.6836160000     2.8949740000
   19      H       0.5007730000     4.0246680000     1.8081370000
   20      H       2.1800000000     3.4197660000     1.8082300000
   21      H       1.1661290000     3.2382000000    -1.0971140000
   22      H      -0.6987440000    -4.4202190000    -1.1986470000
   23      H       1.0691930000    -4.4193950000    -0.8869330000
   24      H      -1.0635950000    -1.4506280000    -0.1875260000
 ----------------------------------------------------------------
 Nuclear Repulsion Energy =         877.65937991 hartrees
 There are       52 alpha and       52 beta electrons
 Requested basis set is cc-pVTZ
 There are 196 shells and 536 basis functions

 Total QAlloc Memory Limit 110000 MB
 Mega-Array Size       188 MB
 MEM_STATIC part       192 MB
 Discretize the solute cavity surface with Lebedev spheres
	Using 110 Lebedev grid points for each H atom
	Using 194 Lebedev grid points for other atoms
	Atomic van der Waals radii will be scaled by 1.20
 Remove points where switching function is < 1.0e-08
 Keep 1590 surface tesserae and discard 2058 interior tesserae
 Molecular Surface Area = 230.500 Angst**2
 Requested basis set is rimp2-cc-pVTZ
 There are 414 shells and 1414 basis functions
 A cutoff of  1.0D-10 yielded  14073 shell pairs
 There are    101851 function pairs (    130490 Cartesian)
 Smallest overlap matrix eigenvalue = 6.39E-05

 Scale SEOQF with 1.000000e-01/1.000000e-01/1.000000e-01

 Standard Electronic Orientation quadrupole field applied
 Nucleus-field energy     =     0.0000000207 hartrees
 Guess from superposition of atomic densities
 Warning:  Energy on first SCF cycle will be non-variational
 SAD guess density has 104.000000 electrons

 -----------------------------------------------------------------------
  General SCF calculation program by
  Eric Jon Sundstrom, Paul Horn, Yuezhi Mao, Dmitri Zuev, Alec White,
  David Stuck, Shaama M.S., Shane Yost, Joonho Lee, David Small,
  Daniel Levine, Susi Lehtola, Hugh Burton, Evgeny Epifanovsky,
  Bang C. Huynh
 -----------------------------------------------------------------------
 Hartree-Fock
 using 64 threads for integral computing
 -------------------------------------------------------
 OpenMP Integral computing Module                
 Release: version 1.0, May 2013, Q-Chem Inc. Pittsburgh 
 -------------------------------------------------------
 A restricted SCF calculation will be
 performed using DIIS
 SCF converges when DIIS error is below 1.0e-06
 ---------------------------------------
  Cycle       Energy         DIIS error
 ---------------------------------------
    1   -1186.0513861245      2.39e-02  
    2   -1180.5961498667      1.59e-03  
    3   -1180.7233814182      6.56e-04  
    4   -1180.7395774118      3.43e-04  
    5   -1180.7451274956      6.12e-05  
    6   -1180.7453901619      2.54e-05  
    7   -1180.7454540279      9.26e-06  
    8   -1180.7454682060      4.42e-06  
    9   -1180.7454714287      1.51e-06  
   10   -1180.7454719106      5.17e-07  Convergence criterion met
 ---------------------------------------
 SCF time:   CPU 1705.35s  wall 50.00s 

************** Final PCM Free Energy Summary **************
 G_electrostatic  =      -0.00961359 hartree =      -6.03261645 kcal/mol
 G_cavitation     =       0.00000000 hartree =       0.00000000 kcal/mol
 G_dispersion     =       0.00000000 hartree =       0.00000000 kcal/mol
 G_repulsion      =       0.00000000 hartree =       0.00000000 kcal/mol
 --------------------------------------------------
 Non-electrostatic Free Energy =       0.00000000 hartree =       0.00000000 kcal/mol
 Total                         =      -0.00961359 hartree =      -6.03261645 kcal/mol
 --------------------------------------------------
 SCF Energy (H0 + V/2)                       =   -1180.74547191 
 Solute Internal Energy (H0)                 =   -1180.73585832 
 Total Free Energy (H0 + V/2 + non-elec)     =   -1180.74547191 hartree
                                             = -740928.96646429 kcal/mol
***********************************************************

 SCF   energy in the final basis set =    -1180.7454719106
 Total energy in the final basis set =    -1180.7454719106


 --------------------------------------------------------------
  Generalized many-body perturbation theory program
  by Joonho Lee, Fazle Rob, Xintian Feng, Evgeny Epifanovsky

 No regularization used 
 (reg. param. = 0.0000e+00)
  (P|Q)^-1/2 Time:  CPU 18.20 s  wall 0.29 s

 In RI-MP2 calculation: 
 # of frozen core orbitals: 20

 Components of the RIMP2 correlation energy:
        aaaa    correlation energy =        -0.2519154157 a.u.
        abab    correlation energy =        -1.5047407322 a.u.
        bbbb    correlation energy =        -0.2519154157 a.u.
        non-Brillouin singles      =        -0.0000000000 a.u.
        total same-spin energy     =        -0.5038308313 a.u.
        total opposite-spin energy =        -1.5047407322 a.u.

 Total  RIMP2   correlation energy =        -2.0085715635 a.u.
        RIMP2         total energy =     -1182.7540434741 a.u.

 RI-MP2 Energy Time:  CPU 167.34 s  wall 3.40 s
 
 --------------------------------------------------------------
 
                    Orbital Energies (a.u.)
 --------------------------------------------------------------
 
 Alpha MOs
 -- Occupied --
-91.9838 -91.9463 -11.2862 -11.2659 -11.2596 -11.2571 -11.2500 -11.2442
-11.2340 -11.2304 -11.2283 -11.2223  -8.9835  -8.9509  -6.6645  -6.6639
 -6.6633  -6.6323  -6.6312  -6.6300  -1.2011  -1.1526  -1.0588  -1.0318
 -1.0007  -0.9623  -0.9162  -0.8999  -0.8170  -0.7616  -0.7308  -0.7067
 -0.6547  -0.6462  -0.6104  -0.5946  -0.5854  -0.5684  -0.5636  -0.5492
 -0.5465  -0.5345  -0.5232  -0.5012  -0.4862  -0.4791  -0.4687  -0.4437
 -0.3606  -0.3430  -0.3244  -0.2627
 -- Virtual --
  0.0988   0.1322   0.1403   0.1477   0.1573   0.1713   0.1773   0.1840
  0.1870   0.2034   0.2083   0.2167   0.2194   0.2303   0.2370   0.2421
  0.2597   0.2745   0.2835   0.3097   0.3147   0.3210   0.3559   0.3566
  0.3682   0.3814   0.3852   0.3909   0.4030   0.4057   0.4160   0.4243
  0.4339   0.4513   0.4657   0.4703   0.4735   0.4815   0.4838   0.4946
  0.5004   0.5177   0.5269   0.5330   0.5364   0.5478   0.5549   0.5645
  0.5661   0.5850   0.5884   0.5986   0.6023   0.6069   0.6156   0.6207
  0.6256   0.6314   0.6323   0.6352   0.6396   0.6509   0.6591   0.6627
  0.6714   0.6754   0.6790   0.6866   0.6951   0.7116   0.7240   0.7285
  0.7428   0.7501   0.7644   0.7734   0.7875   0.7905   0.7978   0.8206
  0.8374   0.8505   0.8537   0.8663   0.8835   0.8977   0.9027   0.9242
  0.9342   0.9449   0.9463   0.9609   0.9736   0.9964   0.9979   1.0076
  1.0226   1.0291   1.0372   1.0454   1.0544   1.0619   1.0682   1.0758
  1.0848   1.0955   1.1037   1.1280   1.1392   1.1485   1.1592   1.1759
  1.1854   1.1911   1.2015   1.2044   1.2163   1.2171   1.2242   1.2415
  1.2458   1.2589   1.2666   1.2704   1.2757   1.2891   1.3043   1.3154
  1.3245   1.3291   1.3358   1.3645   1.3695   1.3748   1.4085   1.4143
  1.4273   1.4386   1.4415   1.4636   1.4801   1.4821   1.4870   1.5025
  1.5101   1.5171   1.5267   1.5362   1.5410   1.5453   1.5517   1.5630
  1.5673   1.5888   1.5954   1.6102   1.6204   1.6251   1.6351   1.6468
  1.6601   1.6747   1.6787   1.6962   1.7029   1.7180   1.7192   1.7341
  1.7556   1.7625   1.7789   1.8123   1.8213   1.8287   1.8488   1.8636
  1.8876   1.8988   1.9127   1.9372   1.9494   1.9652   1.9918   2.0016
  2.0152   2.0373   2.0615   2.0732   2.0872   2.1066   2.1464   2.1589
  2.1895   2.1913   2.2026   2.2173   2.2328   2.2532   2.2693   2.2803
  2.2888   2.2924   2.3125   2.3955   2.4231   2.4437   2.4575   2.4736
  2.4924   2.5213   2.5272   2.5491   2.5726   2.5815   2.5847   2.6085
  2.6351   2.6530   2.6557   2.6700   2.6754   2.6984   2.7202   2.7376
  2.7511   2.7585   2.7650   2.7757   2.7874   2.7967   2.8044   2.8116
  2.8258   2.8473   2.8548   2.8749   2.8795   2.9006   2.9131   2.9416
  2.9575   2.9692   2.9755   2.9872   3.0081   3.0292   3.0383   3.0422
  3.0665   3.0842   3.0900   3.1061   3.1079   3.1168   3.1260   3.1391
  3.1414   3.1619   3.1676   3.1721   3.1843   3.1965   3.1972   3.2181
  3.2271   3.2387   3.2472   3.2662   3.2734   3.2833   3.2964   3.3054
  3.3170   3.3301   3.3342   3.3415   3.3485   3.3547   3.3591   3.3709
  3.3738   3.3847   3.3937   3.4026   3.4052   3.4180   3.4236   3.4349
  3.4423   3.4514   3.4606   3.4645   3.4771   3.4858   3.4919   3.5091
  3.5105   3.5242   3.5313   3.5386   3.5542   3.5657   3.5669   3.5826
  3.5950   3.6017   3.6079   3.6177   3.6294   3.6384   3.6515   3.6607
  3.6771   3.6907   3.6998   3.7035   3.7173   3.7256   3.7300   3.7365
  3.7465   3.7592   3.7675   3.7781   3.7913   3.7981   3.8009   3.8090
  3.8237   3.8445   3.8621   3.8642   3.8759   3.8803   3.9033   3.9145
  3.9209   3.9532   3.9582   3.9646   3.9802   4.0017   4.0197   4.0267
  4.0349   4.0503   4.0610   4.0650   4.0773   4.0850   4.0979   4.1068
  4.1196   4.1366   4.1501   4.1550   4.1669   4.1706   4.1873   4.2000
  4.2222   4.2247   4.2323   4.2449   4.2527   4.2593   4.2724   4.2948
  4.3048   4.3149   4.3226   4.3385   4.3517   4.3559   4.3633   4.3687
  4.3777   4.3949   4.4023   4.4218   4.4250   4.4400   4.4473   4.4511
  4.4602   4.4724   4.4778   4.4922   4.4975   4.5118   4.5504   4.5873
  4.6015   4.6085   4.6207   4.6285   4.6498   4.6503   4.6607   4.6887
  4.7145   4.7384   4.7725   4.7785   4.7957   4.8121   4.8253   4.8604
  4.8635   4.8684   4.8843   4.9211   4.9286   4.9496   4.9850   4.9955
  5.0409   5.0641   5.0931   5.1049   5.1178   5.1302   5.1605   5.2048
  5.2150   5.2290   5.2466   5.2704   5.2913   5.2989   5.3121   5.3240
  5.3533   5.3724   5.3740   5.4072   5.4136   5.4231   5.4366   5.4423
  5.4804   5.5196   5.5322   5.5444   5.5506   5.5698   5.5772   5.6004
  5.6179   5.6243   5.6342   5.6621   5.6831   5.7014   5.7116   5.7328
  5.7725   5.8164   5.8452   5.9791   6.0237   6.0828   6.1380   6.1718
  6.2163   6.2283   6.2427   6.2599   6.2642   6.2910   6.3214   6.3673
  6.4346   6.5142   9.5408  10.8435  12.0215  12.9440  13.1653  13.9337
 14.1188  14.2057  14.3649  14.8698
 --------------------------------------------------------------
 
          Ground-State Mulliken Net Atomic Charges

     Atom                 Charge (a.u.)
  ----------------------------------------
      1 C                    -0.074461
      2 C                    -0.317429
      3 C                    -0.043594
      4 H                     0.179395
      5 C                     0.114588
      6 S                    -0.177983
      7 C                    -0.302181
      8 H                     0.122713
      9 H                     0.110753
     10 H                     0.104329
     11 C                    -0.052854
     12 C                    -0.270149
     13 C                     0.037056
     14 H                     0.190824
     15 C                    -0.270228
     16 S                     0.004199
     17 C                    -0.271635
     18 H                     0.100339
     19 H                     0.108437
     20 H                     0.108308
     21 H                     0.197928
     22 H                     0.111171
     23 H                     0.113954
     24 H                     0.176520
  ----------------------------------------
  Sum of atomic charges =     0.000000

 -----------------------------------------------------------------
                    Cartesian Multipole Moments
 -----------------------------------------------------------------
    Charge (ESU x 10^10)
                -0.0000
    Dipole Moment (Debye)
         X      -0.7686      Y      -0.2636      Z       3.6159
       Tot       3.7061
    Quadrupole Moments (Debye-Ang)
        XX     -90.7332     XY       5.2871     YY     -74.2233
        XZ       0.5567     YZ      -2.1615     ZZ     -85.5301
    Octopole Moments (Debye-Ang^2)
       XXX     -70.9999    XXY      53.2014    XYY     -14.0938
       YYY     122.8179    XXZ      -5.4419    XYZ      -0.2280
       YYZ      -6.4468    XZZ     -22.5791    YZZ      53.1059
       ZZZ       1.4492
    Hexadecapole Moments (Debye-Ang^3)
      XXXX    -270.1211   XXXY    -160.4035   XXYY    -544.1357
      XYYY    -123.0996   YYYY   -2677.8454   XXXZ      18.0233
      XXYZ     -29.5243   XYYZ      -3.6598   YYYZ     -99.6164
      XXZZ    -236.1367   XYZZ     -37.0364   YYZZ    -643.5281
      XZZZ      11.2598   YZZZ    -126.2342   ZZZZ   -1085.8489
 -----------------------------------------------------------------
 Total job time:  55.31s(wall), 1954.19s(cpu) 
 Fri Dec 15 14:13:41 2023

        *************************************************************
        *                                                           *
        *  Thank you very much for using Q-Chem.  Have a nice day.  *
        *                                                           *
        *************************************************************


0 sent ACK to 0 
now end server 0 ... 
cleanup process ... done
remove work dirs ./qchem166064.0 -- ./qchem166064.0
rm -rf ./qchem166064.0
rm -rf ./qchem166064
