You are running Q-Chem version: 5.4.0

#
# job setting
#
local host:  exp-7-34
current dir: /home/rramji/project-csd799/aromodel/p3ht-qchem/hydrogenated-rotation-run
input file:  Methylthiophene_Phi_15_Theta_180_Methylthiophene_Hydrogenated.qcin
output file: 
nprocs     : 1
nthreads   : 64
#
# qchem installation setting
#
QC:          /cm/shared/apps/spack/cpu/opt/spack/linux-centos8-zen2/gcc-10.2.0/qchem-5.4-akfmr7b3t57bfs6qan3padb2wnb2i7cl
QCAUX:       /cm/shared/apps/spack/cpu/opt/spack/linux-centos8-zen2/gcc-10.2.0/qchem-5.4-akfmr7b3t57bfs6qan3padb2wnb2i7cl/qcaux
QCPROG:      /cm/shared/apps/spack/cpu/opt/spack/linux-centos8-zen2/gcc-10.2.0/qchem-5.4-akfmr7b3t57bfs6qan3padb2wnb2i7cl/exe/qcprog.exe
QCPROG_S:    /cm/shared/apps/spack/cpu/opt/spack/linux-centos8-zen2/gcc-10.2.0/qchem-5.4-akfmr7b3t57bfs6qan3padb2wnb2i7cl/exe/qcprog.exe_s
PARALLEL:    -DPARALLEL
QCMPI:       mpich
#
# qchem directory setting
#
qcrun:       qchem4191084
QCSCRATCH:   .
QCLOCALSCR:  
QCTMPDIR:    .
QCFILEPREF:  ./qchem4191084
QCSAVEDIR:   
workdirs:    ./qchem4191084
workdir0:    ./qchem4191084
partmpdirs =  
#
# parallel setting
#
QCRSH:           ssh
QCMPI:           mpich
QCMPIRUN:        /cm/shared/apps/spack/cpu/opt/spack/linux-centos8-zen2/gcc-10.2.0/qchem-5.4-akfmr7b3t57bfs6qan3padb2wnb2i7cl/bin/mpi/mpirun_qchem
QCMACHINEFILE:   ./qchem4191084/hostfile
exp-7-34

#
# env setting
#
exported envs:   QC QCAUX QCSCRATCH QCRUNNAME QCFILEPREF QCPROG QCPROG_S GUIFILE

Running Job 1 of 1 Methylthiophene_Phi_15_Theta_180_Methylthiophene_Hydrogenated.qcin
qchem Methylthiophene_Phi_15_Theta_180_Methylthiophene_Hydrogenated.qcin_4191084.0 ./qchem4191084/ 1
/cm/shared/apps/spack/cpu/opt/spack/linux-centos8-zen2/gcc-10.2.0/qchem-5.4-akfmr7b3t57bfs6qan3padb2wnb2i7cl/bin/mpi/mpirun_qchem -machinefile ./qchem4191084/hostfile -np 1 /cm/shared/apps/spack/cpu/opt/spack/linux-centos8-zen2/gcc-10.2.0/qchem-5.4-akfmr7b3t57bfs6qan3padb2wnb2i7cl/exe/qcprog.exe Methylthiophene_Phi_15_Theta_180_Methylthiophene_Hydrogenated.qcin_4191084.0 ./qchem4191084/

Process 0 of 1 is on exp-7-34 - thread support 0
initial socket setup ...start
initial socket setup ...done 
now start server 0 ... 
                  Welcome to Q-Chem
     A Quantum Leap Into The Future Of Chemistry


 Q-Chem 5.4, Q-Chem, Inc., Pleasanton, CA (2021)

 License issued to: University of California, San Diego (site)

 E. Epifanovsky,  A. T. B. Gilbert,  Xintian Feng,  Joonho Lee,  Yuezhi Mao,  
 N. Mardirossian,  P. Pokhilko,  A. White,  M. Wormit,  M. P. Coons,  
 A. L. Dempwolff,  Zhengting Gan,  D. Hait,  P. R. Horn,  L. D. Jacobson,  
 I. Kaliman,  J. Kussmann,  A. W. Lange,  Ka Un Lao,  D. S. Levine,  Jie Liu,  
 S. C. McKenzie,  A. F. Morrison,  K. Nanda,  F. Plasser,  D. R. Rehn,  
 M. L. Vidal,  Zhi-Qiang You,  Ying Zhu,  B. Alam,  B. Albrecht,  
 A. Aldossary,  E. Alguire,  J. H. Andersen,  D. Barton,  K. Begam,  A. Behn,  
 Y. A. Bernard,  E. J. Berquist,  H. Burton,  A. Carreras,  K. Carter-Fenk,  
 R. Chakraborty,  A. D. Chien,  K. D. Closser,  V. Cofer-Shabica,  
 S. Dasgupta,  Jia Deng,  M. de Wergifosse,  M. Diedenhofen,  Hainam Do,  
 S. Ehlert,  Po-Tung Fang,  S. Fatehi,  Qingguo Feng,  J. Gayvert,  
 Qinghui Ge,  G. Gidofalvi,  M. Goldey,  J. Gomes,  C. Gonzalez-Espinoza,  
 S. Gulania,  A. Gunina,  M. W. D. Hanson-Heine,  P. H. P. Harbach,  
 A. W. Hauser,  M. F. Herbst,  M. Hernandez Vera,  M. Hodecker,  
 Z. C. Holden,  S. Houck,  Xunkun Huang,  Kerwin Hui,  B. C. Huynh,  
 M. Ivanov,  Hyunjun Ji,  Hanjie Jiang,  B. Kaduk,  S. Kaehler,  
 K. Khistyaev,  Jaehoon Kim,  P. Klunzinger,  Z. Koczor-Benda,  
 Joong Hoon Koh,  D. Kosenkov,  L. Koulias,  T. Kowalczyk,  C. M. Krauter,  
 K. Kue,  A. Kunitsa,  T. Kus,  A. Landau,  K. V. Lawler,  D. Lefrancois,  
 S. Lehtola,  Rain Li,  Yi-Pei Li,  Jiashu Liang,  M. Liebenthal,  
 Hung-Hsuan Lin,  You-Sheng Lin,  Fenglai Liu,  Kuan-Yu Liu,  
 M. Loipersberger,  A. Luenser,  A. Manjanath,  P. Manohar,  E. Mansoor,  
 S. F. Manzer,  Shan-Ping Mao,  A. V. Marenich,  T. Markovich,  S. Mason,  
 S. A. Maurer,  P. F. McLaughlin,  M. F. S. J. Menger,  J.-M. Mewes,  
 S. A. Mewes,  P. Morgante,  J. W. Mullinax,  T. S. Nguyen-Beck,  
 K. J. Oosterbaan,  G. Paran,  Alexander C. Paul,  Suranjan K. Paul,  
 F. Pavosevic,  Zheng Pei,  S. Prager,  E. I. Proynov,  E. Ramos,  B. Rana,  
 A. E. Rask,  A. Rettig,  R. M. Richard,  F. Rob,  E. Rossomme,  T. Scheele,  
 M. Scheurer,  M. Schneider,  N. Sergueev,  S. M. Sharada,  W. Skomorowski,  
 D. W. Small,  C. J. Stein,  Yu-Chuan Su,  E. J. Sundstrom,  Zhen Tao,  
 J. Thirman,  T. Tsuchimochi,  N. M. Tubman,  S. P. Veccham,  O. Vydrov,  
 J. Wenzel,  J. Witte,  A. Yamada,  Kun Yao,  S. Yeganeh,  S. R. Yost,  
 A. Zech,  Igor Ying Zhang,  Xing Zhang,  Yu Zhang,  D. Zuev,  
 A. Aspuru-Guzik,  A. T. Bell,  N. A. Besley,  K. B. Bravaya,  B. R. Brooks,  
 D. Casanova,  Jeng-Da Chai,  S. Coriani,  C. J. Cramer,  
 A. E. DePrince, III,  R. A. DiStasio Jr.,  A. Dreuw,  B. D. Dunietz,  
 T. R. Furlani,  W. A. Goddard III,  S. Grimme,  S. Hammes-Schiffer,  
 T. Head-Gordon,  W. J. Hehre,  Chao-Ping Hsu,  T.-C. Jagau,  Yousung Jung,  
 A. Klamt,  Jing Kong,  D. S. Lambrecht,  WanZhen Liang,  N. J. Mayhall,  
 C. W. McCurdy,  J. B. Neaton,  C. Ochsenfeld,  J. A. Parkhill,  R. Peverati,  
 V. A. Rassolov,  Yihan Shao,  L. V. Slipchenko,  T. Stauch,  R. P. Steele,  
 J. E. Subotnik,  A. J. W. Thom,  A. Tkatchenko,  D. G. Truhlar,  
 T. Van Voorhis,  T. A. Wesolowski,  K. B. Whaley,  H. L. Woodcock III,  
 P. M. Zimmerman,  S. Faraji,  P. M. W. Gill,  M. Head-Gordon,  
 J. M. Herbert,  A. I. Krylov

 Contributors to earlier versions of Q-Chem not listed above: 
 R. D. Adamson,  B. Austin,  R. Baer,  J. Baker,  G. J. O. Beran,  
 K. Brandhorst,  S. T. Brown,  E. F. C. Byrd,  A. K. Chakraborty,  
 G. K. L. Chan,  Chun-Min Chang,  Yunqing Chen,  C.-L. Cheng,  
 Siu Hung Chien,  D. M. Chipman,  D. L. Crittenden,  H. Dachsel,  
 R. J. Doerksen,  A. D. Dutoi,  R. G. Edgar,  J. Fosso-Tande,  
 L. Fusti-Molnar,  D. Ghosh,  A. Ghysels,  A. Golubeva-Zadorozhnaya,  
 J. Gonthier,  M. S. Gordon,  S. R. Gwaltney,  G. Hawkins,  J. E. Herr,  
 A. Heyden,  S. Hirata,  E. G. Hohenstein,  G. Kedziora,  F. J. Keil,  
 C. Kelley,  Jihan Kim,  R. A. King,  R. Z. Khaliullin,  P. P. Korambath,  
 W. Kurlancheek,  A. Laurent,  A. M. Lee,  M. S. Lee,  S. V. Levchenko,  
 Ching Yeh Lin,  D. Liotard,  E. Livshits,  R. C. Lochan,  I. Lotan,  
 L. A. Martinez-Martinez,  P. E. Maslen,  N. Nair,  D. P. O'Neill,  
 D. Neuhauser,  E. Neuscamman,  C. M. Oana,  R. Olivares-Amaya,  R. Olson,  
 T. M. Perrine,  B. Peters,  P. A. Pieniazek,  A. Prociuk,  Y. M. Rhee,  
 J. Ritchie,  M. A. Rohrdanz,  E. Rosta,  N. J. Russ,  H. F. Schaefer III,  
 M. W. Schmidt,  N. E. Schultz,  S. Sharma,  N. Shenvi,  C. D. Sherrill,  
 A. C. Simmonett,  A. Sodt,  T. Stein,  D. Stuck,  K. S. Thanthiriwatte,  
 V. Vanovschi,  L. Vogt,  Tao Wang,  A. Warshel,  M. A. Watson,  
 C. F. Williams,  Q. Wu,  X. Xu,  Jun Yang,  W. Zhang,  Yan Zhao

 Please cite Q-Chem as follows:
 Y. Shao et al., Mol. Phys. 113, 184-215 (2015)
 DOI: 10.1080/00268976.2014.952696

 Q-Chem 5.4.0 for Intel X86 EM64T Linux

 Parts of Q-Chem use Armadillo 9.800.1 (Horizon Scraper).
 http://arma.sourceforge.net/

 Q-Chem begins on Fri Dec 15 14:13:27 2023  

 Host: 
0

     Scratch files written to ./qchem4191084//
 May1621 |scratch|qcdevops|jenkins|workspace|build_RNUM    
 Parallel job on  1  processors
 Processing $rem in /cm/shared/apps/spack/cpu/opt/spack/linux-centos8-zen2/gcc-10.2.0/qchem-5.4-akfmr7b3t57bfs6qan3padb2wnb2i7cl/config/preferences:
 Processing $rem in /home/rramji/.qchemrc:
 Symmetry turned off for PCM/SM12/SMD calculation
 Core orbitals will be frozen

 Checking the input file for inconsistencies... 	...done.

 Q-Chem warning in module forms1/BasisType.C, line 2236:

 You are not using the predefined 5D/6D in this basis set.


--------------------------------------------------------------
User input:
--------------------------------------------------------------
$molecule
0 1
C	0.001092	-3.887800	-0.724460
C	0.001036	-3.701456	0.661131
C	0.000406	-2.345170	1.085203
H	0.001433	-4.545233	1.367305
C	-0.000000	-1.450135	-0.000000
S	0.000367	-2.321334	-1.527517
C	0.000233	-1.934439	2.531478
H	0.000656	-2.819799	3.196254
H	-0.892447	-1.326210	2.787305
H	0.892350	-1.325374	2.787282
C	0.000000	0.000000	0.000000
C	0.215623	0.816623	1.113020
C	0.571102	2.161411	0.820578
H	0.116470	0.441406	2.142881
C	0.634696	2.401276	-0.563588
S	0.247646	0.938489	-1.464748
C	0.843182	3.190669	1.882380
H	0.728628	2.757614	2.894974
H	0.148095	4.052998	1.808137
H	1.873652	3.596752	1.808230
H	0.879464	3.327513	-1.097114
H	-0.896272	-4.420219	-1.059101
H	0.898936	-4.419395	-1.059122
H	-1.080000	-1.450628	0.000014
$end

$rem
JOBTYPE		SP
EXCHANGE	HF
CORRELATION	pRIMP2
BASIS		cc-pvtz
METHOD		rimp2
AUX_BASIS	rimp2-cc-pvtz
SOLVENT_METHOD	PCM
PURECART	11111
SYMMETRY	false
MEM_TOTAL	110000
SCF_CONVERGENCE = 6
THRESH=10
GUI = 2
$end



$solvent
dielectric 4.90
$end
--------------------------------------------------------------
 ----------------------------------------------------------------
             Standard Nuclear Orientation (Angstroms)
    I     Atom           X                Y                Z
 ----------------------------------------------------------------
    1      C       0.0010920000    -3.8878000000    -0.7244600000
    2      C       0.0010360000    -3.7014560000     0.6611310000
    3      C       0.0004060000    -2.3451700000     1.0852030000
    4      H       0.0014330000    -4.5452330000     1.3673050000
    5      C       0.0000000000    -1.4501350000     0.0000000000
    6      S       0.0003670000    -2.3213340000    -1.5275170000
    7      C       0.0002330000    -1.9344390000     2.5314780000
    8      H       0.0006560000    -2.8197990000     3.1962540000
    9      H      -0.8924470000    -1.3262100000     2.7873050000
   10      H       0.8923500000    -1.3253740000     2.7872820000
   11      C       0.0000000000     0.0000000000     0.0000000000
   12      C       0.2156230000     0.8166230000     1.1130200000
   13      C       0.5711020000     2.1614110000     0.8205780000
   14      H       0.1164700000     0.4414060000     2.1428810000
   15      C       0.6346960000     2.4012760000    -0.5635880000
   16      S       0.2476460000     0.9384890000    -1.4647480000
   17      C       0.8431820000     3.1906690000     1.8823800000
   18      H       0.7286280000     2.7576140000     2.8949740000
   19      H       0.1480950000     4.0529980000     1.8081370000
   20      H       1.8736520000     3.5967520000     1.8082300000
   21      H       0.8794640000     3.3275130000    -1.0971140000
   22      H      -0.8962720000    -4.4202190000    -1.0591010000
   23      H       0.8989360000    -4.4193950000    -1.0591220000
   24      H      -1.0800000000    -1.4506280000     0.0000140000
 ----------------------------------------------------------------
 Nuclear Repulsion Energy =         876.57656533 hartrees
 There are       52 alpha and       52 beta electrons
 Requested basis set is cc-pVTZ
 There are 196 shells and 536 basis functions

 Total QAlloc Memory Limit 110000 MB
 Mega-Array Size       188 MB
 MEM_STATIC part       192 MB
 Discretize the solute cavity surface with Lebedev spheres
	Using 110 Lebedev grid points for each H atom
	Using 194 Lebedev grid points for other atoms
	Atomic van der Waals radii will be scaled by 1.20
 Remove points where switching function is < 1.0e-08
 Keep 1559 surface tesserae and discard 2089 interior tesserae
 Molecular Surface Area = 230.914 Angst**2
 Requested basis set is rimp2-cc-pVTZ
 There are 414 shells and 1414 basis functions
 A cutoff of  1.0D-10 yielded  14076 shell pairs
 There are    101888 function pairs (    130525 Cartesian)
 Smallest overlap matrix eigenvalue = 5.29E-05

 Scale SEOQF with 1.000000e-01/1.000000e-01/1.000000e-01

 Standard Electronic Orientation quadrupole field applied
 Nucleus-field energy     =     0.0000000206 hartrees
 Guess from superposition of atomic densities
 Warning:  Energy on first SCF cycle will be non-variational
 SAD guess density has 104.000000 electrons

 -----------------------------------------------------------------------
  General SCF calculation program by
  Eric Jon Sundstrom, Paul Horn, Yuezhi Mao, Dmitri Zuev, Alec White,
  David Stuck, Shaama M.S., Shane Yost, Joonho Lee, David Small,
  Daniel Levine, Susi Lehtola, Hugh Burton, Evgeny Epifanovsky,
  Bang C. Huynh
 -----------------------------------------------------------------------
 Hartree-Fock
 using 64 threads for integral computing
 -------------------------------------------------------
 OpenMP Integral computing Module                
 Release: version 1.0, May 2013, Q-Chem Inc. Pittsburgh 
 -------------------------------------------------------
 A restricted SCF calculation will be
 performed using DIIS
 SCF converges when DIIS error is below 1.0e-06
 ---------------------------------------
  Cycle       Energy         DIIS error
 ---------------------------------------
    1   -1186.0503486710      2.39e-02  
    2   -1180.5999903560      1.59e-03  
    3   -1180.7272759203      6.66e-04  
    4   -1180.7438412149      3.45e-04  
    5   -1180.7494751372      6.06e-05  
    6   -1180.7497317313      2.52e-05  
    7   -1180.7497928979      8.97e-06  
    8   -1180.7498059700      4.28e-06  
    9   -1180.7498088869      1.45e-06  
   10   -1180.7498093277      5.08e-07  Convergence criterion met
 ---------------------------------------
 SCF time:   CPU 1703.14s  wall 51.00s 

************** Final PCM Free Energy Summary **************
 G_electrostatic  =      -0.00963748 hartree =      -6.04760820 kcal/mol
 G_cavitation     =       0.00000000 hartree =       0.00000000 kcal/mol
 G_dispersion     =       0.00000000 hartree =       0.00000000 kcal/mol
 G_repulsion      =       0.00000000 hartree =       0.00000000 kcal/mol
 --------------------------------------------------
 Non-electrostatic Free Energy =       0.00000000 hartree =       0.00000000 kcal/mol
 Total                         =      -0.00963748 hartree =      -6.04760820 kcal/mol
 --------------------------------------------------
 SCF Energy (H0 + V/2)                       =   -1180.74980933 
 Solute Internal Energy (H0)                 =   -1180.74017185 
 Total Free Energy (H0 + V/2 + non-elec)     =   -1180.74980933 hartree
                                             = -740931.68823457 kcal/mol
***********************************************************

 SCF   energy in the final basis set =    -1180.7498093277
 Total energy in the final basis set =    -1180.7498093277


 --------------------------------------------------------------
  Generalized many-body perturbation theory program
  by Joonho Lee, Fazle Rob, Xintian Feng, Evgeny Epifanovsky

 No regularization used 
 (reg. param. = 0.0000e+00)
  (P|Q)^-1/2 Time:  CPU 21.75 s  wall 0.35 s

 In RI-MP2 calculation: 
 # of frozen core orbitals: 20

 Components of the RIMP2 correlation energy:
        aaaa    correlation energy =        -0.2517722193 a.u.
        abab    correlation energy =        -1.5040396898 a.u.
        bbbb    correlation energy =        -0.2517722193 a.u.
        non-Brillouin singles      =        -0.0000000000 a.u.
        total same-spin energy     =        -0.5035444386 a.u.
        total opposite-spin energy =        -1.5040396898 a.u.

 Total  RIMP2   correlation energy =        -2.0075841284 a.u.
        RIMP2         total energy =     -1182.7573934561 a.u.

 RI-MP2 Energy Time:  CPU 170.06 s  wall 3.19 s
 
 --------------------------------------------------------------
 
                    Orbital Energies (a.u.)
 --------------------------------------------------------------
 
 Alpha MOs
 -- Occupied --
-91.9839 -91.9467 -11.2883 -11.2664 -11.2611 -11.2551 -11.2498 -11.2449
-11.2341 -11.2286 -11.2282 -11.2231  -8.9835  -8.9513  -6.6645  -6.6639
 -6.6633  -6.6327  -6.6316  -6.6304  -1.2015  -1.1524  -1.0591  -1.0321
 -1.0012  -0.9617  -0.9168  -0.8998  -0.8174  -0.7622  -0.7283  -0.7074
 -0.6558  -0.6480  -0.6105  -0.5948  -0.5862  -0.5686  -0.5612  -0.5496
 -0.5459  -0.5352  -0.5245  -0.5005  -0.4860  -0.4805  -0.4686  -0.4439
 -0.3612  -0.3433  -0.3243  -0.2631
 -- Virtual --
  0.1035   0.1310   0.1403   0.1475   0.1568   0.1718   0.1751   0.1848
  0.1871   0.2041   0.2076   0.2142   0.2181   0.2317   0.2369   0.2424
  0.2612   0.2733   0.2882   0.3101   0.3153   0.3228   0.3552   0.3598
  0.3693   0.3762   0.3878   0.3924   0.4030   0.4054   0.4165   0.4260
  0.4345   0.4559   0.4622   0.4706   0.4753   0.4808   0.4843   0.4960
  0.5087   0.5207   0.5261   0.5306   0.5382   0.5478   0.5512   0.5633
  0.5676   0.5824   0.5906   0.5958   0.6019   0.6111   0.6195   0.6224
  0.6260   0.6296   0.6342   0.6380   0.6399   0.6505   0.6544   0.6644
  0.6699   0.6750   0.6779   0.6915   0.6931   0.7151   0.7242   0.7341
  0.7433   0.7587   0.7675   0.7694   0.7863   0.7977   0.8049   0.8152
  0.8399   0.8454   0.8560   0.8667   0.8839   0.9021   0.9039   0.9210
  0.9418   0.9471   0.9516   0.9559   0.9741   0.9935   1.0000   1.0121
  1.0260   1.0331   1.0387   1.0507   1.0537   1.0646   1.0750   1.0831
  1.0847   1.0955   1.1057   1.1188   1.1389   1.1426   1.1590   1.1729
  1.1865   1.1873   1.2024   1.2110   1.2158   1.2190   1.2303   1.2394
  1.2432   1.2566   1.2660   1.2763   1.2787   1.2895   1.3004   1.3180
  1.3242   1.3330   1.3363   1.3617   1.3682   1.3756   1.4115   1.4160
  1.4311   1.4389   1.4510   1.4724   1.4749   1.4852   1.4877   1.4997
  1.5116   1.5239   1.5251   1.5288   1.5398   1.5442   1.5490   1.5658
  1.5745   1.5953   1.6009   1.6134   1.6171   1.6237   1.6355   1.6514
  1.6547   1.6658   1.6873   1.7019   1.7057   1.7179   1.7223   1.7302
  1.7639   1.7715   1.7758   1.8005   1.8300   1.8349   1.8592   1.8746
  1.8769   1.8957   1.9039   1.9326   1.9550   1.9665   1.9862   1.9999
  2.0204   2.0321   2.0619   2.0740   2.0842   2.1014   2.1423   2.1735
  2.1880   2.1948   2.2028   2.2173   2.2364   2.2471   2.2657   2.2817
  2.2895   2.2990   2.3190   2.3922   2.4138   2.4407   2.4593   2.4739
  2.5028   2.5237   2.5283   2.5450   2.5713   2.5884   2.5925   2.6217
  2.6397   2.6450   2.6550   2.6690   2.6749   2.7044   2.7104   2.7365
  2.7507   2.7612   2.7645   2.7778   2.7877   2.7920   2.8094   2.8187
  2.8234   2.8496   2.8543   2.8701   2.8887   2.8986   2.9150   2.9374
  2.9526   2.9584   2.9784   2.9881   3.0083   3.0311   3.0352   3.0418
  3.0749   3.0856   3.0930   3.1056   3.1153   3.1173   3.1203   3.1387
  3.1462   3.1618   3.1705   3.1752   3.1888   3.1953   3.2003   3.2113
  3.2225   3.2374   3.2474   3.2672   3.2715   3.2785   3.3009   3.3060
  3.3088   3.3288   3.3387   3.3431   3.3469   3.3570   3.3594   3.3714
  3.3754   3.3814   3.3962   3.4007   3.4085   3.4162   3.4246   3.4300
  3.4340   3.4510   3.4552   3.4629   3.4824   3.4917   3.4994   3.5088
  3.5121   3.5262   3.5267   3.5366   3.5419   3.5670   3.5710   3.5761
  3.5817   3.6021   3.6088   3.6247   3.6279   3.6385   3.6538   3.6609
  3.6658   3.6872   3.6946   3.7026   3.7139   3.7237   3.7345   3.7432
  3.7496   3.7593   3.7660   3.7750   3.7924   3.7940   3.8018   3.8138
  3.8257   3.8366   3.8544   3.8683   3.8778   3.8865   3.8967   3.9150
  3.9212   3.9484   3.9558   3.9641   3.9811   3.9928   4.0176   4.0231
  4.0360   4.0493   4.0565   4.0655   4.0761   4.0869   4.0969   4.1020
  4.1236   4.1438   4.1496   4.1598   4.1663   4.1670   4.1816   4.1994
  4.2200   4.2250   4.2339   4.2461   4.2571   4.2604   4.2651   4.2952
  4.3038   4.3078   4.3227   4.3336   4.3471   4.3553   4.3624   4.3726
  4.3763   4.4018   4.4064   4.4206   4.4238   4.4420   4.4485   4.4514
  4.4629   4.4760   4.4796   4.5011   4.5092   4.5309   4.5755   4.5872
  4.5953   4.6033   4.6152   4.6238   4.6463   4.6522   4.6617   4.6859
  4.6985   4.7386   4.7699   4.7798   4.7955   4.8134   4.8238   4.8561
  4.8637   4.8719   4.8925   4.9186   4.9390   4.9555   4.9825   5.0017
  5.0580   5.0642   5.1039   5.1164   5.1200   5.1298   5.1579   5.1935
  5.2263   5.2355   5.2526   5.2650   5.2883   5.3024   5.3050   5.3362
  5.3622   5.3695   5.3744   5.4047   5.4173   5.4239   5.4378   5.4413
  5.4678   5.5263   5.5329   5.5465   5.5503   5.5703   5.5758   5.6071
  5.6193   5.6222   5.6300   5.6567   5.6834   5.7049   5.7128   5.7494
  5.7702   5.7962   5.8452   5.9700   6.0280   6.0826   6.1380   6.1816
  6.2221   6.2278   6.2465   6.2602   6.2699   6.2917   6.3229   6.3856
  6.4420   6.5496   9.5580  10.9174  12.0198  12.9585  13.1664  13.9361
 14.1329  14.2087  14.4110  15.0315
 --------------------------------------------------------------
 
          Ground-State Mulliken Net Atomic Charges

     Atom                 Charge (a.u.)
  ----------------------------------------
      1 C                    -0.073122
      2 C                    -0.314396
      3 C                    -0.055301
      4 H                     0.180164
      5 C                     0.130860
      6 S                    -0.179681
      7 C                    -0.302802
      8 H                     0.123585
      9 H                     0.105368
     10 H                     0.109278
     11 C                    -0.048108
     12 C                    -0.283127
     13 C                     0.042985
     14 H                     0.189890
     15 C                    -0.281174
     16 S                     0.007454
     17 C                    -0.272027
     18 H                     0.100293
     19 H                     0.108372
     20 H                     0.108509
     21 H                     0.197125
     22 H                     0.111426
     23 H                     0.113857
     24 H                     0.180572
  ----------------------------------------
  Sum of atomic charges =     0.000000

 -----------------------------------------------------------------
                    Cartesian Multipole Moments
 -----------------------------------------------------------------
    Charge (ESU x 10^10)
                -0.0000
    Dipole Moment (Debye)
         X      -0.5236      Y      -0.4087      Z       3.8092
       Tot       3.8667
    Quadrupole Moments (Debye-Ang)
        XX     -91.1494     XY       3.9484     YY     -73.6406
        XZ       0.5845     YZ      -2.4159     ZZ     -85.6276
    Octopole Moments (Debye-Ang^2)
       XXX     -55.2636    XXY      49.1061    XYY     -10.9817
       YYY     118.0894    XXZ      -5.7269    XYZ      -1.0600
       YYZ      -6.0027    XZZ     -15.8379    YZZ      51.3076
       ZZZ       1.7936
    Hexadecapole Moments (Debye-Ang^3)
      XXXX    -202.1323   XXXY    -124.6468   XXYY    -547.1868
      XYYY     -92.3822   YYYY   -2712.6713   XXXZ     -24.3665
      XXYZ     -28.0226   XYYZ     -10.2012   YYYZ    -103.0615
      XXZZ    -229.9337   XYZZ     -33.8042   YYZZ    -652.6109
      XZZZ     -24.6011   YZZZ    -131.0237   ZZZZ   -1102.8610
 -----------------------------------------------------------------
 Total job time:  57.06s(wall), 1936.26s(cpu) 
 Fri Dec 15 14:14:24 2023

        *************************************************************
        *                                                           *
        *  Thank you very much for using Q-Chem.  Have a nice day.  *
        *                                                           *
        *************************************************************


0 sent ACK to 0 
now end server 0 ... 
cleanup process ... done
remove work dirs ./qchem4191084.0 -- ./qchem4191084.0
rm -rf ./qchem4191084.0
rm -rf ./qchem4191084
