You are running Q-Chem version: 5.4.0

#
# job setting
#
local host:  exp-6-20
current dir: /home/rramji/project-csd799/aromodel/p3ht-qchem/hydrogenated-rotation-run
input file:  Methylthiophene_Phi_60_Theta_150_Methylthiophene_Hydrogenated.qcin
output file: 
nprocs     : 1
nthreads   : 64
#
# qchem installation setting
#
QC:          /cm/shared/apps/spack/cpu/opt/spack/linux-centos8-zen2/gcc-10.2.0/qchem-5.4-akfmr7b3t57bfs6qan3padb2wnb2i7cl
QCAUX:       /cm/shared/apps/spack/cpu/opt/spack/linux-centos8-zen2/gcc-10.2.0/qchem-5.4-akfmr7b3t57bfs6qan3padb2wnb2i7cl/qcaux
QCPROG:      /cm/shared/apps/spack/cpu/opt/spack/linux-centos8-zen2/gcc-10.2.0/qchem-5.4-akfmr7b3t57bfs6qan3padb2wnb2i7cl/exe/qcprog.exe
QCPROG_S:    /cm/shared/apps/spack/cpu/opt/spack/linux-centos8-zen2/gcc-10.2.0/qchem-5.4-akfmr7b3t57bfs6qan3padb2wnb2i7cl/exe/qcprog.exe_s
PARALLEL:    -DPARALLEL
QCMPI:       mpich
#
# qchem directory setting
#
qcrun:       qchem2818854
QCSCRATCH:   .
QCLOCALSCR:  
QCTMPDIR:    .
QCFILEPREF:  ./qchem2818854
QCSAVEDIR:   
workdirs:    ./qchem2818854
workdir0:    ./qchem2818854
partmpdirs =  
#
# parallel setting
#
QCRSH:           ssh
QCMPI:           mpich
QCMPIRUN:        /cm/shared/apps/spack/cpu/opt/spack/linux-centos8-zen2/gcc-10.2.0/qchem-5.4-akfmr7b3t57bfs6qan3padb2wnb2i7cl/bin/mpi/mpirun_qchem
QCMACHINEFILE:   ./qchem2818854/hostfile
exp-6-20

#
# env setting
#
exported envs:   QC QCAUX QCSCRATCH QCRUNNAME QCFILEPREF QCPROG QCPROG_S GUIFILE

Running Job 1 of 1 Methylthiophene_Phi_60_Theta_150_Methylthiophene_Hydrogenated.qcin
qchem Methylthiophene_Phi_60_Theta_150_Methylthiophene_Hydrogenated.qcin_2818854.0 ./qchem2818854/ 1
/cm/shared/apps/spack/cpu/opt/spack/linux-centos8-zen2/gcc-10.2.0/qchem-5.4-akfmr7b3t57bfs6qan3padb2wnb2i7cl/bin/mpi/mpirun_qchem -machinefile ./qchem2818854/hostfile -np 1 /cm/shared/apps/spack/cpu/opt/spack/linux-centos8-zen2/gcc-10.2.0/qchem-5.4-akfmr7b3t57bfs6qan3padb2wnb2i7cl/exe/qcprog.exe Methylthiophene_Phi_60_Theta_150_Methylthiophene_Hydrogenated.qcin_2818854.0 ./qchem2818854/

Process 0 of 1 is on exp-6-20 - thread support 0
initial socket setup ...start
initial socket setup ...done 
now start server 0 ... 
                  Welcome to Q-Chem
     A Quantum Leap Into The Future Of Chemistry


 Q-Chem 5.4, Q-Chem, Inc., Pleasanton, CA (2021)

 License issued to: University of California, San Diego (site)

 E. Epifanovsky,  A. T. B. Gilbert,  Xintian Feng,  Joonho Lee,  Yuezhi Mao,  
 N. Mardirossian,  P. Pokhilko,  A. White,  M. Wormit,  M. P. Coons,  
 A. L. Dempwolff,  Zhengting Gan,  D. Hait,  P. R. Horn,  L. D. Jacobson,  
 I. Kaliman,  J. Kussmann,  A. W. Lange,  Ka Un Lao,  D. S. Levine,  Jie Liu,  
 S. C. McKenzie,  A. F. Morrison,  K. Nanda,  F. Plasser,  D. R. Rehn,  
 M. L. Vidal,  Zhi-Qiang You,  Ying Zhu,  B. Alam,  B. Albrecht,  
 A. Aldossary,  E. Alguire,  J. H. Andersen,  D. Barton,  K. Begam,  A. Behn,  
 Y. A. Bernard,  E. J. Berquist,  H. Burton,  A. Carreras,  K. Carter-Fenk,  
 R. Chakraborty,  A. D. Chien,  K. D. Closser,  V. Cofer-Shabica,  
 S. Dasgupta,  Jia Deng,  M. de Wergifosse,  M. Diedenhofen,  Hainam Do,  
 S. Ehlert,  Po-Tung Fang,  S. Fatehi,  Qingguo Feng,  J. Gayvert,  
 Qinghui Ge,  G. Gidofalvi,  M. Goldey,  J. Gomes,  C. Gonzalez-Espinoza,  
 S. Gulania,  A. Gunina,  M. W. D. Hanson-Heine,  P. H. P. Harbach,  
 A. W. Hauser,  M. F. Herbst,  M. Hernandez Vera,  M. Hodecker,  
 Z. C. Holden,  S. Houck,  Xunkun Huang,  Kerwin Hui,  B. C. Huynh,  
 M. Ivanov,  Hyunjun Ji,  Hanjie Jiang,  B. Kaduk,  S. Kaehler,  
 K. Khistyaev,  Jaehoon Kim,  P. Klunzinger,  Z. Koczor-Benda,  
 Joong Hoon Koh,  D. Kosenkov,  L. Koulias,  T. Kowalczyk,  C. M. Krauter,  
 K. Kue,  A. Kunitsa,  T. Kus,  A. Landau,  K. V. Lawler,  D. Lefrancois,  
 S. Lehtola,  Rain Li,  Yi-Pei Li,  Jiashu Liang,  M. Liebenthal,  
 Hung-Hsuan Lin,  You-Sheng Lin,  Fenglai Liu,  Kuan-Yu Liu,  
 M. Loipersberger,  A. Luenser,  A. Manjanath,  P. Manohar,  E. Mansoor,  
 S. F. Manzer,  Shan-Ping Mao,  A. V. Marenich,  T. Markovich,  S. Mason,  
 S. A. Maurer,  P. F. McLaughlin,  M. F. S. J. Menger,  J.-M. Mewes,  
 S. A. Mewes,  P. Morgante,  J. W. Mullinax,  T. S. Nguyen-Beck,  
 K. J. Oosterbaan,  G. Paran,  Alexander C. Paul,  Suranjan K. Paul,  
 F. Pavosevic,  Zheng Pei,  S. Prager,  E. I. Proynov,  E. Ramos,  B. Rana,  
 A. E. Rask,  A. Rettig,  R. M. Richard,  F. Rob,  E. Rossomme,  T. Scheele,  
 M. Scheurer,  M. Schneider,  N. Sergueev,  S. M. Sharada,  W. Skomorowski,  
 D. W. Small,  C. J. Stein,  Yu-Chuan Su,  E. J. Sundstrom,  Zhen Tao,  
 J. Thirman,  T. Tsuchimochi,  N. M. Tubman,  S. P. Veccham,  O. Vydrov,  
 J. Wenzel,  J. Witte,  A. Yamada,  Kun Yao,  S. Yeganeh,  S. R. Yost,  
 A. Zech,  Igor Ying Zhang,  Xing Zhang,  Yu Zhang,  D. Zuev,  
 A. Aspuru-Guzik,  A. T. Bell,  N. A. Besley,  K. B. Bravaya,  B. R. Brooks,  
 D. Casanova,  Jeng-Da Chai,  S. Coriani,  C. J. Cramer,  
 A. E. DePrince, III,  R. A. DiStasio Jr.,  A. Dreuw,  B. D. Dunietz,  
 T. R. Furlani,  W. A. Goddard III,  S. Grimme,  S. Hammes-Schiffer,  
 T. Head-Gordon,  W. J. Hehre,  Chao-Ping Hsu,  T.-C. Jagau,  Yousung Jung,  
 A. Klamt,  Jing Kong,  D. S. Lambrecht,  WanZhen Liang,  N. J. Mayhall,  
 C. W. McCurdy,  J. B. Neaton,  C. Ochsenfeld,  J. A. Parkhill,  R. Peverati,  
 V. A. Rassolov,  Yihan Shao,  L. V. Slipchenko,  T. Stauch,  R. P. Steele,  
 J. E. Subotnik,  A. J. W. Thom,  A. Tkatchenko,  D. G. Truhlar,  
 T. Van Voorhis,  T. A. Wesolowski,  K. B. Whaley,  H. L. Woodcock III,  
 P. M. Zimmerman,  S. Faraji,  P. M. W. Gill,  M. Head-Gordon,  
 J. M. Herbert,  A. I. Krylov

 Contributors to earlier versions of Q-Chem not listed above: 
 R. D. Adamson,  B. Austin,  R. Baer,  J. Baker,  G. J. O. Beran,  
 K. Brandhorst,  S. T. Brown,  E. F. C. Byrd,  A. K. Chakraborty,  
 G. K. L. Chan,  Chun-Min Chang,  Yunqing Chen,  C.-L. Cheng,  
 Siu Hung Chien,  D. M. Chipman,  D. L. Crittenden,  H. Dachsel,  
 R. J. Doerksen,  A. D. Dutoi,  R. G. Edgar,  J. Fosso-Tande,  
 L. Fusti-Molnar,  D. Ghosh,  A. Ghysels,  A. Golubeva-Zadorozhnaya,  
 J. Gonthier,  M. S. Gordon,  S. R. Gwaltney,  G. Hawkins,  J. E. Herr,  
 A. Heyden,  S. Hirata,  E. G. Hohenstein,  G. Kedziora,  F. J. Keil,  
 C. Kelley,  Jihan Kim,  R. A. King,  R. Z. Khaliullin,  P. P. Korambath,  
 W. Kurlancheek,  A. Laurent,  A. M. Lee,  M. S. Lee,  S. V. Levchenko,  
 Ching Yeh Lin,  D. Liotard,  E. Livshits,  R. C. Lochan,  I. Lotan,  
 L. A. Martinez-Martinez,  P. E. Maslen,  N. Nair,  D. P. O'Neill,  
 D. Neuhauser,  E. Neuscamman,  C. M. Oana,  R. Olivares-Amaya,  R. Olson,  
 T. M. Perrine,  B. Peters,  P. A. Pieniazek,  A. Prociuk,  Y. M. Rhee,  
 J. Ritchie,  M. A. Rohrdanz,  E. Rosta,  N. J. Russ,  H. F. Schaefer III,  
 M. W. Schmidt,  N. E. Schultz,  S. Sharma,  N. Shenvi,  C. D. Sherrill,  
 A. C. Simmonett,  A. Sodt,  T. Stein,  D. Stuck,  K. S. Thanthiriwatte,  
 V. Vanovschi,  L. Vogt,  Tao Wang,  A. Warshel,  M. A. Watson,  
 C. F. Williams,  Q. Wu,  X. Xu,  Jun Yang,  W. Zhang,  Yan Zhao

 Please cite Q-Chem as follows:
 Y. Shao et al., Mol. Phys. 113, 184-215 (2015)
 DOI: 10.1080/00268976.2014.952696

 Q-Chem 5.4.0 for Intel X86 EM64T Linux

 Parts of Q-Chem use Armadillo 9.800.1 (Horizon Scraper).
 http://arma.sourceforge.net/

 Q-Chem begins on Fri Dec 15 14:12:16 2023  

 Host: 
0

     Scratch files written to ./qchem2818854//
 May1621 |scratch|qcdevops|jenkins|workspace|build_RNUM    
 Parallel job on  1  processors
 Processing $rem in /cm/shared/apps/spack/cpu/opt/spack/linux-centos8-zen2/gcc-10.2.0/qchem-5.4-akfmr7b3t57bfs6qan3padb2wnb2i7cl/config/preferences:
 Processing $rem in /home/rramji/.qchemrc:
 Symmetry turned off for PCM/SM12/SMD calculation
 Core orbitals will be frozen

 Checking the input file for inconsistencies... 	...done.

 Q-Chem warning in module forms1/BasisType.C, line 2236:

 You are not using the predefined 5D/6D in this basis set.


--------------------------------------------------------------
User input:
--------------------------------------------------------------
$molecule
0 1
C	-0.361285	-3.887800	-0.627947
C	0.331462	-3.701456	0.572038
C	0.542953	-2.345170	0.939610
H	0.684893	-4.545233	1.183405
C	0.000000	-1.450135	0.000000
S	-0.763441	-2.321334	-1.323052
C	1.265941	-1.934439	2.192207
H	1.598695	-2.819799	2.767709
H	0.620770	-1.326210	2.860100
H	2.166438	-1.325374	1.967682
C	0.000000	0.000000	0.000000
C	0.729909	0.424971	1.113020
C	1.932179	1.124518	0.820578
H	0.394478	0.229765	2.142881
C	2.146756	1.249161	-0.563588
S	0.838724	0.488500	-1.464748
C	2.852364	1.659924	1.882380
H	2.465145	1.434710	2.894974
H	2.970621	2.761183	1.808137
H	3.868160	1.218416	1.808230
H	2.974781	1.731032	-1.097114
H	-1.305744	-4.420219	-0.469073
H	0.248940	-4.419395	-1.366694
H	-0.935300	-1.450628	0.540012
$end

$rem
JOBTYPE		SP
EXCHANGE	HF
CORRELATION	pRIMP2
BASIS		cc-pvtz
METHOD		rimp2
AUX_BASIS	rimp2-cc-pvtz
SOLVENT_METHOD	PCM
PURECART	11111
SYMMETRY	false
MEM_TOTAL	110000
SCF_CONVERGENCE = 6
THRESH=10
GUI = 2
$end



$solvent
dielectric 4.90
$end
--------------------------------------------------------------
 ----------------------------------------------------------------
             Standard Nuclear Orientation (Angstroms)
    I     Atom           X                Y                Z
 ----------------------------------------------------------------
    1      C      -0.3612850000    -3.8878000000    -0.6279470000
    2      C       0.3314620000    -3.7014560000     0.5720380000
    3      C       0.5429530000    -2.3451700000     0.9396100000
    4      H       0.6848930000    -4.5452330000     1.1834050000
    5      C       0.0000000000    -1.4501350000     0.0000000000
    6      S      -0.7634410000    -2.3213340000    -1.3230520000
    7      C       1.2659410000    -1.9344390000     2.1922070000
    8      H       1.5986950000    -2.8197990000     2.7677090000
    9      H       0.6207700000    -1.3262100000     2.8601000000
   10      H       2.1664380000    -1.3253740000     1.9676820000
   11      C       0.0000000000     0.0000000000     0.0000000000
   12      C       0.7299090000     0.4249710000     1.1130200000
   13      C       1.9321790000     1.1245180000     0.8205780000
   14      H       0.3944780000     0.2297650000     2.1428810000
   15      C       2.1467560000     1.2491610000    -0.5635880000
   16      S       0.8387240000     0.4885000000    -1.4647480000
   17      C       2.8523640000     1.6599240000     1.8823800000
   18      H       2.4651450000     1.4347100000     2.8949740000
   19      H       2.9706210000     2.7611830000     1.8081370000
   20      H       3.8681600000     1.2184160000     1.8082300000
   21      H       2.9747810000     1.7310320000    -1.0971140000
   22      H      -1.3057440000    -4.4202190000    -0.4690730000
   23      H       0.2489400000    -4.4193950000    -1.3666940000
   24      H      -0.9353000000    -1.4506280000     0.5400120000
 ----------------------------------------------------------------
 Nuclear Repulsion Energy =         903.91414284 hartrees
 There are       52 alpha and       52 beta electrons
 Requested basis set is cc-pVTZ
 There are 196 shells and 536 basis functions

 Total QAlloc Memory Limit 110000 MB
 Mega-Array Size       188 MB
 MEM_STATIC part       192 MB
 Discretize the solute cavity surface with Lebedev spheres
	Using 110 Lebedev grid points for each H atom
	Using 194 Lebedev grid points for other atoms
	Atomic van der Waals radii will be scaled by 1.20
 Remove points where switching function is < 1.0e-08
 Keep 1530 surface tesserae and discard 2118 interior tesserae
 Molecular Surface Area = 224.980 Angst**2
 Requested basis set is rimp2-cc-pVTZ
 There are 414 shells and 1414 basis functions
 A cutoff of  1.0D-10 yielded  14978 shell pairs
 There are    109068 function pairs (    139855 Cartesian)
 Smallest overlap matrix eigenvalue = 6.53E-05

 Scale SEOQF with 1.000000e-01/1.000000e-01/1.000000e-01

 Standard Electronic Orientation quadrupole field applied
 Nucleus-field energy     =     0.0000000197 hartrees
 Guess from superposition of atomic densities
 Warning:  Energy on first SCF cycle will be non-variational
 SAD guess density has 104.000000 electrons

 -----------------------------------------------------------------------
  General SCF calculation program by
  Eric Jon Sundstrom, Paul Horn, Yuezhi Mao, Dmitri Zuev, Alec White,
  David Stuck, Shaama M.S., Shane Yost, Joonho Lee, David Small,
  Daniel Levine, Susi Lehtola, Hugh Burton, Evgeny Epifanovsky,
  Bang C. Huynh
 -----------------------------------------------------------------------
 Hartree-Fock
 using 64 threads for integral computing
 -------------------------------------------------------
 OpenMP Integral computing Module                
 Release: version 1.0, May 2013, Q-Chem Inc. Pittsburgh 
 -------------------------------------------------------
 A restricted SCF calculation will be
 performed using DIIS
 SCF converges when DIIS error is below 1.0e-06
 ---------------------------------------
  Cycle       Energy         DIIS error
 ---------------------------------------
    1   -1186.2211529303      2.41e-02  
    2   -1180.5236222448      1.53e-03  
    3   -1180.6511630920      5.28e-04  
    4   -1180.6646720756      2.69e-04  
    5   -1180.6681960813      5.72e-05  
    6   -1180.6684864326      2.58e-05  
    7   -1180.6685775202      1.38e-05  
    8   -1180.6686106392      6.42e-06  
    9   -1180.6686211251      3.08e-06  
   10   -1180.6686230795      1.13e-06  
   11   -1180.6686233740      5.18e-07  Convergence criterion met
 ---------------------------------------
 SCF time:   CPU 1923.33s  wall 57.00s 

************** Final PCM Free Energy Summary **************
 G_electrostatic  =      -0.01187992 hartree =      -7.45476486 kcal/mol
 G_cavitation     =       0.00000000 hartree =       0.00000000 kcal/mol
 G_dispersion     =       0.00000000 hartree =       0.00000000 kcal/mol
 G_repulsion      =       0.00000000 hartree =       0.00000000 kcal/mol
 --------------------------------------------------
 Non-electrostatic Free Energy =       0.00000000 hartree =       0.00000000 kcal/mol
 Total                         =      -0.01187992 hartree =      -7.45476486 kcal/mol
 --------------------------------------------------
 SCF Energy (H0 + V/2)                       =   -1180.66862337 
 Solute Internal Energy (H0)                 =   -1180.65674345 
 Total Free Energy (H0 + V/2 + non-elec)     =   -1180.66862337 hartree
                                             = -740880.74327971 kcal/mol
***********************************************************

 SCF   energy in the final basis set =    -1180.6686233740
 Total energy in the final basis set =    -1180.6686233740


 --------------------------------------------------------------
  Generalized many-body perturbation theory program
  by Joonho Lee, Fazle Rob, Xintian Feng, Evgeny Epifanovsky

 No regularization used 
 (reg. param. = 0.0000e+00)
  (P|Q)^-1/2 Time:  CPU 21.51 s  wall 0.34 s

 In RI-MP2 calculation: 
 # of frozen core orbitals: 20

 Components of the RIMP2 correlation energy:
        aaaa    correlation energy =        -0.2559180188 a.u.
        abab    correlation energy =        -1.5166585639 a.u.
        bbbb    correlation energy =        -0.2559180188 a.u.
        non-Brillouin singles      =        -0.0000000000 a.u.
        total same-spin energy     =        -0.5118360376 a.u.
        total opposite-spin energy =        -1.5166585639 a.u.

 Total  RIMP2   correlation energy =        -2.0284946015 a.u.
        RIMP2         total energy =     -1182.6971179755 a.u.

 RI-MP2 Energy Time:  CPU 169.90 s  wall 2.96 s
 
 --------------------------------------------------------------
 
                    Orbital Energies (a.u.)
 --------------------------------------------------------------
 
 Alpha MOs
 -- Occupied --
-91.9744 -91.9369 -11.2867 -11.2602 -11.2594 -11.2525 -11.2501 -11.2493
-11.2383 -11.2319 -11.2318 -11.2138  -8.9756  -8.9416  -6.6564  -6.6554
 -6.6552  -6.6230  -6.6220  -6.6208  -1.2050  -1.1538  -1.0581  -1.0332
 -0.9987  -0.9650  -0.9139  -0.9033  -0.8092  -0.7602  -0.7363  -0.7145
 -0.6481  -0.6428  -0.6156  -0.5983  -0.5934  -0.5699  -0.5601  -0.5500
 -0.5405  -0.5335  -0.5257  -0.5088  -0.4785  -0.4669  -0.4432  -0.4392
 -0.3548  -0.3372  -0.3235  -0.2606
 -- Virtual --
  0.0617   0.1280   0.1451   0.1492   0.1585   0.1703   0.1767   0.1835
  0.1932   0.1970   0.2065   0.2179   0.2276   0.2305   0.2382   0.2400
  0.2617   0.2670   0.2795   0.2967   0.3142   0.3250   0.3330   0.3589
  0.3621   0.3708   0.3854   0.3944   0.4031   0.4115   0.4134   0.4288
  0.4316   0.4463   0.4685   0.4702   0.4758   0.4841   0.4853   0.4891
  0.4999   0.5140   0.5200   0.5236   0.5344   0.5403   0.5486   0.5606
  0.5647   0.5735   0.5835   0.5942   0.5965   0.6094   0.6168   0.6177
  0.6234   0.6285   0.6316   0.6421   0.6471   0.6561   0.6629   0.6676
  0.6689   0.6782   0.6812   0.6955   0.7097   0.7175   0.7264   0.7317
  0.7503   0.7564   0.7626   0.7734   0.7905   0.8009   0.8183   0.8252
  0.8327   0.8524   0.8617   0.8654   0.8845   0.8976   0.9012   0.9107
  0.9358   0.9402   0.9486   0.9603   0.9752   1.0079   1.0118   1.0200
  1.0268   1.0372   1.0466   1.0531   1.0549   1.0824   1.0932   1.0991
  1.1139   1.1233   1.1258   1.1397   1.1476   1.1646   1.1703   1.1757
  1.1850   1.1965   1.2067   1.2165   1.2282   1.2346   1.2506   1.2601
  1.2685   1.2759   1.2829   1.2868   1.2987   1.3024   1.3186   1.3234
  1.3390   1.3440   1.3716   1.3794   1.3898   1.3955   1.3998   1.4289
  1.4357   1.4404   1.4594   1.4653   1.4762   1.4836   1.4939   1.5051
  1.5103   1.5161   1.5321   1.5397   1.5506   1.5527   1.5606   1.5675
  1.5733   1.5868   1.6076   1.6139   1.6278   1.6357   1.6421   1.6495
  1.6638   1.6827   1.6957   1.7040   1.7127   1.7370   1.7393   1.7574
  1.7677   1.7789   1.7864   1.8037   1.8179   1.8378   1.8599   1.8775
  1.8966   1.9280   1.9419   1.9533   1.9692   1.9824   1.9874   2.0160
  2.0348   2.0431   2.0545   2.0699   2.0963   2.1140   2.1472   2.1645
  2.1763   2.1989   2.2065   2.2205   2.2345   2.2475   2.2644   2.2740
  2.2983   2.3259   2.3270   2.3845   2.4206   2.4424   2.4613   2.4827
  2.4954   2.5303   2.5482   2.5568   2.5743   2.5994   2.6316   2.6438
  2.6460   2.6622   2.6688   2.6889   2.7071   2.7199   2.7369   2.7469
  2.7500   2.7621   2.7696   2.7723   2.7968   2.8125   2.8219   2.8414
  2.8669   2.8759   2.8895   2.9006   2.9056   2.9172   2.9269   2.9537
  2.9621   2.9827   2.9857   2.9991   3.0126   3.0243   3.0460   3.0505
  3.0647   3.0971   3.0994   3.1054   3.1172   3.1207   3.1433   3.1528
  3.1684   3.1746   3.1817   3.1870   3.1948   3.2121   3.2133   3.2170
  3.2366   3.2439   3.2549   3.2678   3.2740   3.2887   3.3143   3.3171
  3.3277   3.3354   3.3368   3.3435   3.3463   3.3547   3.3659   3.3820
  3.3845   3.3916   3.3941   3.4006   3.4037   3.4253   3.4424   3.4529
  3.4598   3.4639   3.4814   3.4840   3.4949   3.5027   3.5156   3.5240
  3.5293   3.5327   3.5399   3.5462   3.5520   3.5779   3.5848   3.5912
  3.6061   3.6065   3.6221   3.6386   3.6605   3.6637   3.6735   3.6922
  3.6979   3.7042   3.7100   3.7248   3.7293   3.7384   3.7476   3.7563
  3.7671   3.7849   3.7916   3.7948   3.8123   3.8231   3.8283   3.8455
  3.8668   3.8724   3.8864   3.8981   3.9122   3.9146   3.9405   3.9462
  3.9541   3.9822   3.9846   3.9969   3.9998   4.0199   4.0277   4.0376
  4.0541   4.0627   4.0700   4.0780   4.0914   4.1130   4.1276   4.1339
  4.1455   4.1545   4.1697   4.1835   4.1916   4.1997   4.2126   4.2209
  4.2268   4.2458   4.2552   4.2588   4.2642   4.2792   4.2894   4.2900
  4.3114   4.3220   4.3363   4.3494   4.3710   4.3755   4.3865   4.3969
  4.4029   4.4110   4.4235   4.4310   4.4457   4.4574   4.4630   4.4745
  4.4871   4.5106   4.5246   4.5335   4.5481   4.5712   4.5864   4.5908
  4.6057   4.6261   4.6424   4.6528   4.6668   4.6853   4.6900   4.7247
  4.7393   4.7515   4.7778   4.7926   4.8051   4.8287   4.8454   4.8627
  4.8776   4.9013   4.9229   4.9318   4.9532   4.9779   5.0049   5.0201
  5.0401   5.0675   5.0902   5.0981   5.1131   5.1295   5.1604   5.1867
  5.2092   5.2122   5.2392   5.2676   5.2883   5.3038   5.3120   5.3195
  5.3432   5.3857   5.3908   5.4075   5.4207   5.4369   5.4444   5.4500
  5.4934   5.5058   5.5264   5.5502   5.5595   5.5896   5.5979   5.6193
  5.6340   5.6370   5.6586   5.6896   5.7049   5.7073   5.7128   5.7360
  5.7782   5.8015   5.8175   5.9986   6.0382   6.0543   6.1168   6.1582
  6.2228   6.2359   6.2502   6.2654   6.2770   6.2990   6.3236   6.3273
  6.4420   6.4681   9.4948  10.4728  12.5791  12.8874  13.1600  14.0994
 14.1895  14.2389  14.5754  14.8724
 --------------------------------------------------------------
 
          Ground-State Mulliken Net Atomic Charges

     Atom                 Charge (a.u.)
  ----------------------------------------
      1 C                    -0.069357
      2 C                    -0.344637
      3 C                    -0.054638
      4 H                     0.175799
      5 C                     0.090223
      6 S                    -0.199112
      7 C                    -0.280723
      8 H                     0.120241
      9 H                     0.093370
     10 H                     0.113507
     11 C                    -0.169659
     12 C                    -0.141349
     13 C                    -0.028760
     14 H                     0.197860
     15 C                    -0.174025
     16 S                     0.020702
     17 C                    -0.284415
     18 H                     0.105716
     19 H                     0.121948
     20 H                     0.108781
     21 H                     0.200553
     22 H                     0.106711
     23 H                     0.109142
     24 H                     0.182121
  ----------------------------------------
  Sum of atomic charges =     0.000000

 -----------------------------------------------------------------
                    Cartesian Multipole Moments
 -----------------------------------------------------------------
    Charge (ESU x 10^10)
                -0.0000
    Dipole Moment (Debye)
         X       3.2068      Y       0.5986      Z       4.4091
       Tot       5.4847
    Quadrupole Moments (Debye-Ang)
        XX     -82.2529     XY       4.7976     YY     -83.2978
        XZ       1.0201     YZ      -3.1372     ZZ     -85.5637
    Octopole Moments (Debye-Ang^2)
       XXX    -158.6110    XXY      98.3665    XYY     -54.5389
       YYY     209.5190    XXZ      -5.0307    XYZ      -3.5065
       YYZ      -4.2214    XZZ     -50.9439    YZZ      85.2353
       ZZZ       1.7163
    Hexadecapole Moments (Debye-Ang^3)
      XXXX    -951.4077   XXXY    -171.4277   XXYY    -545.4000
      XYYY    -198.7503   YYYY   -2188.1277   XXXZ    -224.8931
      XXYZ     -30.5791   XYYZ     -61.8911   YYYZ     -46.8691
      XXZZ    -316.8845   XYZZ     -74.3599   YYZZ    -552.3984
      XZZZ    -205.3498   YZZZ     -66.3524   ZZZZ    -973.2263
 -----------------------------------------------------------------
 Total job time:  62.31s(wall), 2158.28s(cpu) 
 Fri Dec 15 14:13:19 2023

        *************************************************************
        *                                                           *
        *  Thank you very much for using Q-Chem.  Have a nice day.  *
        *                                                           *
        *************************************************************


0 sent ACK to 0 
now end server 0 ... 
cleanup process ... done
remove work dirs ./qchem2818854.0 -- ./qchem2818854.0
rm -rf ./qchem2818854.0
rm -rf ./qchem2818854
