You are running Q-Chem version: 5.4.0

#
# job setting
#
local host:  exp-9-54
current dir: /home/rramji/project-csd799/aromodel/p3ht-qchem/hydrogenated-rotation-run
input file:  Methylthiophene_Phi_25_Theta_30_Methylthiophene_Hydrogenated.qcin
output file: 
nprocs     : 1
nthreads   : 64
#
# qchem installation setting
#
QC:          /cm/shared/apps/spack/cpu/opt/spack/linux-centos8-zen2/gcc-10.2.0/qchem-5.4-akfmr7b3t57bfs6qan3padb2wnb2i7cl
QCAUX:       /cm/shared/apps/spack/cpu/opt/spack/linux-centos8-zen2/gcc-10.2.0/qchem-5.4-akfmr7b3t57bfs6qan3padb2wnb2i7cl/qcaux
QCPROG:      /cm/shared/apps/spack/cpu/opt/spack/linux-centos8-zen2/gcc-10.2.0/qchem-5.4-akfmr7b3t57bfs6qan3padb2wnb2i7cl/exe/qcprog.exe
QCPROG_S:    /cm/shared/apps/spack/cpu/opt/spack/linux-centos8-zen2/gcc-10.2.0/qchem-5.4-akfmr7b3t57bfs6qan3padb2wnb2i7cl/exe/qcprog.exe_s
PARALLEL:    -DPARALLEL
QCMPI:       mpich
#
# qchem directory setting
#
qcrun:       qchem3688090
QCSCRATCH:   .
QCLOCALSCR:  
QCTMPDIR:    .
QCFILEPREF:  ./qchem3688090
QCSAVEDIR:   
workdirs:    ./qchem3688090
workdir0:    ./qchem3688090
partmpdirs =  
#
# parallel setting
#
QCRSH:           ssh
QCMPI:           mpich
QCMPIRUN:        /cm/shared/apps/spack/cpu/opt/spack/linux-centos8-zen2/gcc-10.2.0/qchem-5.4-akfmr7b3t57bfs6qan3padb2wnb2i7cl/bin/mpi/mpirun_qchem
QCMACHINEFILE:   ./qchem3688090/hostfile
exp-9-54

#
# env setting
#
exported envs:   QC QCAUX QCSCRATCH QCRUNNAME QCFILEPREF QCPROG QCPROG_S GUIFILE

Running Job 1 of 1 Methylthiophene_Phi_25_Theta_30_Methylthiophene_Hydrogenated.qcin
qchem Methylthiophene_Phi_25_Theta_30_Methylthiophene_Hydrogenated.qcin_3688090.0 ./qchem3688090/ 1
/cm/shared/apps/spack/cpu/opt/spack/linux-centos8-zen2/gcc-10.2.0/qchem-5.4-akfmr7b3t57bfs6qan3padb2wnb2i7cl/bin/mpi/mpirun_qchem -machinefile ./qchem3688090/hostfile -np 1 /cm/shared/apps/spack/cpu/opt/spack/linux-centos8-zen2/gcc-10.2.0/qchem-5.4-akfmr7b3t57bfs6qan3padb2wnb2i7cl/exe/qcprog.exe Methylthiophene_Phi_25_Theta_30_Methylthiophene_Hydrogenated.qcin_3688090.0 ./qchem3688090/

Process 0 of 1 is on exp-9-54 - thread support 0
initial socket setup ...start
initial socket setup ...done 
now start server 0 ... 
                  Welcome to Q-Chem
     A Quantum Leap Into The Future Of Chemistry


 Q-Chem 5.4, Q-Chem, Inc., Pleasanton, CA (2021)

 License issued to: University of California, San Diego (site)

 E. Epifanovsky,  A. T. B. Gilbert,  Xintian Feng,  Joonho Lee,  Yuezhi Mao,  
 N. Mardirossian,  P. Pokhilko,  A. White,  M. Wormit,  M. P. Coons,  
 A. L. Dempwolff,  Zhengting Gan,  D. Hait,  P. R. Horn,  L. D. Jacobson,  
 I. Kaliman,  J. Kussmann,  A. W. Lange,  Ka Un Lao,  D. S. Levine,  Jie Liu,  
 S. C. McKenzie,  A. F. Morrison,  K. Nanda,  F. Plasser,  D. R. Rehn,  
 M. L. Vidal,  Zhi-Qiang You,  Ying Zhu,  B. Alam,  B. Albrecht,  
 A. Aldossary,  E. Alguire,  J. H. Andersen,  D. Barton,  K. Begam,  A. Behn,  
 Y. A. Bernard,  E. J. Berquist,  H. Burton,  A. Carreras,  K. Carter-Fenk,  
 R. Chakraborty,  A. D. Chien,  K. D. Closser,  V. Cofer-Shabica,  
 S. Dasgupta,  Jia Deng,  M. de Wergifosse,  M. Diedenhofen,  Hainam Do,  
 S. Ehlert,  Po-Tung Fang,  S. Fatehi,  Qingguo Feng,  J. Gayvert,  
 Qinghui Ge,  G. Gidofalvi,  M. Goldey,  J. Gomes,  C. Gonzalez-Espinoza,  
 S. Gulania,  A. Gunina,  M. W. D. Hanson-Heine,  P. H. P. Harbach,  
 A. W. Hauser,  M. F. Herbst,  M. Hernandez Vera,  M. Hodecker,  
 Z. C. Holden,  S. Houck,  Xunkun Huang,  Kerwin Hui,  B. C. Huynh,  
 M. Ivanov,  Hyunjun Ji,  Hanjie Jiang,  B. Kaduk,  S. Kaehler,  
 K. Khistyaev,  Jaehoon Kim,  P. Klunzinger,  Z. Koczor-Benda,  
 Joong Hoon Koh,  D. Kosenkov,  L. Koulias,  T. Kowalczyk,  C. M. Krauter,  
 K. Kue,  A. Kunitsa,  T. Kus,  A. Landau,  K. V. Lawler,  D. Lefrancois,  
 S. Lehtola,  Rain Li,  Yi-Pei Li,  Jiashu Liang,  M. Liebenthal,  
 Hung-Hsuan Lin,  You-Sheng Lin,  Fenglai Liu,  Kuan-Yu Liu,  
 M. Loipersberger,  A. Luenser,  A. Manjanath,  P. Manohar,  E. Mansoor,  
 S. F. Manzer,  Shan-Ping Mao,  A. V. Marenich,  T. Markovich,  S. Mason,  
 S. A. Maurer,  P. F. McLaughlin,  M. F. S. J. Menger,  J.-M. Mewes,  
 S. A. Mewes,  P. Morgante,  J. W. Mullinax,  T. S. Nguyen-Beck,  
 K. J. Oosterbaan,  G. Paran,  Alexander C. Paul,  Suranjan K. Paul,  
 F. Pavosevic,  Zheng Pei,  S. Prager,  E. I. Proynov,  E. Ramos,  B. Rana,  
 A. E. Rask,  A. Rettig,  R. M. Richard,  F. Rob,  E. Rossomme,  T. Scheele,  
 M. Scheurer,  M. Schneider,  N. Sergueev,  S. M. Sharada,  W. Skomorowski,  
 D. W. Small,  C. J. Stein,  Yu-Chuan Su,  E. J. Sundstrom,  Zhen Tao,  
 J. Thirman,  T. Tsuchimochi,  N. M. Tubman,  S. P. Veccham,  O. Vydrov,  
 J. Wenzel,  J. Witte,  A. Yamada,  Kun Yao,  S. Yeganeh,  S. R. Yost,  
 A. Zech,  Igor Ying Zhang,  Xing Zhang,  Yu Zhang,  D. Zuev,  
 A. Aspuru-Guzik,  A. T. Bell,  N. A. Besley,  K. B. Bravaya,  B. R. Brooks,  
 D. Casanova,  Jeng-Da Chai,  S. Coriani,  C. J. Cramer,  
 A. E. DePrince, III,  R. A. DiStasio Jr.,  A. Dreuw,  B. D. Dunietz,  
 T. R. Furlani,  W. A. Goddard III,  S. Grimme,  S. Hammes-Schiffer,  
 T. Head-Gordon,  W. J. Hehre,  Chao-Ping Hsu,  T.-C. Jagau,  Yousung Jung,  
 A. Klamt,  Jing Kong,  D. S. Lambrecht,  WanZhen Liang,  N. J. Mayhall,  
 C. W. McCurdy,  J. B. Neaton,  C. Ochsenfeld,  J. A. Parkhill,  R. Peverati,  
 V. A. Rassolov,  Yihan Shao,  L. V. Slipchenko,  T. Stauch,  R. P. Steele,  
 J. E. Subotnik,  A. J. W. Thom,  A. Tkatchenko,  D. G. Truhlar,  
 T. Van Voorhis,  T. A. Wesolowski,  K. B. Whaley,  H. L. Woodcock III,  
 P. M. Zimmerman,  S. Faraji,  P. M. W. Gill,  M. Head-Gordon,  
 J. M. Herbert,  A. I. Krylov

 Contributors to earlier versions of Q-Chem not listed above: 
 R. D. Adamson,  B. Austin,  R. Baer,  J. Baker,  G. J. O. Beran,  
 K. Brandhorst,  S. T. Brown,  E. F. C. Byrd,  A. K. Chakraborty,  
 G. K. L. Chan,  Chun-Min Chang,  Yunqing Chen,  C.-L. Cheng,  
 Siu Hung Chien,  D. M. Chipman,  D. L. Crittenden,  H. Dachsel,  
 R. J. Doerksen,  A. D. Dutoi,  R. G. Edgar,  J. Fosso-Tande,  
 L. Fusti-Molnar,  D. Ghosh,  A. Ghysels,  A. Golubeva-Zadorozhnaya,  
 J. Gonthier,  M. S. Gordon,  S. R. Gwaltney,  G. Hawkins,  J. E. Herr,  
 A. Heyden,  S. Hirata,  E. G. Hohenstein,  G. Kedziora,  F. J. Keil,  
 C. Kelley,  Jihan Kim,  R. A. King,  R. Z. Khaliullin,  P. P. Korambath,  
 W. Kurlancheek,  A. Laurent,  A. M. Lee,  M. S. Lee,  S. V. Levchenko,  
 Ching Yeh Lin,  D. Liotard,  E. Livshits,  R. C. Lochan,  I. Lotan,  
 L. A. Martinez-Martinez,  P. E. Maslen,  N. Nair,  D. P. O'Neill,  
 D. Neuhauser,  E. Neuscamman,  C. M. Oana,  R. Olivares-Amaya,  R. Olson,  
 T. M. Perrine,  B. Peters,  P. A. Pieniazek,  A. Prociuk,  Y. M. Rhee,  
 J. Ritchie,  M. A. Rohrdanz,  E. Rosta,  N. J. Russ,  H. F. Schaefer III,  
 M. W. Schmidt,  N. E. Schultz,  S. Sharma,  N. Shenvi,  C. D. Sherrill,  
 A. C. Simmonett,  A. Sodt,  T. Stein,  D. Stuck,  K. S. Thanthiriwatte,  
 V. Vanovschi,  L. Vogt,  Tao Wang,  A. Warshel,  M. A. Watson,  
 C. F. Williams,  Q. Wu,  X. Xu,  Jun Yang,  W. Zhang,  Yan Zhao

 Please cite Q-Chem as follows:
 Y. Shao et al., Mol. Phys. 113, 184-215 (2015)
 DOI: 10.1080/00268976.2014.952696

 Q-Chem 5.4.0 for Intel X86 EM64T Linux

 Parts of Q-Chem use Armadillo 9.800.1 (Horizon Scraper).
 http://arma.sourceforge.net/

 Q-Chem begins on Fri Dec 15 13:56:52 2023  

 Host: 
0

     Scratch files written to ./qchem3688090//
 May1621 |scratch|qcdevops|jenkins|workspace|build_RNUM    
 Parallel job on  1  processors
 Processing $rem in /cm/shared/apps/spack/cpu/opt/spack/linux-centos8-zen2/gcc-10.2.0/qchem-5.4-akfmr7b3t57bfs6qan3padb2wnb2i7cl/config/preferences:
 Processing $rem in /home/rramji/.qchemrc:
 Symmetry turned off for PCM/SM12/SMD calculation
 Core orbitals will be frozen

 Checking the input file for inconsistencies... 	...done.

 Q-Chem warning in module forms1/BasisType.C, line 2236:

 You are not using the predefined 5D/6D in this basis set.


--------------------------------------------------------------
User input:
--------------------------------------------------------------
$molecule
0 1
C	-0.363176	-3.887800	0.626855
C	0.329669	-3.701456	-0.573074
C	0.542250	-2.345170	-0.940016
H	0.682412	-4.545233	-1.184837
C	0.000000	-1.450135	0.000000
S	-0.764076	-2.321334	1.322686
C	1.265537	-1.934439	-2.192440
H	1.597559	-2.819799	-2.768365
H	2.166534	-1.326210	-1.967653
H	0.620843	-1.325374	-2.860032
C	0.000000	0.000000	0.000000
C	0.354153	0.766774	1.113020
C	0.937751	2.029404	0.820578
H	0.191350	0.414475	2.142881
C	1.042030	2.254581	-0.563588
S	0.406851	0.881228	-1.464748
C	1.384426	2.995779	1.882380
H	1.196413	2.589194	2.894974
H	0.849641	3.965707	1.808137
H	2.469756	3.216753	1.808230
H	1.443919	3.124243	-1.097114
H	0.246643	-4.420219	1.365344
H	-1.308062	-4.419395	0.467758
H	0.935314	-1.450628	0.539988
$end

$rem
JOBTYPE		SP
EXCHANGE	HF
CORRELATION	pRIMP2
BASIS		cc-pvtz
METHOD		rimp2
AUX_BASIS	rimp2-cc-pvtz
SOLVENT_METHOD	PCM
PURECART	11111
SYMMETRY	false
MEM_TOTAL	110000
SCF_CONVERGENCE = 6
THRESH=10
GUI = 2
$end



$solvent
dielectric 4.90
$end
--------------------------------------------------------------
 ----------------------------------------------------------------
             Standard Nuclear Orientation (Angstroms)
    I     Atom           X                Y                Z
 ----------------------------------------------------------------
    1      C      -0.3631760000    -3.8878000000     0.6268550000
    2      C       0.3296690000    -3.7014560000    -0.5730740000
    3      C       0.5422500000    -2.3451700000    -0.9400160000
    4      H       0.6824120000    -4.5452330000    -1.1848370000
    5      C       0.0000000000    -1.4501350000     0.0000000000
    6      S      -0.7640760000    -2.3213340000     1.3226860000
    7      C       1.2655370000    -1.9344390000    -2.1924400000
    8      H       1.5975590000    -2.8197990000    -2.7683650000
    9      H       2.1665340000    -1.3262100000    -1.9676530000
   10      H       0.6208430000    -1.3253740000    -2.8600320000
   11      C       0.0000000000     0.0000000000     0.0000000000
   12      C       0.3541530000     0.7667740000     1.1130200000
   13      C       0.9377510000     2.0294040000     0.8205780000
   14      H       0.1913500000     0.4144750000     2.1428810000
   15      C       1.0420300000     2.2545810000    -0.5635880000
   16      S       0.4068510000     0.8812280000    -1.4647480000
   17      C       1.3844260000     2.9957790000     1.8823800000
   18      H       1.1964130000     2.5891940000     2.8949740000
   19      H       0.8496410000     3.9657070000     1.8081370000
   20      H       2.4697560000     3.2167530000     1.8082300000
   21      H       1.4439190000     3.1242430000    -1.0971140000
   22      H       0.2466430000    -4.4202190000     1.3653440000
   23      H      -1.3080620000    -4.4193950000     0.4677580000
   24      H       0.9353140000    -1.4506280000     0.5399880000
 ----------------------------------------------------------------
 Nuclear Repulsion Energy =         880.10787967 hartrees
 There are       52 alpha and       52 beta electrons
 Requested basis set is cc-pVTZ
 There are 196 shells and 536 basis functions

 Total QAlloc Memory Limit 110000 MB
 Mega-Array Size       188 MB
 MEM_STATIC part       192 MB
 Discretize the solute cavity surface with Lebedev spheres
	Using 110 Lebedev grid points for each H atom
	Using 194 Lebedev grid points for other atoms
	Atomic van der Waals radii will be scaled by 1.20
 Remove points where switching function is < 1.0e-08
 Keep 1587 surface tesserae and discard 2061 interior tesserae
 Molecular Surface Area = 230.438 Angst**2
 Requested basis set is rimp2-cc-pVTZ
 There are 414 shells and 1414 basis functions
 A cutoff of  1.0D-10 yielded  14100 shell pairs
 There are    102106 function pairs (    130887 Cartesian)
 Smallest overlap matrix eigenvalue = 5.90E-05

 Scale SEOQF with 1.000000e-01/1.000000e-01/1.000000e-01

 Standard Electronic Orientation quadrupole field applied
 Nucleus-field energy     =     0.0000000238 hartrees
 Guess from superposition of atomic densities
 Warning:  Energy on first SCF cycle will be non-variational
 SAD guess density has 104.000000 electrons

 -----------------------------------------------------------------------
  General SCF calculation program by
  Eric Jon Sundstrom, Paul Horn, Yuezhi Mao, Dmitri Zuev, Alec White,
  David Stuck, Shaama M.S., Shane Yost, Joonho Lee, David Small,
  Daniel Levine, Susi Lehtola, Hugh Burton, Evgeny Epifanovsky,
  Bang C. Huynh
 -----------------------------------------------------------------------
 Hartree-Fock
 using 64 threads for integral computing
 -------------------------------------------------------
 OpenMP Integral computing Module                
 Release: version 1.0, May 2013, Q-Chem Inc. Pittsburgh 
 -------------------------------------------------------
 A restricted SCF calculation will be
 performed using DIIS
 SCF converges when DIIS error is below 1.0e-06
 ---------------------------------------
  Cycle       Energy         DIIS error
 ---------------------------------------
    1   -1186.0619719210      2.39e-02  
    2   -1180.5953275534      1.58e-03  
    3   -1180.7214633041      6.45e-04  
    4   -1180.7370300558      3.49e-04  
    5   -1180.7426487882      6.07e-05  
    6   -1180.7429043581      2.49e-05  
    7   -1180.7429636572      8.80e-06  
    8   -1180.7429761464      4.17e-06  
    9   -1180.7429789417      1.49e-06  
   10   -1180.7429794125      5.24e-07  Convergence criterion met
 ---------------------------------------
 SCF time:   CPU 1699.84s  wall 54.00s 

************** Final PCM Free Energy Summary **************
 G_electrostatic  =      -0.00814574 hartree =      -5.11152849 kcal/mol
 G_cavitation     =       0.00000000 hartree =       0.00000000 kcal/mol
 G_dispersion     =       0.00000000 hartree =       0.00000000 kcal/mol
 G_repulsion      =       0.00000000 hartree =       0.00000000 kcal/mol
 --------------------------------------------------
 Non-electrostatic Free Energy =       0.00000000 hartree =       0.00000000 kcal/mol
 Total                         =      -0.00814574 hartree =      -5.11152849 kcal/mol
 --------------------------------------------------
 SCF Energy (H0 + V/2)                       =   -1180.74297941 
 Solute Internal Energy (H0)                 =   -1180.73483367 
 Total Free Energy (H0 + V/2 + non-elec)     =   -1180.74297941 hartree
                                             = -740927.40239808 kcal/mol
***********************************************************

 SCF   energy in the final basis set =    -1180.7429794125
 Total energy in the final basis set =    -1180.7429794125


 --------------------------------------------------------------
  Generalized many-body perturbation theory program
  by Joonho Lee, Fazle Rob, Xintian Feng, Evgeny Epifanovsky

 No regularization used 
 (reg. param. = 0.0000e+00)
  (P|Q)^-1/2 Time:  CPU 20.00 s  wall 0.32 s

 In RI-MP2 calculation: 
 # of frozen core orbitals: 20

 Components of the RIMP2 correlation energy:
        aaaa    correlation energy =        -0.2523998917 a.u.
        abab    correlation energy =        -1.5057098887 a.u.
        bbbb    correlation energy =        -0.2523998917 a.u.
        non-Brillouin singles      =        -0.0000000000 a.u.
        total same-spin energy     =        -0.5047997834 a.u.
        total opposite-spin energy =        -1.5057098887 a.u.

 Total  RIMP2   correlation energy =        -2.0105096720 a.u.
        RIMP2         total energy =     -1182.7534890845 a.u.

 RI-MP2 Energy Time:  CPU 166.85 s  wall 3.07 s
 
 --------------------------------------------------------------
 
                    Orbital Energies (a.u.)
 --------------------------------------------------------------
 
 Alpha MOs
 -- Occupied --
-91.9818 -91.9438 -11.2857 -11.2641 -11.2591 -11.2578 -11.2504 -11.2430
-11.2325 -11.2303 -11.2282 -11.2205  -8.9819  -8.9485  -6.6628  -6.6622
 -6.6616  -6.6299  -6.6288  -6.6276  -1.2014  -1.1523  -1.0589  -1.0263
 -1.0073  -0.9559  -0.9136  -0.9023  -0.8113  -0.7697  -0.7222  -0.7010
 -0.6625  -0.6445  -0.6108  -0.5857  -0.5815  -0.5738  -0.5684  -0.5534
 -0.5420  -0.5314  -0.5150  -0.5108  -0.4927  -0.4761  -0.4553  -0.4469
 -0.3566  -0.3414  -0.3234  -0.2645
 -- Virtual --
  0.0952   0.1330   0.1444   0.1527   0.1600   0.1703   0.1747   0.1811
  0.1955   0.1977   0.1995   0.2047   0.2235   0.2355   0.2397   0.2438
  0.2482   0.2684   0.2735   0.3070   0.3275   0.3374   0.3489   0.3645
  0.3697   0.3732   0.3784   0.3862   0.4022   0.4059   0.4129   0.4351
  0.4413   0.4508   0.4574   0.4642   0.4745   0.4832   0.4843   0.4988
  0.5065   0.5142   0.5191   0.5307   0.5366   0.5447   0.5522   0.5543
  0.5677   0.5790   0.5844   0.5923   0.5974   0.6136   0.6190   0.6202
  0.6221   0.6248   0.6334   0.6411   0.6428   0.6491   0.6535   0.6572
  0.6600   0.6735   0.6843   0.6900   0.6983   0.7070   0.7179   0.7233
  0.7305   0.7573   0.7676   0.7766   0.7850   0.7933   0.8108   0.8182
  0.8275   0.8424   0.8479   0.8598   0.8854   0.8978   0.9123   0.9219
  0.9318   0.9345   0.9460   0.9571   0.9824   0.9875   0.9971   1.0001
  1.0106   1.0196   1.0419   1.0517   1.0544   1.0654   1.0747   1.0754
  1.0920   1.1028   1.1248   1.1424   1.1456   1.1544   1.1577   1.1706
  1.1770   1.1856   1.1974   1.2090   1.2181   1.2321   1.2358   1.2395
  1.2527   1.2631   1.2718   1.2760   1.2828   1.2943   1.2975   1.3088
  1.3178   1.3321   1.3375   1.3667   1.3824   1.3970   1.4065   1.4123
  1.4290   1.4439   1.4499   1.4601   1.4742   1.4783   1.4965   1.5001
  1.5109   1.5135   1.5172   1.5318   1.5345   1.5459   1.5484   1.5540
  1.5574   1.5755   1.5863   1.5898   1.6080   1.6306   1.6344   1.6436
  1.6563   1.6621   1.6844   1.6914   1.6938   1.7170   1.7242   1.7292
  1.7459   1.7733   1.7910   1.8033   1.8147   1.8215   1.8466   1.8589
  1.8889   1.9191   1.9230   1.9409   1.9618   1.9836   1.9882   2.0213
  2.0375   2.0430   2.0492   2.0584   2.0722   2.1050   2.1263   2.1551
  2.1892   2.1952   2.2094   2.2170   2.2287   2.2528   2.2726   2.2864
  2.3213   2.3396   2.3506   2.3827   2.4048   2.4284   2.4510   2.4714
  2.4960   2.5095   2.5356   2.5507   2.5613   2.5897   2.6064   2.6182
  2.6346   2.6526   2.6614   2.6710   2.6860   2.6974   2.7069   2.7419
  2.7449   2.7473   2.7637   2.7790   2.7832   2.7870   2.8109   2.8237
  2.8358   2.8422   2.8607   2.8742   2.9022   2.9037   2.9157   2.9238
  2.9503   2.9704   2.9801   2.9964   3.0146   3.0235   3.0261   3.0350
  3.0574   3.0831   3.0883   3.0958   3.1098   3.1172   3.1355   3.1392
  3.1472   3.1569   3.1676   3.1743   3.1815   3.1988   3.2093   3.2231
  3.2251   3.2325   3.2506   3.2582   3.2698   3.2890   3.2947   3.3059
  3.3200   3.3216   3.3277   3.3376   3.3488   3.3500   3.3585   3.3680
  3.3804   3.3845   3.3881   3.4018   3.4122   3.4170   3.4249   3.4321
  3.4387   3.4482   3.4537   3.4671   3.4700   3.4861   3.5005   3.5121
  3.5189   3.5207   3.5299   3.5386   3.5472   3.5599   3.5721   3.5781
  3.6006   3.6022   3.6119   3.6280   3.6336   3.6361   3.6420   3.6618
  3.6687   3.6797   3.7023   3.7124   3.7165   3.7284   3.7342   3.7437
  3.7505   3.7549   3.7684   3.7846   3.7918   3.7984   3.8132   3.8186
  3.8293   3.8404   3.8511   3.8611   3.8764   3.8924   3.9052   3.9144
  3.9183   3.9457   3.9563   3.9704   3.9763   3.9929   3.9991   4.0203
  4.0295   4.0392   4.0513   4.0553   4.0707   4.0879   4.1025   4.1144
  4.1199   4.1378   4.1495   4.1576   4.1646   4.1787   4.1865   4.2004
  4.2119   4.2208   4.2358   4.2453   4.2575   4.2686   4.2820   4.2858
  4.2981   4.3101   4.3314   4.3376   4.3396   4.3481   4.3634   4.3713
  4.3870   4.3956   4.4020   4.4042   4.4257   4.4310   4.4461   4.4607
  4.4613   4.4704   4.4884   4.4974   4.5048   4.5268   4.5481   4.5624
  4.5752   4.5872   4.6077   4.6301   4.6373   4.6493   4.6629   4.6718
  4.7007   4.7156   4.7385   4.7467   4.7790   4.8026   4.8401   4.8485
  4.8511   4.8664   4.8871   4.8999   4.9377   4.9588   4.9694   4.9895
  5.0283   5.0427   5.0910   5.1090   5.1205   5.1281   5.1666   5.1799
  5.1847   5.2199   5.2201   5.2718   5.2799   5.2869   5.3068   5.3126
  5.3438   5.3633   5.3837   5.4034   5.4080   5.4209   5.4427   5.4515
  5.4928   5.5025   5.5234   5.5396   5.5533   5.5619   5.5697   5.5824
  5.6234   5.6276   5.6439   5.6548   5.6745   5.6981   5.7019   5.7317
  5.7634   5.7902   5.8376   5.9692   6.0074   6.1190   6.1333   6.1491
  6.2276   6.2296   6.2419   6.2428   6.2665   6.2893   6.2970   6.3117
  6.4126   6.4386   9.3666  10.5405  12.0329  12.9066  13.1596  13.8930
 14.1106  14.2516  14.3432  14.7373
 --------------------------------------------------------------
 
          Ground-State Mulliken Net Atomic Charges

     Atom                 Charge (a.u.)
  ----------------------------------------
      1 C                    -0.072560
      2 C                    -0.322175
      3 C                    -0.034305
      4 H                     0.179076
      5 C                     0.059769
      6 S                    -0.182054
      7 C                    -0.292682
      8 H                     0.114260
      9 H                     0.114609
     10 H                     0.109060
     11 C                    -0.016568
     12 C                    -0.277629
     13 C                     0.031786
     14 H                     0.181008
     15 C                    -0.263422
     16 S                     0.011895
     17 C                    -0.270226
     18 H                     0.102854
     19 H                     0.108489
     20 H                     0.106961
     21 H                     0.197074
     22 H                     0.110279
     23 H                     0.113064
     24 H                     0.191439
  ----------------------------------------
  Sum of atomic charges =     0.000000

 -----------------------------------------------------------------
                    Cartesian Multipole Moments
 -----------------------------------------------------------------
    Charge (ESU x 10^10)
                -0.0000
    Dipole Moment (Debye)
         X       2.6589      Y      -0.1250      Z      -0.3996
       Tot       2.6917
    Quadrupole Moments (Debye-Ang)
        XX     -90.1232     XY       0.7584     YY     -76.0263
        XZ       0.4945     YZ       3.4240     ZZ     -85.3367
    Octopole Moments (Debye-Ang^2)
       XXX     -92.6008    XXY      57.0323    XYY     -15.8879
       YYY     131.2666    XXZ      -3.1735    XYZ       0.9620
       YYZ      -1.0777    XZZ     -23.1551    YZZ      56.8763
       ZZZ      -2.0178
    Hexadecapole Moments (Debye-Ang^3)
      XXXX    -460.9655   XXXY    -185.9934   XXYY    -555.8122
      XYYY    -153.2891   YYYY   -2648.1138   XXXZ      84.4270
      XXYZ     -26.1050   XYYZ      10.5837   YYYZ    -107.1184
      XXZZ    -238.7600   XYZZ     -67.2386   YYZZ    -624.0773
      XZZZ      73.8375   YZZZ     -76.1805   ZZZZ    -966.1928
 -----------------------------------------------------------------
 Total job time:  59.89s(wall), 1939.80s(cpu) 
 Fri Dec 15 13:57:52 2023

        *************************************************************
        *                                                           *
        *  Thank you very much for using Q-Chem.  Have a nice day.  *
        *                                                           *
        *************************************************************


0 sent ACK to 0 
now end server 0 ... 
cleanup process ... done
remove work dirs ./qchem3688090.0 -- ./qchem3688090.0
rm -rf ./qchem3688090.0
rm -rf ./qchem3688090
