You are running Q-Chem version: 5.4.0

#
# job setting
#
local host:  exp-9-54
current dir: /home/rramji/project-csd799/aromodel/p3ht-qchem/hydrogenated-rotation-run
input file:  Methylthiophene_Phi_30_Theta_220_Methylthiophene_Hydrogenated.qcin
output file: 
nprocs     : 1
nthreads   : 64
#
# qchem installation setting
#
QC:          /cm/shared/apps/spack/cpu/opt/spack/linux-centos8-zen2/gcc-10.2.0/qchem-5.4-akfmr7b3t57bfs6qan3padb2wnb2i7cl
QCAUX:       /cm/shared/apps/spack/cpu/opt/spack/linux-centos8-zen2/gcc-10.2.0/qchem-5.4-akfmr7b3t57bfs6qan3padb2wnb2i7cl/qcaux
QCPROG:      /cm/shared/apps/spack/cpu/opt/spack/linux-centos8-zen2/gcc-10.2.0/qchem-5.4-akfmr7b3t57bfs6qan3padb2wnb2i7cl/exe/qcprog.exe
QCPROG_S:    /cm/shared/apps/spack/cpu/opt/spack/linux-centos8-zen2/gcc-10.2.0/qchem-5.4-akfmr7b3t57bfs6qan3padb2wnb2i7cl/exe/qcprog.exe_s
PARALLEL:    -DPARALLEL
QCMPI:       mpich
#
# qchem directory setting
#
qcrun:       qchem3697412
QCSCRATCH:   .
QCLOCALSCR:  
QCTMPDIR:    .
QCFILEPREF:  ./qchem3697412
QCSAVEDIR:   
workdirs:    ./qchem3697412
workdir0:    ./qchem3697412
partmpdirs =  
#
# parallel setting
#
QCRSH:           ssh
QCMPI:           mpich
QCMPIRUN:        /cm/shared/apps/spack/cpu/opt/spack/linux-centos8-zen2/gcc-10.2.0/qchem-5.4-akfmr7b3t57bfs6qan3padb2wnb2i7cl/bin/mpi/mpirun_qchem
QCMACHINEFILE:   ./qchem3697412/hostfile
exp-9-54

#
# env setting
#
exported envs:   QC QCAUX QCSCRATCH QCRUNNAME QCFILEPREF QCPROG QCPROG_S GUIFILE

Running Job 1 of 1 Methylthiophene_Phi_30_Theta_220_Methylthiophene_Hydrogenated.qcin
qchem Methylthiophene_Phi_30_Theta_220_Methylthiophene_Hydrogenated.qcin_3697412.0 ./qchem3697412/ 1
/cm/shared/apps/spack/cpu/opt/spack/linux-centos8-zen2/gcc-10.2.0/qchem-5.4-akfmr7b3t57bfs6qan3padb2wnb2i7cl/bin/mpi/mpirun_qchem -machinefile ./qchem3697412/hostfile -np 1 /cm/shared/apps/spack/cpu/opt/spack/linux-centos8-zen2/gcc-10.2.0/qchem-5.4-akfmr7b3t57bfs6qan3padb2wnb2i7cl/exe/qcprog.exe Methylthiophene_Phi_30_Theta_220_Methylthiophene_Hydrogenated.qcin_3697412.0 ./qchem3697412/

Process 0 of 1 is on exp-9-54 - thread support 0
initial socket setup ...start
initial socket setup ...done 
now start server 0 ... 
                  Welcome to Q-Chem
     A Quantum Leap Into The Future Of Chemistry


 Q-Chem 5.4, Q-Chem, Inc., Pleasanton, CA (2021)

 License issued to: University of California, San Diego (site)

 E. Epifanovsky,  A. T. B. Gilbert,  Xintian Feng,  Joonho Lee,  Yuezhi Mao,  
 N. Mardirossian,  P. Pokhilko,  A. White,  M. Wormit,  M. P. Coons,  
 A. L. Dempwolff,  Zhengting Gan,  D. Hait,  P. R. Horn,  L. D. Jacobson,  
 I. Kaliman,  J. Kussmann,  A. W. Lange,  Ka Un Lao,  D. S. Levine,  Jie Liu,  
 S. C. McKenzie,  A. F. Morrison,  K. Nanda,  F. Plasser,  D. R. Rehn,  
 M. L. Vidal,  Zhi-Qiang You,  Ying Zhu,  B. Alam,  B. Albrecht,  
 A. Aldossary,  E. Alguire,  J. H. Andersen,  D. Barton,  K. Begam,  A. Behn,  
 Y. A. Bernard,  E. J. Berquist,  H. Burton,  A. Carreras,  K. Carter-Fenk,  
 R. Chakraborty,  A. D. Chien,  K. D. Closser,  V. Cofer-Shabica,  
 S. Dasgupta,  Jia Deng,  M. de Wergifosse,  M. Diedenhofen,  Hainam Do,  
 S. Ehlert,  Po-Tung Fang,  S. Fatehi,  Qingguo Feng,  J. Gayvert,  
 Qinghui Ge,  G. Gidofalvi,  M. Goldey,  J. Gomes,  C. Gonzalez-Espinoza,  
 S. Gulania,  A. Gunina,  M. W. D. Hanson-Heine,  P. H. P. Harbach,  
 A. W. Hauser,  M. F. Herbst,  M. Hernandez Vera,  M. Hodecker,  
 Z. C. Holden,  S. Houck,  Xunkun Huang,  Kerwin Hui,  B. C. Huynh,  
 M. Ivanov,  Hyunjun Ji,  Hanjie Jiang,  B. Kaduk,  S. Kaehler,  
 K. Khistyaev,  Jaehoon Kim,  P. Klunzinger,  Z. Koczor-Benda,  
 Joong Hoon Koh,  D. Kosenkov,  L. Koulias,  T. Kowalczyk,  C. M. Krauter,  
 K. Kue,  A. Kunitsa,  T. Kus,  A. Landau,  K. V. Lawler,  D. Lefrancois,  
 S. Lehtola,  Rain Li,  Yi-Pei Li,  Jiashu Liang,  M. Liebenthal,  
 Hung-Hsuan Lin,  You-Sheng Lin,  Fenglai Liu,  Kuan-Yu Liu,  
 M. Loipersberger,  A. Luenser,  A. Manjanath,  P. Manohar,  E. Mansoor,  
 S. F. Manzer,  Shan-Ping Mao,  A. V. Marenich,  T. Markovich,  S. Mason,  
 S. A. Maurer,  P. F. McLaughlin,  M. F. S. J. Menger,  J.-M. Mewes,  
 S. A. Mewes,  P. Morgante,  J. W. Mullinax,  T. S. Nguyen-Beck,  
 K. J. Oosterbaan,  G. Paran,  Alexander C. Paul,  Suranjan K. Paul,  
 F. Pavosevic,  Zheng Pei,  S. Prager,  E. I. Proynov,  E. Ramos,  B. Rana,  
 A. E. Rask,  A. Rettig,  R. M. Richard,  F. Rob,  E. Rossomme,  T. Scheele,  
 M. Scheurer,  M. Schneider,  N. Sergueev,  S. M. Sharada,  W. Skomorowski,  
 D. W. Small,  C. J. Stein,  Yu-Chuan Su,  E. J. Sundstrom,  Zhen Tao,  
 J. Thirman,  T. Tsuchimochi,  N. M. Tubman,  S. P. Veccham,  O. Vydrov,  
 J. Wenzel,  J. Witte,  A. Yamada,  Kun Yao,  S. Yeganeh,  S. R. Yost,  
 A. Zech,  Igor Ying Zhang,  Xing Zhang,  Yu Zhang,  D. Zuev,  
 A. Aspuru-Guzik,  A. T. Bell,  N. A. Besley,  K. B. Bravaya,  B. R. Brooks,  
 D. Casanova,  Jeng-Da Chai,  S. Coriani,  C. J. Cramer,  
 A. E. DePrince, III,  R. A. DiStasio Jr.,  A. Dreuw,  B. D. Dunietz,  
 T. R. Furlani,  W. A. Goddard III,  S. Grimme,  S. Hammes-Schiffer,  
 T. Head-Gordon,  W. J. Hehre,  Chao-Ping Hsu,  T.-C. Jagau,  Yousung Jung,  
 A. Klamt,  Jing Kong,  D. S. Lambrecht,  WanZhen Liang,  N. J. Mayhall,  
 C. W. McCurdy,  J. B. Neaton,  C. Ochsenfeld,  J. A. Parkhill,  R. Peverati,  
 V. A. Rassolov,  Yihan Shao,  L. V. Slipchenko,  T. Stauch,  R. P. Steele,  
 J. E. Subotnik,  A. J. W. Thom,  A. Tkatchenko,  D. G. Truhlar,  
 T. Van Voorhis,  T. A. Wesolowski,  K. B. Whaley,  H. L. Woodcock III,  
 P. M. Zimmerman,  S. Faraji,  P. M. W. Gill,  M. Head-Gordon,  
 J. M. Herbert,  A. I. Krylov

 Contributors to earlier versions of Q-Chem not listed above: 
 R. D. Adamson,  B. Austin,  R. Baer,  J. Baker,  G. J. O. Beran,  
 K. Brandhorst,  S. T. Brown,  E. F. C. Byrd,  A. K. Chakraborty,  
 G. K. L. Chan,  Chun-Min Chang,  Yunqing Chen,  C.-L. Cheng,  
 Siu Hung Chien,  D. M. Chipman,  D. L. Crittenden,  H. Dachsel,  
 R. J. Doerksen,  A. D. Dutoi,  R. G. Edgar,  J. Fosso-Tande,  
 L. Fusti-Molnar,  D. Ghosh,  A. Ghysels,  A. Golubeva-Zadorozhnaya,  
 J. Gonthier,  M. S. Gordon,  S. R. Gwaltney,  G. Hawkins,  J. E. Herr,  
 A. Heyden,  S. Hirata,  E. G. Hohenstein,  G. Kedziora,  F. J. Keil,  
 C. Kelley,  Jihan Kim,  R. A. King,  R. Z. Khaliullin,  P. P. Korambath,  
 W. Kurlancheek,  A. Laurent,  A. M. Lee,  M. S. Lee,  S. V. Levchenko,  
 Ching Yeh Lin,  D. Liotard,  E. Livshits,  R. C. Lochan,  I. Lotan,  
 L. A. Martinez-Martinez,  P. E. Maslen,  N. Nair,  D. P. O'Neill,  
 D. Neuhauser,  E. Neuscamman,  C. M. Oana,  R. Olivares-Amaya,  R. Olson,  
 T. M. Perrine,  B. Peters,  P. A. Pieniazek,  A. Prociuk,  Y. M. Rhee,  
 J. Ritchie,  M. A. Rohrdanz,  E. Rosta,  N. J. Russ,  H. F. Schaefer III,  
 M. W. Schmidt,  N. E. Schultz,  S. Sharma,  N. Shenvi,  C. D. Sherrill,  
 A. C. Simmonett,  A. Sodt,  T. Stein,  D. Stuck,  K. S. Thanthiriwatte,  
 V. Vanovschi,  L. Vogt,  Tao Wang,  A. Warshel,  M. A. Watson,  
 C. F. Williams,  Q. Wu,  X. Xu,  Jun Yang,  W. Zhang,  Yan Zhao

 Please cite Q-Chem as follows:
 Y. Shao et al., Mol. Phys. 113, 184-215 (2015)
 DOI: 10.1080/00268976.2014.952696

 Q-Chem 5.4.0 for Intel X86 EM64T Linux

 Parts of Q-Chem use Armadillo 9.800.1 (Horizon Scraper).
 http://arma.sourceforge.net/

 Q-Chem begins on Fri Dec 15 14:16:13 2023  

 Host: 
0

     Scratch files written to ./qchem3697412//
 May1621 |scratch|qcdevops|jenkins|workspace|build_RNUM    
 Parallel job on  1  processors
 Processing $rem in /cm/shared/apps/spack/cpu/opt/spack/linux-centos8-zen2/gcc-10.2.0/qchem-5.4-akfmr7b3t57bfs6qan3padb2wnb2i7cl/config/preferences:
 Processing $rem in /home/rramji/.qchemrc:
 Symmetry turned off for PCM/SM12/SMD calculation
 Core orbitals will be frozen

 Checking the input file for inconsistencies... 	...done.

 Q-Chem warning in module forms1/BasisType.C, line 2236:

 You are not using the predefined 5D/6D in this basis set.


--------------------------------------------------------------
User input:
--------------------------------------------------------------
$molecule
0 1
C	0.466510	-3.887800	-0.554267
C	-0.424173	-3.701456	0.507121
C	-0.697244	-2.345170	0.831575
H	-0.877789	-4.545233	1.048337
C	0.000000	-1.450135	0.000000
S	0.982150	-2.321334	-1.169911
C	-1.627024	-1.934439	1.939374
H	-2.054010	-2.819799	2.448894
H	-2.475299	-1.326210	1.561545
H	-1.108051	-1.325374	2.708773
C	0.000000	0.000000	0.000000
C	0.419634	0.732990	1.113020
C	1.111057	1.939951	0.820578
H	0.226746	0.396221	2.142881
C	1.234565	2.155183	-0.563588
S	0.482106	0.842416	-1.464748
C	1.640257	2.863718	1.882380
H	1.417524	2.475067	2.894974
H	1.192042	3.876565	1.808137
H	2.740717	2.989259	1.808230
H	1.710720	2.986508	-1.097114
H	-0.005807	-4.420219	-1.387431
H	1.369415	-4.419395	-0.233510
H	-0.827337	-1.450628	-0.694200
$end

$rem
JOBTYPE		SP
EXCHANGE	HF
CORRELATION	pRIMP2
BASIS		cc-pvtz
METHOD		rimp2
AUX_BASIS	rimp2-cc-pvtz
SOLVENT_METHOD	PCM
PURECART	11111
SYMMETRY	false
MEM_TOTAL	110000
SCF_CONVERGENCE = 6
THRESH=10
GUI = 2
$end



$solvent
dielectric 4.90
$end
--------------------------------------------------------------
 ----------------------------------------------------------------
             Standard Nuclear Orientation (Angstroms)
    I     Atom           X                Y                Z
 ----------------------------------------------------------------
    1      C       0.4665100000    -3.8878000000    -0.5542670000
    2      C      -0.4241730000    -3.7014560000     0.5071210000
    3      C      -0.6972440000    -2.3451700000     0.8315750000
    4      H      -0.8777890000    -4.5452330000     1.0483370000
    5      C       0.0000000000    -1.4501350000     0.0000000000
    6      S       0.9821500000    -2.3213340000    -1.1699110000
    7      C      -1.6270240000    -1.9344390000     1.9393740000
    8      H      -2.0540100000    -2.8197990000     2.4488940000
    9      H      -2.4752990000    -1.3262100000     1.5615450000
   10      H      -1.1080510000    -1.3253740000     2.7087730000
   11      C       0.0000000000     0.0000000000     0.0000000000
   12      C       0.4196340000     0.7329900000     1.1130200000
   13      C       1.1110570000     1.9399510000     0.8205780000
   14      H       0.2267460000     0.3962210000     2.1428810000
   15      C       1.2345650000     2.1551830000    -0.5635880000
   16      S       0.4821060000     0.8424160000    -1.4647480000
   17      C       1.6402570000     2.8637180000     1.8823800000
   18      H       1.4175240000     2.4750670000     2.8949740000
   19      H       1.1920420000     3.8765650000     1.8081370000
   20      H       2.7407170000     2.9892590000     1.8082300000
   21      H       1.7107200000     2.9865080000    -1.0971140000
   22      H      -0.0058070000    -4.4202190000    -1.3874310000
   23      H       1.3694150000    -4.4193950000    -0.2335100000
   24      H      -0.8273370000    -1.4506280000    -0.6942000000
 ----------------------------------------------------------------
 Nuclear Repulsion Energy =         879.76296177 hartrees
 There are       52 alpha and       52 beta electrons
 Requested basis set is cc-pVTZ
 There are 196 shells and 536 basis functions

 Total QAlloc Memory Limit 110000 MB
 Mega-Array Size       188 MB
 MEM_STATIC part       192 MB
 Discretize the solute cavity surface with Lebedev spheres
	Using 110 Lebedev grid points for each H atom
	Using 194 Lebedev grid points for other atoms
	Atomic van der Waals radii will be scaled by 1.20
 Remove points where switching function is < 1.0e-08
 Keep 1587 surface tesserae and discard 2061 interior tesserae
 Molecular Surface Area = 233.193 Angst**2
 Requested basis set is rimp2-cc-pVTZ
 There are 414 shells and 1414 basis functions
 A cutoff of  1.0D-10 yielded  14083 shell pairs
 There are    101961 function pairs (    130699 Cartesian)
 Smallest overlap matrix eigenvalue = 7.60E-05

 Scale SEOQF with 1.000000e-01/1.000000e-01/1.000000e-01

 Standard Electronic Orientation quadrupole field applied
 Nucleus-field energy     =     0.0000000260 hartrees
 Guess from superposition of atomic densities
 Warning:  Energy on first SCF cycle will be non-variational
 SAD guess density has 104.000000 electrons

 -----------------------------------------------------------------------
  General SCF calculation program by
  Eric Jon Sundstrom, Paul Horn, Yuezhi Mao, Dmitri Zuev, Alec White,
  David Stuck, Shaama M.S., Shane Yost, Joonho Lee, David Small,
  Daniel Levine, Susi Lehtola, Hugh Burton, Evgeny Epifanovsky,
  Bang C. Huynh
 -----------------------------------------------------------------------
 Hartree-Fock
 using 64 threads for integral computing
 -------------------------------------------------------
 OpenMP Integral computing Module                
 Release: version 1.0, May 2013, Q-Chem Inc. Pittsburgh 
 -------------------------------------------------------
 A restricted SCF calculation will be
 performed using DIIS
 SCF converges when DIIS error is below 1.0e-06
 ---------------------------------------
  Cycle       Energy         DIIS error
 ---------------------------------------
    1   -1186.0326354247      2.39e-02  
    2   -1180.5937819402      1.56e-03  
    3   -1180.7195954643      6.03e-04  
    4   -1180.7339512895      3.25e-04  
    5   -1180.7388457781      6.19e-05  
    6   -1180.7391088040      2.53e-05  
    7   -1180.7391750452      9.82e-06  
    8   -1180.7391911100      4.69e-06  
    9   -1180.7391949495      1.65e-06  
   10   -1180.7391955297      5.51e-07  Convergence criterion met
 ---------------------------------------
 SCF time:   CPU 1649.37s  wall 48.00s 

************** Final PCM Free Energy Summary **************
 G_electrostatic  =      -0.00952214 hartree =      -5.97523238 kcal/mol
 G_cavitation     =       0.00000000 hartree =       0.00000000 kcal/mol
 G_dispersion     =       0.00000000 hartree =       0.00000000 kcal/mol
 G_repulsion      =       0.00000000 hartree =       0.00000000 kcal/mol
 --------------------------------------------------
 Non-electrostatic Free Energy =       0.00000000 hartree =       0.00000000 kcal/mol
 Total                         =      -0.00952214 hartree =      -5.97523238 kcal/mol
 --------------------------------------------------
 SCF Energy (H0 + V/2)                       =   -1180.73919553 
 Solute Internal Energy (H0)                 =   -1180.72967339 
 Total Free Energy (H0 + V/2 + non-elec)     =   -1180.73919553 hartree
                                             = -740925.02797579 kcal/mol
***********************************************************

 SCF   energy in the final basis set =    -1180.7391955297
 Total energy in the final basis set =    -1180.7391955297


 --------------------------------------------------------------
  Generalized many-body perturbation theory program
  by Joonho Lee, Fazle Rob, Xintian Feng, Evgeny Epifanovsky

 No regularization used 
 (reg. param. = 0.0000e+00)
  (P|Q)^-1/2 Time:  CPU 20.19 s  wall 0.33 s

 In RI-MP2 calculation: 
 # of frozen core orbitals: 20

 Components of the RIMP2 correlation energy:
        aaaa    correlation energy =        -0.2519062450 a.u.
        abab    correlation energy =        -1.5057553740 a.u.
        bbbb    correlation energy =        -0.2519062450 a.u.
        non-Brillouin singles      =        -0.0000000000 a.u.
        total same-spin energy     =        -0.5038124901 a.u.
        total opposite-spin energy =        -1.5057553740 a.u.

 Total  RIMP2   correlation energy =        -2.0095678641 a.u.
        RIMP2         total energy =     -1182.7487633938 a.u.

 RI-MP2 Energy Time:  CPU 168.24 s  wall 3.11 s
 
 --------------------------------------------------------------
 
                    Orbital Energies (a.u.)
 --------------------------------------------------------------
 
 Alpha MOs
 -- Occupied --
-91.9843 -91.9425 -11.2765 -11.2665 -11.2627 -11.2543 -11.2510 -11.2406
-11.2390 -11.2324 -11.2289 -11.2185  -8.9841  -8.9471  -6.6651  -6.6645
 -6.6639  -6.6284  -6.6274  -6.6261  -1.1986  -1.1536  -1.0570  -1.0291
 -0.9999  -0.9638  -0.9123  -0.9008  -0.8145  -0.7580  -0.7399  -0.7037
 -0.6528  -0.6370  -0.6108  -0.5904  -0.5822  -0.5681  -0.5666  -0.5527
 -0.5437  -0.5321  -0.5152  -0.5055  -0.4888  -0.4759  -0.4661  -0.4459
 -0.3551  -0.3422  -0.3225  -0.2661
 -- Virtual --
  0.0845   0.1316   0.1409   0.1518   0.1597   0.1691   0.1784   0.1856
  0.1905   0.2035   0.2057   0.2200   0.2226   0.2348   0.2391   0.2416
  0.2501   0.2585   0.2820   0.2992   0.3167   0.3348   0.3501   0.3558
  0.3651   0.3745   0.3796   0.3884   0.3998   0.4066   0.4142   0.4212
  0.4404   0.4447   0.4501   0.4627   0.4752   0.4786   0.4835   0.4868
  0.5016   0.5044   0.5174   0.5273   0.5371   0.5505   0.5541   0.5585
  0.5710   0.5777   0.5853   0.5869   0.5951   0.6088   0.6128   0.6200
  0.6217   0.6270   0.6331   0.6345   0.6408   0.6430   0.6508   0.6632
  0.6655   0.6702   0.6853   0.6894   0.7046   0.7089   0.7183   0.7222
  0.7355   0.7459   0.7522   0.7752   0.7840   0.7893   0.8017   0.8158
  0.8308   0.8487   0.8600   0.8681   0.8835   0.9026   0.9078   0.9107
  0.9141   0.9374   0.9464   0.9610   0.9638   0.9952   1.0006   1.0126
  1.0230   1.0273   1.0338   1.0443   1.0475   1.0688   1.0707   1.0827
  1.0868   1.0978   1.1229   1.1260   1.1476   1.1529   1.1645   1.1670
  1.1764   1.1884   1.1928   1.2023   1.2138   1.2264   1.2314   1.2437
  1.2477   1.2597   1.2707   1.2722   1.2782   1.2866   1.2953   1.3118
  1.3207   1.3353   1.3405   1.3455   1.3731   1.3832   1.4020   1.4143
  1.4263   1.4294   1.4375   1.4517   1.4652   1.4789   1.4882   1.5007
  1.5098   1.5163   1.5216   1.5267   1.5374   1.5433   1.5538   1.5557
  1.5678   1.5750   1.5848   1.5872   1.6243   1.6279   1.6290   1.6450
  1.6565   1.6617   1.6767   1.6835   1.6963   1.7164   1.7337   1.7401
  1.7439   1.7562   1.7701   1.7861   1.8088   1.8169   1.8335   1.8565
  1.8958   1.8991   1.9132   1.9242   1.9398   1.9661   1.9885   2.0021
  2.0260   2.0320   2.0566   2.0615   2.1066   2.1128   2.1343   2.1645
  2.1718   2.2069   2.2131   2.2255   2.2312   2.2374   2.2595   2.2818
  2.2890   2.3066   2.3188   2.3809   2.3938   2.4311   2.4515   2.4703
  2.4817   2.5144   2.5346   2.5527   2.5669   2.5815   2.5898   2.6027
  2.6229   2.6289   2.6615   2.6664   2.6759   2.6870   2.7076   2.7341
  2.7458   2.7494   2.7670   2.7755   2.7876   2.7883   2.8146   2.8163
  2.8363   2.8408   2.8576   2.8894   2.8957   2.9118   2.9209   2.9287
  2.9337   2.9592   2.9712   3.0036   3.0161   3.0217   3.0369   3.0425
  3.0564   3.0660   3.0829   3.1092   3.1117   3.1234   3.1258   3.1386
  3.1445   3.1567   3.1593   3.1709   3.1793   3.1881   3.1955   3.2173
  3.2304   3.2389   3.2544   3.2584   3.2695   3.2810   3.2898   3.3085
  3.3219   3.3258   3.3310   3.3366   3.3465   3.3521   3.3594   3.3619
  3.3746   3.3815   3.3920   3.4017   3.4079   3.4124   3.4223   3.4302
  3.4387   3.4499   3.4624   3.4713   3.4752   3.4896   3.4990   3.5113
  3.5175   3.5252   3.5359   3.5395   3.5411   3.5664   3.5731   3.5818
  3.5990   3.6054   3.6196   3.6267   3.6301   3.6420   3.6482   3.6567
  3.6666   3.6756   3.6927   3.7080   3.7157   3.7304   3.7401   3.7440
  3.7527   3.7550   3.7593   3.7806   3.7888   3.7959   3.8014   3.8078
  3.8254   3.8439   3.8578   3.8662   3.8716   3.8837   3.8976   3.9139
  3.9330   3.9401   3.9591   3.9599   3.9774   3.9866   3.9991   4.0201
  4.0216   4.0489   4.0516   4.0555   4.0606   4.0818   4.0906   4.1039
  4.1126   4.1244   4.1488   4.1532   4.1628   4.1683   4.1817   4.1988
  4.2193   4.2211   4.2292   4.2432   4.2586   4.2704   4.2746   4.2875
  4.2936   4.3054   4.3150   4.3205   4.3421   4.3549   4.3673   4.3773
  4.3813   4.3959   4.4017   4.4082   4.4182   4.4214   4.4433   4.4527
  4.4651   4.4688   4.4809   4.4849   4.4916   4.4996   4.5409   4.5507
  4.5747   4.5950   4.6009   4.6125   4.6266   4.6459   4.6612   4.6759
  4.7006   4.7062   4.7345   4.7606   4.7721   4.8204   4.8413   4.8505
  4.8625   4.8704   4.8862   4.9067   4.9286   4.9645   4.9709   4.9834
  5.0157   5.0399   5.0888   5.0982   5.1174   5.1284   5.1577   5.1697
  5.1801   5.1887   5.2375   5.2657   5.2759   5.2993   5.3100   5.3271
  5.3447   5.3651   5.3762   5.4034   5.4127   5.4176   5.4345   5.4425
  5.4827   5.5126   5.5357   5.5383   5.5503   5.5587   5.5728   5.5981
  5.6134   5.6224   5.6276   5.6664   5.6863   5.6929   5.7126   5.7375
  5.7714   5.7881   5.8283   5.9852   6.0143   6.0693   6.1124   6.1572
  6.2181   6.2249   6.2338   6.2413   6.2489   6.2892   6.3024   6.3148
  6.3776   6.4469   9.3847  10.6257  12.1713  12.9183  13.1787  13.9864
 14.0479  14.1980  14.3023  14.5627
 --------------------------------------------------------------
 
          Ground-State Mulliken Net Atomic Charges

     Atom                 Charge (a.u.)
  ----------------------------------------
      1 C                    -0.078163
      2 C                    -0.327063
      3 C                    -0.041834
      4 H                     0.176400
      5 C                     0.081465
      6 S                    -0.171021
      7 C                    -0.281894
      8 H                     0.115961
      9 H                     0.107321
     10 H                     0.103121
     11 C                    -0.098034
     12 C                    -0.205872
     13 C                     0.012369
     14 H                     0.192669
     15 C                    -0.224973
     16 S                     0.000620
     17 C                    -0.271942
     18 H                     0.101215
     19 H                     0.107924
     20 H                     0.107944
     21 H                     0.199122
     22 H                     0.108962
     23 H                     0.112514
     24 H                     0.173188
  ----------------------------------------
  Sum of atomic charges =     0.000000

 -----------------------------------------------------------------
                    Cartesian Multipole Moments
 -----------------------------------------------------------------
    Charge (ESU x 10^10)
                -0.0000
    Dipole Moment (Debye)
         X      -1.1581      Y       0.5026      Z       2.7604
       Tot       3.0353
    Quadrupole Moments (Debye-Ang)
        XX     -89.3144     XY       8.1672     YY     -76.4213
        XZ       0.3897     YZ      -0.9686     ZZ     -85.4412
    Octopole Moments (Debye-Ang^2)
       XXX    -100.1445    XXY      63.0261    XYY     -20.7295
       YYY     141.5427    XXZ      -1.6992    XYZ       1.2291
       YYZ      -7.1334    XZZ     -33.2768    YZZ      60.6501
       ZZZ      -2.2488
    Hexadecapole Moments (Debye-Ang^3)
      XXXX    -622.7902   XXXY    -200.2157   XXYY    -558.8245
      XYYY    -174.8241   YYYY   -2596.7124   XXXZ      90.0351
      XXYZ     -43.4301   XYYZ       8.5857   YYYZ     -91.8928
      XXZZ    -246.4885   XYZZ     -45.7286   YYZZ    -602.3585
      XZZZ      84.8596   YZZZ     -98.3016   ZZZZ    -878.8565
 -----------------------------------------------------------------
 Total job time:  54.11s(wall), 1880.79s(cpu) 
 Fri Dec 15 14:17:07 2023

        *************************************************************
        *                                                           *
        *  Thank you very much for using Q-Chem.  Have a nice day.  *
        *                                                           *
        *************************************************************


0 sent ACK to 0 
now end server 0 ... 
cleanup process ... done
remove work dirs ./qchem3697412.0 -- ./qchem3697412.0
rm -rf ./qchem3697412.0
rm -rf ./qchem3697412
