You are running Q-Chem version: 5.4.0

#
# job setting
#
local host:  exp-6-20
current dir: /home/rramji/project-csd799/aromodel/p3ht-qchem/hydrogenated-rotation-run
input file:  Methylthiophene_Phi_60_Theta_290_Methylthiophene_Hydrogenated.qcin
output file: 
nprocs     : 1
nthreads   : 64
#
# qchem installation setting
#
QC:          /cm/shared/apps/spack/cpu/opt/spack/linux-centos8-zen2/gcc-10.2.0/qchem-5.4-akfmr7b3t57bfs6qan3padb2wnb2i7cl
QCAUX:       /cm/shared/apps/spack/cpu/opt/spack/linux-centos8-zen2/gcc-10.2.0/qchem-5.4-akfmr7b3t57bfs6qan3padb2wnb2i7cl/qcaux
QCPROG:      /cm/shared/apps/spack/cpu/opt/spack/linux-centos8-zen2/gcc-10.2.0/qchem-5.4-akfmr7b3t57bfs6qan3padb2wnb2i7cl/exe/qcprog.exe
QCPROG_S:    /cm/shared/apps/spack/cpu/opt/spack/linux-centos8-zen2/gcc-10.2.0/qchem-5.4-akfmr7b3t57bfs6qan3padb2wnb2i7cl/exe/qcprog.exe_s
PARALLEL:    -DPARALLEL
QCMPI:       mpich
#
# qchem directory setting
#
qcrun:       qchem2824979
QCSCRATCH:   .
QCLOCALSCR:  
QCTMPDIR:    .
QCFILEPREF:  ./qchem2824979
QCSAVEDIR:   
workdirs:    ./qchem2824979
workdir0:    ./qchem2824979
partmpdirs =  
#
# parallel setting
#
QCRSH:           ssh
QCMPI:           mpich
QCMPIRUN:        /cm/shared/apps/spack/cpu/opt/spack/linux-centos8-zen2/gcc-10.2.0/qchem-5.4-akfmr7b3t57bfs6qan3padb2wnb2i7cl/bin/mpi/mpirun_qchem
QCMACHINEFILE:   ./qchem2824979/hostfile
exp-6-20

#
# env setting
#
exported envs:   QC QCAUX QCSCRATCH QCRUNNAME QCFILEPREF QCPROG QCPROG_S GUIFILE

Running Job 1 of 1 Methylthiophene_Phi_60_Theta_290_Methylthiophene_Hydrogenated.qcin
qchem Methylthiophene_Phi_60_Theta_290_Methylthiophene_Hydrogenated.qcin_2824979.0 ./qchem2824979/ 1
/cm/shared/apps/spack/cpu/opt/spack/linux-centos8-zen2/gcc-10.2.0/qchem-5.4-akfmr7b3t57bfs6qan3padb2wnb2i7cl/bin/mpi/mpirun_qchem -machinefile ./qchem2824979/hostfile -np 1 /cm/shared/apps/spack/cpu/opt/spack/linux-centos8-zen2/gcc-10.2.0/qchem-5.4-akfmr7b3t57bfs6qan3padb2wnb2i7cl/exe/qcprog.exe Methylthiophene_Phi_60_Theta_290_Methylthiophene_Hydrogenated.qcin_2824979.0 ./qchem2824979/

Process 0 of 1 is on exp-6-20 - thread support 0
initial socket setup ...start
initial socket setup ...done 
now start server 0 ... 
                  Welcome to Q-Chem
     A Quantum Leap Into The Future Of Chemistry


 Q-Chem 5.4, Q-Chem, Inc., Pleasanton, CA (2021)

 License issued to: University of California, San Diego (site)

 E. Epifanovsky,  A. T. B. Gilbert,  Xintian Feng,  Joonho Lee,  Yuezhi Mao,  
 N. Mardirossian,  P. Pokhilko,  A. White,  M. Wormit,  M. P. Coons,  
 A. L. Dempwolff,  Zhengting Gan,  D. Hait,  P. R. Horn,  L. D. Jacobson,  
 I. Kaliman,  J. Kussmann,  A. W. Lange,  Ka Un Lao,  D. S. Levine,  Jie Liu,  
 S. C. McKenzie,  A. F. Morrison,  K. Nanda,  F. Plasser,  D. R. Rehn,  
 M. L. Vidal,  Zhi-Qiang You,  Ying Zhu,  B. Alam,  B. Albrecht,  
 A. Aldossary,  E. Alguire,  J. H. Andersen,  D. Barton,  K. Begam,  A. Behn,  
 Y. A. Bernard,  E. J. Berquist,  H. Burton,  A. Carreras,  K. Carter-Fenk,  
 R. Chakraborty,  A. D. Chien,  K. D. Closser,  V. Cofer-Shabica,  
 S. Dasgupta,  Jia Deng,  M. de Wergifosse,  M. Diedenhofen,  Hainam Do,  
 S. Ehlert,  Po-Tung Fang,  S. Fatehi,  Qingguo Feng,  J. Gayvert,  
 Qinghui Ge,  G. Gidofalvi,  M. Goldey,  J. Gomes,  C. Gonzalez-Espinoza,  
 S. Gulania,  A. Gunina,  M. W. D. Hanson-Heine,  P. H. P. Harbach,  
 A. W. Hauser,  M. F. Herbst,  M. Hernandez Vera,  M. Hodecker,  
 Z. C. Holden,  S. Houck,  Xunkun Huang,  Kerwin Hui,  B. C. Huynh,  
 M. Ivanov,  Hyunjun Ji,  Hanjie Jiang,  B. Kaduk,  S. Kaehler,  
 K. Khistyaev,  Jaehoon Kim,  P. Klunzinger,  Z. Koczor-Benda,  
 Joong Hoon Koh,  D. Kosenkov,  L. Koulias,  T. Kowalczyk,  C. M. Krauter,  
 K. Kue,  A. Kunitsa,  T. Kus,  A. Landau,  K. V. Lawler,  D. Lefrancois,  
 S. Lehtola,  Rain Li,  Yi-Pei Li,  Jiashu Liang,  M. Liebenthal,  
 Hung-Hsuan Lin,  You-Sheng Lin,  Fenglai Liu,  Kuan-Yu Liu,  
 M. Loipersberger,  A. Luenser,  A. Manjanath,  P. Manohar,  E. Mansoor,  
 S. F. Manzer,  Shan-Ping Mao,  A. V. Marenich,  T. Markovich,  S. Mason,  
 S. A. Maurer,  P. F. McLaughlin,  M. F. S. J. Menger,  J.-M. Mewes,  
 S. A. Mewes,  P. Morgante,  J. W. Mullinax,  T. S. Nguyen-Beck,  
 K. J. Oosterbaan,  G. Paran,  Alexander C. Paul,  Suranjan K. Paul,  
 F. Pavosevic,  Zheng Pei,  S. Prager,  E. I. Proynov,  E. Ramos,  B. Rana,  
 A. E. Rask,  A. Rettig,  R. M. Richard,  F. Rob,  E. Rossomme,  T. Scheele,  
 M. Scheurer,  M. Schneider,  N. Sergueev,  S. M. Sharada,  W. Skomorowski,  
 D. W. Small,  C. J. Stein,  Yu-Chuan Su,  E. J. Sundstrom,  Zhen Tao,  
 J. Thirman,  T. Tsuchimochi,  N. M. Tubman,  S. P. Veccham,  O. Vydrov,  
 J. Wenzel,  J. Witte,  A. Yamada,  Kun Yao,  S. Yeganeh,  S. R. Yost,  
 A. Zech,  Igor Ying Zhang,  Xing Zhang,  Yu Zhang,  D. Zuev,  
 A. Aspuru-Guzik,  A. T. Bell,  N. A. Besley,  K. B. Bravaya,  B. R. Brooks,  
 D. Casanova,  Jeng-Da Chai,  S. Coriani,  C. J. Cramer,  
 A. E. DePrince, III,  R. A. DiStasio Jr.,  A. Dreuw,  B. D. Dunietz,  
 T. R. Furlani,  W. A. Goddard III,  S. Grimme,  S. Hammes-Schiffer,  
 T. Head-Gordon,  W. J. Hehre,  Chao-Ping Hsu,  T.-C. Jagau,  Yousung Jung,  
 A. Klamt,  Jing Kong,  D. S. Lambrecht,  WanZhen Liang,  N. J. Mayhall,  
 C. W. McCurdy,  J. B. Neaton,  C. Ochsenfeld,  J. A. Parkhill,  R. Peverati,  
 V. A. Rassolov,  Yihan Shao,  L. V. Slipchenko,  T. Stauch,  R. P. Steele,  
 J. E. Subotnik,  A. J. W. Thom,  A. Tkatchenko,  D. G. Truhlar,  
 T. Van Voorhis,  T. A. Wesolowski,  K. B. Whaley,  H. L. Woodcock III,  
 P. M. Zimmerman,  S. Faraji,  P. M. W. Gill,  M. Head-Gordon,  
 J. M. Herbert,  A. I. Krylov

 Contributors to earlier versions of Q-Chem not listed above: 
 R. D. Adamson,  B. Austin,  R. Baer,  J. Baker,  G. J. O. Beran,  
 K. Brandhorst,  S. T. Brown,  E. F. C. Byrd,  A. K. Chakraborty,  
 G. K. L. Chan,  Chun-Min Chang,  Yunqing Chen,  C.-L. Cheng,  
 Siu Hung Chien,  D. M. Chipman,  D. L. Crittenden,  H. Dachsel,  
 R. J. Doerksen,  A. D. Dutoi,  R. G. Edgar,  J. Fosso-Tande,  
 L. Fusti-Molnar,  D. Ghosh,  A. Ghysels,  A. Golubeva-Zadorozhnaya,  
 J. Gonthier,  M. S. Gordon,  S. R. Gwaltney,  G. Hawkins,  J. E. Herr,  
 A. Heyden,  S. Hirata,  E. G. Hohenstein,  G. Kedziora,  F. J. Keil,  
 C. Kelley,  Jihan Kim,  R. A. King,  R. Z. Khaliullin,  P. P. Korambath,  
 W. Kurlancheek,  A. Laurent,  A. M. Lee,  M. S. Lee,  S. V. Levchenko,  
 Ching Yeh Lin,  D. Liotard,  E. Livshits,  R. C. Lochan,  I. Lotan,  
 L. A. Martinez-Martinez,  P. E. Maslen,  N. Nair,  D. P. O'Neill,  
 D. Neuhauser,  E. Neuscamman,  C. M. Oana,  R. Olivares-Amaya,  R. Olson,  
 T. M. Perrine,  B. Peters,  P. A. Pieniazek,  A. Prociuk,  Y. M. Rhee,  
 J. Ritchie,  M. A. Rohrdanz,  E. Rosta,  N. J. Russ,  H. F. Schaefer III,  
 M. W. Schmidt,  N. E. Schultz,  S. Sharma,  N. Shenvi,  C. D. Sherrill,  
 A. C. Simmonett,  A. Sodt,  T. Stein,  D. Stuck,  K. S. Thanthiriwatte,  
 V. Vanovschi,  L. Vogt,  Tao Wang,  A. Warshel,  M. A. Watson,  
 C. F. Williams,  Q. Wu,  X. Xu,  Jun Yang,  W. Zhang,  Yan Zhao

 Please cite Q-Chem as follows:
 Y. Shao et al., Mol. Phys. 113, 184-215 (2015)
 DOI: 10.1080/00268976.2014.952696

 Q-Chem 5.4.0 for Intel X86 EM64T Linux

 Parts of Q-Chem use Armadillo 9.800.1 (Horizon Scraper).
 http://arma.sourceforge.net/

 Q-Chem begins on Fri Dec 15 14:27:37 2023  

 Host: 
0

     Scratch files written to ./qchem2824979//
 May1621 |scratch|qcdevops|jenkins|workspace|build_RNUM    
 Parallel job on  1  processors
 Processing $rem in /cm/shared/apps/spack/cpu/opt/spack/linux-centos8-zen2/gcc-10.2.0/qchem-5.4-akfmr7b3t57bfs6qan3padb2wnb2i7cl/config/preferences:
 Processing $rem in /home/rramji/.qchemrc:
 Symmetry turned off for PCM/SM12/SMD calculation
 Core orbitals will be frozen

 Checking the input file for inconsistencies... 	...done.

 Q-Chem warning in module forms1/BasisType.C, line 2236:

 You are not using the predefined 5D/6D in this basis set.


--------------------------------------------------------------
User input:
--------------------------------------------------------------
$molecule
0 1
C	0.680396	-3.887800	0.248806
C	-0.621614	-3.701456	-0.225147
C	-1.019896	-2.345170	-0.370780
H	-1.285337	-4.545233	-0.466300
C	0.000000	-1.450135	0.000000
S	1.435271	-2.321334	0.522786
C	-2.378891	-1.934439	-0.865597
H	-3.003720	-2.819799	-1.092567
H	-2.313975	-1.326210	-1.791940
H	-2.924390	-1.325374	-0.114772
C	0.000000	0.000000	0.000000
C	0.729909	0.424971	1.113020
C	1.932179	1.124518	0.820578
H	0.394478	0.229765	2.142881
C	2.146756	1.249161	-0.563588
S	0.838724	0.488500	-1.464748
C	2.852364	1.659924	1.882380
H	2.465145	1.434710	2.894974
H	2.970621	2.761183	1.808137
H	3.868160	1.218416	1.808230
H	2.974781	1.731032	-1.097114
H	1.301772	-4.420219	-0.479986
H	0.687795	-4.419395	1.206964
H	0.369368	-1.450628	-1.014873
$end

$rem
JOBTYPE		SP
EXCHANGE	HF
CORRELATION	pRIMP2
BASIS		cc-pvtz
METHOD		rimp2
AUX_BASIS	rimp2-cc-pvtz
SOLVENT_METHOD	PCM
PURECART	11111
SYMMETRY	false
MEM_TOTAL	110000
SCF_CONVERGENCE = 6
THRESH=10
GUI = 2
$end



$solvent
dielectric 4.90
$end
--------------------------------------------------------------
 ----------------------------------------------------------------
             Standard Nuclear Orientation (Angstroms)
    I     Atom           X                Y                Z
 ----------------------------------------------------------------
    1      C       0.6803960000    -3.8878000000     0.2488060000
    2      C      -0.6216140000    -3.7014560000    -0.2251470000
    3      C      -1.0198960000    -2.3451700000    -0.3707800000
    4      H      -1.2853370000    -4.5452330000    -0.4663000000
    5      C       0.0000000000    -1.4501350000     0.0000000000
    6      S       1.4352710000    -2.3213340000     0.5227860000
    7      C      -2.3788910000    -1.9344390000    -0.8655970000
    8      H      -3.0037200000    -2.8197990000    -1.0925670000
    9      H      -2.3139750000    -1.3262100000    -1.7919400000
   10      H      -2.9243900000    -1.3253740000    -0.1147720000
   11      C       0.0000000000     0.0000000000     0.0000000000
   12      C       0.7299090000     0.4249710000     1.1130200000
   13      C       1.9321790000     1.1245180000     0.8205780000
   14      H       0.3944780000     0.2297650000     2.1428810000
   15      C       2.1467560000     1.2491610000    -0.5635880000
   16      S       0.8387240000     0.4885000000    -1.4647480000
   17      C       2.8523640000     1.6599240000     1.8823800000
   18      H       2.4651450000     1.4347100000     2.8949740000
   19      H       2.9706210000     2.7611830000     1.8081370000
   20      H       3.8681600000     1.2184160000     1.8082300000
   21      H       2.9747810000     1.7310320000    -1.0971140000
   22      H       1.3017720000    -4.4202190000    -0.4799860000
   23      H       0.6877950000    -4.4193950000     1.2069640000
   24      H       0.3693680000    -1.4506280000    -1.0148730000
 ----------------------------------------------------------------
 Nuclear Repulsion Energy =         902.11136389 hartrees
 There are       52 alpha and       52 beta electrons
 Requested basis set is cc-pVTZ
 There are 196 shells and 536 basis functions

 Total QAlloc Memory Limit 110000 MB
 Mega-Array Size       188 MB
 MEM_STATIC part       192 MB
 Discretize the solute cavity surface with Lebedev spheres
	Using 110 Lebedev grid points for each H atom
	Using 194 Lebedev grid points for other atoms
	Atomic van der Waals radii will be scaled by 1.20
 Remove points where switching function is < 1.0e-08
 Keep 1583 surface tesserae and discard 2065 interior tesserae
 Molecular Surface Area = 231.823 Angst**2
 Requested basis set is rimp2-cc-pVTZ
 There are 414 shells and 1414 basis functions
 A cutoff of  1.0D-10 yielded  14415 shell pairs
 There are    104503 function pairs (    133998 Cartesian)
 Smallest overlap matrix eigenvalue = 6.32E-05

 Scale SEOQF with 1.000000e-01/1.000000e-01/1.000000e-01

 Standard Electronic Orientation quadrupole field applied
 Nucleus-field energy     =     0.0000000300 hartrees
 Guess from superposition of atomic densities
 Warning:  Energy on first SCF cycle will be non-variational
 SAD guess density has 104.000000 electrons

 -----------------------------------------------------------------------
  General SCF calculation program by
  Eric Jon Sundstrom, Paul Horn, Yuezhi Mao, Dmitri Zuev, Alec White,
  David Stuck, Shaama M.S., Shane Yost, Joonho Lee, David Small,
  Daniel Levine, Susi Lehtola, Hugh Burton, Evgeny Epifanovsky,
  Bang C. Huynh
 -----------------------------------------------------------------------
 Hartree-Fock
 using 64 threads for integral computing
 -------------------------------------------------------
 OpenMP Integral computing Module                
 Release: version 1.0, May 2013, Q-Chem Inc. Pittsburgh 
 -------------------------------------------------------
 A restricted SCF calculation will be
 performed using DIIS
 SCF converges when DIIS error is below 1.0e-06
 ---------------------------------------
  Cycle       Energy         DIIS error
 ---------------------------------------
    1   -1186.1773823755      2.41e-02  
    2   -1180.5354751685      1.54e-03  
    3   -1180.6633743904      5.32e-04  
    4   -1180.6769794410      2.65e-04  
    5   -1180.6804136638      5.36e-05  
    6   -1180.6806696167      2.32e-05  
    7   -1180.6807418450      1.17e-05  
    8   -1180.6807642571      5.31e-06  
    9   -1180.6807703407      2.43e-06  
   10   -1180.6807715187      8.14e-07  Convergence criterion met
 ---------------------------------------
 SCF time:   CPU 1733.43s  wall 51.00s 

************** Final PCM Free Energy Summary **************
 G_electrostatic  =      -0.00931697 hartree =      -5.84648429 kcal/mol
 G_cavitation     =       0.00000000 hartree =       0.00000000 kcal/mol
 G_dispersion     =       0.00000000 hartree =       0.00000000 kcal/mol
 G_repulsion      =       0.00000000 hartree =       0.00000000 kcal/mol
 --------------------------------------------------
 Non-electrostatic Free Energy =       0.00000000 hartree =       0.00000000 kcal/mol
 Total                         =      -0.00931697 hartree =      -5.84648429 kcal/mol
 --------------------------------------------------
 SCF Energy (H0 + V/2)                       =   -1180.68077152 
 Solute Internal Energy (H0)                 =   -1180.67145455 
 Total Free Energy (H0 + V/2 + non-elec)     =   -1180.68077152 hartree
                                             = -740888.36635555 kcal/mol
***********************************************************

 SCF   energy in the final basis set =    -1180.6807715187
 Total energy in the final basis set =    -1180.6807715187


 --------------------------------------------------------------
  Generalized many-body perturbation theory program
  by Joonho Lee, Fazle Rob, Xintian Feng, Evgeny Epifanovsky

 No regularization used 
 (reg. param. = 0.0000e+00)
  (P|Q)^-1/2 Time:  CPU 19.86 s  wall 0.32 s

 In RI-MP2 calculation: 
 # of frozen core orbitals: 20

 Components of the RIMP2 correlation energy:
        aaaa    correlation energy =        -0.2542842708 a.u.
        abab    correlation energy =        -1.5122380703 a.u.
        bbbb    correlation energy =        -0.2542842708 a.u.
        non-Brillouin singles      =        -0.0000000000 a.u.
        total same-spin energy     =        -0.5085685416 a.u.
        total opposite-spin energy =        -1.5122380703 a.u.

 Total  RIMP2   correlation energy =        -2.0208066119 a.u.
        RIMP2         total energy =     -1182.7015781306 a.u.

 RI-MP2 Energy Time:  CPU 175.03 s  wall 3.53 s
 
 --------------------------------------------------------------
 
                    Orbital Energies (a.u.)
 --------------------------------------------------------------
 
 Alpha MOs
 -- Occupied --
-91.9787 -91.9355 -11.2894 -11.2626 -11.2529 -11.2523 -11.2512 -11.2449
-11.2358 -11.2303 -11.2281 -11.2085  -8.9803  -8.9404  -6.6611  -6.6601
 -6.6599  -6.6218  -6.6208  -6.6195  -1.2069  -1.1528  -1.0591  -1.0229
 -1.0036  -0.9621  -0.9125  -0.8996  -0.8054  -0.7674  -0.7413  -0.7037
 -0.6487  -0.6284  -0.6167  -0.5873  -0.5796  -0.5757  -0.5659  -0.5500
 -0.5405  -0.5335  -0.5094  -0.5047  -0.4872  -0.4669  -0.4578  -0.4400
 -0.3568  -0.3372  -0.3195  -0.2650
 -- Virtual --
  0.0552   0.1364   0.1403   0.1512   0.1612   0.1711   0.1797   0.1833
  0.1861   0.2010   0.2072   0.2095   0.2193   0.2343   0.2407   0.2442
  0.2452   0.2535   0.2720   0.2946   0.3003   0.3087   0.3388   0.3561
  0.3662   0.3708   0.3792   0.3828   0.3986   0.4052   0.4102   0.4192
  0.4245   0.4421   0.4496   0.4649   0.4731   0.4817   0.4850   0.4955
  0.5042   0.5062   0.5174   0.5189   0.5320   0.5431   0.5485   0.5631
  0.5703   0.5819   0.5904   0.5948   0.6010   0.6072   0.6168   0.6217
  0.6292   0.6327   0.6353   0.6392   0.6451   0.6482   0.6550   0.6567
  0.6711   0.6764   0.6861   0.6897   0.7005   0.7118   0.7267   0.7287
  0.7401   0.7542   0.7596   0.7671   0.7771   0.7862   0.7900   0.8203
  0.8390   0.8422   0.8492   0.8589   0.8802   0.8913   0.9125   0.9177
  0.9325   0.9360   0.9601   0.9679   0.9815   0.9960   1.0039   1.0246
  1.0285   1.0339   1.0458   1.0529   1.0600   1.0732   1.0775   1.0871
  1.0986   1.1105   1.1234   1.1287   1.1487   1.1589   1.1619   1.1728
  1.1806   1.1959   1.2072   1.2127   1.2270   1.2328   1.2387   1.2541
  1.2557   1.2625   1.2659   1.2778   1.2878   1.2899   1.3024   1.3121
  1.3276   1.3517   1.3599   1.3757   1.3800   1.3940   1.4056   1.4081
  1.4212   1.4328   1.4476   1.4571   1.4665   1.4737   1.4891   1.4979
  1.5150   1.5185   1.5294   1.5329   1.5393   1.5433   1.5515   1.5653
  1.5717   1.5822   1.5866   1.5950   1.6126   1.6248   1.6368   1.6495
  1.6588   1.6671   1.6741   1.6849   1.7006   1.7128   1.7182   1.7232
  1.7493   1.7537   1.7734   1.7814   1.7852   1.8157   1.8393   1.8505
  1.8844   1.9082   1.9277   1.9322   1.9628   1.9740   1.9812   2.0160
  2.0410   2.0463   2.0494   2.0656   2.0813   2.1075   2.1280   2.1637
  2.1768   2.1917   2.1940   2.2229   2.2322   2.2541   2.2721   2.2807
  2.3013   2.3380   2.3507   2.3682   2.4205   2.4327   2.4684   2.4819
  2.4995   2.5053   2.5199   2.5368   2.5894   2.6058   2.6246   2.6353
  2.6476   2.6632   2.6751   2.6823   2.6861   2.6981   2.7174   2.7215
  2.7386   2.7599   2.7734   2.7894   2.7976   2.8092   2.8163   2.8250
  2.8393   2.8616   2.8790   2.8938   2.9020   2.9058   2.9188   2.9327
  2.9541   2.9617   2.9711   3.0017   3.0080   3.0133   3.0334   3.0418
  3.0629   3.0696   3.1007   3.1101   3.1158   3.1234   3.1282   3.1449
  3.1572   3.1673   3.1709   3.1822   3.1991   3.2068   3.2193   3.2220
  3.2327   3.2520   3.2540   3.2646   3.2728   3.2750   3.2887   3.2996
  3.3103   3.3278   3.3323   3.3423   3.3477   3.3536   3.3625   3.3682
  3.3758   3.3793   3.3933   3.3958   3.4091   3.4243   3.4271   3.4364
  3.4384   3.4536   3.4726   3.4788   3.4889   3.4936   3.5014   3.5030
  3.5122   3.5394   3.5478   3.5561   3.5634   3.5682   3.5713   3.5870
  3.5967   3.6133   3.6249   3.6370   3.6428   3.6504   3.6704   3.6735
  3.6852   3.6899   3.7026   3.7144   3.7255   3.7311   3.7470   3.7479
  3.7539   3.7659   3.7753   3.7905   3.7973   3.8119   3.8166   3.8308
  3.8377   3.8429   3.8657   3.8733   3.8917   3.9002   3.9200   3.9240
  3.9456   3.9526   3.9633   3.9794   3.9845   4.0153   4.0182   4.0271
  4.0336   4.0400   4.0551   4.0705   4.0789   4.0887   4.1064   4.1102
  4.1286   4.1413   4.1506   4.1730   4.1840   4.1920   4.2008   4.2099
  4.2207   4.2289   4.2429   4.2535   4.2603   4.2674   4.2750   4.2806
  4.2962   4.3038   4.3291   4.3378   4.3427   4.3575   4.3641   4.3686
  4.3731   4.3895   4.4025   4.4045   4.4142   4.4221   4.4394   4.4510
  4.4612   4.4706   4.4755   4.4939   4.5113   4.5319   4.5474   4.5710
  4.5794   4.6017   4.6059   4.6263   4.6349   4.6565   4.6662   4.6714
  4.6987   4.7223   4.7414   4.7743   4.7869   4.8228   4.8316   4.8583
  4.8699   4.8920   4.9150   4.9164   4.9257   4.9458   4.9474   5.0075
  5.0457   5.0558   5.0728   5.1015   5.1084   5.1334   5.1409   5.1719
  5.1817   5.2081   5.2265   5.2778   5.2877   5.2990   5.3039   5.3192
  5.3405   5.3738   5.3814   5.3910   5.4105   5.4210   5.4455   5.4556
  5.4745   5.4951   5.5120   5.5490   5.5500   5.5635   5.5701   5.5916
  5.6163   5.6321   5.6405   5.6672   5.6915   5.7019   5.7091   5.7190
  5.7698   5.7935   5.8172   5.9660   6.0292   6.0377   6.0822   6.1405
  6.2016   6.2187   6.2279   6.2345   6.2474   6.2742   6.2939   6.3414
  6.3891   6.4045   9.4181  10.4599  12.6385  12.8329  13.1905  13.8822
 14.1056  14.2309  14.2885  14.6452
 --------------------------------------------------------------
 
          Ground-State Mulliken Net Atomic Charges

     Atom                 Charge (a.u.)
  ----------------------------------------
      1 C                    -0.084335
      2 C                    -0.340933
      3 C                    -0.060549
      4 H                     0.172678
      5 C                     0.080396
      6 S                    -0.198691
      7 C                    -0.275628
      8 H                     0.112949
      9 H                     0.099801
     10 H                     0.106251
     11 C                    -0.158024
     12 C                    -0.127817
     13 C                    -0.012730
     14 H                     0.190576
     15 C                    -0.160703
     16 S                     0.011776
     17 C                    -0.267822
     18 H                     0.103785
     19 H                     0.110090
     20 H                     0.106771
     21 H                     0.202679
     22 H                     0.107948
     23 H                     0.107527
     24 H                     0.174005
  ----------------------------------------
  Sum of atomic charges =     0.000000

 -----------------------------------------------------------------
                    Cartesian Multipole Moments
 -----------------------------------------------------------------
    Charge (ESU x 10^10)
                -0.0000
    Dipole Moment (Debye)
         X       0.7656      Y       1.0891      Z       0.3371
       Tot       1.3733
    Quadrupole Moments (Debye-Ang)
        XX     -82.2972     XY       8.4752     YY     -84.7996
        XZ       0.3641     YZ       3.1088     ZZ     -85.1877
    Octopole Moments (Debye-Ang^2)
       XXX    -156.3733    XXY      97.2365    XYY     -49.4016
       YYY     217.1073    XXZ      -7.8292    XYZ      -2.1946
       YYZ      -4.6849    XZZ     -51.8321    YZZ      88.1193
       ZZZ       5.3732
    Hexadecapole Moments (Debye-Ang^3)
      XXXX   -1305.4990   XXXY    -146.4722   XXYY    -591.1171
      XYYY    -210.8294   YYYY   -2222.7058   XXXZ    -189.6929
      XXYZ     -13.5606   XYYZ     -58.2696   YYYZ     -51.2794
      XXZZ    -320.1586   XYZZ     -58.3705   YYZZ    -510.2883
      XZZZ    -184.3391   YZZZ     -51.7988   ZZZZ    -609.2224
 -----------------------------------------------------------------
 Total job time:  58.37s(wall), 2091.63s(cpu) 
 Fri Dec 15 14:28:36 2023

        *************************************************************
        *                                                           *
        *  Thank you very much for using Q-Chem.  Have a nice day.  *
        *                                                           *
        *************************************************************


0 sent ACK to 0 
now end server 0 ... 
cleanup process ... done
remove work dirs ./qchem2824979.0 -- ./qchem2824979.0
rm -rf ./qchem2824979.0
rm -rf ./qchem2824979
