You are running Q-Chem version: 5.4.0

#
# job setting
#
local host:  exp-8-02
current dir: /home/rramji/project-csd799/aromodel/p3ht-qchem/hydrogenated-rotation-run
input file:  Methylthiophene_Phi_20_Theta_10_Methylthiophene_Hydrogenated.qcin
output file: 
nprocs     : 1
nthreads   : 64
#
# qchem installation setting
#
QC:          /cm/shared/apps/spack/cpu/opt/spack/linux-centos8-zen2/gcc-10.2.0/qchem-5.4-akfmr7b3t57bfs6qan3padb2wnb2i7cl
QCAUX:       /cm/shared/apps/spack/cpu/opt/spack/linux-centos8-zen2/gcc-10.2.0/qchem-5.4-akfmr7b3t57bfs6qan3padb2wnb2i7cl/qcaux
QCPROG:      /cm/shared/apps/spack/cpu/opt/spack/linux-centos8-zen2/gcc-10.2.0/qchem-5.4-akfmr7b3t57bfs6qan3padb2wnb2i7cl/exe/qcprog.exe
QCPROG_S:    /cm/shared/apps/spack/cpu/opt/spack/linux-centos8-zen2/gcc-10.2.0/qchem-5.4-akfmr7b3t57bfs6qan3padb2wnb2i7cl/exe/qcprog.exe_s
PARALLEL:    -DPARALLEL
QCMPI:       mpich
#
# qchem directory setting
#
qcrun:       qchem159361
QCSCRATCH:   .
QCLOCALSCR:  
QCTMPDIR:    .
QCFILEPREF:  ./qchem159361
QCSAVEDIR:   
workdirs:    ./qchem159361
workdir0:    ./qchem159361
partmpdirs =  
#
# parallel setting
#
QCRSH:           ssh
QCMPI:           mpich
QCMPIRUN:        /cm/shared/apps/spack/cpu/opt/spack/linux-centos8-zen2/gcc-10.2.0/qchem-5.4-akfmr7b3t57bfs6qan3padb2wnb2i7cl/bin/mpi/mpirun_qchem
QCMACHINEFILE:   ./qchem159361/hostfile
exp-8-02

#
# env setting
#
exported envs:   QC QCAUX QCSCRATCH QCRUNNAME QCFILEPREF QCPROG QCPROG_S GUIFILE

Running Job 1 of 1 Methylthiophene_Phi_20_Theta_10_Methylthiophene_Hydrogenated.qcin
qchem Methylthiophene_Phi_20_Theta_10_Methylthiophene_Hydrogenated.qcin_159361.0 ./qchem159361/ 1
/cm/shared/apps/spack/cpu/opt/spack/linux-centos8-zen2/gcc-10.2.0/qchem-5.4-akfmr7b3t57bfs6qan3padb2wnb2i7cl/bin/mpi/mpirun_qchem -machinefile ./qchem159361/hostfile -np 1 /cm/shared/apps/spack/cpu/opt/spack/linux-centos8-zen2/gcc-10.2.0/qchem-5.4-akfmr7b3t57bfs6qan3padb2wnb2i7cl/exe/qcprog.exe Methylthiophene_Phi_20_Theta_10_Methylthiophene_Hydrogenated.qcin_159361.0 ./qchem159361/

Process 0 of 1 is on exp-8-02 - thread support 0
initial socket setup ...start
initial socket setup ...done 
now start server 0 ... 
                  Welcome to Q-Chem
     A Quantum Leap Into The Future Of Chemistry


 Q-Chem 5.4, Q-Chem, Inc., Pleasanton, CA (2021)

 License issued to: University of California, San Diego (site)

 E. Epifanovsky,  A. T. B. Gilbert,  Xintian Feng,  Joonho Lee,  Yuezhi Mao,  
 N. Mardirossian,  P. Pokhilko,  A. White,  M. Wormit,  M. P. Coons,  
 A. L. Dempwolff,  Zhengting Gan,  D. Hait,  P. R. Horn,  L. D. Jacobson,  
 I. Kaliman,  J. Kussmann,  A. W. Lange,  Ka Un Lao,  D. S. Levine,  Jie Liu,  
 S. C. McKenzie,  A. F. Morrison,  K. Nanda,  F. Plasser,  D. R. Rehn,  
 M. L. Vidal,  Zhi-Qiang You,  Ying Zhu,  B. Alam,  B. Albrecht,  
 A. Aldossary,  E. Alguire,  J. H. Andersen,  D. Barton,  K. Begam,  A. Behn,  
 Y. A. Bernard,  E. J. Berquist,  H. Burton,  A. Carreras,  K. Carter-Fenk,  
 R. Chakraborty,  A. D. Chien,  K. D. Closser,  V. Cofer-Shabica,  
 S. Dasgupta,  Jia Deng,  M. de Wergifosse,  M. Diedenhofen,  Hainam Do,  
 S. Ehlert,  Po-Tung Fang,  S. Fatehi,  Qingguo Feng,  J. Gayvert,  
 Qinghui Ge,  G. Gidofalvi,  M. Goldey,  J. Gomes,  C. Gonzalez-Espinoza,  
 S. Gulania,  A. Gunina,  M. W. D. Hanson-Heine,  P. H. P. Harbach,  
 A. W. Hauser,  M. F. Herbst,  M. Hernandez Vera,  M. Hodecker,  
 Z. C. Holden,  S. Houck,  Xunkun Huang,  Kerwin Hui,  B. C. Huynh,  
 M. Ivanov,  Hyunjun Ji,  Hanjie Jiang,  B. Kaduk,  S. Kaehler,  
 K. Khistyaev,  Jaehoon Kim,  P. Klunzinger,  Z. Koczor-Benda,  
 Joong Hoon Koh,  D. Kosenkov,  L. Koulias,  T. Kowalczyk,  C. M. Krauter,  
 K. Kue,  A. Kunitsa,  T. Kus,  A. Landau,  K. V. Lawler,  D. Lefrancois,  
 S. Lehtola,  Rain Li,  Yi-Pei Li,  Jiashu Liang,  M. Liebenthal,  
 Hung-Hsuan Lin,  You-Sheng Lin,  Fenglai Liu,  Kuan-Yu Liu,  
 M. Loipersberger,  A. Luenser,  A. Manjanath,  P. Manohar,  E. Mansoor,  
 S. F. Manzer,  Shan-Ping Mao,  A. V. Marenich,  T. Markovich,  S. Mason,  
 S. A. Maurer,  P. F. McLaughlin,  M. F. S. J. Menger,  J.-M. Mewes,  
 S. A. Mewes,  P. Morgante,  J. W. Mullinax,  T. S. Nguyen-Beck,  
 K. J. Oosterbaan,  G. Paran,  Alexander C. Paul,  Suranjan K. Paul,  
 F. Pavosevic,  Zheng Pei,  S. Prager,  E. I. Proynov,  E. Ramos,  B. Rana,  
 A. E. Rask,  A. Rettig,  R. M. Richard,  F. Rob,  E. Rossomme,  T. Scheele,  
 M. Scheurer,  M. Schneider,  N. Sergueev,  S. M. Sharada,  W. Skomorowski,  
 D. W. Small,  C. J. Stein,  Yu-Chuan Su,  E. J. Sundstrom,  Zhen Tao,  
 J. Thirman,  T. Tsuchimochi,  N. M. Tubman,  S. P. Veccham,  O. Vydrov,  
 J. Wenzel,  J. Witte,  A. Yamada,  Kun Yao,  S. Yeganeh,  S. R. Yost,  
 A. Zech,  Igor Ying Zhang,  Xing Zhang,  Yu Zhang,  D. Zuev,  
 A. Aspuru-Guzik,  A. T. Bell,  N. A. Besley,  K. B. Bravaya,  B. R. Brooks,  
 D. Casanova,  Jeng-Da Chai,  S. Coriani,  C. J. Cramer,  
 A. E. DePrince, III,  R. A. DiStasio Jr.,  A. Dreuw,  B. D. Dunietz,  
 T. R. Furlani,  W. A. Goddard III,  S. Grimme,  S. Hammes-Schiffer,  
 T. Head-Gordon,  W. J. Hehre,  Chao-Ping Hsu,  T.-C. Jagau,  Yousung Jung,  
 A. Klamt,  Jing Kong,  D. S. Lambrecht,  WanZhen Liang,  N. J. Mayhall,  
 C. W. McCurdy,  J. B. Neaton,  C. Ochsenfeld,  J. A. Parkhill,  R. Peverati,  
 V. A. Rassolov,  Yihan Shao,  L. V. Slipchenko,  T. Stauch,  R. P. Steele,  
 J. E. Subotnik,  A. J. W. Thom,  A. Tkatchenko,  D. G. Truhlar,  
 T. Van Voorhis,  T. A. Wesolowski,  K. B. Whaley,  H. L. Woodcock III,  
 P. M. Zimmerman,  S. Faraji,  P. M. W. Gill,  M. Head-Gordon,  
 J. M. Herbert,  A. I. Krylov

 Contributors to earlier versions of Q-Chem not listed above: 
 R. D. Adamson,  B. Austin,  R. Baer,  J. Baker,  G. J. O. Beran,  
 K. Brandhorst,  S. T. Brown,  E. F. C. Byrd,  A. K. Chakraborty,  
 G. K. L. Chan,  Chun-Min Chang,  Yunqing Chen,  C.-L. Cheng,  
 Siu Hung Chien,  D. M. Chipman,  D. L. Crittenden,  H. Dachsel,  
 R. J. Doerksen,  A. D. Dutoi,  R. G. Edgar,  J. Fosso-Tande,  
 L. Fusti-Molnar,  D. Ghosh,  A. Ghysels,  A. Golubeva-Zadorozhnaya,  
 J. Gonthier,  M. S. Gordon,  S. R. Gwaltney,  G. Hawkins,  J. E. Herr,  
 A. Heyden,  S. Hirata,  E. G. Hohenstein,  G. Kedziora,  F. J. Keil,  
 C. Kelley,  Jihan Kim,  R. A. King,  R. Z. Khaliullin,  P. P. Korambath,  
 W. Kurlancheek,  A. Laurent,  A. M. Lee,  M. S. Lee,  S. V. Levchenko,  
 Ching Yeh Lin,  D. Liotard,  E. Livshits,  R. C. Lochan,  I. Lotan,  
 L. A. Martinez-Martinez,  P. E. Maslen,  N. Nair,  D. P. O'Neill,  
 D. Neuhauser,  E. Neuscamman,  C. M. Oana,  R. Olivares-Amaya,  R. Olson,  
 T. M. Perrine,  B. Peters,  P. A. Pieniazek,  A. Prociuk,  Y. M. Rhee,  
 J. Ritchie,  M. A. Rohrdanz,  E. Rosta,  N. J. Russ,  H. F. Schaefer III,  
 M. W. Schmidt,  N. E. Schultz,  S. Sharma,  N. Shenvi,  C. D. Sherrill,  
 A. C. Simmonett,  A. Sodt,  T. Stein,  D. Stuck,  K. S. Thanthiriwatte,  
 V. Vanovschi,  L. Vogt,  Tao Wang,  A. Warshel,  M. A. Watson,  
 C. F. Williams,  Q. Wu,  X. Xu,  Jun Yang,  W. Zhang,  Yan Zhao

 Please cite Q-Chem as follows:
 Y. Shao et al., Mol. Phys. 113, 184-215 (2015)
 DOI: 10.1080/00268976.2014.952696

 Q-Chem 5.4.0 for Intel X86 EM64T Linux

 Parts of Q-Chem use Armadillo 9.800.1 (Horizon Scraper).
 http://arma.sourceforge.net/

 Q-Chem begins on Fri Dec 15 13:54:48 2023  

 Host: 
0

     Scratch files written to ./qchem159361//
 May1621 |scratch|qcdevops|jenkins|workspace|build_RNUM    
 Parallel job on  1  processors
 Processing $rem in /cm/shared/apps/spack/cpu/opt/spack/linux-centos8-zen2/gcc-10.2.0/qchem-5.4-akfmr7b3t57bfs6qan3padb2wnb2i7cl/config/preferences:
 Processing $rem in /home/rramji/.qchemrc:
 Symmetry turned off for PCM/SM12/SMD calculation
 Core orbitals will be frozen

 Checking the input file for inconsistencies... 	...done.

 Q-Chem warning in module forms1/BasisType.C, line 2236:

 You are not using the predefined 5D/6D in this basis set.


--------------------------------------------------------------
User input:
--------------------------------------------------------------
$molecule
0 1
C	-0.126876	-3.887800	0.713264
C	0.113784	-3.701456	-0.651267
C	0.188043	-2.345170	-1.068787
H	0.236019	-4.545233	-1.346782
C	0.000000	-1.450135	0.000000
S	-0.265612	-2.321334	1.504247
C	0.439357	-1.934439	-2.493059
H	0.554378	-2.819799	-3.147809
H	1.362899	-1.326210	-2.589987
H	-0.394786	-1.325374	-2.899892
C	0.000000	0.000000	0.000000
C	0.285976	0.794723	1.113020
C	0.757308	2.103412	0.820578
H	0.154498	0.429575	2.142881
C	0.841565	2.336821	-0.563588
S	0.328498	0.913334	-1.464748
C	1.118059	3.105040	1.882380
H	0.966197	2.683616	2.894974
H	0.500773	4.024668	1.808137
H	2.180000	3.419766	1.808230
H	1.166129	3.238200	-1.097114
H	0.698744	-4.420219	1.198647
H	-1.069193	-4.419395	0.886933
H	1.063595	-1.450628	0.187526
$end

$rem
JOBTYPE		SP
EXCHANGE	HF
CORRELATION	pRIMP2
BASIS		cc-pvtz
METHOD		rimp2
AUX_BASIS	rimp2-cc-pvtz
SOLVENT_METHOD	PCM
PURECART	11111
SYMMETRY	false
MEM_TOTAL	110000
SCF_CONVERGENCE = 6
THRESH=10
GUI = 2
$end



$solvent
dielectric 4.90
$end
--------------------------------------------------------------
 ----------------------------------------------------------------
             Standard Nuclear Orientation (Angstroms)
    I     Atom           X                Y                Z
 ----------------------------------------------------------------
    1      C      -0.1268760000    -3.8878000000     0.7132640000
    2      C       0.1137840000    -3.7014560000    -0.6512670000
    3      C       0.1880430000    -2.3451700000    -1.0687870000
    4      H       0.2360190000    -4.5452330000    -1.3467820000
    5      C       0.0000000000    -1.4501350000     0.0000000000
    6      S      -0.2656120000    -2.3213340000     1.5042470000
    7      C       0.4393570000    -1.9344390000    -2.4930590000
    8      H       0.5543780000    -2.8197990000    -3.1478090000
    9      H       1.3628990000    -1.3262100000    -2.5899870000
   10      H      -0.3947860000    -1.3253740000    -2.8998920000
   11      C       0.0000000000     0.0000000000     0.0000000000
   12      C       0.2859760000     0.7947230000     1.1130200000
   13      C       0.7573080000     2.1034120000     0.8205780000
   14      H       0.1544980000     0.4295750000     2.1428810000
   15      C       0.8415650000     2.3368210000    -0.5635880000
   16      S       0.3284980000     0.9133340000    -1.4647480000
   17      C       1.1180590000     3.1050400000     1.8823800000
   18      H       0.9661970000     2.6836160000     2.8949740000
   19      H       0.5007730000     4.0246680000     1.8081370000
   20      H       2.1800000000     3.4197660000     1.8082300000
   21      H       1.1661290000     3.2382000000    -1.0971140000
   22      H       0.6987440000    -4.4202190000     1.1986470000
   23      H      -1.0691930000    -4.4193950000     0.8869330000
   24      H       1.0635950000    -1.4506280000     0.1875260000
 ----------------------------------------------------------------
 Nuclear Repulsion Energy =         878.90820417 hartrees
 There are       52 alpha and       52 beta electrons
 Requested basis set is cc-pVTZ
 There are 196 shells and 536 basis functions

 Total QAlloc Memory Limit 110000 MB
 Mega-Array Size       188 MB
 MEM_STATIC part       192 MB
 Discretize the solute cavity surface with Lebedev spheres
	Using 110 Lebedev grid points for each H atom
	Using 194 Lebedev grid points for other atoms
	Atomic van der Waals radii will be scaled by 1.20
 Remove points where switching function is < 1.0e-08
 Keep 1588 surface tesserae and discard 2060 interior tesserae
 Molecular Surface Area = 229.115 Angst**2
 Requested basis set is rimp2-cc-pVTZ
 There are 414 shells and 1414 basis functions
 A cutoff of  1.0D-10 yielded  13980 shell pairs
 There are    101256 function pairs (    129798 Cartesian)
 Smallest overlap matrix eigenvalue = 5.44E-05

 Scale SEOQF with 1.000000e-01/1.000000e-01/1.000000e-01

 Standard Electronic Orientation quadrupole field applied
 Nucleus-field energy     =     0.0000000207 hartrees
 Guess from superposition of atomic densities
 Warning:  Energy on first SCF cycle will be non-variational
 SAD guess density has 104.000000 electrons

 -----------------------------------------------------------------------
  General SCF calculation program by
  Eric Jon Sundstrom, Paul Horn, Yuezhi Mao, Dmitri Zuev, Alec White,
  David Stuck, Shaama M.S., Shane Yost, Joonho Lee, David Small,
  Daniel Levine, Susi Lehtola, Hugh Burton, Evgeny Epifanovsky,
  Bang C. Huynh
 -----------------------------------------------------------------------
 Hartree-Fock
 using 64 threads for integral computing
 -------------------------------------------------------
 OpenMP Integral computing Module                
 Release: version 1.0, May 2013, Q-Chem Inc. Pittsburgh 
 -------------------------------------------------------
 A restricted SCF calculation will be
 performed using DIIS
 SCF converges when DIIS error is below 1.0e-06
 ---------------------------------------
  Cycle       Energy         DIIS error
 ---------------------------------------
    1   -1186.0564804670      2.39e-02  
    2   -1180.6023584464      1.59e-03  
    3   -1180.7289762229      6.70e-04  
    4   -1180.7454810632      3.54e-04  
    5   -1180.7512944005      6.00e-05  
    6   -1180.7515433847      2.46e-05  
    7   -1180.7515996317      8.36e-06  
    8   -1180.7516106120      3.97e-06  
    9   -1180.7516129186      1.33e-06  
   10   -1180.7516132894      4.85e-07  Convergence criterion met
 ---------------------------------------
 SCF time:   CPU 1681.56s  wall 50.00s 

************** Final PCM Free Energy Summary **************
 G_electrostatic  =      -0.00804729 hartree =      -5.04975022 kcal/mol
 G_cavitation     =       0.00000000 hartree =       0.00000000 kcal/mol
 G_dispersion     =       0.00000000 hartree =       0.00000000 kcal/mol
 G_repulsion      =       0.00000000 hartree =       0.00000000 kcal/mol
 --------------------------------------------------
 Non-electrostatic Free Energy =       0.00000000 hartree =       0.00000000 kcal/mol
 Total                         =      -0.00804729 hartree =      -5.04975022 kcal/mol
 --------------------------------------------------
 SCF Energy (H0 + V/2)                       =   -1180.75161329 
 Solute Internal Energy (H0)                 =   -1180.74356600 
 Total Free Energy (H0 + V/2 + non-elec)     =   -1180.75161329 hartree
                                             = -740932.82023765 kcal/mol
***********************************************************

 SCF   energy in the final basis set =    -1180.7516132894
 Total energy in the final basis set =    -1180.7516132894


 --------------------------------------------------------------
  Generalized many-body perturbation theory program
  by Joonho Lee, Fazle Rob, Xintian Feng, Evgeny Epifanovsky

 No regularization used 
 (reg. param. = 0.0000e+00)
  (P|Q)^-1/2 Time:  CPU 26.43 s  wall 0.43 s

 In RI-MP2 calculation: 
 # of frozen core orbitals: 20

 Components of the RIMP2 correlation energy:
        aaaa    correlation energy =        -0.2518883881 a.u.
        abab    correlation energy =        -1.5040372879 a.u.
        bbbb    correlation energy =        -0.2518883881 a.u.
        non-Brillouin singles      =        -0.0000000000 a.u.
        total same-spin energy     =        -0.5037767762 a.u.
        total opposite-spin energy =        -1.5040372879 a.u.

 Total  RIMP2   correlation energy =        -2.0078140641 a.u.
        RIMP2         total energy =     -1182.7594273535 a.u.

 RI-MP2 Energy Time:  CPU 175.76 s  wall 3.37 s
 
 --------------------------------------------------------------
 
                    Orbital Energies (a.u.)
 --------------------------------------------------------------
 
 Alpha MOs
 -- Occupied --
-91.9813 -91.9465 -11.2895 -11.2648 -11.2626 -11.2545 -11.2502 -11.2444
-11.2318 -11.2298 -11.2277 -11.2223  -8.9814  -8.9510  -6.6623  -6.6618
 -6.6611  -6.6324  -6.6314  -6.6301  -1.2026  -1.1523  -1.0599  -1.0280
 -1.0069  -0.9556  -0.9158  -0.9022  -0.8129  -0.7716  -0.7174  -0.7032
 -0.6620  -0.6477  -0.6115  -0.5893  -0.5821  -0.5721  -0.5685  -0.5538
 -0.5419  -0.5331  -0.5163  -0.5104  -0.4914  -0.4811  -0.4566  -0.4456
 -0.3586  -0.3412  -0.3267  -0.2643
 -- Virtual --
  0.1001   0.1340   0.1450   0.1525   0.1603   0.1726   0.1740   0.1833
  0.1934   0.1979   0.2010   0.2054   0.2264   0.2335   0.2390   0.2452
  0.2498   0.2673   0.2752   0.3057   0.3198   0.3360   0.3543   0.3649
  0.3724   0.3756   0.3781   0.3969   0.4078   0.4116   0.4208   0.4374
  0.4459   0.4483   0.4584   0.4629   0.4784   0.4825   0.4868   0.4962
  0.5094   0.5166   0.5190   0.5353   0.5388   0.5444   0.5546   0.5576
  0.5616   0.5826   0.5946   0.5959   0.6009   0.6154   0.6179   0.6214
  0.6236   0.6273   0.6348   0.6368   0.6415   0.6452   0.6507   0.6581
  0.6610   0.6700   0.6843   0.6848   0.6941   0.7118   0.7236   0.7297
  0.7331   0.7610   0.7747   0.7829   0.7848   0.7987   0.8161   0.8188
  0.8444   0.8474   0.8545   0.8590   0.8812   0.8937   0.9138   0.9208
  0.9271   0.9359   0.9571   0.9627   0.9777   0.9797   0.9943   0.9999
  1.0126   1.0251   1.0290   1.0528   1.0592   1.0640   1.0748   1.0780
  1.0925   1.1066   1.1268   1.1321   1.1446   1.1527   1.1542   1.1653
  1.1754   1.1858   1.1996   1.2106   1.2162   1.2234   1.2322   1.2423
  1.2608   1.2618   1.2711   1.2774   1.2802   1.2896   1.2975   1.3070
  1.3130   1.3338   1.3457   1.3634   1.3797   1.3976   1.4073   1.4094
  1.4356   1.4390   1.4459   1.4567   1.4612   1.4801   1.4840   1.4946
  1.5072   1.5173   1.5203   1.5290   1.5385   1.5422   1.5520   1.5529
  1.5633   1.5791   1.5829   1.5938   1.6118   1.6313   1.6426   1.6514
  1.6602   1.6653   1.6856   1.6877   1.6975   1.7112   1.7252   1.7295
  1.7377   1.7624   1.7785   1.8029   1.8133   1.8222   1.8451   1.8567
  1.8861   1.9105   1.9305   1.9516   1.9642   1.9723   1.9807   2.0178
  2.0313   2.0413   2.0565   2.0648   2.0807   2.1062   2.1252   2.1521
  2.1870   2.1997   2.2076   2.2181   2.2299   2.2576   2.2831   2.2867
  2.3067   2.3354   2.3660   2.3749   2.4097   2.4320   2.4557   2.4661
  2.4968   2.5174   2.5296   2.5423   2.5590   2.5850   2.5945   2.6146
  2.6453   2.6544   2.6571   2.6697   2.6833   2.6931   2.7103   2.7305
  2.7460   2.7524   2.7579   2.7696   2.7779   2.7846   2.8123   2.8170
  2.8359   2.8494   2.8522   2.8783   2.8894   2.9025   2.9204   2.9493
  2.9598   2.9654   2.9731   2.9956   3.0049   3.0183   3.0321   3.0384
  3.0656   3.0768   3.0832   3.1117   3.1129   3.1201   3.1358   3.1409
  3.1530   3.1620   3.1675   3.1758   3.1837   3.2015   3.2118   3.2146
  3.2240   3.2317   3.2464   3.2545   3.2694   3.2820   3.2960   3.2991
  3.3159   3.3225   3.3305   3.3403   3.3468   3.3499   3.3541   3.3652
  3.3690   3.3852   3.3884   3.4049   3.4140   3.4202   3.4242   3.4309
  3.4372   3.4392   3.4633   3.4699   3.4760   3.4903   3.4987   3.5077
  3.5133   3.5264   3.5314   3.5391   3.5492   3.5577   3.5732   3.5793
  3.5974   3.6116   3.6163   3.6203   3.6311   3.6401   3.6462   3.6553
  3.6736   3.6918   3.6946   3.7054   3.7159   3.7273   3.7296   3.7444
  3.7483   3.7559   3.7644   3.7754   3.7910   3.7949   3.8019   3.8139
  3.8204   3.8404   3.8492   3.8569   3.8742   3.8885   3.9084   3.9105
  3.9367   3.9454   3.9503   3.9658   3.9775   3.9885   4.0008   4.0123
  4.0226   4.0387   4.0494   4.0530   4.0739   4.0849   4.1028   4.1222
  4.1256   4.1322   4.1412   4.1482   4.1610   4.1790   4.1869   4.2067
  4.2103   4.2142   4.2291   4.2399   4.2494   4.2622   4.2692   4.2824
  4.2930   4.3081   4.3346   4.3379   4.3453   4.3549   4.3626   4.3670
  4.3819   4.3963   4.4028   4.4106   4.4116   4.4335   4.4340   4.4492
  4.4654   4.4665   4.4910   4.5012   4.5129   4.5225   4.5515   4.5663
  4.5785   4.5962   4.6073   4.6328   4.6433   4.6560   4.6608   4.6768
  4.7156   4.7255   4.7317   4.7568   4.7857   4.8004   4.8145   4.8350
  4.8508   4.8664   4.8970   4.9052   4.9261   4.9634   4.9659   4.9950
  5.0341   5.0527   5.0878   5.0988   5.1189   5.1258   5.1653   5.1815
  5.1955   5.2151   5.2308   5.2651   5.2848   5.2899   5.3061   5.3136
  5.3468   5.3661   5.3803   5.3886   5.4069   5.4190   5.4395   5.4528
  5.4925   5.5054   5.5247   5.5413   5.5495   5.5635   5.5663   5.5739
  5.6230   5.6356   5.6382   5.6719   5.6811   5.6966   5.7006   5.7206
  5.7644   5.7920   5.8455   5.9652   6.0038   6.1012   6.1392   6.1536
  6.2276   6.2292   6.2400   6.2478   6.2747   6.2865   6.2997   6.3139
  6.4274   6.4627   9.4557  10.6757  12.0008  12.9430  13.1768  13.9236
 14.1309  14.2910  14.3738  14.7985
 --------------------------------------------------------------
 
          Ground-State Mulliken Net Atomic Charges

     Atom                 Charge (a.u.)
  ----------------------------------------
      1 C                    -0.074115
      2 C                    -0.316209
      3 C                    -0.046800
      4 H                     0.179592
      5 C                     0.097935
      6 S                    -0.186179
      7 C                    -0.308120
      8 H                     0.119403
      9 H                     0.113400
     10 H                     0.113012
     11 C                     0.006037
     12 C                    -0.315210
     13 C                     0.046711
     14 H                     0.176498
     15 C                    -0.281696
     16 S                     0.010404
     17 C                    -0.270361
     18 H                     0.102811
     19 H                     0.108583
     20 H                     0.107863
     21 H                     0.196891
     22 H                     0.111420
     23 H                     0.113501
     24 H                     0.194630
  ----------------------------------------
  Sum of atomic charges =     0.000000

 -----------------------------------------------------------------
                    Cartesian Multipole Moments
 -----------------------------------------------------------------
    Charge (ESU x 10^10)
                -0.0000
    Dipole Moment (Debye)
         X       1.7776      Y      -0.4533      Z      -0.9263
       Tot       2.0551
    Quadrupole Moments (Debye-Ang)
        XX     -90.6637     XY       1.0420     YY     -74.6212
        XZ       0.5822     YZ       4.4194     ZZ     -85.4006
    Octopole Moments (Debye-Ang^2)
       XXX     -74.9419    XXY      52.5919    XYY     -11.0541
       YYY     122.5509    XXZ      -0.3339    XYZ      -0.0709
       YYZ      -1.4939    XZZ     -19.6828    YZZ      53.0959
       ZZZ      -4.6134
    Hexadecapole Moments (Debye-Ang^3)
      XXXX    -269.9048   XXXY    -157.2508   XXYY    -545.0866
      XYYY    -128.5471   YYYY   -2681.2599   XXXZ      17.9214
      XXYZ     -34.8071   XYYZ      -2.7138   YYYZ    -110.3760
      XXZZ    -235.7995   XYZZ     -51.4930   YYZZ    -644.7231
      XZZZ      10.8724   YZZZ     -66.6076   ZZZZ   -1083.4020
 -----------------------------------------------------------------
 Total job time:  55.21s(wall), 1913.09s(cpu) 
 Fri Dec 15 13:55:44 2023

        *************************************************************
        *                                                           *
        *  Thank you very much for using Q-Chem.  Have a nice day.  *
        *                                                           *
        *************************************************************


0 sent ACK to 0 
now end server 0 ... 
cleanup process ... done
remove work dirs ./qchem159361.0 -- ./qchem159361.0
rm -rf ./qchem159361.0
rm -rf ./qchem159361
