You are running Q-Chem version: 5.4.0

#
# job setting
#
local host:  exp-7-34
current dir: /home/rramji/project-csd799/aromodel/p3ht-qchem/hydrogenated-rotation-run
input file:  Methylthiophene_Phi_15_Theta_30_Methylthiophene_Hydrogenated.qcin
output file: 
nprocs     : 1
nthreads   : 64
#
# qchem installation setting
#
QC:          /cm/shared/apps/spack/cpu/opt/spack/linux-centos8-zen2/gcc-10.2.0/qchem-5.4-akfmr7b3t57bfs6qan3padb2wnb2i7cl
QCAUX:       /cm/shared/apps/spack/cpu/opt/spack/linux-centos8-zen2/gcc-10.2.0/qchem-5.4-akfmr7b3t57bfs6qan3padb2wnb2i7cl/qcaux
QCPROG:      /cm/shared/apps/spack/cpu/opt/spack/linux-centos8-zen2/gcc-10.2.0/qchem-5.4-akfmr7b3t57bfs6qan3padb2wnb2i7cl/exe/qcprog.exe
QCPROG_S:    /cm/shared/apps/spack/cpu/opt/spack/linux-centos8-zen2/gcc-10.2.0/qchem-5.4-akfmr7b3t57bfs6qan3padb2wnb2i7cl/exe/qcprog.exe_s
PARALLEL:    -DPARALLEL
QCMPI:       mpich
#
# qchem directory setting
#
qcrun:       qchem4182659
QCSCRATCH:   .
QCLOCALSCR:  
QCTMPDIR:    .
QCFILEPREF:  ./qchem4182659
QCSAVEDIR:   
workdirs:    ./qchem4182659
workdir0:    ./qchem4182659
partmpdirs =  
#
# parallel setting
#
QCRSH:           ssh
QCMPI:           mpich
QCMPIRUN:        /cm/shared/apps/spack/cpu/opt/spack/linux-centos8-zen2/gcc-10.2.0/qchem-5.4-akfmr7b3t57bfs6qan3padb2wnb2i7cl/bin/mpi/mpirun_qchem
QCMACHINEFILE:   ./qchem4182659/hostfile
exp-7-34

#
# env setting
#
exported envs:   QC QCAUX QCSCRATCH QCRUNNAME QCFILEPREF QCPROG QCPROG_S GUIFILE

Running Job 1 of 1 Methylthiophene_Phi_15_Theta_30_Methylthiophene_Hydrogenated.qcin
qchem Methylthiophene_Phi_15_Theta_30_Methylthiophene_Hydrogenated.qcin_4182659.0 ./qchem4182659/ 1
/cm/shared/apps/spack/cpu/opt/spack/linux-centos8-zen2/gcc-10.2.0/qchem-5.4-akfmr7b3t57bfs6qan3padb2wnb2i7cl/bin/mpi/mpirun_qchem -machinefile ./qchem4182659/hostfile -np 1 /cm/shared/apps/spack/cpu/opt/spack/linux-centos8-zen2/gcc-10.2.0/qchem-5.4-akfmr7b3t57bfs6qan3padb2wnb2i7cl/exe/qcprog.exe Methylthiophene_Phi_15_Theta_30_Methylthiophene_Hydrogenated.qcin_4182659.0 ./qchem4182659/

Process 0 of 1 is on exp-7-34 - thread support 0
initial socket setup ...start
initial socket setup ...done 
now start server 0 ... 
                  Welcome to Q-Chem
     A Quantum Leap Into The Future Of Chemistry


 Q-Chem 5.4, Q-Chem, Inc., Pleasanton, CA (2021)

 License issued to: University of California, San Diego (site)

 E. Epifanovsky,  A. T. B. Gilbert,  Xintian Feng,  Joonho Lee,  Yuezhi Mao,  
 N. Mardirossian,  P. Pokhilko,  A. White,  M. Wormit,  M. P. Coons,  
 A. L. Dempwolff,  Zhengting Gan,  D. Hait,  P. R. Horn,  L. D. Jacobson,  
 I. Kaliman,  J. Kussmann,  A. W. Lange,  Ka Un Lao,  D. S. Levine,  Jie Liu,  
 S. C. McKenzie,  A. F. Morrison,  K. Nanda,  F. Plasser,  D. R. Rehn,  
 M. L. Vidal,  Zhi-Qiang You,  Ying Zhu,  B. Alam,  B. Albrecht,  
 A. Aldossary,  E. Alguire,  J. H. Andersen,  D. Barton,  K. Begam,  A. Behn,  
 Y. A. Bernard,  E. J. Berquist,  H. Burton,  A. Carreras,  K. Carter-Fenk,  
 R. Chakraborty,  A. D. Chien,  K. D. Closser,  V. Cofer-Shabica,  
 S. Dasgupta,  Jia Deng,  M. de Wergifosse,  M. Diedenhofen,  Hainam Do,  
 S. Ehlert,  Po-Tung Fang,  S. Fatehi,  Qingguo Feng,  J. Gayvert,  
 Qinghui Ge,  G. Gidofalvi,  M. Goldey,  J. Gomes,  C. Gonzalez-Espinoza,  
 S. Gulania,  A. Gunina,  M. W. D. Hanson-Heine,  P. H. P. Harbach,  
 A. W. Hauser,  M. F. Herbst,  M. Hernandez Vera,  M. Hodecker,  
 Z. C. Holden,  S. Houck,  Xunkun Huang,  Kerwin Hui,  B. C. Huynh,  
 M. Ivanov,  Hyunjun Ji,  Hanjie Jiang,  B. Kaduk,  S. Kaehler,  
 K. Khistyaev,  Jaehoon Kim,  P. Klunzinger,  Z. Koczor-Benda,  
 Joong Hoon Koh,  D. Kosenkov,  L. Koulias,  T. Kowalczyk,  C. M. Krauter,  
 K. Kue,  A. Kunitsa,  T. Kus,  A. Landau,  K. V. Lawler,  D. Lefrancois,  
 S. Lehtola,  Rain Li,  Yi-Pei Li,  Jiashu Liang,  M. Liebenthal,  
 Hung-Hsuan Lin,  You-Sheng Lin,  Fenglai Liu,  Kuan-Yu Liu,  
 M. Loipersberger,  A. Luenser,  A. Manjanath,  P. Manohar,  E. Mansoor,  
 S. F. Manzer,  Shan-Ping Mao,  A. V. Marenich,  T. Markovich,  S. Mason,  
 S. A. Maurer,  P. F. McLaughlin,  M. F. S. J. Menger,  J.-M. Mewes,  
 S. A. Mewes,  P. Morgante,  J. W. Mullinax,  T. S. Nguyen-Beck,  
 K. J. Oosterbaan,  G. Paran,  Alexander C. Paul,  Suranjan K. Paul,  
 F. Pavosevic,  Zheng Pei,  S. Prager,  E. I. Proynov,  E. Ramos,  B. Rana,  
 A. E. Rask,  A. Rettig,  R. M. Richard,  F. Rob,  E. Rossomme,  T. Scheele,  
 M. Scheurer,  M. Schneider,  N. Sergueev,  S. M. Sharada,  W. Skomorowski,  
 D. W. Small,  C. J. Stein,  Yu-Chuan Su,  E. J. Sundstrom,  Zhen Tao,  
 J. Thirman,  T. Tsuchimochi,  N. M. Tubman,  S. P. Veccham,  O. Vydrov,  
 J. Wenzel,  J. Witte,  A. Yamada,  Kun Yao,  S. Yeganeh,  S. R. Yost,  
 A. Zech,  Igor Ying Zhang,  Xing Zhang,  Yu Zhang,  D. Zuev,  
 A. Aspuru-Guzik,  A. T. Bell,  N. A. Besley,  K. B. Bravaya,  B. R. Brooks,  
 D. Casanova,  Jeng-Da Chai,  S. Coriani,  C. J. Cramer,  
 A. E. DePrince, III,  R. A. DiStasio Jr.,  A. Dreuw,  B. D. Dunietz,  
 T. R. Furlani,  W. A. Goddard III,  S. Grimme,  S. Hammes-Schiffer,  
 T. Head-Gordon,  W. J. Hehre,  Chao-Ping Hsu,  T.-C. Jagau,  Yousung Jung,  
 A. Klamt,  Jing Kong,  D. S. Lambrecht,  WanZhen Liang,  N. J. Mayhall,  
 C. W. McCurdy,  J. B. Neaton,  C. Ochsenfeld,  J. A. Parkhill,  R. Peverati,  
 V. A. Rassolov,  Yihan Shao,  L. V. Slipchenko,  T. Stauch,  R. P. Steele,  
 J. E. Subotnik,  A. J. W. Thom,  A. Tkatchenko,  D. G. Truhlar,  
 T. Van Voorhis,  T. A. Wesolowski,  K. B. Whaley,  H. L. Woodcock III,  
 P. M. Zimmerman,  S. Faraji,  P. M. W. Gill,  M. Head-Gordon,  
 J. M. Herbert,  A. I. Krylov

 Contributors to earlier versions of Q-Chem not listed above: 
 R. D. Adamson,  B. Austin,  R. Baer,  J. Baker,  G. J. O. Beran,  
 K. Brandhorst,  S. T. Brown,  E. F. C. Byrd,  A. K. Chakraborty,  
 G. K. L. Chan,  Chun-Min Chang,  Yunqing Chen,  C.-L. Cheng,  
 Siu Hung Chien,  D. M. Chipman,  D. L. Crittenden,  H. Dachsel,  
 R. J. Doerksen,  A. D. Dutoi,  R. G. Edgar,  J. Fosso-Tande,  
 L. Fusti-Molnar,  D. Ghosh,  A. Ghysels,  A. Golubeva-Zadorozhnaya,  
 J. Gonthier,  M. S. Gordon,  S. R. Gwaltney,  G. Hawkins,  J. E. Herr,  
 A. Heyden,  S. Hirata,  E. G. Hohenstein,  G. Kedziora,  F. J. Keil,  
 C. Kelley,  Jihan Kim,  R. A. King,  R. Z. Khaliullin,  P. P. Korambath,  
 W. Kurlancheek,  A. Laurent,  A. M. Lee,  M. S. Lee,  S. V. Levchenko,  
 Ching Yeh Lin,  D. Liotard,  E. Livshits,  R. C. Lochan,  I. Lotan,  
 L. A. Martinez-Martinez,  P. E. Maslen,  N. Nair,  D. P. O'Neill,  
 D. Neuhauser,  E. Neuscamman,  C. M. Oana,  R. Olivares-Amaya,  R. Olson,  
 T. M. Perrine,  B. Peters,  P. A. Pieniazek,  A. Prociuk,  Y. M. Rhee,  
 J. Ritchie,  M. A. Rohrdanz,  E. Rosta,  N. J. Russ,  H. F. Schaefer III,  
 M. W. Schmidt,  N. E. Schultz,  S. Sharma,  N. Shenvi,  C. D. Sherrill,  
 A. C. Simmonett,  A. Sodt,  T. Stein,  D. Stuck,  K. S. Thanthiriwatte,  
 V. Vanovschi,  L. Vogt,  Tao Wang,  A. Warshel,  M. A. Watson,  
 C. F. Williams,  Q. Wu,  X. Xu,  Jun Yang,  W. Zhang,  Yan Zhao

 Please cite Q-Chem as follows:
 Y. Shao et al., Mol. Phys. 113, 184-215 (2015)
 DOI: 10.1080/00268976.2014.952696

 Q-Chem 5.4.0 for Intel X86 EM64T Linux

 Parts of Q-Chem use Armadillo 9.800.1 (Horizon Scraper).
 http://arma.sourceforge.net/

 Q-Chem begins on Fri Dec 15 13:57:09 2023  

 Host: 
0

     Scratch files written to ./qchem4182659//
 May1621 |scratch|qcdevops|jenkins|workspace|build_RNUM    
 Parallel job on  1  processors
 Processing $rem in /cm/shared/apps/spack/cpu/opt/spack/linux-centos8-zen2/gcc-10.2.0/qchem-5.4-akfmr7b3t57bfs6qan3padb2wnb2i7cl/config/preferences:
 Processing $rem in /home/rramji/.qchemrc:
 Symmetry turned off for PCM/SM12/SMD calculation
 Core orbitals will be frozen

 Checking the input file for inconsistencies... 	...done.

 Q-Chem warning in module forms1/BasisType.C, line 2236:

 You are not using the predefined 5D/6D in this basis set.


--------------------------------------------------------------
User input:
--------------------------------------------------------------
$molecule
0 1
C	-0.363176	-3.887800	0.626855
C	0.329669	-3.701456	-0.573074
C	0.542250	-2.345170	-0.940016
H	0.682412	-4.545233	-1.184837
C	-0.000000	-1.450135	-0.000000
S	-0.764076	-2.321334	1.322686
C	1.265537	-1.934439	-2.192440
H	1.597559	-2.819799	-2.768365
H	2.166534	-1.326210	-1.967653
H	0.620843	-1.325374	-2.860032
C	0.000000	0.000000	0.000000
C	0.215623	0.816623	1.113020
C	0.571102	2.161411	0.820578
H	0.116470	0.441406	2.142881
C	0.634696	2.401276	-0.563588
S	0.247646	0.938489	-1.464748
C	0.843182	3.190669	1.882380
H	0.728628	2.757614	2.894974
H	0.148095	4.052998	1.808137
H	1.873652	3.596752	1.808230
H	0.879464	3.327513	-1.097114
H	0.246643	-4.420219	1.365344
H	-1.308062	-4.419395	0.467758
H	0.935314	-1.450628	0.539988
$end

$rem
JOBTYPE		SP
EXCHANGE	HF
CORRELATION	pRIMP2
BASIS		cc-pvtz
METHOD		rimp2
AUX_BASIS	rimp2-cc-pvtz
SOLVENT_METHOD	PCM
PURECART	11111
SYMMETRY	false
MEM_TOTAL	110000
SCF_CONVERGENCE = 6
THRESH=10
GUI = 2
$end



$solvent
dielectric 4.90
$end
--------------------------------------------------------------
 ----------------------------------------------------------------
             Standard Nuclear Orientation (Angstroms)
    I     Atom           X                Y                Z
 ----------------------------------------------------------------
    1      C      -0.3631760000    -3.8878000000     0.6268550000
    2      C       0.3296690000    -3.7014560000    -0.5730740000
    3      C       0.5422500000    -2.3451700000    -0.9400160000
    4      H       0.6824120000    -4.5452330000    -1.1848370000
    5      C       0.0000000000    -1.4501350000     0.0000000000
    6      S      -0.7640760000    -2.3213340000     1.3226860000
    7      C       1.2655370000    -1.9344390000    -2.1924400000
    8      H       1.5975590000    -2.8197990000    -2.7683650000
    9      H       2.1665340000    -1.3262100000    -1.9676530000
   10      H       0.6208430000    -1.3253740000    -2.8600320000
   11      C       0.0000000000     0.0000000000     0.0000000000
   12      C       0.2156230000     0.8166230000     1.1130200000
   13      C       0.5711020000     2.1614110000     0.8205780000
   14      H       0.1164700000     0.4414060000     2.1428810000
   15      C       0.6346960000     2.4012760000    -0.5635880000
   16      S       0.2476460000     0.9384890000    -1.4647480000
   17      C       0.8431820000     3.1906690000     1.8823800000
   18      H       0.7286280000     2.7576140000     2.8949740000
   19      H       0.1480950000     4.0529980000     1.8081370000
   20      H       1.8736520000     3.5967520000     1.8082300000
   21      H       0.8794640000     3.3275130000    -1.0971140000
   22      H       0.2466430000    -4.4202190000     1.3653440000
   23      H      -1.3080620000    -4.4193950000     0.4677580000
   24      H       0.9353140000    -1.4506280000     0.5399880000
 ----------------------------------------------------------------
 Nuclear Repulsion Energy =         876.48713750 hartrees
 There are       52 alpha and       52 beta electrons
 Requested basis set is cc-pVTZ
 There are 196 shells and 536 basis functions

 Total QAlloc Memory Limit 110000 MB
 Mega-Array Size       188 MB
 MEM_STATIC part       192 MB
 Discretize the solute cavity surface with Lebedev spheres
	Using 110 Lebedev grid points for each H atom
	Using 194 Lebedev grid points for other atoms
	Atomic van der Waals radii will be scaled by 1.20
 Remove points where switching function is < 1.0e-08
 Keep 1577 surface tesserae and discard 2071 interior tesserae
 Molecular Surface Area = 231.754 Angst**2
 Requested basis set is rimp2-cc-pVTZ
 There are 414 shells and 1414 basis functions
 A cutoff of  1.0D-10 yielded  13957 shell pairs
 There are    101209 function pairs (    129791 Cartesian)
 Smallest overlap matrix eigenvalue = 5.51E-05

 Scale SEOQF with 1.000000e-01/1.000000e-01/1.000000e-01

 Standard Electronic Orientation quadrupole field applied
 Nucleus-field energy     =     0.0000000246 hartrees
 Guess from superposition of atomic densities
 Warning:  Energy on first SCF cycle will be non-variational
 SAD guess density has 104.000000 electrons

 -----------------------------------------------------------------------
  General SCF calculation program by
  Eric Jon Sundstrom, Paul Horn, Yuezhi Mao, Dmitri Zuev, Alec White,
  David Stuck, Shaama M.S., Shane Yost, Joonho Lee, David Small,
  Daniel Levine, Susi Lehtola, Hugh Burton, Evgeny Epifanovsky,
  Bang C. Huynh
 -----------------------------------------------------------------------
 Hartree-Fock
 using 64 threads for integral computing
 -------------------------------------------------------
 OpenMP Integral computing Module                
 Release: version 1.0, May 2013, Q-Chem Inc. Pittsburgh 
 -------------------------------------------------------
 A restricted SCF calculation will be
 performed using DIIS
 SCF converges when DIIS error is below 1.0e-06
 ---------------------------------------
  Cycle       Energy         DIIS error
 ---------------------------------------
    1   -1186.0369625355      2.39e-02  
    2   -1180.6065378768      1.58e-03  
    3   -1180.7323664731      6.52e-04  
    4   -1180.7481746379      3.50e-04  
    5   -1180.7538368421      5.94e-05  
    6   -1180.7540836009      2.45e-05  
    7   -1180.7541403810      8.52e-06  
    8   -1180.7541521877      4.08e-06  
    9   -1180.7541547561      1.39e-06  
   10   -1180.7541551654      4.88e-07  Convergence criterion met
 ---------------------------------------
 SCF time:   CPU 1704.18s  wall 51.00s 

************** Final PCM Free Energy Summary **************
 G_electrostatic  =      -0.00820601 hartree =      -5.14934944 kcal/mol
 G_cavitation     =       0.00000000 hartree =       0.00000000 kcal/mol
 G_dispersion     =       0.00000000 hartree =       0.00000000 kcal/mol
 G_repulsion      =       0.00000000 hartree =       0.00000000 kcal/mol
 --------------------------------------------------
 Non-electrostatic Free Energy =       0.00000000 hartree =       0.00000000 kcal/mol
 Total                         =      -0.00820601 hartree =      -5.14934944 kcal/mol
 --------------------------------------------------
 SCF Energy (H0 + V/2)                       =   -1180.75415517 
 Solute Internal Energy (H0)                 =   -1180.74594915 
 Total Free Energy (H0 + V/2 + non-elec)     =   -1180.75415517 hartree
                                             = -740934.41528889 kcal/mol
***********************************************************

 SCF   energy in the final basis set =    -1180.7541551654
 Total energy in the final basis set =    -1180.7541551654


 --------------------------------------------------------------
  Generalized many-body perturbation theory program
  by Joonho Lee, Fazle Rob, Xintian Feng, Evgeny Epifanovsky

 No regularization used 
 (reg. param. = 0.0000e+00)
  (P|Q)^-1/2 Time:  CPU 29.82 s  wall 0.49 s

 In RI-MP2 calculation: 
 # of frozen core orbitals: 20

 Components of the RIMP2 correlation energy:
        aaaa    correlation energy =        -0.2517452064 a.u.
        abab    correlation energy =        -1.5037240280 a.u.
        bbbb    correlation energy =        -0.2517452064 a.u.
        non-Brillouin singles      =        -0.0000000000 a.u.
        total same-spin energy     =        -0.5034904128 a.u.
        total opposite-spin energy =        -1.5037240280 a.u.

 Total  RIMP2   correlation energy =        -2.0072144408 a.u.
        RIMP2         total energy =     -1182.7613696062 a.u.

 RI-MP2 Energy Time:  CPU 173.24 s  wall 2.84 s
 
 --------------------------------------------------------------
 
                    Orbital Energies (a.u.)
 --------------------------------------------------------------
 
 Alpha MOs
 -- Occupied --
-91.9824 -91.9450 -11.2884 -11.2647 -11.2601 -11.2557 -11.2503 -11.2436
-11.2316 -11.2314 -11.2281 -11.2216  -8.9823  -8.9496  -6.6632  -6.6626
 -6.6620  -6.6310  -6.6300  -6.6287  -1.2010  -1.1524  -1.0591  -1.0267
 -1.0074  -0.9561  -0.9145  -0.9019  -0.8131  -0.7698  -0.7215  -0.7014
 -0.6625  -0.6453  -0.6109  -0.5868  -0.5812  -0.5735  -0.5683  -0.5535
 -0.5420  -0.5321  -0.5148  -0.5089  -0.4925  -0.4807  -0.4566  -0.4481
 -0.3574  -0.3420  -0.3235  -0.2659
 -- Virtual --
  0.1010   0.1327   0.1446   0.1514   0.1594   0.1700   0.1757   0.1812
  0.1956   0.1974   0.2007   0.2050   0.2244   0.2355   0.2393   0.2425
  0.2504   0.2679   0.2724   0.3059   0.3285   0.3369   0.3497   0.3630
  0.3710   0.3726   0.3813   0.3897   0.4031   0.4044   0.4130   0.4357
  0.4395   0.4508   0.4572   0.4657   0.4752   0.4829   0.4841   0.4974
  0.5118   0.5132   0.5194   0.5313   0.5354   0.5443   0.5482   0.5516
  0.5652   0.5755   0.5883   0.5901   0.5980   0.6147   0.6175   0.6202
  0.6230   0.6284   0.6309   0.6408   0.6419   0.6478   0.6515   0.6561
  0.6609   0.6734   0.6871   0.6930   0.6964   0.7083   0.7179   0.7231
  0.7375   0.7572   0.7587   0.7828   0.7889   0.7962   0.8058   0.8235
  0.8305   0.8456   0.8508   0.8644   0.8877   0.8926   0.9102   0.9194
  0.9259   0.9399   0.9590   0.9613   0.9803   0.9854   0.9934   0.9964
  1.0121   1.0185   1.0393   1.0477   1.0573   1.0688   1.0740   1.0788
  1.0895   1.0981   1.1176   1.1406   1.1454   1.1509   1.1602   1.1626
  1.1751   1.1841   1.2024   1.2139   1.2213   1.2268   1.2357   1.2424
  1.2486   1.2625   1.2731   1.2772   1.2788   1.2900   1.2956   1.3056
  1.3231   1.3306   1.3407   1.3663   1.3813   1.3971   1.4025   1.4086
  1.4287   1.4425   1.4494   1.4659   1.4703   1.4811   1.4880   1.4965
  1.5098   1.5120   1.5194   1.5324   1.5372   1.5407   1.5491   1.5557
  1.5623   1.5764   1.5848   1.5940   1.6142   1.6263   1.6308   1.6502
  1.6537   1.6580   1.6789   1.6867   1.6950   1.7161   1.7209   1.7289
  1.7389   1.7598   1.7957   1.8081   1.8148   1.8231   1.8427   1.8612
  1.8895   1.9137   1.9232   1.9481   1.9635   1.9732   1.9922   2.0199
  2.0329   2.0350   2.0449   2.0621   2.0640   2.0878   2.1345   2.1567
  2.1912   2.1987   2.2091   2.2192   2.2284   2.2613   2.2716   2.2827
  2.3281   2.3344   2.3515   2.3674   2.4160   2.4258   2.4550   2.4683
  2.4910   2.5135   2.5338   2.5529   2.5679   2.5867   2.6061   2.6184
  2.6339   2.6492   2.6610   2.6719   2.6857   2.6964   2.7129   2.7375
  2.7433   2.7545   2.7643   2.7667   2.7743   2.7818   2.8004   2.8138
  2.8221   2.8452   2.8517   2.8800   2.8975   2.9050   2.9158   2.9209
  2.9452   2.9577   2.9704   2.9849   3.0076   3.0142   3.0302   3.0380
  3.0578   3.0687   3.0865   3.0978   3.1125   3.1189   3.1350   3.1407
  3.1475   3.1610   3.1633   3.1750   3.1869   3.1969   3.2086   3.2218
  3.2294   3.2371   3.2477   3.2617   3.2709   3.2891   3.2952   3.3127
  3.3183   3.3199   3.3299   3.3332   3.3418   3.3505   3.3576   3.3685
  3.3760   3.3824   3.3880   3.4000   3.4087   3.4094   3.4276   3.4304
  3.4407   3.4471   3.4592   3.4640   3.4674   3.4844   3.4994   3.5052
  3.5172   3.5205   3.5293   3.5364   3.5476   3.5573   3.5693   3.5718
  3.5903   3.6021   3.6129   3.6256   3.6285   3.6341   3.6456   3.6537
  3.6673   3.6770   3.7036   3.7068   3.7143   3.7240   3.7320   3.7400
  3.7454   3.7589   3.7668   3.7864   3.7874   3.7931   3.8108   3.8149
  3.8247   3.8310   3.8480   3.8593   3.8796   3.8985   3.9054   3.9136
  3.9293   3.9445   3.9497   3.9680   3.9747   3.9918   4.0013   4.0158
  4.0319   4.0352   4.0472   4.0521   4.0749   4.0900   4.1059   4.1102
  4.1267   4.1304   4.1423   4.1553   4.1590   4.1680   4.1855   4.1988
  4.2084   4.2138   4.2301   4.2435   4.2568   4.2687   4.2774   4.2844
  4.2916   4.3099   4.3303   4.3332   4.3404   4.3506   4.3612   4.3660
  4.3902   4.3951   4.4020   4.4034   4.4165   4.4287   4.4410   4.4547
  4.4664   4.4724   4.4877   4.4954   4.5064   4.5304   4.5393   4.5537
  4.5759   4.5877   4.6122   4.6272   4.6383   4.6482   4.6604   4.6666
  4.7060   4.7135   4.7323   4.7470   4.7802   4.8015   4.8323   4.8443
  4.8461   4.8662   4.8829   4.8973   4.9348   4.9588   4.9745   4.9919
  5.0243   5.0409   5.0926   5.0989   5.1236   5.1268   5.1685   5.1828
  5.1885   5.2209   5.2324   5.2695   5.2805   5.2873   5.3058   5.3146
  5.3448   5.3657   5.3821   5.3991   5.4048   5.4214   5.4408   5.4477
  5.4854   5.5083   5.5211   5.5421   5.5492   5.5608   5.5696   5.5810
  5.6240   5.6328   5.6420   5.6656   5.6728   5.6998   5.7017   5.7252
  5.7650   5.7876   5.8411   5.9737   6.0036   6.1327   6.1397   6.1459
  6.2260   6.2282   6.2376   6.2481   6.2692   6.2837   6.3070   6.3161
  6.4081   6.4706   9.4216  10.6088  11.9924  12.9446  13.1623  13.9368
 14.1169  14.2725  14.3505  14.7589
 --------------------------------------------------------------
 
          Ground-State Mulliken Net Atomic Charges

     Atom                 Charge (a.u.)
  ----------------------------------------
      1 C                    -0.073829
      2 C                    -0.321639
      3 C                    -0.031587
      4 H                     0.179076
      5 C                     0.071726
      6 S                    -0.177939
      7 C                    -0.296614
      8 H                     0.116183
      9 H                     0.114700
     10 H                     0.109542
     11 C                    -0.015026
     12 C                    -0.286761
     13 C                     0.032837
     14 H                     0.180138
     15 C                    -0.267169
     16 S                     0.008720
     17 C                    -0.271001
     18 H                     0.102716
     19 H                     0.108531
     20 H                     0.107536
     21 H                     0.196604
     22 H                     0.110648
     23 H                     0.113780
     24 H                     0.188827
  ----------------------------------------
  Sum of atomic charges =     0.000000

 -----------------------------------------------------------------
                    Cartesian Multipole Moments
 -----------------------------------------------------------------
    Charge (ESU x 10^10)
                -0.0000
    Dipole Moment (Debye)
         X       2.3645      Y      -0.2183      Z      -0.3451
       Tot       2.3995
    Quadrupole Moments (Debye-Ang)
        XX     -91.2594     XY      -0.6334     YY     -74.4831
        XZ       0.3010     YZ       3.5703     ZZ     -85.4147
    Octopole Moments (Debye-Ang^2)
       XXX     -58.9211    XXY      48.4758    XYY      -8.2425
       YYY     121.9551    XXZ      -2.8945    XYZ       1.4417
       YYZ      -1.2157    XZZ     -12.9323    YZZ      52.6984
       ZZZ      -1.7557
    Hexadecapole Moments (Debye-Ang^3)
      XXXX    -350.8943   XXXY    -124.3190   XXYY    -566.3576
      XYYY     -96.4875   YYYY   -2727.0892   XXXZ     101.3120
      XXYZ     -26.2119   XYYZ      17.0165   YYYZ    -113.8822
      XXZZ    -223.4742   XYZZ     -48.9037   YYZZ    -637.5786
      XZZZ      90.7762   YZZZ     -81.8207   ZZZZ    -966.5507
 -----------------------------------------------------------------
 Total job time:  57.17s(wall), 1972.17s(cpu) 
 Fri Dec 15 13:58:06 2023

        *************************************************************
        *                                                           *
        *  Thank you very much for using Q-Chem.  Have a nice day.  *
        *                                                           *
        *************************************************************


0 sent ACK to 0 
now end server 0 ... 
cleanup process ... done
remove work dirs ./qchem4182659.0 -- ./qchem4182659.0
rm -rf ./qchem4182659.0
rm -rf ./qchem4182659
