You are running Q-Chem version: 5.4.0

#
# job setting
#
local host:  exp-6-19
current dir: /home/rramji/project-csd799/aromodel/p3ht-qchem/hydrogenated-rotation-run
input file:  Methylthiophene_Phi_40_Theta_290_Methylthiophene_Hydrogenated.qcin
output file: 
nprocs     : 1
nthreads   : 64
#
# qchem installation setting
#
QC:          /cm/shared/apps/spack/cpu/opt/spack/linux-centos8-zen2/gcc-10.2.0/qchem-5.4-akfmr7b3t57bfs6qan3padb2wnb2i7cl
QCAUX:       /cm/shared/apps/spack/cpu/opt/spack/linux-centos8-zen2/gcc-10.2.0/qchem-5.4-akfmr7b3t57bfs6qan3padb2wnb2i7cl/qcaux
QCPROG:      /cm/shared/apps/spack/cpu/opt/spack/linux-centos8-zen2/gcc-10.2.0/qchem-5.4-akfmr7b3t57bfs6qan3padb2wnb2i7cl/exe/qcprog.exe
QCPROG_S:    /cm/shared/apps/spack/cpu/opt/spack/linux-centos8-zen2/gcc-10.2.0/qchem-5.4-akfmr7b3t57bfs6qan3padb2wnb2i7cl/exe/qcprog.exe_s
PARALLEL:    -DPARALLEL
QCMPI:       mpich
#
# qchem directory setting
#
qcrun:       qchem2721704
QCSCRATCH:   .
QCLOCALSCR:  
QCTMPDIR:    .
QCFILEPREF:  ./qchem2721704
QCSAVEDIR:   
workdirs:    ./qchem2721704
workdir0:    ./qchem2721704
partmpdirs =  
#
# parallel setting
#
QCRSH:           ssh
QCMPI:           mpich
QCMPIRUN:        /cm/shared/apps/spack/cpu/opt/spack/linux-centos8-zen2/gcc-10.2.0/qchem-5.4-akfmr7b3t57bfs6qan3padb2wnb2i7cl/bin/mpi/mpirun_qchem
QCMACHINEFILE:   ./qchem2721704/hostfile
exp-6-19

#
# env setting
#
exported envs:   QC QCAUX QCSCRATCH QCRUNNAME QCFILEPREF QCPROG QCPROG_S GUIFILE

Running Job 1 of 1 Methylthiophene_Phi_40_Theta_290_Methylthiophene_Hydrogenated.qcin
qchem Methylthiophene_Phi_40_Theta_290_Methylthiophene_Hydrogenated.qcin_2721704.0 ./qchem2721704/ 1
/cm/shared/apps/spack/cpu/opt/spack/linux-centos8-zen2/gcc-10.2.0/qchem-5.4-akfmr7b3t57bfs6qan3padb2wnb2i7cl/bin/mpi/mpirun_qchem -machinefile ./qchem2721704/hostfile -np 1 /cm/shared/apps/spack/cpu/opt/spack/linux-centos8-zen2/gcc-10.2.0/qchem-5.4-akfmr7b3t57bfs6qan3padb2wnb2i7cl/exe/qcprog.exe Methylthiophene_Phi_40_Theta_290_Methylthiophene_Hydrogenated.qcin_2721704.0 ./qchem2721704/

Process 0 of 1 is on exp-6-19 - thread support 0
initial socket setup ...start
initial socket setup ...done 
now start server 0 ... 
                  Welcome to Q-Chem
     A Quantum Leap Into The Future Of Chemistry


 Q-Chem 5.4, Q-Chem, Inc., Pleasanton, CA (2021)

 License issued to: University of California, San Diego (site)

 E. Epifanovsky,  A. T. B. Gilbert,  Xintian Feng,  Joonho Lee,  Yuezhi Mao,  
 N. Mardirossian,  P. Pokhilko,  A. White,  M. Wormit,  M. P. Coons,  
 A. L. Dempwolff,  Zhengting Gan,  D. Hait,  P. R. Horn,  L. D. Jacobson,  
 I. Kaliman,  J. Kussmann,  A. W. Lange,  Ka Un Lao,  D. S. Levine,  Jie Liu,  
 S. C. McKenzie,  A. F. Morrison,  K. Nanda,  F. Plasser,  D. R. Rehn,  
 M. L. Vidal,  Zhi-Qiang You,  Ying Zhu,  B. Alam,  B. Albrecht,  
 A. Aldossary,  E. Alguire,  J. H. Andersen,  D. Barton,  K. Begam,  A. Behn,  
 Y. A. Bernard,  E. J. Berquist,  H. Burton,  A. Carreras,  K. Carter-Fenk,  
 R. Chakraborty,  A. D. Chien,  K. D. Closser,  V. Cofer-Shabica,  
 S. Dasgupta,  Jia Deng,  M. de Wergifosse,  M. Diedenhofen,  Hainam Do,  
 S. Ehlert,  Po-Tung Fang,  S. Fatehi,  Qingguo Feng,  J. Gayvert,  
 Qinghui Ge,  G. Gidofalvi,  M. Goldey,  J. Gomes,  C. Gonzalez-Espinoza,  
 S. Gulania,  A. Gunina,  M. W. D. Hanson-Heine,  P. H. P. Harbach,  
 A. W. Hauser,  M. F. Herbst,  M. Hernandez Vera,  M. Hodecker,  
 Z. C. Holden,  S. Houck,  Xunkun Huang,  Kerwin Hui,  B. C. Huynh,  
 M. Ivanov,  Hyunjun Ji,  Hanjie Jiang,  B. Kaduk,  S. Kaehler,  
 K. Khistyaev,  Jaehoon Kim,  P. Klunzinger,  Z. Koczor-Benda,  
 Joong Hoon Koh,  D. Kosenkov,  L. Koulias,  T. Kowalczyk,  C. M. Krauter,  
 K. Kue,  A. Kunitsa,  T. Kus,  A. Landau,  K. V. Lawler,  D. Lefrancois,  
 S. Lehtola,  Rain Li,  Yi-Pei Li,  Jiashu Liang,  M. Liebenthal,  
 Hung-Hsuan Lin,  You-Sheng Lin,  Fenglai Liu,  Kuan-Yu Liu,  
 M. Loipersberger,  A. Luenser,  A. Manjanath,  P. Manohar,  E. Mansoor,  
 S. F. Manzer,  Shan-Ping Mao,  A. V. Marenich,  T. Markovich,  S. Mason,  
 S. A. Maurer,  P. F. McLaughlin,  M. F. S. J. Menger,  J.-M. Mewes,  
 S. A. Mewes,  P. Morgante,  J. W. Mullinax,  T. S. Nguyen-Beck,  
 K. J. Oosterbaan,  G. Paran,  Alexander C. Paul,  Suranjan K. Paul,  
 F. Pavosevic,  Zheng Pei,  S. Prager,  E. I. Proynov,  E. Ramos,  B. Rana,  
 A. E. Rask,  A. Rettig,  R. M. Richard,  F. Rob,  E. Rossomme,  T. Scheele,  
 M. Scheurer,  M. Schneider,  N. Sergueev,  S. M. Sharada,  W. Skomorowski,  
 D. W. Small,  C. J. Stein,  Yu-Chuan Su,  E. J. Sundstrom,  Zhen Tao,  
 J. Thirman,  T. Tsuchimochi,  N. M. Tubman,  S. P. Veccham,  O. Vydrov,  
 J. Wenzel,  J. Witte,  A. Yamada,  Kun Yao,  S. Yeganeh,  S. R. Yost,  
 A. Zech,  Igor Ying Zhang,  Xing Zhang,  Yu Zhang,  D. Zuev,  
 A. Aspuru-Guzik,  A. T. Bell,  N. A. Besley,  K. B. Bravaya,  B. R. Brooks,  
 D. Casanova,  Jeng-Da Chai,  S. Coriani,  C. J. Cramer,  
 A. E. DePrince, III,  R. A. DiStasio Jr.,  A. Dreuw,  B. D. Dunietz,  
 T. R. Furlani,  W. A. Goddard III,  S. Grimme,  S. Hammes-Schiffer,  
 T. Head-Gordon,  W. J. Hehre,  Chao-Ping Hsu,  T.-C. Jagau,  Yousung Jung,  
 A. Klamt,  Jing Kong,  D. S. Lambrecht,  WanZhen Liang,  N. J. Mayhall,  
 C. W. McCurdy,  J. B. Neaton,  C. Ochsenfeld,  J. A. Parkhill,  R. Peverati,  
 V. A. Rassolov,  Yihan Shao,  L. V. Slipchenko,  T. Stauch,  R. P. Steele,  
 J. E. Subotnik,  A. J. W. Thom,  A. Tkatchenko,  D. G. Truhlar,  
 T. Van Voorhis,  T. A. Wesolowski,  K. B. Whaley,  H. L. Woodcock III,  
 P. M. Zimmerman,  S. Faraji,  P. M. W. Gill,  M. Head-Gordon,  
 J. M. Herbert,  A. I. Krylov

 Contributors to earlier versions of Q-Chem not listed above: 
 R. D. Adamson,  B. Austin,  R. Baer,  J. Baker,  G. J. O. Beran,  
 K. Brandhorst,  S. T. Brown,  E. F. C. Byrd,  A. K. Chakraborty,  
 G. K. L. Chan,  Chun-Min Chang,  Yunqing Chen,  C.-L. Cheng,  
 Siu Hung Chien,  D. M. Chipman,  D. L. Crittenden,  H. Dachsel,  
 R. J. Doerksen,  A. D. Dutoi,  R. G. Edgar,  J. Fosso-Tande,  
 L. Fusti-Molnar,  D. Ghosh,  A. Ghysels,  A. Golubeva-Zadorozhnaya,  
 J. Gonthier,  M. S. Gordon,  S. R. Gwaltney,  G. Hawkins,  J. E. Herr,  
 A. Heyden,  S. Hirata,  E. G. Hohenstein,  G. Kedziora,  F. J. Keil,  
 C. Kelley,  Jihan Kim,  R. A. King,  R. Z. Khaliullin,  P. P. Korambath,  
 W. Kurlancheek,  A. Laurent,  A. M. Lee,  M. S. Lee,  S. V. Levchenko,  
 Ching Yeh Lin,  D. Liotard,  E. Livshits,  R. C. Lochan,  I. Lotan,  
 L. A. Martinez-Martinez,  P. E. Maslen,  N. Nair,  D. P. O'Neill,  
 D. Neuhauser,  E. Neuscamman,  C. M. Oana,  R. Olivares-Amaya,  R. Olson,  
 T. M. Perrine,  B. Peters,  P. A. Pieniazek,  A. Prociuk,  Y. M. Rhee,  
 J. Ritchie,  M. A. Rohrdanz,  E. Rosta,  N. J. Russ,  H. F. Schaefer III,  
 M. W. Schmidt,  N. E. Schultz,  S. Sharma,  N. Shenvi,  C. D. Sherrill,  
 A. C. Simmonett,  A. Sodt,  T. Stein,  D. Stuck,  K. S. Thanthiriwatte,  
 V. Vanovschi,  L. Vogt,  Tao Wang,  A. Warshel,  M. A. Watson,  
 C. F. Williams,  Q. Wu,  X. Xu,  Jun Yang,  W. Zhang,  Yan Zhao

 Please cite Q-Chem as follows:
 Y. Shao et al., Mol. Phys. 113, 184-215 (2015)
 DOI: 10.1080/00268976.2014.952696

 Q-Chem 5.4.0 for Intel X86 EM64T Linux

 Parts of Q-Chem use Armadillo 9.800.1 (Horizon Scraper).
 http://arma.sourceforge.net/

 Q-Chem begins on Fri Dec 15 14:23:52 2023  

 Host: 
0

     Scratch files written to ./qchem2721704//
 May1621 |scratch|qcdevops|jenkins|workspace|build_RNUM    
 Parallel job on  1  processors
 Processing $rem in /cm/shared/apps/spack/cpu/opt/spack/linux-centos8-zen2/gcc-10.2.0/qchem-5.4-akfmr7b3t57bfs6qan3padb2wnb2i7cl/config/preferences:
 Processing $rem in /home/rramji/.qchemrc:
 Symmetry turned off for PCM/SM12/SMD calculation
 Core orbitals will be frozen

 Checking the input file for inconsistencies... 	...done.

 Q-Chem warning in module forms1/BasisType.C, line 2236:

 You are not using the predefined 5D/6D in this basis set.


--------------------------------------------------------------
User input:
--------------------------------------------------------------
$molecule
0 1
C	0.680396	-3.887800	0.248806
C	-0.621614	-3.701456	-0.225147
C	-1.019896	-2.345170	-0.370780
H	-1.285337	-4.545233	-0.466300
C	-0.000000	-1.450135	-0.000000
S	1.435271	-2.321334	0.522786
C	-2.378891	-1.934439	-0.865597
H	-3.003720	-2.819799	-1.092567
H	-2.313975	-1.326210	-1.791940
H	-2.924390	-1.325374	-0.114772
C	0.000000	0.000000	0.000000
C	0.540541	0.648986	1.113020
C	1.431046	1.717546	0.820578
H	0.292104	0.350827	2.142881
C	1.590053	1.908061	-0.563588
S	0.621066	0.745901	-1.464748
C	2.112618	2.535384	1.882380
H	1.825779	2.191315	2.894974
H	1.847090	3.610676	1.808137
H	3.218159	2.467925	1.808230
H	2.203332	2.644073	-1.097114
H	1.301772	-4.420219	-0.479986
H	0.687795	-4.419395	1.206964
H	0.369368	-1.450628	-1.014873
$end

$rem
JOBTYPE		SP
EXCHANGE	HF
CORRELATION	pRIMP2
BASIS		cc-pvtz
METHOD		rimp2
AUX_BASIS	rimp2-cc-pvtz
SOLVENT_METHOD	PCM
PURECART	11111
SYMMETRY	false
MEM_TOTAL	110000
SCF_CONVERGENCE = 6
THRESH=10
GUI = 2
$end



$solvent
dielectric 4.90
$end
--------------------------------------------------------------
 ----------------------------------------------------------------
             Standard Nuclear Orientation (Angstroms)
    I     Atom           X                Y                Z
 ----------------------------------------------------------------
    1      C       0.6803960000    -3.8878000000     0.2488060000
    2      C      -0.6216140000    -3.7014560000    -0.2251470000
    3      C      -1.0198960000    -2.3451700000    -0.3707800000
    4      H      -1.2853370000    -4.5452330000    -0.4663000000
    5      C       0.0000000000    -1.4501350000     0.0000000000
    6      S       1.4352710000    -2.3213340000     0.5227860000
    7      C      -2.3788910000    -1.9344390000    -0.8655970000
    8      H      -3.0037200000    -2.8197990000    -1.0925670000
    9      H      -2.3139750000    -1.3262100000    -1.7919400000
   10      H      -2.9243900000    -1.3253740000    -0.1147720000
   11      C       0.0000000000     0.0000000000     0.0000000000
   12      C       0.5405410000     0.6489860000     1.1130200000
   13      C       1.4310460000     1.7175460000     0.8205780000
   14      H       0.2921040000     0.3508270000     2.1428810000
   15      C       1.5900530000     1.9080610000    -0.5635880000
   16      S       0.6210660000     0.7459010000    -1.4647480000
   17      C       2.1126180000     2.5353840000     1.8823800000
   18      H       1.8257790000     2.1913150000     2.8949740000
   19      H       1.8470900000     3.6106760000     1.8081370000
   20      H       3.2181590000     2.4679250000     1.8082300000
   21      H       2.2033320000     2.6440730000    -1.0971140000
   22      H       1.3017720000    -4.4202190000    -0.4799860000
   23      H       0.6877950000    -4.4193950000     1.2069640000
   24      H       0.3693680000    -1.4506280000    -1.0148730000
 ----------------------------------------------------------------
 Nuclear Repulsion Energy =         883.99170921 hartrees
 There are       52 alpha and       52 beta electrons
 Requested basis set is cc-pVTZ
 There are 196 shells and 536 basis functions

 Total QAlloc Memory Limit 110000 MB
 Mega-Array Size       188 MB
 MEM_STATIC part       192 MB
 Discretize the solute cavity surface with Lebedev spheres
	Using 110 Lebedev grid points for each H atom
	Using 194 Lebedev grid points for other atoms
	Atomic van der Waals radii will be scaled by 1.20
 Remove points where switching function is < 1.0e-08
 Keep 1614 surface tesserae and discard 2034 interior tesserae
 Molecular Surface Area = 236.062 Angst**2
 Requested basis set is rimp2-cc-pVTZ
 There are 414 shells and 1414 basis functions
 A cutoff of  1.0D-10 yielded  14079 shell pairs
 There are    102077 function pairs (    130964 Cartesian)
 Smallest overlap matrix eigenvalue = 7.15E-05

 Scale SEOQF with 1.000000e-01/1.000000e-01/1.000000e-01

 Standard Electronic Orientation quadrupole field applied
 Nucleus-field energy     =     0.0000000325 hartrees
 Guess from superposition of atomic densities
 Warning:  Energy on first SCF cycle will be non-variational
 SAD guess density has 104.000000 electrons

 -----------------------------------------------------------------------
  General SCF calculation program by
  Eric Jon Sundstrom, Paul Horn, Yuezhi Mao, Dmitri Zuev, Alec White,
  David Stuck, Shaama M.S., Shane Yost, Joonho Lee, David Small,
  Daniel Levine, Susi Lehtola, Hugh Burton, Evgeny Epifanovsky,
  Bang C. Huynh
 -----------------------------------------------------------------------
 Hartree-Fock
 using 64 threads for integral computing
 -------------------------------------------------------
 OpenMP Integral computing Module                
 Release: version 1.0, May 2013, Q-Chem Inc. Pittsburgh 
 -------------------------------------------------------
 A restricted SCF calculation will be
 performed using DIIS
 SCF converges when DIIS error is below 1.0e-06
 ---------------------------------------
  Cycle       Energy         DIIS error
 ---------------------------------------
    1   -1186.0613773747      2.39e-02  
    2   -1180.5857404977      1.54e-03  
    3   -1180.7113225988      5.62e-04  
    4   -1180.7247419220      3.02e-04  
    5   -1180.7289477267      6.05e-05  
    6   -1180.7292008473      2.50e-05  
    7   -1180.7292673019      1.02e-05  
    8   -1180.7292842821      4.86e-06  
    9   -1180.7292885847      1.80e-06  
   10   -1180.7292893075      6.05e-07  Convergence criterion met
 ---------------------------------------
 SCF time:   CPU 1670.85s  wall 49.00s 

************** Final PCM Free Energy Summary **************
 G_electrostatic  =      -0.00869067 hartree =      -5.45347985 kcal/mol
 G_cavitation     =       0.00000000 hartree =       0.00000000 kcal/mol
 G_dispersion     =       0.00000000 hartree =       0.00000000 kcal/mol
 G_repulsion      =       0.00000000 hartree =       0.00000000 kcal/mol
 --------------------------------------------------
 Non-electrostatic Free Energy =       0.00000000 hartree =       0.00000000 kcal/mol
 Total                         =      -0.00869067 hartree =      -5.45347985 kcal/mol
 --------------------------------------------------
 SCF Energy (H0 + V/2)                       =   -1180.72928931 
 Solute Internal Energy (H0)                 =   -1180.72059863 
 Total Free Energy (H0 + V/2 + non-elec)     =   -1180.72928931 hartree
                                             = -740918.81172753 kcal/mol
***********************************************************

 SCF   energy in the final basis set =    -1180.7292893075
 Total energy in the final basis set =    -1180.7292893075


 --------------------------------------------------------------
  Generalized many-body perturbation theory program
  by Joonho Lee, Fazle Rob, Xintian Feng, Evgeny Epifanovsky

 No regularization used 
 (reg. param. = 0.0000e+00)
  (P|Q)^-1/2 Time:  CPU 18.67 s  wall 0.30 s

 In RI-MP2 calculation: 
 # of frozen core orbitals: 20

 Components of the RIMP2 correlation energy:
        aaaa    correlation energy =        -0.2521806850 a.u.
        abab    correlation energy =        -1.5066842547 a.u.
        bbbb    correlation energy =        -0.2521806850 a.u.
        non-Brillouin singles      =        -0.0000000000 a.u.
        total same-spin energy     =        -0.5043613700 a.u.
        total opposite-spin energy =        -1.5066842547 a.u.

 Total  RIMP2   correlation energy =        -2.0110456247 a.u.
        RIMP2         total energy =     -1182.7403349322 a.u.

 RI-MP2 Energy Time:  CPU 164.32 s  wall 3.33 s
 
 --------------------------------------------------------------
 
                    Orbital Energies (a.u.)
 --------------------------------------------------------------
 
 Alpha MOs
 -- Occupied --
-91.9820 -91.9399 -11.2743 -11.2684 -11.2573 -11.2515 -11.2511 -11.2471
-11.2388 -11.2301 -11.2292 -11.2142  -8.9826  -8.9445  -6.6634  -6.6627
 -6.6622  -6.6258  -6.6248  -6.6235  -1.1996  -1.1537  -1.0576  -1.0247
 -1.0024  -0.9617  -0.9125  -0.9003  -0.8089  -0.7651  -0.7374  -0.7030
 -0.6514  -0.6320  -0.6127  -0.5874  -0.5773  -0.5749  -0.5673  -0.5515
 -0.5411  -0.5318  -0.5102  -0.5067  -0.4872  -0.4729  -0.4636  -0.4461
 -0.3560  -0.3399  -0.3172  -0.2735
 -- Virtual --
  0.0731   0.1328   0.1423   0.1493   0.1603   0.1697   0.1799   0.1847
  0.1854   0.1986   0.2065   0.2135   0.2196   0.2357   0.2395   0.2449
  0.2494   0.2501   0.2715   0.2950   0.3078   0.3181   0.3386   0.3546
  0.3660   0.3749   0.3789   0.3864   0.3986   0.4099   0.4118   0.4207
  0.4250   0.4450   0.4485   0.4655   0.4676   0.4712   0.4853   0.4891
  0.4948   0.5090   0.5138   0.5196   0.5371   0.5420   0.5489   0.5569
  0.5685   0.5753   0.5864   0.5968   0.6028   0.6093   0.6156   0.6208
  0.6246   0.6283   0.6338   0.6353   0.6426   0.6488   0.6501   0.6552
  0.6676   0.6720   0.6785   0.6855   0.6910   0.7042   0.7215   0.7290
  0.7394   0.7485   0.7560   0.7650   0.7708   0.7914   0.8029   0.8221
  0.8280   0.8348   0.8421   0.8604   0.8617   0.8892   0.9118   0.9216
  0.9247   0.9393   0.9486   0.9650   0.9729   0.9908   0.9961   1.0090
  1.0190   1.0293   1.0440   1.0448   1.0558   1.0715   1.0724   1.0836
  1.0852   1.1001   1.1170   1.1309   1.1386   1.1415   1.1586   1.1661
  1.1746   1.1832   1.1944   1.2085   1.2199   1.2275   1.2372   1.2421
  1.2601   1.2631   1.2667   1.2765   1.2819   1.2866   1.3063   1.3121
  1.3164   1.3468   1.3539   1.3709   1.3735   1.3901   1.3966   1.4108
  1.4193   1.4232   1.4498   1.4605   1.4706   1.4737   1.4869   1.4954
  1.5033   1.5107   1.5182   1.5294   1.5364   1.5445   1.5573   1.5636
  1.5753   1.5776   1.5808   1.5939   1.6125   1.6183   1.6361   1.6374
  1.6529   1.6583   1.6698   1.6845   1.6987   1.7095   1.7172   1.7254
  1.7332   1.7497   1.7723   1.7749   1.7916   1.8151   1.8398   1.8557
  1.8732   1.9039   1.9321   1.9418   1.9671   1.9757   1.9815   2.0109
  2.0247   2.0295   2.0353   2.0641   2.0893   2.1189   2.1232   2.1615
  2.1770   2.1920   2.2056   2.2210   2.2255   2.2486   2.2576   2.2722
  2.2870   2.3310   2.3397   2.3574   2.4108   2.4354   2.4545   2.4696
  2.4989   2.5158   2.5193   2.5420   2.5730   2.6009   2.6119   2.6191
  2.6318   2.6430   2.6591   2.6620   2.6764   2.6826   2.6947   2.7279
  2.7368   2.7616   2.7744   2.7816   2.7826   2.8031   2.8051   2.8132
  2.8370   2.8463   2.8675   2.8703   2.8941   2.9037   2.9098   2.9270
  2.9433   2.9652   2.9810   2.9919   3.0008   3.0093   3.0285   3.0347
  3.0616   3.0656   3.0872   3.1103   3.1112   3.1176   3.1295   3.1403
  3.1507   3.1601   3.1679   3.1731   3.1912   3.1993   3.2142   3.2203
  3.2263   3.2441   3.2531   3.2578   3.2723   3.2768   3.2877   3.3038
  3.3074   3.3193   3.3267   3.3396   3.3466   3.3496   3.3578   3.3660
  3.3757   3.3792   3.3859   3.3949   3.4047   3.4125   3.4207   3.4249
  3.4356   3.4513   3.4629   3.4721   3.4801   3.4977   3.5043   3.5087
  3.5123   3.5362   3.5445   3.5488   3.5563   3.5591   3.5757   3.5898
  3.5965   3.6125   3.6197   3.6307   3.6333   3.6523   3.6597   3.6698
  3.6815   3.6914   3.6988   3.7098   3.7145   3.7222   3.7350   3.7414
  3.7544   3.7584   3.7626   3.7816   3.7941   3.7960   3.8061   3.8122
  3.8308   3.8517   3.8575   3.8675   3.8825   3.8894   3.9067   3.9162
  3.9377   3.9527   3.9560   3.9679   3.9781   3.9857   4.0055   4.0139
  4.0300   4.0361   4.0421   4.0592   4.0612   4.0796   4.0928   4.1057
  4.1160   4.1378   4.1466   4.1585   4.1758   4.1808   4.1856   4.2035
  4.2064   4.2178   4.2304   4.2335   4.2493   4.2608   4.2681   4.2876
  4.2909   4.2994   4.3122   4.3285   4.3426   4.3452   4.3605   4.3622
  4.3724   4.3860   4.4024   4.4083   4.4146   4.4256   4.4398   4.4431
  4.4511   4.4640   4.4733   4.4875   4.5076   4.5151   4.5225   4.5593
  4.5611   4.5814   4.6027   4.6241   4.6343   4.6537   4.6601   4.6735
  4.6980   4.7077   4.7253   4.7715   4.7891   4.8044   4.8210   4.8402
  4.8713   4.8823   4.8980   4.9062   4.9185   4.9330   4.9560   4.9861
  5.0205   5.0565   5.0792   5.0933   5.1095   5.1310   5.1398   5.1645
  5.1801   5.2195   5.2257   5.2704   5.2842   5.2941   5.3113   5.3166
  5.3375   5.3679   5.3802   5.3934   5.4048   5.4194   5.4445   5.4499
  5.4836   5.5069   5.5180   5.5394   5.5559   5.5624   5.5669   5.5867
  5.6207   5.6305   5.6457   5.6536   5.6816   5.7016   5.7114   5.7228
  5.7580   5.7893   5.8191   5.9688   5.9867   6.0313   6.1004   6.1400
  6.2078   6.2179   6.2266   6.2292   6.2519   6.2816   6.2875   6.3311
  6.3796   6.4299   9.4385  10.4695  12.2699  12.8571  13.1523  13.8745
 14.0624  14.2128  14.2814  14.5786
 --------------------------------------------------------------
 
          Ground-State Mulliken Net Atomic Charges

     Atom                 Charge (a.u.)
  ----------------------------------------
      1 C                    -0.074722
      2 C                    -0.332948
      3 C                    -0.041771
      4 H                     0.174296
      5 C                     0.070881
      6 S                    -0.181922
      7 C                    -0.273751
      8 H                     0.113426
      9 H                     0.100400
     10 H                     0.107707
     11 C                    -0.073282
     12 C                    -0.252612
     13 C                     0.049296
     14 H                     0.185593
     15 C                    -0.221226
     16 S                     0.010332
     17 C                    -0.267815
     18 H                     0.103149
     19 H                     0.107918
     20 H                     0.107661
     21 H                     0.200246
     22 H                     0.108844
     23 H                     0.108407
     24 H                     0.171892
  ----------------------------------------
  Sum of atomic charges =     0.000000

 -----------------------------------------------------------------
                    Cartesian Multipole Moments
 -----------------------------------------------------------------
    Charge (ESU x 10^10)
                -0.0000
    Dipole Moment (Debye)
         X      -0.4615      Y       0.9096      Z       0.1579
       Tot       1.0322
    Quadrupole Moments (Debye-Ang)
        XX     -86.8837     XY       8.6046     YY     -79.2212
        XZ       0.4410     YZ       3.3623     ZZ     -85.7537
    Octopole Moments (Debye-Ang^2)
       XXX    -128.7244    XXY      72.7382    XYY     -27.3133
       YYY     162.8576    XXZ      -5.9415    XYZ      -2.2157
       YYZ      -5.7710    XZZ     -38.3191    YZZ      71.0108
       ZZZ       4.2333
    Hexadecapole Moments (Debye-Ang^3)
      XXXX   -1027.2674   XXXY    -195.7591   XXYY    -579.9135
      XYYY    -215.7727   YYYY   -2487.3154   XXXZ    -155.6710
      XXYZ     -19.3544   XYYZ     -52.3769   YYYZ     -82.5313
      XXZZ    -274.4710   XYZZ     -66.0352   YYZZ    -554.4815
      XZZZ    -161.9571   YZZZ     -80.0708   ZZZZ    -612.4685
 -----------------------------------------------------------------
 Total job time:  55.74s(wall), 1911.04s(cpu) 
 Fri Dec 15 14:24:48 2023

        *************************************************************
        *                                                           *
        *  Thank you very much for using Q-Chem.  Have a nice day.  *
        *                                                           *
        *************************************************************


0 sent ACK to 0 
now end server 0 ... 
cleanup process ... done
remove work dirs ./qchem2721704.0 -- ./qchem2721704.0
rm -rf ./qchem2721704.0
rm -rf ./qchem2721704
