You are running Q-Chem version: 5.4.0

#
# job setting
#
local host:  exp-9-54
current dir: /home/rramji/project-csd799/aromodel/p3ht-qchem/hydrogenated-rotation-run
input file:  Methylthiophene_Phi_25_Theta_100_Methylthiophene_Hydrogenated.qcin
output file: 
nprocs     : 1
nthreads   : 64
#
# qchem installation setting
#
QC:          /cm/shared/apps/spack/cpu/opt/spack/linux-centos8-zen2/gcc-10.2.0/qchem-5.4-akfmr7b3t57bfs6qan3padb2wnb2i7cl
QCAUX:       /cm/shared/apps/spack/cpu/opt/spack/linux-centos8-zen2/gcc-10.2.0/qchem-5.4-akfmr7b3t57bfs6qan3padb2wnb2i7cl/qcaux
QCPROG:      /cm/shared/apps/spack/cpu/opt/spack/linux-centos8-zen2/gcc-10.2.0/qchem-5.4-akfmr7b3t57bfs6qan3padb2wnb2i7cl/exe/qcprog.exe
QCPROG_S:    /cm/shared/apps/spack/cpu/opt/spack/linux-centos8-zen2/gcc-10.2.0/qchem-5.4-akfmr7b3t57bfs6qan3padb2wnb2i7cl/exe/qcprog.exe_s
PARALLEL:    -DPARALLEL
QCMPI:       mpich
#
# qchem directory setting
#
qcrun:       qchem3691618
QCSCRATCH:   .
QCLOCALSCR:  
QCTMPDIR:    .
QCFILEPREF:  ./qchem3691618
QCSAVEDIR:   
workdirs:    ./qchem3691618
workdir0:    ./qchem3691618
partmpdirs =  
#
# parallel setting
#
QCRSH:           ssh
QCMPI:           mpich
QCMPIRUN:        /cm/shared/apps/spack/cpu/opt/spack/linux-centos8-zen2/gcc-10.2.0/qchem-5.4-akfmr7b3t57bfs6qan3padb2wnb2i7cl/bin/mpi/mpirun_qchem
QCMACHINEFILE:   ./qchem3691618/hostfile
exp-9-54

#
# env setting
#
exported envs:   QC QCAUX QCSCRATCH QCRUNNAME QCFILEPREF QCPROG QCPROG_S GUIFILE

Running Job 1 of 1 Methylthiophene_Phi_25_Theta_100_Methylthiophene_Hydrogenated.qcin
qchem Methylthiophene_Phi_25_Theta_100_Methylthiophene_Hydrogenated.qcin_3691618.0 ./qchem3691618/ 1
/cm/shared/apps/spack/cpu/opt/spack/linux-centos8-zen2/gcc-10.2.0/qchem-5.4-akfmr7b3t57bfs6qan3padb2wnb2i7cl/bin/mpi/mpirun_qchem -machinefile ./qchem3691618/hostfile -np 1 /cm/shared/apps/spack/cpu/opt/spack/linux-centos8-zen2/gcc-10.2.0/qchem-5.4-akfmr7b3t57bfs6qan3padb2wnb2i7cl/exe/qcprog.exe Methylthiophene_Phi_25_Theta_100_Methylthiophene_Hydrogenated.qcin_3691618.0 ./qchem3691618/

Process 0 of 1 is on exp-9-54 - thread support 0
initial socket setup ...start
initial socket setup ...done 
now start server 0 ... 
                  Welcome to Q-Chem
     A Quantum Leap Into The Future Of Chemistry


 Q-Chem 5.4, Q-Chem, Inc., Pleasanton, CA (2021)

 License issued to: University of California, San Diego (site)

 E. Epifanovsky,  A. T. B. Gilbert,  Xintian Feng,  Joonho Lee,  Yuezhi Mao,  
 N. Mardirossian,  P. Pokhilko,  A. White,  M. Wormit,  M. P. Coons,  
 A. L. Dempwolff,  Zhengting Gan,  D. Hait,  P. R. Horn,  L. D. Jacobson,  
 I. Kaliman,  J. Kussmann,  A. W. Lange,  Ka Un Lao,  D. S. Levine,  Jie Liu,  
 S. C. McKenzie,  A. F. Morrison,  K. Nanda,  F. Plasser,  D. R. Rehn,  
 M. L. Vidal,  Zhi-Qiang You,  Ying Zhu,  B. Alam,  B. Albrecht,  
 A. Aldossary,  E. Alguire,  J. H. Andersen,  D. Barton,  K. Begam,  A. Behn,  
 Y. A. Bernard,  E. J. Berquist,  H. Burton,  A. Carreras,  K. Carter-Fenk,  
 R. Chakraborty,  A. D. Chien,  K. D. Closser,  V. Cofer-Shabica,  
 S. Dasgupta,  Jia Deng,  M. de Wergifosse,  M. Diedenhofen,  Hainam Do,  
 S. Ehlert,  Po-Tung Fang,  S. Fatehi,  Qingguo Feng,  J. Gayvert,  
 Qinghui Ge,  G. Gidofalvi,  M. Goldey,  J. Gomes,  C. Gonzalez-Espinoza,  
 S. Gulania,  A. Gunina,  M. W. D. Hanson-Heine,  P. H. P. Harbach,  
 A. W. Hauser,  M. F. Herbst,  M. Hernandez Vera,  M. Hodecker,  
 Z. C. Holden,  S. Houck,  Xunkun Huang,  Kerwin Hui,  B. C. Huynh,  
 M. Ivanov,  Hyunjun Ji,  Hanjie Jiang,  B. Kaduk,  S. Kaehler,  
 K. Khistyaev,  Jaehoon Kim,  P. Klunzinger,  Z. Koczor-Benda,  
 Joong Hoon Koh,  D. Kosenkov,  L. Koulias,  T. Kowalczyk,  C. M. Krauter,  
 K. Kue,  A. Kunitsa,  T. Kus,  A. Landau,  K. V. Lawler,  D. Lefrancois,  
 S. Lehtola,  Rain Li,  Yi-Pei Li,  Jiashu Liang,  M. Liebenthal,  
 Hung-Hsuan Lin,  You-Sheng Lin,  Fenglai Liu,  Kuan-Yu Liu,  
 M. Loipersberger,  A. Luenser,  A. Manjanath,  P. Manohar,  E. Mansoor,  
 S. F. Manzer,  Shan-Ping Mao,  A. V. Marenich,  T. Markovich,  S. Mason,  
 S. A. Maurer,  P. F. McLaughlin,  M. F. S. J. Menger,  J.-M. Mewes,  
 S. A. Mewes,  P. Morgante,  J. W. Mullinax,  T. S. Nguyen-Beck,  
 K. J. Oosterbaan,  G. Paran,  Alexander C. Paul,  Suranjan K. Paul,  
 F. Pavosevic,  Zheng Pei,  S. Prager,  E. I. Proynov,  E. Ramos,  B. Rana,  
 A. E. Rask,  A. Rettig,  R. M. Richard,  F. Rob,  E. Rossomme,  T. Scheele,  
 M. Scheurer,  M. Schneider,  N. Sergueev,  S. M. Sharada,  W. Skomorowski,  
 D. W. Small,  C. J. Stein,  Yu-Chuan Su,  E. J. Sundstrom,  Zhen Tao,  
 J. Thirman,  T. Tsuchimochi,  N. M. Tubman,  S. P. Veccham,  O. Vydrov,  
 J. Wenzel,  J. Witte,  A. Yamada,  Kun Yao,  S. Yeganeh,  S. R. Yost,  
 A. Zech,  Igor Ying Zhang,  Xing Zhang,  Yu Zhang,  D. Zuev,  
 A. Aspuru-Guzik,  A. T. Bell,  N. A. Besley,  K. B. Bravaya,  B. R. Brooks,  
 D. Casanova,  Jeng-Da Chai,  S. Coriani,  C. J. Cramer,  
 A. E. DePrince, III,  R. A. DiStasio Jr.,  A. Dreuw,  B. D. Dunietz,  
 T. R. Furlani,  W. A. Goddard III,  S. Grimme,  S. Hammes-Schiffer,  
 T. Head-Gordon,  W. J. Hehre,  Chao-Ping Hsu,  T.-C. Jagau,  Yousung Jung,  
 A. Klamt,  Jing Kong,  D. S. Lambrecht,  WanZhen Liang,  N. J. Mayhall,  
 C. W. McCurdy,  J. B. Neaton,  C. Ochsenfeld,  J. A. Parkhill,  R. Peverati,  
 V. A. Rassolov,  Yihan Shao,  L. V. Slipchenko,  T. Stauch,  R. P. Steele,  
 J. E. Subotnik,  A. J. W. Thom,  A. Tkatchenko,  D. G. Truhlar,  
 T. Van Voorhis,  T. A. Wesolowski,  K. B. Whaley,  H. L. Woodcock III,  
 P. M. Zimmerman,  S. Faraji,  P. M. W. Gill,  M. Head-Gordon,  
 J. M. Herbert,  A. I. Krylov

 Contributors to earlier versions of Q-Chem not listed above: 
 R. D. Adamson,  B. Austin,  R. Baer,  J. Baker,  G. J. O. Beran,  
 K. Brandhorst,  S. T. Brown,  E. F. C. Byrd,  A. K. Chakraborty,  
 G. K. L. Chan,  Chun-Min Chang,  Yunqing Chen,  C.-L. Cheng,  
 Siu Hung Chien,  D. M. Chipman,  D. L. Crittenden,  H. Dachsel,  
 R. J. Doerksen,  A. D. Dutoi,  R. G. Edgar,  J. Fosso-Tande,  
 L. Fusti-Molnar,  D. Ghosh,  A. Ghysels,  A. Golubeva-Zadorozhnaya,  
 J. Gonthier,  M. S. Gordon,  S. R. Gwaltney,  G. Hawkins,  J. E. Herr,  
 A. Heyden,  S. Hirata,  E. G. Hohenstein,  G. Kedziora,  F. J. Keil,  
 C. Kelley,  Jihan Kim,  R. A. King,  R. Z. Khaliullin,  P. P. Korambath,  
 W. Kurlancheek,  A. Laurent,  A. M. Lee,  M. S. Lee,  S. V. Levchenko,  
 Ching Yeh Lin,  D. Liotard,  E. Livshits,  R. C. Lochan,  I. Lotan,  
 L. A. Martinez-Martinez,  P. E. Maslen,  N. Nair,  D. P. O'Neill,  
 D. Neuhauser,  E. Neuscamman,  C. M. Oana,  R. Olivares-Amaya,  R. Olson,  
 T. M. Perrine,  B. Peters,  P. A. Pieniazek,  A. Prociuk,  Y. M. Rhee,  
 J. Ritchie,  M. A. Rohrdanz,  E. Rosta,  N. J. Russ,  H. F. Schaefer III,  
 M. W. Schmidt,  N. E. Schultz,  S. Sharma,  N. Shenvi,  C. D. Sherrill,  
 A. C. Simmonett,  A. Sodt,  T. Stein,  D. Stuck,  K. S. Thanthiriwatte,  
 V. Vanovschi,  L. Vogt,  Tao Wang,  A. Warshel,  M. A. Watson,  
 C. F. Williams,  Q. Wu,  X. Xu,  Jun Yang,  W. Zhang,  Yan Zhao

 Please cite Q-Chem as follows:
 Y. Shao et al., Mol. Phys. 113, 184-215 (2015)
 DOI: 10.1080/00268976.2014.952696

 Q-Chem 5.4.0 for Intel X86 EM64T Linux

 Parts of Q-Chem use Armadillo 9.800.1 (Horizon Scraper).
 http://arma.sourceforge.net/

 Q-Chem begins on Fri Dec 15 14:03:55 2023  

 Host: 
0

     Scratch files written to ./qchem3691618//
 May1621 |scratch|qcdevops|jenkins|workspace|build_RNUM    
 Parallel job on  1  processors
 Processing $rem in /cm/shared/apps/spack/cpu/opt/spack/linux-centos8-zen2/gcc-10.2.0/qchem-5.4-akfmr7b3t57bfs6qan3padb2wnb2i7cl/config/preferences:
 Processing $rem in /home/rramji/.qchemrc:
 Symmetry turned off for PCM/SM12/SMD calculation
 Core orbitals will be frozen

 Checking the input file for inconsistencies... 	...done.

 Q-Chem warning in module forms1/BasisType.C, line 2236:

 You are not using the predefined 5D/6D in this basis set.


--------------------------------------------------------------
User input:
--------------------------------------------------------------
$molecule
0 1
C	-0.713264	-3.887800	-0.126876
C	0.651267	-3.701456	0.113784
C	1.068787	-2.345170	0.188043
H	1.346782	-4.545233	0.236019
C	0.000000	-1.450135	0.000000
S	-1.504247	-2.321334	-0.265612
C	2.493059	-1.934439	0.439357
H	3.147809	-2.819799	0.554378
H	2.589987	-1.326210	1.362899
H	2.899892	-1.325374	-0.394786
C	0.000000	0.000000	0.000000
C	0.354153	0.766774	1.113020
C	0.937751	2.029404	0.820578
H	0.191350	0.414475	2.142881
C	1.042030	2.254581	-0.563588
S	0.406851	0.881228	-1.464748
C	1.384426	2.995779	1.882380
H	1.196413	2.589194	2.894974
H	0.849641	3.965707	1.808137
H	2.469756	3.216753	1.808230
H	1.443919	3.124243	-1.097114
H	-1.198647	-4.420219	0.698744
H	-0.886933	-4.419395	-1.069193
H	-0.187526	-1.450628	1.063595
$end

$rem
JOBTYPE		SP
EXCHANGE	HF
CORRELATION	pRIMP2
BASIS		cc-pvtz
METHOD		rimp2
AUX_BASIS	rimp2-cc-pvtz
SOLVENT_METHOD	PCM
PURECART	11111
SYMMETRY	false
MEM_TOTAL	110000
SCF_CONVERGENCE = 6
THRESH=10
GUI = 2
$end



$solvent
dielectric 4.90
$end
--------------------------------------------------------------
 ----------------------------------------------------------------
             Standard Nuclear Orientation (Angstroms)
    I     Atom           X                Y                Z
 ----------------------------------------------------------------
    1      C      -0.7132640000    -3.8878000000    -0.1268760000
    2      C       0.6512670000    -3.7014560000     0.1137840000
    3      C       1.0687870000    -2.3451700000     0.1880430000
    4      H       1.3467820000    -4.5452330000     0.2360190000
    5      C       0.0000000000    -1.4501350000     0.0000000000
    6      S      -1.5042470000    -2.3213340000    -0.2656120000
    7      C       2.4930590000    -1.9344390000     0.4393570000
    8      H       3.1478090000    -2.8197990000     0.5543780000
    9      H       2.5899870000    -1.3262100000     1.3628990000
   10      H       2.8998920000    -1.3253740000    -0.3947860000
   11      C       0.0000000000     0.0000000000     0.0000000000
   12      C       0.3541530000     0.7667740000     1.1130200000
   13      C       0.9377510000     2.0294040000     0.8205780000
   14      H       0.1913500000     0.4144750000     2.1428810000
   15      C       1.0420300000     2.2545810000    -0.5635880000
   16      S       0.4068510000     0.8812280000    -1.4647480000
   17      C       1.3844260000     2.9957790000     1.8823800000
   18      H       1.1964130000     2.5891940000     2.8949740000
   19      H       0.8496410000     3.9657070000     1.8081370000
   20      H       2.4697560000     3.2167530000     1.8082300000
   21      H       1.4439190000     3.1242430000    -1.0971140000
   22      H      -1.1986470000    -4.4202190000     0.6987440000
   23      H      -0.8869330000    -4.4193950000    -1.0691930000
   24      H      -0.1875260000    -1.4506280000     1.0635950000
 ----------------------------------------------------------------
 Nuclear Repulsion Energy =         876.27921571 hartrees
 There are       52 alpha and       52 beta electrons
 Requested basis set is cc-pVTZ
 There are 196 shells and 536 basis functions

 Total QAlloc Memory Limit 110000 MB
 Mega-Array Size       188 MB
 MEM_STATIC part       192 MB
 Discretize the solute cavity surface with Lebedev spheres
	Using 110 Lebedev grid points for each H atom
	Using 194 Lebedev grid points for other atoms
	Atomic van der Waals radii will be scaled by 1.20
 Remove points where switching function is < 1.0e-08
 Keep 1628 surface tesserae and discard 2020 interior tesserae
 Molecular Surface Area = 236.855 Angst**2
 Requested basis set is rimp2-cc-pVTZ
 There are 414 shells and 1414 basis functions
 A cutoff of  1.0D-10 yielded  14271 shell pairs
 There are    103515 function pairs (    132735 Cartesian)
 Smallest overlap matrix eigenvalue = 6.45E-05

 Scale SEOQF with 1.000000e-01/1.000000e-01/1.000000e-01

 Standard Electronic Orientation quadrupole field applied
 Nucleus-field energy     =     0.0000000356 hartrees
 Guess from superposition of atomic densities
 Warning:  Energy on first SCF cycle will be non-variational
 SAD guess density has 104.000000 electrons

 -----------------------------------------------------------------------
  General SCF calculation program by
  Eric Jon Sundstrom, Paul Horn, Yuezhi Mao, Dmitri Zuev, Alec White,
  David Stuck, Shaama M.S., Shane Yost, Joonho Lee, David Small,
  Daniel Levine, Susi Lehtola, Hugh Burton, Evgeny Epifanovsky,
  Bang C. Huynh
 -----------------------------------------------------------------------
 Hartree-Fock
 using 64 threads for integral computing
 -------------------------------------------------------
 OpenMP Integral computing Module                
 Release: version 1.0, May 2013, Q-Chem Inc. Pittsburgh 
 -------------------------------------------------------
 A restricted SCF calculation will be
 performed using DIIS
 SCF converges when DIIS error is below 1.0e-06
 ---------------------------------------
  Cycle       Energy         DIIS error
 ---------------------------------------
    1   -1186.0161380704      2.39e-02  
    2   -1180.6120578561      1.54e-03  
    3   -1180.7360191451      5.67e-04  
    4   -1180.7491634483      3.16e-04  
    5   -1180.7536678126      5.92e-05  
    6   -1180.7539077714      2.40e-05  
    7   -1180.7539659318      9.31e-06  
    8   -1180.7539803053      4.36e-06  
    9   -1180.7539836933      1.62e-06  
   10   -1180.7539842437      5.54e-07  Convergence criterion met
 ---------------------------------------
 SCF time:   CPU 1725.71s  wall 51.00s 

************** Final PCM Free Energy Summary **************
 G_electrostatic  =      -0.00939638 hartree =      -5.89631970 kcal/mol
 G_cavitation     =       0.00000000 hartree =       0.00000000 kcal/mol
 G_dispersion     =       0.00000000 hartree =       0.00000000 kcal/mol
 G_repulsion      =       0.00000000 hartree =       0.00000000 kcal/mol
 --------------------------------------------------
 Non-electrostatic Free Energy =       0.00000000 hartree =       0.00000000 kcal/mol
 Total                         =      -0.00939638 hartree =      -5.89631970 kcal/mol
 --------------------------------------------------
 SCF Energy (H0 + V/2)                       =   -1180.75398424 
 Solute Internal Energy (H0)                 =   -1180.74458786 
 Total Free Energy (H0 + V/2 + non-elec)     =   -1180.75398424 hartree
                                             = -740934.30803391 kcal/mol
***********************************************************

 SCF   energy in the final basis set =    -1180.7539842437
 Total energy in the final basis set =    -1180.7539842437


 --------------------------------------------------------------
  Generalized many-body perturbation theory program
  by Joonho Lee, Fazle Rob, Xintian Feng, Evgeny Epifanovsky

 No regularization used 
 (reg. param. = 0.0000e+00)
  (P|Q)^-1/2 Time:  CPU 21.01 s  wall 0.34 s

 In RI-MP2 calculation: 
 # of frozen core orbitals: 20

 Components of the RIMP2 correlation energy:
        aaaa    correlation energy =        -0.2516400293 a.u.
        abab    correlation energy =        -1.5044873348 a.u.
        bbbb    correlation energy =        -0.2516400293 a.u.
        non-Brillouin singles      =        -0.0000000000 a.u.
        total same-spin energy     =        -0.5032800585 a.u.
        total opposite-spin energy =        -1.5044873348 a.u.

 Total  RIMP2   correlation energy =        -2.0077673933 a.u.
        RIMP2         total energy =     -1182.7617516371 a.u.

 RI-MP2 Energy Time:  CPU 174.00 s  wall 3.68 s
 
 --------------------------------------------------------------
 
                    Orbital Energies (a.u.)
 --------------------------------------------------------------
 
 Alpha MOs
 -- Occupied --
-91.9803 -91.9387 -11.2767 -11.2700 -11.2620 -11.2549 -11.2519 -11.2472
-11.2399 -11.2306 -11.2303 -11.2189  -8.9804  -8.9434  -6.6613  -6.6607
 -6.6602  -6.6248  -6.6238  -6.6225  -1.1977  -1.1543  -1.0571  -1.0246
 -1.0059  -0.9611  -0.9111  -0.9019  -0.8128  -0.7598  -0.7370  -0.7037
 -0.6588  -0.6400  -0.6112  -0.5900  -0.5805  -0.5723  -0.5651  -0.5510
 -0.5410  -0.5281  -0.5178  -0.5051  -0.4916  -0.4750  -0.4599  -0.4471
 -0.3542  -0.3421  -0.3143  -0.2807
 -- Virtual --
  0.0876   0.1328   0.1399   0.1509   0.1590   0.1715   0.1791   0.1845
  0.1861   0.1892   0.2042   0.2142   0.2295   0.2336   0.2372   0.2425
  0.2489   0.2553   0.2668   0.2972   0.3040   0.3344   0.3465   0.3546
  0.3625   0.3716   0.3820   0.3937   0.3987   0.4061   0.4110   0.4169
  0.4276   0.4433   0.4484   0.4551   0.4666   0.4753   0.4796   0.4880
  0.4954   0.5056   0.5164   0.5262   0.5377   0.5432   0.5570   0.5580
  0.5691   0.5756   0.5818   0.5866   0.6021   0.6066   0.6113   0.6172
  0.6233   0.6268   0.6306   0.6389   0.6412   0.6523   0.6535   0.6575
  0.6596   0.6673   0.6705   0.6855   0.6929   0.7016   0.7258   0.7335
  0.7387   0.7468   0.7544   0.7643   0.7798   0.7923   0.8000   0.8174
  0.8217   0.8418   0.8494   0.8710   0.8734   0.8878   0.8995   0.9042
  0.9269   0.9371   0.9467   0.9587   0.9810   0.9903   0.9985   1.0108
  1.0255   1.0315   1.0332   1.0375   1.0488   1.0657   1.0691   1.0782
  1.0906   1.0924   1.1042   1.1201   1.1340   1.1533   1.1729   1.1799
  1.1836   1.1851   1.1971   1.2062   1.2093   1.2228   1.2332   1.2366
  1.2572   1.2597   1.2652   1.2705   1.2757   1.2830   1.2979   1.3058
  1.3278   1.3297   1.3371   1.3555   1.3738   1.3911   1.4045   1.4171
  1.4200   1.4333   1.4425   1.4639   1.4739   1.4766   1.4799   1.5025
  1.5116   1.5132   1.5288   1.5347   1.5439   1.5456   1.5477   1.5515
  1.5624   1.5779   1.5835   1.5873   1.6152   1.6209   1.6213   1.6327
  1.6510   1.6642   1.6686   1.6839   1.6956   1.7127   1.7264   1.7398
  1.7445   1.7531   1.7654   1.7953   1.8144   1.8195   1.8527   1.8770
  1.8898   1.9100   1.9234   1.9351   1.9529   1.9663   1.9882   2.0070
  2.0182   2.0258   2.0498   2.0530   2.0941   2.1193   2.1445   2.1563
  2.1810   2.1941   2.2032   2.2134   2.2309   2.2430   2.2579   2.2748
  2.2912   2.3000   2.3390   2.3520   2.4037   2.4093   2.4595   2.4660
  2.4891   2.5151   2.5290   2.5516   2.5715   2.5945   2.6047   2.6167
  2.6343   2.6531   2.6636   2.6688   2.6773   2.6882   2.7040   2.7178
  2.7406   2.7491   2.7644   2.7731   2.7772   2.7829   2.7885   2.8252
  2.8431   2.8506   2.8646   2.8812   2.8958   2.8995   2.9152   2.9226
  2.9444   2.9507   2.9675   2.9830   3.0016   3.0149   3.0328   3.0424
  3.0508   3.0647   3.0808   3.1028   3.1123   3.1178   3.1231   3.1428
  3.1481   3.1580   3.1608   3.1719   3.1902   3.1925   3.2082   3.2152
  3.2316   3.2474   3.2575   3.2636   3.2802   3.2939   3.2954   3.3062
  3.3132   3.3203   3.3332   3.3390   3.3429   3.3544   3.3573   3.3607
  3.3710   3.3814   3.3895   3.4017   3.4102   3.4206   3.4260   3.4386
  3.4462   3.4504   3.4572   3.4765   3.4786   3.4841   3.4994   3.5036
  3.5164   3.5199   3.5350   3.5420   3.5463   3.5623   3.5647   3.5814
  3.5927   3.6109   3.6187   3.6261   3.6403   3.6463   3.6522   3.6626
  3.6665   3.6824   3.6958   3.7089   3.7141   3.7162   3.7349   3.7373
  3.7395   3.7504   3.7601   3.7729   3.7915   3.7940   3.8098   3.8149
  3.8261   3.8417   3.8520   3.8604   3.8860   3.8894   3.8965   3.9182
  3.9365   3.9474   3.9517   3.9638   3.9719   3.9889   3.9971   4.0121
  4.0290   4.0328   4.0483   4.0578   4.0708   4.0801   4.0981   4.1020
  4.1207   4.1242   4.1378   4.1521   4.1697   4.1753   4.1936   4.2036
  4.2116   4.2171   4.2299   4.2534   4.2555   4.2619   4.2676   4.2800
  4.2863   4.3042   4.3100   4.3276   4.3409   4.3490   4.3531   4.3629
  4.3804   4.3942   4.4007   4.4132   4.4180   4.4285   4.4327   4.4517
  4.4610   4.4710   4.4727   4.4838   4.5023   4.5183   4.5233   4.5506
  4.5611   4.6015   4.6109   4.6218   4.6381   4.6464   4.6673   4.6771
  4.6881   4.7220   4.7428   4.7664   4.7706   4.7844   4.8201   4.8440
  4.8695   4.8784   4.9074   4.9158   4.9304   4.9596   4.9614   4.9883
  5.0082   5.0416   5.0869   5.1064   5.1197   5.1337   5.1521   5.1688
  5.1761   5.1974   5.2325   5.2665   5.2819   5.2922   5.3083   5.3268
  5.3341   5.3646   5.3812   5.3946   5.4107   5.4344   5.4345   5.4553
  5.4582   5.5154   5.5240   5.5302   5.5475   5.5598   5.5762   5.5950
  5.6150   5.6242   5.6278   5.6559   5.6715   5.6950   5.7127   5.7413
  5.7730   5.7987   5.8329   5.9672   5.9948   6.0363   6.1347   6.1406
  6.2022   6.2248   6.2305   6.2374   6.2506   6.2856   6.2948   6.3145
  6.3865   6.4731   9.4624  10.3857  12.1171  12.8943  13.1568  13.9416
 14.0748  14.2085  14.3625  14.8104
 --------------------------------------------------------------
 
          Ground-State Mulliken Net Atomic Charges

     Atom                 Charge (a.u.)
  ----------------------------------------
      1 C                    -0.075461
      2 C                    -0.327031
      3 C                    -0.017588
      4 H                     0.176866
      5 C                     0.062763
      6 S                    -0.184517
      7 C                    -0.269997
      8 H                     0.115404
      9 H                     0.100690
     10 H                     0.110952
     11 C                    -0.054968
     12 C                    -0.266530
     13 C                     0.038400
     14 H                     0.184509
     15 C                    -0.232686
     16 S                     0.004155
     17 C                    -0.269881
     18 H                     0.102377
     19 H                     0.108748
     20 H                     0.107791
     21 H                     0.198506
     22 H                     0.109362
     23 H                     0.110181
     24 H                     0.167956
  ----------------------------------------
  Sum of atomic charges =     0.000000

 -----------------------------------------------------------------
                    Cartesian Multipole Moments
 -----------------------------------------------------------------
    Charge (ESU x 10^10)
                -0.0000
    Dipole Moment (Debye)
         X       3.1842      Y       0.7832      Z       2.7973
       Tot       4.3102
    Quadrupole Moments (Debye-Ang)
        XX     -89.8364     XY       0.6656     YY     -75.7551
        XZ       0.2005     YZ      -0.9552     ZZ     -86.0946
    Octopole Moments (Debye-Ang^2)
       XXX     -85.7451    XXY      55.0089    XYY     -16.4188
       YYY     139.0765    XXZ      -1.6301    XYZ      -0.8332
       YYZ      -2.2511    XZZ     -28.9757    YZZ      61.8228
       ZZZ      -1.4483
    Hexadecapole Moments (Debye-Ang^3)
      XXXX    -858.7457   XXXY    -214.6576   XXYY    -599.3929
      XYYY    -148.5773   YYYY   -2655.5832   XXXZ     -89.8988
      XXYZ     -39.8566   XYYZ     -34.0115   YYYZ    -105.7010
      XXZZ    -245.3542   XYZZ     -50.1357   YYZZ    -579.5299
      XZZZ     -94.9069   YZZZ     -89.6737   ZZZZ    -563.1013
 -----------------------------------------------------------------
 Total job time:  57.01s(wall), 1955.92s(cpu) 
 Fri Dec 15 14:04:52 2023

        *************************************************************
        *                                                           *
        *  Thank you very much for using Q-Chem.  Have a nice day.  *
        *                                                           *
        *************************************************************


0 sent ACK to 0 
now end server 0 ... 
cleanup process ... done
remove work dirs ./qchem3691618.0 -- ./qchem3691618.0
rm -rf ./qchem3691618.0
rm -rf ./qchem3691618
