You are running Q-Chem version: 5.4.0

#
# job setting
#
local host:  exp-6-20
current dir: /home/rramji/project-csd799/aromodel/p3ht-qchem/hydrogenated-rotation-run
input file:  Methylthiophene_Phi_5_Theta_100_Methylthiophene_Hydrogenated.qcin
output file: 
nprocs     : 1
nthreads   : 64
#
# qchem installation setting
#
QC:          /cm/shared/apps/spack/cpu/opt/spack/linux-centos8-zen2/gcc-10.2.0/qchem-5.4-akfmr7b3t57bfs6qan3padb2wnb2i7cl
QCAUX:       /cm/shared/apps/spack/cpu/opt/spack/linux-centos8-zen2/gcc-10.2.0/qchem-5.4-akfmr7b3t57bfs6qan3padb2wnb2i7cl/qcaux
QCPROG:      /cm/shared/apps/spack/cpu/opt/spack/linux-centos8-zen2/gcc-10.2.0/qchem-5.4-akfmr7b3t57bfs6qan3padb2wnb2i7cl/exe/qcprog.exe
QCPROG_S:    /cm/shared/apps/spack/cpu/opt/spack/linux-centos8-zen2/gcc-10.2.0/qchem-5.4-akfmr7b3t57bfs6qan3padb2wnb2i7cl/exe/qcprog.exe_s
PARALLEL:    -DPARALLEL
QCMPI:       mpich
#
# qchem directory setting
#
qcrun:       qchem2814794
QCSCRATCH:   .
QCLOCALSCR:  
QCTMPDIR:    .
QCFILEPREF:  ./qchem2814794
QCSAVEDIR:   
workdirs:    ./qchem2814794
workdir0:    ./qchem2814794
partmpdirs =  
#
# parallel setting
#
QCRSH:           ssh
QCMPI:           mpich
QCMPIRUN:        /cm/shared/apps/spack/cpu/opt/spack/linux-centos8-zen2/gcc-10.2.0/qchem-5.4-akfmr7b3t57bfs6qan3padb2wnb2i7cl/bin/mpi/mpirun_qchem
QCMACHINEFILE:   ./qchem2814794/hostfile
exp-6-20

#
# env setting
#
exported envs:   QC QCAUX QCSCRATCH QCRUNNAME QCFILEPREF QCPROG QCPROG_S GUIFILE

Running Job 1 of 1 Methylthiophene_Phi_5_Theta_100_Methylthiophene_Hydrogenated.qcin
qchem Methylthiophene_Phi_5_Theta_100_Methylthiophene_Hydrogenated.qcin_2814794.0 ./qchem2814794/ 1
/cm/shared/apps/spack/cpu/opt/spack/linux-centos8-zen2/gcc-10.2.0/qchem-5.4-akfmr7b3t57bfs6qan3padb2wnb2i7cl/bin/mpi/mpirun_qchem -machinefile ./qchem2814794/hostfile -np 1 /cm/shared/apps/spack/cpu/opt/spack/linux-centos8-zen2/gcc-10.2.0/qchem-5.4-akfmr7b3t57bfs6qan3padb2wnb2i7cl/exe/qcprog.exe Methylthiophene_Phi_5_Theta_100_Methylthiophene_Hydrogenated.qcin_2814794.0 ./qchem2814794/

Process 0 of 1 is on exp-6-20 - thread support 0
initial socket setup ...start
initial socket setup ...done 
now start server 0 ... 
                  Welcome to Q-Chem
     A Quantum Leap Into The Future Of Chemistry


 Q-Chem 5.4, Q-Chem, Inc., Pleasanton, CA (2021)

 License issued to: University of California, San Diego (site)

 E. Epifanovsky,  A. T. B. Gilbert,  Xintian Feng,  Joonho Lee,  Yuezhi Mao,  
 N. Mardirossian,  P. Pokhilko,  A. White,  M. Wormit,  M. P. Coons,  
 A. L. Dempwolff,  Zhengting Gan,  D. Hait,  P. R. Horn,  L. D. Jacobson,  
 I. Kaliman,  J. Kussmann,  A. W. Lange,  Ka Un Lao,  D. S. Levine,  Jie Liu,  
 S. C. McKenzie,  A. F. Morrison,  K. Nanda,  F. Plasser,  D. R. Rehn,  
 M. L. Vidal,  Zhi-Qiang You,  Ying Zhu,  B. Alam,  B. Albrecht,  
 A. Aldossary,  E. Alguire,  J. H. Andersen,  D. Barton,  K. Begam,  A. Behn,  
 Y. A. Bernard,  E. J. Berquist,  H. Burton,  A. Carreras,  K. Carter-Fenk,  
 R. Chakraborty,  A. D. Chien,  K. D. Closser,  V. Cofer-Shabica,  
 S. Dasgupta,  Jia Deng,  M. de Wergifosse,  M. Diedenhofen,  Hainam Do,  
 S. Ehlert,  Po-Tung Fang,  S. Fatehi,  Qingguo Feng,  J. Gayvert,  
 Qinghui Ge,  G. Gidofalvi,  M. Goldey,  J. Gomes,  C. Gonzalez-Espinoza,  
 S. Gulania,  A. Gunina,  M. W. D. Hanson-Heine,  P. H. P. Harbach,  
 A. W. Hauser,  M. F. Herbst,  M. Hernandez Vera,  M. Hodecker,  
 Z. C. Holden,  S. Houck,  Xunkun Huang,  Kerwin Hui,  B. C. Huynh,  
 M. Ivanov,  Hyunjun Ji,  Hanjie Jiang,  B. Kaduk,  S. Kaehler,  
 K. Khistyaev,  Jaehoon Kim,  P. Klunzinger,  Z. Koczor-Benda,  
 Joong Hoon Koh,  D. Kosenkov,  L. Koulias,  T. Kowalczyk,  C. M. Krauter,  
 K. Kue,  A. Kunitsa,  T. Kus,  A. Landau,  K. V. Lawler,  D. Lefrancois,  
 S. Lehtola,  Rain Li,  Yi-Pei Li,  Jiashu Liang,  M. Liebenthal,  
 Hung-Hsuan Lin,  You-Sheng Lin,  Fenglai Liu,  Kuan-Yu Liu,  
 M. Loipersberger,  A. Luenser,  A. Manjanath,  P. Manohar,  E. Mansoor,  
 S. F. Manzer,  Shan-Ping Mao,  A. V. Marenich,  T. Markovich,  S. Mason,  
 S. A. Maurer,  P. F. McLaughlin,  M. F. S. J. Menger,  J.-M. Mewes,  
 S. A. Mewes,  P. Morgante,  J. W. Mullinax,  T. S. Nguyen-Beck,  
 K. J. Oosterbaan,  G. Paran,  Alexander C. Paul,  Suranjan K. Paul,  
 F. Pavosevic,  Zheng Pei,  S. Prager,  E. I. Proynov,  E. Ramos,  B. Rana,  
 A. E. Rask,  A. Rettig,  R. M. Richard,  F. Rob,  E. Rossomme,  T. Scheele,  
 M. Scheurer,  M. Schneider,  N. Sergueev,  S. M. Sharada,  W. Skomorowski,  
 D. W. Small,  C. J. Stein,  Yu-Chuan Su,  E. J. Sundstrom,  Zhen Tao,  
 J. Thirman,  T. Tsuchimochi,  N. M. Tubman,  S. P. Veccham,  O. Vydrov,  
 J. Wenzel,  J. Witte,  A. Yamada,  Kun Yao,  S. Yeganeh,  S. R. Yost,  
 A. Zech,  Igor Ying Zhang,  Xing Zhang,  Yu Zhang,  D. Zuev,  
 A. Aspuru-Guzik,  A. T. Bell,  N. A. Besley,  K. B. Bravaya,  B. R. Brooks,  
 D. Casanova,  Jeng-Da Chai,  S. Coriani,  C. J. Cramer,  
 A. E. DePrince, III,  R. A. DiStasio Jr.,  A. Dreuw,  B. D. Dunietz,  
 T. R. Furlani,  W. A. Goddard III,  S. Grimme,  S. Hammes-Schiffer,  
 T. Head-Gordon,  W. J. Hehre,  Chao-Ping Hsu,  T.-C. Jagau,  Yousung Jung,  
 A. Klamt,  Jing Kong,  D. S. Lambrecht,  WanZhen Liang,  N. J. Mayhall,  
 C. W. McCurdy,  J. B. Neaton,  C. Ochsenfeld,  J. A. Parkhill,  R. Peverati,  
 V. A. Rassolov,  Yihan Shao,  L. V. Slipchenko,  T. Stauch,  R. P. Steele,  
 J. E. Subotnik,  A. J. W. Thom,  A. Tkatchenko,  D. G. Truhlar,  
 T. Van Voorhis,  T. A. Wesolowski,  K. B. Whaley,  H. L. Woodcock III,  
 P. M. Zimmerman,  S. Faraji,  P. M. W. Gill,  M. Head-Gordon,  
 J. M. Herbert,  A. I. Krylov

 Contributors to earlier versions of Q-Chem not listed above: 
 R. D. Adamson,  B. Austin,  R. Baer,  J. Baker,  G. J. O. Beran,  
 K. Brandhorst,  S. T. Brown,  E. F. C. Byrd,  A. K. Chakraborty,  
 G. K. L. Chan,  Chun-Min Chang,  Yunqing Chen,  C.-L. Cheng,  
 Siu Hung Chien,  D. M. Chipman,  D. L. Crittenden,  H. Dachsel,  
 R. J. Doerksen,  A. D. Dutoi,  R. G. Edgar,  J. Fosso-Tande,  
 L. Fusti-Molnar,  D. Ghosh,  A. Ghysels,  A. Golubeva-Zadorozhnaya,  
 J. Gonthier,  M. S. Gordon,  S. R. Gwaltney,  G. Hawkins,  J. E. Herr,  
 A. Heyden,  S. Hirata,  E. G. Hohenstein,  G. Kedziora,  F. J. Keil,  
 C. Kelley,  Jihan Kim,  R. A. King,  R. Z. Khaliullin,  P. P. Korambath,  
 W. Kurlancheek,  A. Laurent,  A. M. Lee,  M. S. Lee,  S. V. Levchenko,  
 Ching Yeh Lin,  D. Liotard,  E. Livshits,  R. C. Lochan,  I. Lotan,  
 L. A. Martinez-Martinez,  P. E. Maslen,  N. Nair,  D. P. O'Neill,  
 D. Neuhauser,  E. Neuscamman,  C. M. Oana,  R. Olivares-Amaya,  R. Olson,  
 T. M. Perrine,  B. Peters,  P. A. Pieniazek,  A. Prociuk,  Y. M. Rhee,  
 J. Ritchie,  M. A. Rohrdanz,  E. Rosta,  N. J. Russ,  H. F. Schaefer III,  
 M. W. Schmidt,  N. E. Schultz,  S. Sharma,  N. Shenvi,  C. D. Sherrill,  
 A. C. Simmonett,  A. Sodt,  T. Stein,  D. Stuck,  K. S. Thanthiriwatte,  
 V. Vanovschi,  L. Vogt,  Tao Wang,  A. Warshel,  M. A. Watson,  
 C. F. Williams,  Q. Wu,  X. Xu,  Jun Yang,  W. Zhang,  Yan Zhao

 Please cite Q-Chem as follows:
 Y. Shao et al., Mol. Phys. 113, 184-215 (2015)
 DOI: 10.1080/00268976.2014.952696

 Q-Chem 5.4.0 for Intel X86 EM64T Linux

 Parts of Q-Chem use Armadillo 9.800.1 (Horizon Scraper).
 http://arma.sourceforge.net/

 Q-Chem begins on Fri Dec 15 14:03:52 2023  

 Host: 
0

     Scratch files written to ./qchem2814794//
 May1621 |scratch|qcdevops|jenkins|workspace|build_RNUM    
 Parallel job on  1  processors
 Processing $rem in /cm/shared/apps/spack/cpu/opt/spack/linux-centos8-zen2/gcc-10.2.0/qchem-5.4-akfmr7b3t57bfs6qan3padb2wnb2i7cl/config/preferences:
 Processing $rem in /home/rramji/.qchemrc:
 Symmetry turned off for PCM/SM12/SMD calculation
 Core orbitals will be frozen

 Checking the input file for inconsistencies... 	...done.

 Q-Chem warning in module forms1/BasisType.C, line 2236:

 You are not using the predefined 5D/6D in this basis set.


--------------------------------------------------------------
User input:
--------------------------------------------------------------
$molecule
0 1
C	-0.713264	-3.887800	-0.126876
C	0.651267	-3.701456	0.113784
C	1.068787	-2.345170	0.188043
H	1.346782	-4.545233	0.236019
C	-0.000000	-1.450135	-0.000000
S	-1.504247	-2.321334	-0.265612
C	2.493059	-1.934439	0.439357
H	3.147809	-2.819799	0.554378
H	2.589987	-1.326210	1.362899
H	2.899892	-1.325374	-0.394786
C	0.000000	0.000000	0.000000
C	0.070542	0.841660	1.113020
C	0.187101	2.227746	0.820578
H	0.038051	0.454925	2.142881
C	0.208076	2.475009	-0.563588
S	0.080917	0.967235	-1.464748
C	0.276318	3.288613	1.882380
H	0.238704	2.842244	2.894974
H	-0.557951	4.017140	1.808137
H	1.220618	3.867466	1.808230
H	0.288286	3.429678	-1.097114
H	-1.198647	-4.420219	0.698744
H	-0.886933	-4.419395	-1.069193
H	-0.187526	-1.450628	1.063595
$end

$rem
JOBTYPE		SP
EXCHANGE	HF
CORRELATION	pRIMP2
BASIS		cc-pvtz
METHOD		rimp2
AUX_BASIS	rimp2-cc-pvtz
SOLVENT_METHOD	PCM
PURECART	11111
SYMMETRY	false
MEM_TOTAL	110000
SCF_CONVERGENCE = 6
THRESH=10
GUI = 2
$end



$solvent
dielectric 4.90
$end
--------------------------------------------------------------
 ----------------------------------------------------------------
             Standard Nuclear Orientation (Angstroms)
    I     Atom           X                Y                Z
 ----------------------------------------------------------------
    1      C      -0.7132640000    -3.8878000000    -0.1268760000
    2      C       0.6512670000    -3.7014560000     0.1137840000
    3      C       1.0687870000    -2.3451700000     0.1880430000
    4      H       1.3467820000    -4.5452330000     0.2360190000
    5      C       0.0000000000    -1.4501350000     0.0000000000
    6      S      -1.5042470000    -2.3213340000    -0.2656120000
    7      C       2.4930590000    -1.9344390000     0.4393570000
    8      H       3.1478090000    -2.8197990000     0.5543780000
    9      H       2.5899870000    -1.3262100000     1.3628990000
   10      H       2.8998920000    -1.3253740000    -0.3947860000
   11      C       0.0000000000     0.0000000000     0.0000000000
   12      C       0.0705420000     0.8416600000     1.1130200000
   13      C       0.1871010000     2.2277460000     0.8205780000
   14      H       0.0380510000     0.4549250000     2.1428810000
   15      C       0.2080760000     2.4750090000    -0.5635880000
   16      S       0.0809170000     0.9672350000    -1.4647480000
   17      C       0.2763180000     3.2886130000     1.8823800000
   18      H       0.2387040000     2.8422440000     2.8949740000
   19      H      -0.5579510000     4.0171400000     1.8081370000
   20      H       1.2206180000     3.8674660000     1.8082300000
   21      H       0.2882860000     3.4296780000    -1.0971140000
   22      H      -1.1986470000    -4.4202190000     0.6987440000
   23      H      -0.8869330000    -4.4193950000    -1.0691930000
   24      H      -0.1875260000    -1.4506280000     1.0635950000
 ----------------------------------------------------------------
 Nuclear Repulsion Energy =         870.78197082 hartrees
 There are       52 alpha and       52 beta electrons
 Requested basis set is cc-pVTZ
 There are 196 shells and 536 basis functions

 Total QAlloc Memory Limit 110000 MB
 Mega-Array Size       188 MB
 MEM_STATIC part       192 MB
 Discretize the solute cavity surface with Lebedev spheres
	Using 110 Lebedev grid points for each H atom
	Using 194 Lebedev grid points for other atoms
	Atomic van der Waals radii will be scaled by 1.20
 Remove points where switching function is < 1.0e-08
 Keep 1629 surface tesserae and discard 2019 interior tesserae
 Molecular Surface Area = 239.835 Angst**2
 Requested basis set is rimp2-cc-pVTZ
 There are 414 shells and 1414 basis functions
 A cutoff of  1.0D-10 yielded  13964 shell pairs
 There are    101322 function pairs (    130081 Cartesian)
 Smallest overlap matrix eigenvalue = 6.15E-05

 Scale SEOQF with 1.000000e-01/1.000000e-01/1.000000e-01

 Standard Electronic Orientation quadrupole field applied
 Nucleus-field energy     =     0.0000000368 hartrees
 Guess from superposition of atomic densities
 Warning:  Energy on first SCF cycle will be non-variational
 SAD guess density has 104.000000 electrons

 -----------------------------------------------------------------------
  General SCF calculation program by
  Eric Jon Sundstrom, Paul Horn, Yuezhi Mao, Dmitri Zuev, Alec White,
  David Stuck, Shaama M.S., Shane Yost, Joonho Lee, David Small,
  Daniel Levine, Susi Lehtola, Hugh Burton, Evgeny Epifanovsky,
  Bang C. Huynh
 -----------------------------------------------------------------------
 Hartree-Fock
 using 64 threads for integral computing
 -------------------------------------------------------
 OpenMP Integral computing Module                
 Release: version 1.0, May 2013, Q-Chem Inc. Pittsburgh 
 -------------------------------------------------------
 A restricted SCF calculation will be
 performed using DIIS
 SCF converges when DIIS error is below 1.0e-06
 ---------------------------------------
  Cycle       Energy         DIIS error
 ---------------------------------------
    1   -1185.9982072372      2.38e-02  
    2   -1180.6231080800      1.55e-03  
    3   -1180.7468741968      5.86e-04  
    4   -1180.7604198494      3.27e-04  
    5   -1180.7652319098      5.81e-05  
    6   -1180.7654651646      2.37e-05  
    7   -1180.7655203553      8.72e-06  
    8   -1180.7655332342      4.19e-06  
    9   -1180.7655361177      1.46e-06  
   10   -1180.7655365694      5.00e-07  Convergence criterion met
 ---------------------------------------
 SCF time:   CPU 1662.76s  wall 50.00s 

************** Final PCM Free Energy Summary **************
 G_electrostatic  =      -0.00931139 hartree =      -5.84298350 kcal/mol
 G_cavitation     =       0.00000000 hartree =       0.00000000 kcal/mol
 G_dispersion     =       0.00000000 hartree =       0.00000000 kcal/mol
 G_repulsion      =       0.00000000 hartree =       0.00000000 kcal/mol
 --------------------------------------------------
 Non-electrostatic Free Energy =       0.00000000 hartree =       0.00000000 kcal/mol
 Total                         =      -0.00931139 hartree =      -5.84298350 kcal/mol
 --------------------------------------------------
 SCF Energy (H0 + V/2)                       =   -1180.76553657 
 Solute Internal Energy (H0)                 =   -1180.75622518 
 Total Free Energy (H0 + V/2 + non-elec)     =   -1180.76553657 hartree
                                             = -740941.55722768 kcal/mol
***********************************************************

 SCF   energy in the final basis set =    -1180.7655365694
 Total energy in the final basis set =    -1180.7655365694


 --------------------------------------------------------------
  Generalized many-body perturbation theory program
  by Joonho Lee, Fazle Rob, Xintian Feng, Evgeny Epifanovsky

 No regularization used 
 (reg. param. = 0.0000e+00)
  (P|Q)^-1/2 Time:  CPU 22.32 s  wall 0.36 s

 In RI-MP2 calculation: 
 # of frozen core orbitals: 20

 Components of the RIMP2 correlation energy:
        aaaa    correlation energy =        -0.2509329153 a.u.
        abab    correlation energy =        -1.5022083377 a.u.
        bbbb    correlation energy =        -0.2509329153 a.u.
        non-Brillouin singles      =        -0.0000000000 a.u.
        total same-spin energy     =        -0.5018658307 a.u.
        total opposite-spin energy =        -1.5022083377 a.u.

 Total  RIMP2   correlation energy =        -2.0040741684 a.u.
        RIMP2         total energy =     -1182.7696107377 a.u.

 RI-MP2 Energy Time:  CPU 168.94 s  wall 3.60 s
 
 --------------------------------------------------------------
 
                    Orbital Energies (a.u.)
 --------------------------------------------------------------
 
 Alpha MOs
 -- Occupied --
-91.9808 -91.9416 -11.2818 -11.2653 -11.2625 -11.2564 -11.2510 -11.2434
-11.2412 -11.2313 -11.2296 -11.2194  -8.9807  -8.9463  -6.6616  -6.6611
 -6.6606  -6.6276  -6.6266  -6.6253  -1.1973  -1.1539  -1.0571  -1.0256
 -1.0056  -0.9604  -0.9118  -0.9014  -0.8148  -0.7601  -0.7351  -0.7031
 -0.6603  -0.6410  -0.6108  -0.5895  -0.5805  -0.5713  -0.5652  -0.5506
 -0.5412  -0.5292  -0.5141  -0.5055  -0.4926  -0.4817  -0.4601  -0.4487
 -0.3559  -0.3412  -0.3135  -0.2821
 -- Virtual --
  0.0964   0.1327   0.1413   0.1502   0.1585   0.1720   0.1765   0.1830
  0.1875   0.1931   0.2041   0.2161   0.2277   0.2291   0.2362   0.2437
  0.2502   0.2569   0.2691   0.3000   0.3020   0.3378   0.3463   0.3537
  0.3683   0.3722   0.3798   0.3913   0.3954   0.4025   0.4092   0.4164
  0.4331   0.4381   0.4532   0.4596   0.4680   0.4759   0.4826   0.4909
  0.4969   0.5133   0.5165   0.5238   0.5289   0.5436   0.5495   0.5596
  0.5663   0.5757   0.5824   0.5945   0.6016   0.6066   0.6096   0.6153
  0.6265   0.6291   0.6297   0.6400   0.6412   0.6459   0.6477   0.6548
  0.6591   0.6669   0.6795   0.6824   0.6874   0.7009   0.7218   0.7266
  0.7320   0.7461   0.7583   0.7683   0.7763   0.7965   0.8107   0.8213
  0.8247   0.8442   0.8504   0.8664   0.8820   0.8903   0.8985   0.9091
  0.9289   0.9407   0.9479   0.9548   0.9679   0.9867   0.9939   1.0081
  1.0138   1.0224   1.0331   1.0437   1.0543   1.0652   1.0752   1.0806
  1.0858   1.0974   1.1100   1.1236   1.1259   1.1564   1.1694   1.1753
  1.1815   1.1865   1.1998   1.2008   1.2111   1.2222   1.2271   1.2492
  1.2516   1.2544   1.2663   1.2696   1.2783   1.2840   1.2960   1.3177
  1.3325   1.3357   1.3445   1.3602   1.3657   1.3918   1.4074   1.4111
  1.4142   1.4302   1.4420   1.4631   1.4725   1.4783   1.4834   1.5020
  1.5087   1.5168   1.5261   1.5341   1.5429   1.5444   1.5477   1.5500
  1.5718   1.5745   1.5836   1.5981   1.6057   1.6142   1.6285   1.6419
  1.6489   1.6750   1.6805   1.6917   1.6946   1.7078   1.7227   1.7413
  1.7457   1.7554   1.7745   1.7808   1.8120   1.8212   1.8399   1.8492
  1.8846   1.9111   1.9182   1.9245   1.9436   1.9697   1.9922   2.0071
  2.0135   2.0349   2.0424   2.0444   2.0748   2.1354   2.1431   2.1499
  2.1848   2.1970   2.2036   2.2180   2.2352   2.2475   2.2644   2.2762
  2.2876   2.3143   2.3372   2.3618   2.4016   2.4337   2.4613   2.4711
  2.4836   2.5110   2.5290   2.5355   2.5799   2.5967   2.6066   2.6193
  2.6249   2.6384   2.6586   2.6602   2.6763   2.6836   2.7069   2.7137
  2.7345   2.7476   2.7546   2.7662   2.7743   2.7832   2.7942   2.8218
  2.8430   2.8462   2.8629   2.8789   2.8923   2.9036   2.9152   2.9250
  2.9359   2.9437   2.9618   2.9775   3.0140   3.0168   3.0176   3.0386
  3.0637   3.0775   3.0818   3.1077   3.1126   3.1141   3.1333   3.1490
  3.1526   3.1563   3.1648   3.1689   3.1777   3.2007   3.2065   3.2114
  3.2298   3.2401   3.2509   3.2656   3.2738   3.2892   3.3004   3.3052
  3.3115   3.3193   3.3305   3.3314   3.3470   3.3513   3.3596   3.3632
  3.3741   3.3799   3.3848   3.3930   3.3947   3.4174   3.4233   3.4335
  3.4441   3.4515   3.4605   3.4716   3.4805   3.4897   3.4912   3.5033
  3.5166   3.5263   3.5368   3.5432   3.5518   3.5623   3.5714   3.5726
  3.5897   3.5996   3.6189   3.6233   3.6260   3.6349   3.6461   3.6484
  3.6728   3.6785   3.6857   3.6891   3.7041   3.7131   3.7310   3.7337
  3.7441   3.7511   3.7525   3.7812   3.7923   3.8007   3.8021   3.8182
  3.8353   3.8354   3.8545   3.8647   3.8830   3.8861   3.9026   3.9085
  3.9379   3.9396   3.9467   3.9662   3.9793   3.9921   4.0049   4.0096
  4.0197   4.0358   4.0407   4.0522   4.0711   4.0777   4.0827   4.0960
  4.1241   4.1271   4.1413   4.1513   4.1582   4.1784   4.1940   4.1988
  4.2134   4.2163   4.2264   4.2476   4.2494   4.2570   4.2634   4.2804
  4.2969   4.3053   4.3104   4.3277   4.3378   4.3508   4.3537   4.3637
  4.3802   4.3909   4.4007   4.4069   4.4148   4.4187   4.4330   4.4453
  4.4593   4.4693   4.4787   4.4844   4.5111   4.5212   4.5342   4.5478
  4.5699   4.6007   4.6130   4.6214   4.6325   4.6505   4.6555   4.6681
  4.6857   4.7170   4.7367   4.7615   4.7710   4.8057   4.8140   4.8353
  4.8554   4.8636   4.9020   4.9033   4.9288   4.9549   4.9772   4.9835
  5.0081   5.0448   5.0894   5.1078   5.1177   5.1337   5.1511   5.1723
  5.1967   5.2122   5.2346   5.2685   5.2834   5.2921   5.3087   5.3278
  5.3405   5.3612   5.3767   5.3936   5.4115   5.4304   5.4390   5.4520
  5.4742   5.5203   5.5239   5.5408   5.5491   5.5577   5.5736   5.6013
  5.6204   5.6242   5.6323   5.6507   5.6722   5.6933   5.7115   5.7351
  5.7752   5.7969   5.8379   5.9686   6.0028   6.0814   6.1348   6.1545
  6.2060   6.2197   6.2262   6.2358   6.2521   6.2820   6.3000   6.3269
  6.3808   6.4946   9.4392  10.5220  12.0179  12.9555  13.1703  13.9268
 14.0762  14.1918  14.3666  14.7641
 --------------------------------------------------------------
 
          Ground-State Mulliken Net Atomic Charges

     Atom                 Charge (a.u.)
  ----------------------------------------
      1 C                    -0.077797
      2 C                    -0.330036
      3 C                    -0.016996
      4 H                     0.177163
      5 C                     0.081025
      6 S                    -0.176498
      7 C                    -0.267093
      8 H                     0.114225
      9 H                     0.100451
     10 H                     0.108487
     11 C                    -0.079677
     12 C                    -0.239928
     13 C                     0.018336
     14 H                     0.181614
     15 C                    -0.236382
     16 S                     0.005782
     17 C                    -0.271830
     18 H                     0.102079
     19 H                     0.108831
     20 H                     0.108069
     21 H                     0.197453
     22 H                     0.111576
     23 H                     0.112211
     24 H                     0.168935
  ----------------------------------------
  Sum of atomic charges =     0.000000

 -----------------------------------------------------------------
                    Cartesian Multipole Moments
 -----------------------------------------------------------------
    Charge (ESU x 10^10)
                -0.0000
    Dipole Moment (Debye)
         X       2.4163      Y       0.5988      Z       2.7251
       Tot       3.6909
    Quadrupole Moments (Debye-Ang)
        XX     -91.5745     XY      -2.5174     YY     -73.7307
        XZ      -0.1752     YZ      -0.7959     ZZ     -86.1758
    Octopole Moments (Debye-Ang^2)
       XXX     -15.8572    XXY      41.0383    XYY      -4.0781
       YYY     126.5419    XXZ      -1.2981    XYZ      -0.2065
       YYZ      -2.4947    XZZ      -7.9624    YZZ      55.9302
       ZZZ      -1.8710
    Hexadecapole Moments (Debye-Ang^3)
      XXXX    -689.4608   XXXY     -72.4812   XXYY    -617.6247
      XYYY     -27.6510   YYYY   -2778.6608   XXXZ     -55.4906
      XXYZ     -39.6767   XYYZ     -17.8603   YYYZ    -117.6327
      XXZZ    -221.9996   XYZZ      -8.9781   YYZZ    -602.3177
      XZZZ     -60.6358   YZZZ     -99.1280   ZZZZ    -563.6463
 -----------------------------------------------------------------
 Total job time:  54.80s(wall), 1904.63s(cpu) 
 Fri Dec 15 14:04:47 2023

        *************************************************************
        *                                                           *
        *  Thank you very much for using Q-Chem.  Have a nice day.  *
        *                                                           *
        *************************************************************


0 sent ACK to 0 
now end server 0 ... 
cleanup process ... done
remove work dirs ./qchem2814794.0 -- ./qchem2814794.0
rm -rf ./qchem2814794.0
rm -rf ./qchem2814794
