You are running Q-Chem version: 5.4.0

#
# job setting
#
local host:  exp-9-54
current dir: /home/rramji/project-csd799/aromodel/p3ht-qchem/hydrogenated-rotation-run
input file:  Methylthiophene_Phi_30_Theta_210_Methylthiophene_Hydrogenated.qcin
output file: 
nprocs     : 1
nthreads   : 64
#
# qchem installation setting
#
QC:          /cm/shared/apps/spack/cpu/opt/spack/linux-centos8-zen2/gcc-10.2.0/qchem-5.4-akfmr7b3t57bfs6qan3padb2wnb2i7cl
QCAUX:       /cm/shared/apps/spack/cpu/opt/spack/linux-centos8-zen2/gcc-10.2.0/qchem-5.4-akfmr7b3t57bfs6qan3padb2wnb2i7cl/qcaux
QCPROG:      /cm/shared/apps/spack/cpu/opt/spack/linux-centos8-zen2/gcc-10.2.0/qchem-5.4-akfmr7b3t57bfs6qan3padb2wnb2i7cl/exe/qcprog.exe
QCPROG_S:    /cm/shared/apps/spack/cpu/opt/spack/linux-centos8-zen2/gcc-10.2.0/qchem-5.4-akfmr7b3t57bfs6qan3padb2wnb2i7cl/exe/qcprog.exe_s
PARALLEL:    -DPARALLEL
QCMPI:       mpich
#
# qchem directory setting
#
qcrun:       qchem3696866
QCSCRATCH:   .
QCLOCALSCR:  
QCTMPDIR:    .
QCFILEPREF:  ./qchem3696866
QCSAVEDIR:   
workdirs:    ./qchem3696866
workdir0:    ./qchem3696866
partmpdirs =  
#
# parallel setting
#
QCRSH:           ssh
QCMPI:           mpich
QCMPIRUN:        /cm/shared/apps/spack/cpu/opt/spack/linux-centos8-zen2/gcc-10.2.0/qchem-5.4-akfmr7b3t57bfs6qan3padb2wnb2i7cl/bin/mpi/mpirun_qchem
QCMACHINEFILE:   ./qchem3696866/hostfile
exp-9-54

#
# env setting
#
exported envs:   QC QCAUX QCSCRATCH QCRUNNAME QCFILEPREF QCPROG QCPROG_S GUIFILE

Running Job 1 of 1 Methylthiophene_Phi_30_Theta_210_Methylthiophene_Hydrogenated.qcin
qchem Methylthiophene_Phi_30_Theta_210_Methylthiophene_Hydrogenated.qcin_3696866.0 ./qchem3696866/ 1
/cm/shared/apps/spack/cpu/opt/spack/linux-centos8-zen2/gcc-10.2.0/qchem-5.4-akfmr7b3t57bfs6qan3padb2wnb2i7cl/bin/mpi/mpirun_qchem -machinefile ./qchem3696866/hostfile -np 1 /cm/shared/apps/spack/cpu/opt/spack/linux-centos8-zen2/gcc-10.2.0/qchem-5.4-akfmr7b3t57bfs6qan3padb2wnb2i7cl/exe/qcprog.exe Methylthiophene_Phi_30_Theta_210_Methylthiophene_Hydrogenated.qcin_3696866.0 ./qchem3696866/

Process 0 of 1 is on exp-9-54 - thread support 0
initial socket setup ...start
initial socket setup ...done 
now start server 0 ... 
                  Welcome to Q-Chem
     A Quantum Leap Into The Future Of Chemistry


 Q-Chem 5.4, Q-Chem, Inc., Pleasanton, CA (2021)

 License issued to: University of California, San Diego (site)

 E. Epifanovsky,  A. T. B. Gilbert,  Xintian Feng,  Joonho Lee,  Yuezhi Mao,  
 N. Mardirossian,  P. Pokhilko,  A. White,  M. Wormit,  M. P. Coons,  
 A. L. Dempwolff,  Zhengting Gan,  D. Hait,  P. R. Horn,  L. D. Jacobson,  
 I. Kaliman,  J. Kussmann,  A. W. Lange,  Ka Un Lao,  D. S. Levine,  Jie Liu,  
 S. C. McKenzie,  A. F. Morrison,  K. Nanda,  F. Plasser,  D. R. Rehn,  
 M. L. Vidal,  Zhi-Qiang You,  Ying Zhu,  B. Alam,  B. Albrecht,  
 A. Aldossary,  E. Alguire,  J. H. Andersen,  D. Barton,  K. Begam,  A. Behn,  
 Y. A. Bernard,  E. J. Berquist,  H. Burton,  A. Carreras,  K. Carter-Fenk,  
 R. Chakraborty,  A. D. Chien,  K. D. Closser,  V. Cofer-Shabica,  
 S. Dasgupta,  Jia Deng,  M. de Wergifosse,  M. Diedenhofen,  Hainam Do,  
 S. Ehlert,  Po-Tung Fang,  S. Fatehi,  Qingguo Feng,  J. Gayvert,  
 Qinghui Ge,  G. Gidofalvi,  M. Goldey,  J. Gomes,  C. Gonzalez-Espinoza,  
 S. Gulania,  A. Gunina,  M. W. D. Hanson-Heine,  P. H. P. Harbach,  
 A. W. Hauser,  M. F. Herbst,  M. Hernandez Vera,  M. Hodecker,  
 Z. C. Holden,  S. Houck,  Xunkun Huang,  Kerwin Hui,  B. C. Huynh,  
 M. Ivanov,  Hyunjun Ji,  Hanjie Jiang,  B. Kaduk,  S. Kaehler,  
 K. Khistyaev,  Jaehoon Kim,  P. Klunzinger,  Z. Koczor-Benda,  
 Joong Hoon Koh,  D. Kosenkov,  L. Koulias,  T. Kowalczyk,  C. M. Krauter,  
 K. Kue,  A. Kunitsa,  T. Kus,  A. Landau,  K. V. Lawler,  D. Lefrancois,  
 S. Lehtola,  Rain Li,  Yi-Pei Li,  Jiashu Liang,  M. Liebenthal,  
 Hung-Hsuan Lin,  You-Sheng Lin,  Fenglai Liu,  Kuan-Yu Liu,  
 M. Loipersberger,  A. Luenser,  A. Manjanath,  P. Manohar,  E. Mansoor,  
 S. F. Manzer,  Shan-Ping Mao,  A. V. Marenich,  T. Markovich,  S. Mason,  
 S. A. Maurer,  P. F. McLaughlin,  M. F. S. J. Menger,  J.-M. Mewes,  
 S. A. Mewes,  P. Morgante,  J. W. Mullinax,  T. S. Nguyen-Beck,  
 K. J. Oosterbaan,  G. Paran,  Alexander C. Paul,  Suranjan K. Paul,  
 F. Pavosevic,  Zheng Pei,  S. Prager,  E. I. Proynov,  E. Ramos,  B. Rana,  
 A. E. Rask,  A. Rettig,  R. M. Richard,  F. Rob,  E. Rossomme,  T. Scheele,  
 M. Scheurer,  M. Schneider,  N. Sergueev,  S. M. Sharada,  W. Skomorowski,  
 D. W. Small,  C. J. Stein,  Yu-Chuan Su,  E. J. Sundstrom,  Zhen Tao,  
 J. Thirman,  T. Tsuchimochi,  N. M. Tubman,  S. P. Veccham,  O. Vydrov,  
 J. Wenzel,  J. Witte,  A. Yamada,  Kun Yao,  S. Yeganeh,  S. R. Yost,  
 A. Zech,  Igor Ying Zhang,  Xing Zhang,  Yu Zhang,  D. Zuev,  
 A. Aspuru-Guzik,  A. T. Bell,  N. A. Besley,  K. B. Bravaya,  B. R. Brooks,  
 D. Casanova,  Jeng-Da Chai,  S. Coriani,  C. J. Cramer,  
 A. E. DePrince, III,  R. A. DiStasio Jr.,  A. Dreuw,  B. D. Dunietz,  
 T. R. Furlani,  W. A. Goddard III,  S. Grimme,  S. Hammes-Schiffer,  
 T. Head-Gordon,  W. J. Hehre,  Chao-Ping Hsu,  T.-C. Jagau,  Yousung Jung,  
 A. Klamt,  Jing Kong,  D. S. Lambrecht,  WanZhen Liang,  N. J. Mayhall,  
 C. W. McCurdy,  J. B. Neaton,  C. Ochsenfeld,  J. A. Parkhill,  R. Peverati,  
 V. A. Rassolov,  Yihan Shao,  L. V. Slipchenko,  T. Stauch,  R. P. Steele,  
 J. E. Subotnik,  A. J. W. Thom,  A. Tkatchenko,  D. G. Truhlar,  
 T. Van Voorhis,  T. A. Wesolowski,  K. B. Whaley,  H. L. Woodcock III,  
 P. M. Zimmerman,  S. Faraji,  P. M. W. Gill,  M. Head-Gordon,  
 J. M. Herbert,  A. I. Krylov

 Contributors to earlier versions of Q-Chem not listed above: 
 R. D. Adamson,  B. Austin,  R. Baer,  J. Baker,  G. J. O. Beran,  
 K. Brandhorst,  S. T. Brown,  E. F. C. Byrd,  A. K. Chakraborty,  
 G. K. L. Chan,  Chun-Min Chang,  Yunqing Chen,  C.-L. Cheng,  
 Siu Hung Chien,  D. M. Chipman,  D. L. Crittenden,  H. Dachsel,  
 R. J. Doerksen,  A. D. Dutoi,  R. G. Edgar,  J. Fosso-Tande,  
 L. Fusti-Molnar,  D. Ghosh,  A. Ghysels,  A. Golubeva-Zadorozhnaya,  
 J. Gonthier,  M. S. Gordon,  S. R. Gwaltney,  G. Hawkins,  J. E. Herr,  
 A. Heyden,  S. Hirata,  E. G. Hohenstein,  G. Kedziora,  F. J. Keil,  
 C. Kelley,  Jihan Kim,  R. A. King,  R. Z. Khaliullin,  P. P. Korambath,  
 W. Kurlancheek,  A. Laurent,  A. M. Lee,  M. S. Lee,  S. V. Levchenko,  
 Ching Yeh Lin,  D. Liotard,  E. Livshits,  R. C. Lochan,  I. Lotan,  
 L. A. Martinez-Martinez,  P. E. Maslen,  N. Nair,  D. P. O'Neill,  
 D. Neuhauser,  E. Neuscamman,  C. M. Oana,  R. Olivares-Amaya,  R. Olson,  
 T. M. Perrine,  B. Peters,  P. A. Pieniazek,  A. Prociuk,  Y. M. Rhee,  
 J. Ritchie,  M. A. Rohrdanz,  E. Rosta,  N. J. Russ,  H. F. Schaefer III,  
 M. W. Schmidt,  N. E. Schultz,  S. Sharma,  N. Shenvi,  C. D. Sherrill,  
 A. C. Simmonett,  A. Sodt,  T. Stein,  D. Stuck,  K. S. Thanthiriwatte,  
 V. Vanovschi,  L. Vogt,  Tao Wang,  A. Warshel,  M. A. Watson,  
 C. F. Williams,  Q. Wu,  X. Xu,  Jun Yang,  W. Zhang,  Yan Zhao

 Please cite Q-Chem as follows:
 Y. Shao et al., Mol. Phys. 113, 184-215 (2015)
 DOI: 10.1080/00268976.2014.952696

 Q-Chem 5.4.0 for Intel X86 EM64T Linux

 Parts of Q-Chem use Armadillo 9.800.1 (Horizon Scraper).
 http://arma.sourceforge.net/

 Q-Chem begins on Fri Dec 15 14:14:43 2023  

 Host: 
0

     Scratch files written to ./qchem3696866//
 May1621 |scratch|qcdevops|jenkins|workspace|build_RNUM    
 Parallel job on  1  processors
 Processing $rem in /cm/shared/apps/spack/cpu/opt/spack/linux-centos8-zen2/gcc-10.2.0/qchem-5.4-akfmr7b3t57bfs6qan3padb2wnb2i7cl/config/preferences:
 Processing $rem in /home/rramji/.qchemrc:
 Symmetry turned off for PCM/SM12/SMD calculation
 Core orbitals will be frozen

 Checking the input file for inconsistencies... 	...done.

 Q-Chem warning in module forms1/BasisType.C, line 2236:

 You are not using the predefined 5D/6D in this basis set.


--------------------------------------------------------------
User input:
--------------------------------------------------------------
$molecule
0 1
C	0.363176	-3.887800	-0.626855
C	-0.329669	-3.701456	0.573074
C	-0.542250	-2.345170	0.940016
H	-0.682412	-4.545233	1.184837
C	0.000000	-1.450135	0.000000
S	0.764076	-2.321334	-1.322686
C	-1.265537	-1.934439	2.192440
H	-1.597559	-2.819799	2.768365
H	-2.166534	-1.326210	1.967653
H	-0.620843	-1.325374	2.860032
C	0.000000	0.000000	0.000000
C	0.419634	0.732990	1.113020
C	1.111057	1.939951	0.820578
H	0.226746	0.396221	2.142881
C	1.234565	2.155183	-0.563588
S	0.482106	0.842416	-1.464748
C	1.640257	2.863718	1.882380
H	1.417524	2.475067	2.894974
H	1.192042	3.876565	1.808137
H	2.740717	2.989259	1.808230
H	1.710720	2.986508	-1.097114
H	-0.246643	-4.420219	-1.365344
H	1.308062	-4.419395	-0.467758
H	-0.935314	-1.450628	-0.539988
$end

$rem
JOBTYPE		SP
EXCHANGE	HF
CORRELATION	pRIMP2
BASIS		cc-pvtz
METHOD		rimp2
AUX_BASIS	rimp2-cc-pvtz
SOLVENT_METHOD	PCM
PURECART	11111
SYMMETRY	false
MEM_TOTAL	110000
SCF_CONVERGENCE = 6
THRESH=10
GUI = 2
$end



$solvent
dielectric 4.90
$end
--------------------------------------------------------------
 ----------------------------------------------------------------
             Standard Nuclear Orientation (Angstroms)
    I     Atom           X                Y                Z
 ----------------------------------------------------------------
    1      C       0.3631760000    -3.8878000000    -0.6268550000
    2      C      -0.3296690000    -3.7014560000     0.5730740000
    3      C      -0.5422500000    -2.3451700000     0.9400160000
    4      H      -0.6824120000    -4.5452330000     1.1848370000
    5      C       0.0000000000    -1.4501350000     0.0000000000
    6      S       0.7640760000    -2.3213340000    -1.3226860000
    7      C      -1.2655370000    -1.9344390000     2.1924400000
    8      H      -1.5975590000    -2.8197990000     2.7683650000
    9      H      -2.1665340000    -1.3262100000     1.9676530000
   10      H      -0.6208430000    -1.3253740000     2.8600320000
   11      C       0.0000000000     0.0000000000     0.0000000000
   12      C       0.4196340000     0.7329900000     1.1130200000
   13      C       1.1110570000     1.9399510000     0.8205780000
   14      H       0.2267460000     0.3962210000     2.1428810000
   15      C       1.2345650000     2.1551830000    -0.5635880000
   16      S       0.4821060000     0.8424160000    -1.4647480000
   17      C       1.6402570000     2.8637180000     1.8823800000
   18      H       1.4175240000     2.4750670000     2.8949740000
   19      H       1.1920420000     3.8765650000     1.8081370000
   20      H       2.7407170000     2.9892590000     1.8082300000
   21      H       1.7107200000     2.9865080000    -1.0971140000
   22      H      -0.2466430000    -4.4202190000    -1.3653440000
   23      H       1.3080620000    -4.4193950000    -0.4677580000
   24      H      -0.9353140000    -1.4506280000    -0.5399880000
 ----------------------------------------------------------------
 Nuclear Repulsion Energy =         880.40849785 hartrees
 There are       52 alpha and       52 beta electrons
 Requested basis set is cc-pVTZ
 There are 196 shells and 536 basis functions

 Total QAlloc Memory Limit 110000 MB
 Mega-Array Size       188 MB
 MEM_STATIC part       192 MB
 Discretize the solute cavity surface with Lebedev spheres
	Using 110 Lebedev grid points for each H atom
	Using 194 Lebedev grid points for other atoms
	Atomic van der Waals radii will be scaled by 1.20
 Remove points where switching function is < 1.0e-08
 Keep 1579 surface tesserae and discard 2069 interior tesserae
 Molecular Surface Area = 232.155 Angst**2
 Requested basis set is rimp2-cc-pVTZ
 There are 414 shells and 1414 basis functions
 A cutoff of  1.0D-10 yielded  14113 shell pairs
 There are    102193 function pairs (    130969 Cartesian)
 Smallest overlap matrix eigenvalue = 7.49E-05

 Scale SEOQF with 1.000000e-01/1.000000e-01/1.000000e-01

 Standard Electronic Orientation quadrupole field applied
 Nucleus-field energy     =     0.0000000233 hartrees
 Guess from superposition of atomic densities
 Warning:  Energy on first SCF cycle will be non-variational
 SAD guess density has 104.000000 electrons

 -----------------------------------------------------------------------
  General SCF calculation program by
  Eric Jon Sundstrom, Paul Horn, Yuezhi Mao, Dmitri Zuev, Alec White,
  David Stuck, Shaama M.S., Shane Yost, Joonho Lee, David Small,
  Daniel Levine, Susi Lehtola, Hugh Burton, Evgeny Epifanovsky,
  Bang C. Huynh
 -----------------------------------------------------------------------
 Hartree-Fock
 using 64 threads for integral computing
 -------------------------------------------------------
 OpenMP Integral computing Module                
 Release: version 1.0, May 2013, Q-Chem Inc. Pittsburgh 
 -------------------------------------------------------
 A restricted SCF calculation will be
 performed using DIIS
 SCF converges when DIIS error is below 1.0e-06
 ---------------------------------------
  Cycle       Energy         DIIS error
 ---------------------------------------
    1   -1186.0441604900      2.39e-02  
    2   -1180.5900677846      1.57e-03  
    3   -1180.7164472980      6.15e-04  
    4   -1180.7312414079      3.31e-04  
    5   -1180.7363470920      6.21e-05  
    6   -1180.7366161699      2.56e-05  
    7   -1180.7366842226      9.89e-06  
    8   -1180.7367007193      4.72e-06  
    9   -1180.7367046581      1.67e-06  
   10   -1180.7367052549      5.61e-07  Convergence criterion met
 ---------------------------------------
 SCF time:   CPU 1633.70s  wall 48.00s 

************** Final PCM Free Energy Summary **************
 G_electrostatic  =      -0.00956903 hartree =      -6.00465465 kcal/mol
 G_cavitation     =       0.00000000 hartree =       0.00000000 kcal/mol
 G_dispersion     =       0.00000000 hartree =       0.00000000 kcal/mol
 G_repulsion      =       0.00000000 hartree =       0.00000000 kcal/mol
 --------------------------------------------------
 Non-electrostatic Free Energy =       0.00000000 hartree =       0.00000000 kcal/mol
 Total                         =      -0.00956903 hartree =      -6.00465465 kcal/mol
 --------------------------------------------------
 SCF Energy (H0 + V/2)                       =   -1180.73670525 
 Solute Internal Energy (H0)                 =   -1180.72713623 
 Total Free Energy (H0 + V/2 + non-elec)     =   -1180.73670525 hartree
                                             = -740923.46530479 kcal/mol
***********************************************************

 SCF   energy in the final basis set =    -1180.7367052549
 Total energy in the final basis set =    -1180.7367052549


 --------------------------------------------------------------
  Generalized many-body perturbation theory program
  by Joonho Lee, Fazle Rob, Xintian Feng, Evgeny Epifanovsky

 No regularization used 
 (reg. param. = 0.0000e+00)
  (P|Q)^-1/2 Time:  CPU 25.71 s  wall 0.42 s

 In RI-MP2 calculation: 
 # of frozen core orbitals: 20

 Components of the RIMP2 correlation energy:
        aaaa    correlation energy =        -0.2521350562 a.u.
        abab    correlation energy =        -1.5062259060 a.u.
        bbbb    correlation energy =        -0.2521350562 a.u.
        non-Brillouin singles      =        -0.0000000000 a.u.
        total same-spin energy     =        -0.5042701123 a.u.
        total opposite-spin energy =        -1.5062259060 a.u.

 Total  RIMP2   correlation energy =        -2.0104960183 a.u.
        RIMP2         total energy =     -1182.7472012732 a.u.

 RI-MP2 Energy Time:  CPU 178.84 s  wall 3.23 s
 
 --------------------------------------------------------------
 
                    Orbital Energies (a.u.)
 --------------------------------------------------------------
 
 Alpha MOs
 -- Occupied --
-91.9839 -91.9438 -11.2786 -11.2643 -11.2635 -11.2551 -11.2508 -11.2413
-11.2372 -11.2329 -11.2287 -11.2193  -8.9838  -8.9483  -6.6647  -6.6641
 -6.6635  -6.6296  -6.6286  -6.6273  -1.1994  -1.1533  -1.0574  -1.0301
 -0.9998  -0.9637  -0.9133  -0.9006  -0.8153  -0.7589  -0.7371  -0.7047
 -0.6531  -0.6396  -0.6106  -0.5920  -0.5835  -0.5679  -0.5662  -0.5517
 -0.5445  -0.5330  -0.5177  -0.5045  -0.4874  -0.4759  -0.4672  -0.4442
 -0.3566  -0.3425  -0.3237  -0.2635
 -- Virtual --
  0.0863   0.1327   0.1404   0.1507   0.1590   0.1697   0.1782   0.1862
  0.1894   0.2026   0.2075   0.2204   0.2216   0.2347   0.2388   0.2409
  0.2529   0.2649   0.2824   0.3022   0.3150   0.3280   0.3520   0.3542
  0.3672   0.3770   0.3820   0.3903   0.4009   0.4115   0.4135   0.4197
  0.4392   0.4457   0.4613   0.4637   0.4770   0.4779   0.4854   0.4875
  0.4974   0.5093   0.5213   0.5300   0.5375   0.5510   0.5577   0.5631
  0.5680   0.5787   0.5844   0.5858   0.5974   0.6075   0.6133   0.6189
  0.6213   0.6266   0.6310   0.6335   0.6407   0.6461   0.6528   0.6658
  0.6688   0.6710   0.6819   0.6890   0.7030   0.7110   0.7162   0.7269
  0.7390   0.7457   0.7557   0.7801   0.7816   0.7901   0.7978   0.8215
  0.8299   0.8505   0.8584   0.8667   0.8808   0.9048   0.9071   0.9151
  0.9221   0.9379   0.9469   0.9559   0.9656   0.9974   1.0026   1.0154
  1.0204   1.0253   1.0336   1.0450   1.0510   1.0544   1.0707   1.0756
  1.0861   1.0956   1.1138   1.1318   1.1476   1.1569   1.1625   1.1705
  1.1787   1.1869   1.1886   1.2047   1.2150   1.2243   1.2308   1.2450
  1.2479   1.2593   1.2658   1.2700   1.2794   1.2850   1.2895   1.3128
  1.3248   1.3359   1.3432   1.3450   1.3698   1.3887   1.4047   1.4154
  1.4244   1.4280   1.4354   1.4513   1.4751   1.4799   1.4895   1.5023
  1.5083   1.5163   1.5200   1.5304   1.5316   1.5446   1.5549   1.5622
  1.5690   1.5712   1.5863   1.5915   1.6254   1.6318   1.6374   1.6416
  1.6529   1.6634   1.6757   1.6861   1.6962   1.7123   1.7308   1.7388
  1.7497   1.7642   1.7775   1.7889   1.8134   1.8216   1.8419   1.8473
  1.8925   1.9027   1.9155   1.9338   1.9456   1.9741   1.9893   2.0044
  2.0217   2.0403   2.0536   2.0619   2.1075   2.1128   2.1333   2.1628
  2.1791   2.2085   2.2121   2.2176   2.2327   2.2405   2.2617   2.2820
  2.2985   2.3025   2.3058   2.3923   2.4033   2.4348   2.4516   2.4733
  2.4816   2.5157   2.5359   2.5510   2.5597   2.5805   2.5878   2.6015
  2.6227   2.6401   2.6619   2.6662   2.6777   2.6874   2.7189   2.7340
  2.7474   2.7521   2.7662   2.7755   2.7861   2.7996   2.8055   2.8163
  2.8339   2.8410   2.8499   2.8892   2.8961   2.9136   2.9217   2.9281
  2.9354   2.9638   2.9728   3.0024   3.0139   3.0235   3.0370   3.0469
  3.0540   3.0658   3.0901   3.1095   3.1138   3.1166   3.1280   3.1428
  3.1497   3.1626   3.1631   3.1722   3.1751   3.1932   3.1972   3.2263
  3.2276   3.2356   3.2521   3.2574   3.2747   3.2844   3.2884   3.3132
  3.3215   3.3265   3.3320   3.3387   3.3464   3.3522   3.3577   3.3610
  3.3732   3.3837   3.3890   3.3976   3.4067   3.4128   3.4175   3.4291
  3.4424   3.4448   3.4636   3.4737   3.4770   3.4893   3.4943   3.5097
  3.5203   3.5239   3.5376   3.5416   3.5451   3.5646   3.5742   3.5829
  3.5945   3.6084   3.6203   3.6241   3.6271   3.6388   3.6443   3.6598
  3.6665   3.6840   3.6950   3.7103   3.7153   3.7274   3.7364   3.7414
  3.7525   3.7583   3.7729   3.7833   3.7884   3.8013   3.8050   3.8171
  3.8225   3.8438   3.8490   3.8650   3.8673   3.8901   3.8960   3.9183
  3.9362   3.9470   3.9577   3.9674   3.9749   3.9893   4.0084   4.0234
  4.0281   4.0475   4.0525   4.0583   4.0642   4.0781   4.0961   4.1041
  4.1170   4.1272   4.1500   4.1541   4.1621   4.1779   4.1838   4.2018
  4.2132   4.2295   4.2385   4.2433   4.2562   4.2672   4.2742   4.2906
  4.2956   4.3068   4.3151   4.3291   4.3415   4.3569   4.3680   4.3730
  4.3834   4.3954   4.4021   4.4110   4.4212   4.4250   4.4413   4.4533
  4.4667   4.4728   4.4786   4.4848   4.4902   4.5027   4.5430   4.5673
  4.5868   4.6015   4.6035   4.6220   4.6302   4.6472   4.6624   4.6879
  4.7011   4.7109   4.7404   4.7750   4.7783   4.8295   4.8361   4.8558
  4.8672   4.8745   4.8901   4.9079   4.9359   4.9628   4.9731   4.9976
  5.0151   5.0460   5.0912   5.1054   5.1179   5.1251   5.1601   5.1743
  5.1879   5.1928   5.2418   5.2617   5.2868   5.2998   5.3135   5.3231
  5.3440   5.3684   5.3751   5.4064   5.4130   5.4174   5.4340   5.4415
  5.4874   5.5116   5.5359   5.5402   5.5520   5.5659   5.5759   5.6011
  5.6144   5.6246   5.6356   5.6596   5.6889   5.6956   5.7136   5.7304
  5.7729   5.7996   5.8314   5.9881   6.0228   6.0746   6.1207   6.1611
  6.2170   6.2261   6.2368   6.2474   6.2580   6.2957   6.2993   6.3255
  6.3900   6.4583   9.4530  10.6320  12.1497  12.9210  13.1679  13.9763
 14.0647  14.2043  14.3248  14.6029
 --------------------------------------------------------------
 
          Ground-State Mulliken Net Atomic Charges

     Atom                 Charge (a.u.)
  ----------------------------------------
      1 C                    -0.078520
      2 C                    -0.325410
      3 C                    -0.041213
      4 H                     0.177050
      5 C                     0.089081
      6 S                    -0.172662
      7 C                    -0.291086
      8 H                     0.118139
      9 H                     0.110537
     10 H                     0.102667
     11 C                    -0.084673
     12 C                    -0.222786
     13 C                     0.018712
     14 H                     0.193097
     15 C                    -0.235484
     16 S                     0.000671
     17 C                    -0.271747
     18 H                     0.100750
     19 H                     0.108187
     20 H                     0.107866
     21 H                     0.199119
     22 H                     0.109626
     23 H                     0.112946
     24 H                     0.175134
  ----------------------------------------
  Sum of atomic charges =     0.000000

 -----------------------------------------------------------------
                    Cartesian Multipole Moments
 -----------------------------------------------------------------
    Charge (ESU x 10^10)
                -0.0000
    Dipole Moment (Debye)
         X      -0.9730      Y       0.2963      Z       3.0831
       Tot       3.2466
    Quadrupole Moments (Debye-Ang)
        XX     -89.3312     XY       7.6815     YY     -76.2394
        XZ       0.4741     YZ      -1.4701     ZZ     -85.4399
    Octopole Moments (Debye-Ang^2)
       XXX     -99.9604    XXY      63.3268    XYY     -21.2670
       YYY     139.1947    XXZ      -3.1732    XYZ       0.8856
       YYZ      -6.9450    XZZ     -33.8101    YZZ      59.5622
       ZZZ      -1.0103
    Hexadecapole Moments (Debye-Ang^3)
      XXXX    -528.3701   XXXY    -205.4037   XXYY    -547.7820
      XYYY    -175.0504   YYYY   -2591.2333   XXXZ      75.7454
      XXYZ     -38.5244   XYYZ       5.2666   YYYZ     -91.2137
      XXZZ    -248.7480   XYZZ     -45.0298   YYZZ    -612.5020
      XZZZ      66.1659   YZZZ    -105.9087   ZZZZ    -968.0560
 -----------------------------------------------------------------
 Total job time:  86.39s(wall), 3765.17s(cpu) 
 Fri Dec 15 14:16:10 2023

        *************************************************************
        *                                                           *
        *  Thank you very much for using Q-Chem.  Have a nice day.  *
        *                                                           *
        *************************************************************


0 sent ACK to 0 
now end server 0 ... 
cleanup process ... done
remove work dirs ./qchem3696866.0 -- ./qchem3696866.0
rm -rf ./qchem3696866.0
rm -rf ./qchem3696866
