You are running Q-Chem version: 5.4.0

#
# job setting
#
local host:  exp-6-17
current dir: /home/rramji/project-csd799/aromodel/p3ht-qchem/hydrogenated-rotation-run
input file:  Methylthiophene_Phi_0_Theta_90_Methylthiophene_Hydrogenated.qcin
output file: 
nprocs     : 1
nthreads   : 64
#
# qchem installation setting
#
QC:          /cm/shared/apps/spack/cpu/opt/spack/linux-centos8-zen2/gcc-10.2.0/qchem-5.4-akfmr7b3t57bfs6qan3padb2wnb2i7cl
QCAUX:       /cm/shared/apps/spack/cpu/opt/spack/linux-centos8-zen2/gcc-10.2.0/qchem-5.4-akfmr7b3t57bfs6qan3padb2wnb2i7cl/qcaux
QCPROG:      /cm/shared/apps/spack/cpu/opt/spack/linux-centos8-zen2/gcc-10.2.0/qchem-5.4-akfmr7b3t57bfs6qan3padb2wnb2i7cl/exe/qcprog.exe
QCPROG_S:    /cm/shared/apps/spack/cpu/opt/spack/linux-centos8-zen2/gcc-10.2.0/qchem-5.4-akfmr7b3t57bfs6qan3padb2wnb2i7cl/exe/qcprog.exe_s
PARALLEL:    -DPARALLEL
QCMPI:       mpich
#
# qchem directory setting
#
qcrun:       qchem968011
QCSCRATCH:   .
QCLOCALSCR:  
QCTMPDIR:    .
QCFILEPREF:  ./qchem968011
QCSAVEDIR:   
workdirs:    ./qchem968011
workdir0:    ./qchem968011
partmpdirs =  
#
# parallel setting
#
QCRSH:           ssh
QCMPI:           mpich
QCMPIRUN:        /cm/shared/apps/spack/cpu/opt/spack/linux-centos8-zen2/gcc-10.2.0/qchem-5.4-akfmr7b3t57bfs6qan3padb2wnb2i7cl/bin/mpi/mpirun_qchem
QCMACHINEFILE:   ./qchem968011/hostfile
exp-6-17

#
# env setting
#
exported envs:   QC QCAUX QCSCRATCH QCRUNNAME QCFILEPREF QCPROG QCPROG_S GUIFILE

Running Job 1 of 1 Methylthiophene_Phi_0_Theta_90_Methylthiophene_Hydrogenated.qcin
qchem Methylthiophene_Phi_0_Theta_90_Methylthiophene_Hydrogenated.qcin_968011.0 ./qchem968011/ 1
/cm/shared/apps/spack/cpu/opt/spack/linux-centos8-zen2/gcc-10.2.0/qchem-5.4-akfmr7b3t57bfs6qan3padb2wnb2i7cl/bin/mpi/mpirun_qchem -machinefile ./qchem968011/hostfile -np 1 /cm/shared/apps/spack/cpu/opt/spack/linux-centos8-zen2/gcc-10.2.0/qchem-5.4-akfmr7b3t57bfs6qan3padb2wnb2i7cl/exe/qcprog.exe Methylthiophene_Phi_0_Theta_90_Methylthiophene_Hydrogenated.qcin_968011.0 ./qchem968011/

Process 0 of 1 is on exp-6-17 - thread support 0
initial socket setup ...start
initial socket setup ...done 
now start server 0 ... 
                  Welcome to Q-Chem
     A Quantum Leap Into The Future Of Chemistry


 Q-Chem 5.4, Q-Chem, Inc., Pleasanton, CA (2021)

 License issued to: University of California, San Diego (site)

 E. Epifanovsky,  A. T. B. Gilbert,  Xintian Feng,  Joonho Lee,  Yuezhi Mao,  
 N. Mardirossian,  P. Pokhilko,  A. White,  M. Wormit,  M. P. Coons,  
 A. L. Dempwolff,  Zhengting Gan,  D. Hait,  P. R. Horn,  L. D. Jacobson,  
 I. Kaliman,  J. Kussmann,  A. W. Lange,  Ka Un Lao,  D. S. Levine,  Jie Liu,  
 S. C. McKenzie,  A. F. Morrison,  K. Nanda,  F. Plasser,  D. R. Rehn,  
 M. L. Vidal,  Zhi-Qiang You,  Ying Zhu,  B. Alam,  B. Albrecht,  
 A. Aldossary,  E. Alguire,  J. H. Andersen,  D. Barton,  K. Begam,  A. Behn,  
 Y. A. Bernard,  E. J. Berquist,  H. Burton,  A. Carreras,  K. Carter-Fenk,  
 R. Chakraborty,  A. D. Chien,  K. D. Closser,  V. Cofer-Shabica,  
 S. Dasgupta,  Jia Deng,  M. de Wergifosse,  M. Diedenhofen,  Hainam Do,  
 S. Ehlert,  Po-Tung Fang,  S. Fatehi,  Qingguo Feng,  J. Gayvert,  
 Qinghui Ge,  G. Gidofalvi,  M. Goldey,  J. Gomes,  C. Gonzalez-Espinoza,  
 S. Gulania,  A. Gunina,  M. W. D. Hanson-Heine,  P. H. P. Harbach,  
 A. W. Hauser,  M. F. Herbst,  M. Hernandez Vera,  M. Hodecker,  
 Z. C. Holden,  S. Houck,  Xunkun Huang,  Kerwin Hui,  B. C. Huynh,  
 M. Ivanov,  Hyunjun Ji,  Hanjie Jiang,  B. Kaduk,  S. Kaehler,  
 K. Khistyaev,  Jaehoon Kim,  P. Klunzinger,  Z. Koczor-Benda,  
 Joong Hoon Koh,  D. Kosenkov,  L. Koulias,  T. Kowalczyk,  C. M. Krauter,  
 K. Kue,  A. Kunitsa,  T. Kus,  A. Landau,  K. V. Lawler,  D. Lefrancois,  
 S. Lehtola,  Rain Li,  Yi-Pei Li,  Jiashu Liang,  M. Liebenthal,  
 Hung-Hsuan Lin,  You-Sheng Lin,  Fenglai Liu,  Kuan-Yu Liu,  
 M. Loipersberger,  A. Luenser,  A. Manjanath,  P. Manohar,  E. Mansoor,  
 S. F. Manzer,  Shan-Ping Mao,  A. V. Marenich,  T. Markovich,  S. Mason,  
 S. A. Maurer,  P. F. McLaughlin,  M. F. S. J. Menger,  J.-M. Mewes,  
 S. A. Mewes,  P. Morgante,  J. W. Mullinax,  T. S. Nguyen-Beck,  
 K. J. Oosterbaan,  G. Paran,  Alexander C. Paul,  Suranjan K. Paul,  
 F. Pavosevic,  Zheng Pei,  S. Prager,  E. I. Proynov,  E. Ramos,  B. Rana,  
 A. E. Rask,  A. Rettig,  R. M. Richard,  F. Rob,  E. Rossomme,  T. Scheele,  
 M. Scheurer,  M. Schneider,  N. Sergueev,  S. M. Sharada,  W. Skomorowski,  
 D. W. Small,  C. J. Stein,  Yu-Chuan Su,  E. J. Sundstrom,  Zhen Tao,  
 J. Thirman,  T. Tsuchimochi,  N. M. Tubman,  S. P. Veccham,  O. Vydrov,  
 J. Wenzel,  J. Witte,  A. Yamada,  Kun Yao,  S. Yeganeh,  S. R. Yost,  
 A. Zech,  Igor Ying Zhang,  Xing Zhang,  Yu Zhang,  D. Zuev,  
 A. Aspuru-Guzik,  A. T. Bell,  N. A. Besley,  K. B. Bravaya,  B. R. Brooks,  
 D. Casanova,  Jeng-Da Chai,  S. Coriani,  C. J. Cramer,  
 A. E. DePrince, III,  R. A. DiStasio Jr.,  A. Dreuw,  B. D. Dunietz,  
 T. R. Furlani,  W. A. Goddard III,  S. Grimme,  S. Hammes-Schiffer,  
 T. Head-Gordon,  W. J. Hehre,  Chao-Ping Hsu,  T.-C. Jagau,  Yousung Jung,  
 A. Klamt,  Jing Kong,  D. S. Lambrecht,  WanZhen Liang,  N. J. Mayhall,  
 C. W. McCurdy,  J. B. Neaton,  C. Ochsenfeld,  J. A. Parkhill,  R. Peverati,  
 V. A. Rassolov,  Yihan Shao,  L. V. Slipchenko,  T. Stauch,  R. P. Steele,  
 J. E. Subotnik,  A. J. W. Thom,  A. Tkatchenko,  D. G. Truhlar,  
 T. Van Voorhis,  T. A. Wesolowski,  K. B. Whaley,  H. L. Woodcock III,  
 P. M. Zimmerman,  S. Faraji,  P. M. W. Gill,  M. Head-Gordon,  
 J. M. Herbert,  A. I. Krylov

 Contributors to earlier versions of Q-Chem not listed above: 
 R. D. Adamson,  B. Austin,  R. Baer,  J. Baker,  G. J. O. Beran,  
 K. Brandhorst,  S. T. Brown,  E. F. C. Byrd,  A. K. Chakraborty,  
 G. K. L. Chan,  Chun-Min Chang,  Yunqing Chen,  C.-L. Cheng,  
 Siu Hung Chien,  D. M. Chipman,  D. L. Crittenden,  H. Dachsel,  
 R. J. Doerksen,  A. D. Dutoi,  R. G. Edgar,  J. Fosso-Tande,  
 L. Fusti-Molnar,  D. Ghosh,  A. Ghysels,  A. Golubeva-Zadorozhnaya,  
 J. Gonthier,  M. S. Gordon,  S. R. Gwaltney,  G. Hawkins,  J. E. Herr,  
 A. Heyden,  S. Hirata,  E. G. Hohenstein,  G. Kedziora,  F. J. Keil,  
 C. Kelley,  Jihan Kim,  R. A. King,  R. Z. Khaliullin,  P. P. Korambath,  
 W. Kurlancheek,  A. Laurent,  A. M. Lee,  M. S. Lee,  S. V. Levchenko,  
 Ching Yeh Lin,  D. Liotard,  E. Livshits,  R. C. Lochan,  I. Lotan,  
 L. A. Martinez-Martinez,  P. E. Maslen,  N. Nair,  D. P. O'Neill,  
 D. Neuhauser,  E. Neuscamman,  C. M. Oana,  R. Olivares-Amaya,  R. Olson,  
 T. M. Perrine,  B. Peters,  P. A. Pieniazek,  A. Prociuk,  Y. M. Rhee,  
 J. Ritchie,  M. A. Rohrdanz,  E. Rosta,  N. J. Russ,  H. F. Schaefer III,  
 M. W. Schmidt,  N. E. Schultz,  S. Sharma,  N. Shenvi,  C. D. Sherrill,  
 A. C. Simmonett,  A. Sodt,  T. Stein,  D. Stuck,  K. S. Thanthiriwatte,  
 V. Vanovschi,  L. Vogt,  Tao Wang,  A. Warshel,  M. A. Watson,  
 C. F. Williams,  Q. Wu,  X. Xu,  Jun Yang,  W. Zhang,  Yan Zhao

 Please cite Q-Chem as follows:
 Y. Shao et al., Mol. Phys. 113, 184-215 (2015)
 DOI: 10.1080/00268976.2014.952696

 Q-Chem 5.4.0 for Intel X86 EM64T Linux

 Parts of Q-Chem use Armadillo 9.800.1 (Horizon Scraper).
 http://arma.sourceforge.net/

 Q-Chem begins on Fri Dec 15 14:03:54 2023  

 Host: 
0

     Scratch files written to ./qchem968011//
 May1621 |scratch|qcdevops|jenkins|workspace|build_RNUM    
 Parallel job on  1  processors
 Processing $rem in /cm/shared/apps/spack/cpu/opt/spack/linux-centos8-zen2/gcc-10.2.0/qchem-5.4-akfmr7b3t57bfs6qan3padb2wnb2i7cl/config/preferences:
 Processing $rem in /home/rramji/.qchemrc:
 Symmetry turned off for PCM/SM12/SMD calculation
 Core orbitals will be frozen

 Checking the input file for inconsistencies... 	...done.

 Q-Chem warning in module forms1/BasisType.C, line 2236:

 You are not using the predefined 5D/6D in this basis set.


--------------------------------------------------------------
User input:
--------------------------------------------------------------
$molecule
0 1
C	-0.724460	-3.887800	-0.001092
C	0.661131	-3.701456	-0.001036
C	1.085203	-2.345170	-0.000406
H	1.367305	-4.545233	-0.001433
C	0.000000	-1.450135	0.000000
S	-1.527517	-2.321334	-0.000367
C	2.531478	-1.934439	-0.000233
H	3.196254	-2.819799	-0.000656
H	2.787305	-1.326210	0.892447
H	2.787282	-1.325374	-0.892350
C	0.000000	0.000000	0.000000
C	-0.003081	0.844605	1.113020
C	-0.007772	2.235575	0.820578
H	-0.001743	0.456510	2.142881
C	-0.008427	2.483726	-0.563588
S	-0.003691	0.970607	-1.464748
C	-0.011355	3.300181	1.882380
H	-0.009922	2.852233	2.894974
H	-0.905944	3.953225	1.808137
H	0.878901	3.959133	1.808230
H	-0.011727	3.441752	-1.097114
H	-1.059101	-4.420219	0.896272
H	-1.059122	-4.419395	-0.898936
H	0.000014	-1.450628	1.080000
$end

$rem
JOBTYPE		SP
EXCHANGE	HF
CORRELATION	pRIMP2
BASIS		cc-pvtz
METHOD		rimp2
AUX_BASIS	rimp2-cc-pvtz
SOLVENT_METHOD	PCM
PURECART	11111
SYMMETRY	false
MEM_TOTAL	110000
SCF_CONVERGENCE = 6
THRESH=10
GUI = 2
$end



$solvent
dielectric 4.90
$end
--------------------------------------------------------------
 ----------------------------------------------------------------
             Standard Nuclear Orientation (Angstroms)
    I     Atom           X                Y                Z
 ----------------------------------------------------------------
    1      C      -0.7244600000    -3.8878000000    -0.0010920000
    2      C       0.6611310000    -3.7014560000    -0.0010360000
    3      C       1.0852030000    -2.3451700000    -0.0004060000
    4      H       1.3673050000    -4.5452330000    -0.0014330000
    5      C       0.0000000000    -1.4501350000     0.0000000000
    6      S      -1.5275170000    -2.3213340000    -0.0003670000
    7      C       2.5314780000    -1.9344390000    -0.0002330000
    8      H       3.1962540000    -2.8197990000    -0.0006560000
    9      H       2.7873050000    -1.3262100000     0.8924470000
   10      H       2.7872820000    -1.3253740000    -0.8923500000
   11      C       0.0000000000     0.0000000000     0.0000000000
   12      C      -0.0030810000     0.8446050000     1.1130200000
   13      C      -0.0077720000     2.2355750000     0.8205780000
   14      H      -0.0017430000     0.4565100000     2.1428810000
   15      C      -0.0084270000     2.4837260000    -0.5635880000
   16      S      -0.0036910000     0.9706070000    -1.4647480000
   17      C      -0.0113550000     3.3001810000     1.8823800000
   18      H      -0.0099220000     2.8522330000     2.8949740000
   19      H      -0.9059440000     3.9532250000     1.8081370000
   20      H       0.8789010000     3.9591330000     1.8082300000
   21      H      -0.0117270000     3.4417520000    -1.0971140000
   22      H      -1.0591010000    -4.4202190000     0.8962720000
   23      H      -1.0591220000    -4.4193950000    -0.8989360000
   24      H       0.0000140000    -1.4506280000     1.0800000000
 ----------------------------------------------------------------
 Nuclear Repulsion Energy =         870.36857097 hartrees
 There are       52 alpha and       52 beta electrons
 Requested basis set is cc-pVTZ
 There are 196 shells and 536 basis functions

 Total QAlloc Memory Limit 110000 MB
 Mega-Array Size       188 MB
 MEM_STATIC part       192 MB
 Discretize the solute cavity surface with Lebedev spheres
	Using 110 Lebedev grid points for each H atom
	Using 194 Lebedev grid points for other atoms
	Atomic van der Waals radii will be scaled by 1.20
 Remove points where switching function is < 1.0e-08
 Keep 1615 surface tesserae and discard 2033 interior tesserae
 Molecular Surface Area = 241.732 Angst**2
 Requested basis set is rimp2-cc-pVTZ
 There are 414 shells and 1414 basis functions
 A cutoff of  1.0D-10 yielded  13906 shell pairs
 There are    100844 function pairs (    129446 Cartesian)
 Smallest overlap matrix eigenvalue = 6.45E-05

 Scale SEOQF with 1.000000e-01/1.000000e-01/1.000000e-01

 Standard Electronic Orientation quadrupole field applied
 Nucleus-field energy     =     0.0000000373 hartrees
 Guess from superposition of atomic densities
 Warning:  Energy on first SCF cycle will be non-variational
 SAD guess density has 104.000000 electrons

 -----------------------------------------------------------------------
  General SCF calculation program by
  Eric Jon Sundstrom, Paul Horn, Yuezhi Mao, Dmitri Zuev, Alec White,
  David Stuck, Shaama M.S., Shane Yost, Joonho Lee, David Small,
  Daniel Levine, Susi Lehtola, Hugh Burton, Evgeny Epifanovsky,
  Bang C. Huynh
 -----------------------------------------------------------------------
 Hartree-Fock
 using 64 threads for integral computing
 -------------------------------------------------------
 OpenMP Integral computing Module                
 Release: version 1.0, May 2013, Q-Chem Inc. Pittsburgh 
 -------------------------------------------------------
 A restricted SCF calculation will be
 performed using DIIS
 SCF converges when DIIS error is below 1.0e-06
 ---------------------------------------
  Cycle       Energy         DIIS error
 ---------------------------------------
    1   -1185.9978004998      2.38e-02  
    2   -1180.6239237662      1.55e-03  
    3   -1180.7476160576      5.85e-04  
    4   -1180.7611182262      3.26e-04  
    5   -1180.7659049654      5.79e-05  
    6   -1180.7661387313      2.37e-05  
    7   -1180.7661946608      8.77e-06  
    8   -1180.7662078928      4.23e-06  
    9   -1180.7662108511      1.46e-06  
   10   -1180.7662113049      4.98e-07  Convergence criterion met
 ---------------------------------------
 SCF time:   CPU 1586.66s  wall 50.00s 

************** Final PCM Free Energy Summary **************
 G_electrostatic  =      -0.00926688 hartree =      -5.81505432 kcal/mol
 G_cavitation     =       0.00000000 hartree =       0.00000000 kcal/mol
 G_dispersion     =       0.00000000 hartree =       0.00000000 kcal/mol
 G_repulsion      =       0.00000000 hartree =       0.00000000 kcal/mol
 --------------------------------------------------
 Non-electrostatic Free Energy =       0.00000000 hartree =       0.00000000 kcal/mol
 Total                         =      -0.00926688 hartree =      -5.81505432 kcal/mol
 --------------------------------------------------
 SCF Energy (H0 + V/2)                       =   -1180.76621130 
 Solute Internal Energy (H0)                 =   -1180.75694443 
 Total Free Energy (H0 + V/2 + non-elec)     =   -1180.76621130 hartree
                                             = -740941.98063062 kcal/mol
***********************************************************

 SCF   energy in the final basis set =    -1180.7662113049
 Total energy in the final basis set =    -1180.7662113049


 --------------------------------------------------------------
  Generalized many-body perturbation theory program
  by Joonho Lee, Fazle Rob, Xintian Feng, Evgeny Epifanovsky

 No regularization used 
 (reg. param. = 0.0000e+00)
  (P|Q)^-1/2 Time:  CPU 33.52 s  wall 0.55 s

 In RI-MP2 calculation: 
 # of frozen core orbitals: 20

 Components of the RIMP2 correlation energy:
        aaaa    correlation energy =        -0.2508646349 a.u.
        abab    correlation energy =        -1.5020164989 a.u.
        bbbb    correlation energy =        -0.2508646349 a.u.
        non-Brillouin singles      =        -0.0000000000 a.u.
        total same-spin energy     =        -0.5017292697 a.u.
        total opposite-spin energy =        -1.5020164989 a.u.

 Total  RIMP2   correlation energy =        -2.0037457686 a.u.
        RIMP2         total energy =     -1182.7699570735 a.u.

 RI-MP2 Energy Time:  CPU 169.64 s  wall 2.79 s
 
 --------------------------------------------------------------
 
                    Orbital Energies (a.u.)
 --------------------------------------------------------------
 
 Alpha MOs
 -- Occupied --
-91.9807 -91.9417 -11.2817 -11.2653 -11.2622 -11.2561 -11.2509 -11.2435
-11.2412 -11.2313 -11.2295 -11.2193  -8.9807  -8.9463  -6.6616  -6.6611
 -6.6605  -6.6277  -6.6267  -6.6254  -1.1972  -1.1539  -1.0570  -1.0254
 -1.0061  -0.9599  -0.9119  -0.9013  -0.8147  -0.7609  -0.7350  -0.7021
 -0.6605  -0.6408  -0.6107  -0.5891  -0.5800  -0.5714  -0.5659  -0.5501
 -0.5411  -0.5295  -0.5130  -0.5054  -0.4937  -0.4822  -0.4597  -0.4491
 -0.3561  -0.3410  -0.3127  -0.2827
 -- Virtual --
  0.0962   0.1328   0.1416   0.1503   0.1584   0.1718   0.1773   0.1810
  0.1871   0.1949   0.2042   0.2152   0.2280   0.2315   0.2355   0.2446
  0.2500   0.2560   0.2655   0.2995   0.3017   0.3378   0.3456   0.3526
  0.3699   0.3718   0.3772   0.3915   0.3952   0.4041   0.4097   0.4190
  0.4322   0.4409   0.4562   0.4600   0.4653   0.4741   0.4806   0.4880
  0.5030   0.5125   0.5172   0.5250   0.5279   0.5397   0.5470   0.5560
  0.5668   0.5802   0.5805   0.5903   0.6027   0.6077   0.6114   0.6166
  0.6272   0.6290   0.6318   0.6379   0.6415   0.6445   0.6483   0.6525
  0.6604   0.6678   0.6812   0.6830   0.6888   0.7011   0.7196   0.7235
  0.7314   0.7494   0.7554   0.7729   0.7791   0.8021   0.8092   0.8186
  0.8265   0.8442   0.8513   0.8576   0.8808   0.8938   0.9018   0.9113
  0.9259   0.9432   0.9459   0.9585   0.9643   0.9867   0.9941   1.0046
  1.0146   1.0226   1.0334   1.0454   1.0595   1.0684   1.0711   1.0827
  1.0922   1.0959   1.1050   1.1209   1.1255   1.1569   1.1681   1.1712
  1.1742   1.1903   1.1959   1.2059   1.2112   1.2241   1.2281   1.2480
  1.2524   1.2561   1.2648   1.2687   1.2817   1.2920   1.3035   1.3093
  1.3248   1.3329   1.3431   1.3521   1.3625   1.3948   1.4099   1.4118
  1.4227   1.4306   1.4442   1.4592   1.4691   1.4822   1.4853   1.4985
  1.5062   1.5171   1.5201   1.5320   1.5418   1.5435   1.5490   1.5523
  1.5696   1.5745   1.5869   1.5967   1.6033   1.6132   1.6266   1.6394
  1.6471   1.6800   1.6816   1.6924   1.7008   1.7119   1.7250   1.7415
  1.7426   1.7595   1.7701   1.7828   1.7968   1.8254   1.8313   1.8559
  1.8773   1.9113   1.9131   1.9308   1.9483   1.9719   1.9901   2.0072
  2.0097   2.0301   2.0394   2.0545   2.0738   2.1351   2.1377   2.1522
  2.1852   2.2003   2.2029   2.2173   2.2270   2.2475   2.2676   2.2757
  2.2910   2.3247   2.3417   2.3652   2.4061   2.4306   2.4565   2.4692
  2.4907   2.4947   2.5276   2.5360   2.5799   2.5888   2.6059   2.6151
  2.6270   2.6362   2.6576   2.6610   2.6773   2.6851   2.7080   2.7136
  2.7335   2.7459   2.7571   2.7634   2.7759   2.7822   2.7964   2.8202
  2.8409   2.8452   2.8620   2.8774   2.8898   2.9099   2.9110   2.9215
  2.9290   2.9524   2.9651   2.9821   3.0150   3.0186   3.0235   3.0386
  3.0536   3.0833   3.0891   3.0997   3.1103   3.1156   3.1319   3.1424
  3.1527   3.1585   3.1656   3.1677   3.1811   3.1978   3.2089   3.2165
  3.2354   3.2368   3.2504   3.2646   3.2778   3.2908   3.2981   3.3065
  3.3101   3.3188   3.3312   3.3322   3.3490   3.3495   3.3543   3.3706
  3.3791   3.3818   3.3842   3.3952   3.3954   3.4069   3.4248   3.4358
  3.4412   3.4518   3.4530   3.4668   3.4742   3.4908   3.4986   3.5076
  3.5153   3.5284   3.5354   3.5422   3.5491   3.5611   3.5694   3.5779
  3.5950   3.6000   3.6129   3.6171   3.6232   3.6299   3.6399   3.6518
  3.6693   3.6784   3.6867   3.6951   3.7053   3.7154   3.7306   3.7359
  3.7399   3.7497   3.7527   3.7805   3.7927   3.7987   3.8041   3.8137
  3.8300   3.8327   3.8498   3.8663   3.8823   3.8878   3.8998   3.9110
  3.9286   3.9450   3.9486   3.9702   3.9781   3.9915   4.0014   4.0132
  4.0149   4.0358   4.0412   4.0496   4.0735   4.0791   4.0808   4.0979
  4.1208   4.1283   4.1421   4.1576   4.1636   4.1756   4.1929   4.1966
  4.2140   4.2184   4.2296   4.2445   4.2539   4.2562   4.2696   4.2783
  4.2943   4.3079   4.3110   4.3324   4.3368   4.3508   4.3621   4.3645
  4.3755   4.3927   4.3998   4.4044   4.4099   4.4178   4.4249   4.4475
  4.4602   4.4729   4.4816   4.4842   4.5094   4.5168   4.5378   4.5563
  4.5712   4.5938   4.6170   4.6189   4.6347   4.6488   4.6540   4.6703
  4.6909   4.7194   4.7314   4.7624   4.7696   4.8051   4.8143   4.8326
  4.8553   4.8605   4.8962   4.9001   4.9241   4.9513   4.9780   4.9856
  5.0123   5.0433   5.0890   5.1073   5.1142   5.1312   5.1524   5.1810
  5.1934   5.2111   5.2329   5.2674   5.2847   5.2967   5.3097   5.3239
  5.3440   5.3645   5.3765   5.3976   5.4106   5.4294   5.4401   5.4546
  5.4784   5.5215   5.5230   5.5420   5.5495   5.5577   5.5753   5.5953
  5.6216   5.6267   5.6480   5.6510   5.6783   5.6947   5.7123   5.7337
  5.7757   5.7975   5.8376   5.9721   6.0004   6.0748   6.1325   6.1546
  6.2034   6.2173   6.2257   6.2412   6.2513   6.2801   6.3015   6.3284
  6.3771   6.4851   9.4676  10.5643  12.0164  12.9616  13.1711  13.9387
 14.0787  14.1941  14.3506  14.6926
 --------------------------------------------------------------
 
          Ground-State Mulliken Net Atomic Charges

     Atom                 Charge (a.u.)
  ----------------------------------------
      1 C                    -0.077588
      2 C                    -0.329540
      3 C                    -0.019674
      4 H                     0.177276
      5 C                     0.086361
      6 S                    -0.176496
      7 C                    -0.266327
      8 H                     0.113098
      9 H                     0.101153
     10 H                     0.106843
     11 C                    -0.083295
     12 C                    -0.238090
     13 C                     0.019451
     14 H                     0.181366
     15 C                    -0.235668
     16 S                     0.006287
     17 C                    -0.271756
     18 H                     0.102190
     19 H                     0.108854
     20 H                     0.107969
     21 H                     0.197385
     22 H                     0.111280
     23 H                     0.112588
     24 H                     0.166333
  ----------------------------------------
  Sum of atomic charges =     0.000000

 -----------------------------------------------------------------
                    Cartesian Multipole Moments
 -----------------------------------------------------------------
    Charge (ESU x 10^10)
                -0.0000
    Dipole Moment (Debye)
         X       2.4183      Y       0.6112      Z       2.3156
       Tot       3.4035
    Quadrupole Moments (Debye-Ang)
        XX     -91.7491     XY      -3.7800     YY     -73.6753
        XZ      -0.3293     YZ      -0.1574     ZZ     -86.0603
    Octopole Moments (Debye-Ang^2)
       XXX       3.5091    XXY      40.6267    XYY      -1.1145
       YYY     126.3699    XXZ      -2.7552    XYZ       0.7882
       YYZ      -2.2637    XZZ      -2.9056    YZZ      55.5778
       ZZZ      -0.2731
    Hexadecapole Moments (Debye-Ang^3)
      XXXX    -699.7583   XXXY     -30.4148   XXYY    -621.4322
      XYYY       3.9339   YYYY   -2784.5468   XXXZ      -2.0194
      XXYZ     -32.9505   XYYZ      -2.4840   YYYZ    -118.8308
      XXZZ    -221.5852   XYZZ       4.5179   YYZZ    -600.4263
      XZZZ      -0.4514   YZZZ    -101.2734   ZZZZ    -544.9635
 -----------------------------------------------------------------
 Total job time:  55.71s(wall), 1812.61s(cpu) 
 Fri Dec 15 14:04:50 2023

        *************************************************************
        *                                                           *
        *  Thank you very much for using Q-Chem.  Have a nice day.  *
        *                                                           *
        *************************************************************


0 sent ACK to 0 
now end server 0 ... 
cleanup process ... done
remove work dirs ./qchem968011.0 -- ./qchem968011.0
rm -rf ./qchem968011.0
rm -rf ./qchem968011
