You are running Q-Chem version: 5.4.0

#
# job setting
#
local host:  exp-7-34
current dir: /home/rramji/project-csd799/aromodel/p3ht-qchem/hydrogenated-rotation-run
input file:  Methylthiophene_Phi_15_Theta_330_Methylthiophene_Hydrogenated.qcin
output file: 
nprocs     : 1
nthreads   : 64
#
# qchem installation setting
#
QC:          /cm/shared/apps/spack/cpu/opt/spack/linux-centos8-zen2/gcc-10.2.0/qchem-5.4-akfmr7b3t57bfs6qan3padb2wnb2i7cl
QCAUX:       /cm/shared/apps/spack/cpu/opt/spack/linux-centos8-zen2/gcc-10.2.0/qchem-5.4-akfmr7b3t57bfs6qan3padb2wnb2i7cl/qcaux
QCPROG:      /cm/shared/apps/spack/cpu/opt/spack/linux-centos8-zen2/gcc-10.2.0/qchem-5.4-akfmr7b3t57bfs6qan3padb2wnb2i7cl/exe/qcprog.exe
QCPROG_S:    /cm/shared/apps/spack/cpu/opt/spack/linux-centos8-zen2/gcc-10.2.0/qchem-5.4-akfmr7b3t57bfs6qan3padb2wnb2i7cl/exe/qcprog.exe_s
PARALLEL:    -DPARALLEL
QCMPI:       mpich
#
# qchem directory setting
#
qcrun:       qchem4844
QCSCRATCH:   .
QCLOCALSCR:  
QCTMPDIR:    .
QCFILEPREF:  ./qchem4844
QCSAVEDIR:   
workdirs:    ./qchem4844
workdir0:    ./qchem4844
partmpdirs =  
#
# parallel setting
#
QCRSH:           ssh
QCMPI:           mpich
QCMPIRUN:        /cm/shared/apps/spack/cpu/opt/spack/linux-centos8-zen2/gcc-10.2.0/qchem-5.4-akfmr7b3t57bfs6qan3padb2wnb2i7cl/bin/mpi/mpirun_qchem
QCMACHINEFILE:   ./qchem4844/hostfile
exp-7-34

#
# env setting
#
exported envs:   QC QCAUX QCSCRATCH QCRUNNAME QCFILEPREF QCPROG QCPROG_S GUIFILE

Running Job 1 of 1 Methylthiophene_Phi_15_Theta_330_Methylthiophene_Hydrogenated.qcin
qchem Methylthiophene_Phi_15_Theta_330_Methylthiophene_Hydrogenated.qcin_4844.0 ./qchem4844/ 1
/cm/shared/apps/spack/cpu/opt/spack/linux-centos8-zen2/gcc-10.2.0/qchem-5.4-akfmr7b3t57bfs6qan3padb2wnb2i7cl/bin/mpi/mpirun_qchem -machinefile ./qchem4844/hostfile -np 1 /cm/shared/apps/spack/cpu/opt/spack/linux-centos8-zen2/gcc-10.2.0/qchem-5.4-akfmr7b3t57bfs6qan3padb2wnb2i7cl/exe/qcprog.exe Methylthiophene_Phi_15_Theta_330_Methylthiophene_Hydrogenated.qcin_4844.0 ./qchem4844/

Process 0 of 1 is on exp-7-34 - thread support 0
initial socket setup ...start
initial socket setup ...done 
now start server 0 ... 
                  Welcome to Q-Chem
     A Quantum Leap Into The Future Of Chemistry


 Q-Chem 5.4, Q-Chem, Inc., Pleasanton, CA (2021)

 License issued to: University of California, San Diego (site)

 E. Epifanovsky,  A. T. B. Gilbert,  Xintian Feng,  Joonho Lee,  Yuezhi Mao,  
 N. Mardirossian,  P. Pokhilko,  A. White,  M. Wormit,  M. P. Coons,  
 A. L. Dempwolff,  Zhengting Gan,  D. Hait,  P. R. Horn,  L. D. Jacobson,  
 I. Kaliman,  J. Kussmann,  A. W. Lange,  Ka Un Lao,  D. S. Levine,  Jie Liu,  
 S. C. McKenzie,  A. F. Morrison,  K. Nanda,  F. Plasser,  D. R. Rehn,  
 M. L. Vidal,  Zhi-Qiang You,  Ying Zhu,  B. Alam,  B. Albrecht,  
 A. Aldossary,  E. Alguire,  J. H. Andersen,  D. Barton,  K. Begam,  A. Behn,  
 Y. A. Bernard,  E. J. Berquist,  H. Burton,  A. Carreras,  K. Carter-Fenk,  
 R. Chakraborty,  A. D. Chien,  K. D. Closser,  V. Cofer-Shabica,  
 S. Dasgupta,  Jia Deng,  M. de Wergifosse,  M. Diedenhofen,  Hainam Do,  
 S. Ehlert,  Po-Tung Fang,  S. Fatehi,  Qingguo Feng,  J. Gayvert,  
 Qinghui Ge,  G. Gidofalvi,  M. Goldey,  J. Gomes,  C. Gonzalez-Espinoza,  
 S. Gulania,  A. Gunina,  M. W. D. Hanson-Heine,  P. H. P. Harbach,  
 A. W. Hauser,  M. F. Herbst,  M. Hernandez Vera,  M. Hodecker,  
 Z. C. Holden,  S. Houck,  Xunkun Huang,  Kerwin Hui,  B. C. Huynh,  
 M. Ivanov,  Hyunjun Ji,  Hanjie Jiang,  B. Kaduk,  S. Kaehler,  
 K. Khistyaev,  Jaehoon Kim,  P. Klunzinger,  Z. Koczor-Benda,  
 Joong Hoon Koh,  D. Kosenkov,  L. Koulias,  T. Kowalczyk,  C. M. Krauter,  
 K. Kue,  A. Kunitsa,  T. Kus,  A. Landau,  K. V. Lawler,  D. Lefrancois,  
 S. Lehtola,  Rain Li,  Yi-Pei Li,  Jiashu Liang,  M. Liebenthal,  
 Hung-Hsuan Lin,  You-Sheng Lin,  Fenglai Liu,  Kuan-Yu Liu,  
 M. Loipersberger,  A. Luenser,  A. Manjanath,  P. Manohar,  E. Mansoor,  
 S. F. Manzer,  Shan-Ping Mao,  A. V. Marenich,  T. Markovich,  S. Mason,  
 S. A. Maurer,  P. F. McLaughlin,  M. F. S. J. Menger,  J.-M. Mewes,  
 S. A. Mewes,  P. Morgante,  J. W. Mullinax,  T. S. Nguyen-Beck,  
 K. J. Oosterbaan,  G. Paran,  Alexander C. Paul,  Suranjan K. Paul,  
 F. Pavosevic,  Zheng Pei,  S. Prager,  E. I. Proynov,  E. Ramos,  B. Rana,  
 A. E. Rask,  A. Rettig,  R. M. Richard,  F. Rob,  E. Rossomme,  T. Scheele,  
 M. Scheurer,  M. Schneider,  N. Sergueev,  S. M. Sharada,  W. Skomorowski,  
 D. W. Small,  C. J. Stein,  Yu-Chuan Su,  E. J. Sundstrom,  Zhen Tao,  
 J. Thirman,  T. Tsuchimochi,  N. M. Tubman,  S. P. Veccham,  O. Vydrov,  
 J. Wenzel,  J. Witte,  A. Yamada,  Kun Yao,  S. Yeganeh,  S. R. Yost,  
 A. Zech,  Igor Ying Zhang,  Xing Zhang,  Yu Zhang,  D. Zuev,  
 A. Aspuru-Guzik,  A. T. Bell,  N. A. Besley,  K. B. Bravaya,  B. R. Brooks,  
 D. Casanova,  Jeng-Da Chai,  S. Coriani,  C. J. Cramer,  
 A. E. DePrince, III,  R. A. DiStasio Jr.,  A. Dreuw,  B. D. Dunietz,  
 T. R. Furlani,  W. A. Goddard III,  S. Grimme,  S. Hammes-Schiffer,  
 T. Head-Gordon,  W. J. Hehre,  Chao-Ping Hsu,  T.-C. Jagau,  Yousung Jung,  
 A. Klamt,  Jing Kong,  D. S. Lambrecht,  WanZhen Liang,  N. J. Mayhall,  
 C. W. McCurdy,  J. B. Neaton,  C. Ochsenfeld,  J. A. Parkhill,  R. Peverati,  
 V. A. Rassolov,  Yihan Shao,  L. V. Slipchenko,  T. Stauch,  R. P. Steele,  
 J. E. Subotnik,  A. J. W. Thom,  A. Tkatchenko,  D. G. Truhlar,  
 T. Van Voorhis,  T. A. Wesolowski,  K. B. Whaley,  H. L. Woodcock III,  
 P. M. Zimmerman,  S. Faraji,  P. M. W. Gill,  M. Head-Gordon,  
 J. M. Herbert,  A. I. Krylov

 Contributors to earlier versions of Q-Chem not listed above: 
 R. D. Adamson,  B. Austin,  R. Baer,  J. Baker,  G. J. O. Beran,  
 K. Brandhorst,  S. T. Brown,  E. F. C. Byrd,  A. K. Chakraborty,  
 G. K. L. Chan,  Chun-Min Chang,  Yunqing Chen,  C.-L. Cheng,  
 Siu Hung Chien,  D. M. Chipman,  D. L. Crittenden,  H. Dachsel,  
 R. J. Doerksen,  A. D. Dutoi,  R. G. Edgar,  J. Fosso-Tande,  
 L. Fusti-Molnar,  D. Ghosh,  A. Ghysels,  A. Golubeva-Zadorozhnaya,  
 J. Gonthier,  M. S. Gordon,  S. R. Gwaltney,  G. Hawkins,  J. E. Herr,  
 A. Heyden,  S. Hirata,  E. G. Hohenstein,  G. Kedziora,  F. J. Keil,  
 C. Kelley,  Jihan Kim,  R. A. King,  R. Z. Khaliullin,  P. P. Korambath,  
 W. Kurlancheek,  A. Laurent,  A. M. Lee,  M. S. Lee,  S. V. Levchenko,  
 Ching Yeh Lin,  D. Liotard,  E. Livshits,  R. C. Lochan,  I. Lotan,  
 L. A. Martinez-Martinez,  P. E. Maslen,  N. Nair,  D. P. O'Neill,  
 D. Neuhauser,  E. Neuscamman,  C. M. Oana,  R. Olivares-Amaya,  R. Olson,  
 T. M. Perrine,  B. Peters,  P. A. Pieniazek,  A. Prociuk,  Y. M. Rhee,  
 J. Ritchie,  M. A. Rohrdanz,  E. Rosta,  N. J. Russ,  H. F. Schaefer III,  
 M. W. Schmidt,  N. E. Schultz,  S. Sharma,  N. Shenvi,  C. D. Sherrill,  
 A. C. Simmonett,  A. Sodt,  T. Stein,  D. Stuck,  K. S. Thanthiriwatte,  
 V. Vanovschi,  L. Vogt,  Tao Wang,  A. Warshel,  M. A. Watson,  
 C. F. Williams,  Q. Wu,  X. Xu,  Jun Yang,  W. Zhang,  Yan Zhao

 Please cite Q-Chem as follows:
 Y. Shao et al., Mol. Phys. 113, 184-215 (2015)
 DOI: 10.1080/00268976.2014.952696

 Q-Chem 5.4.0 for Intel X86 EM64T Linux

 Parts of Q-Chem use Armadillo 9.800.1 (Horizon Scraper).
 http://arma.sourceforge.net/

 Q-Chem begins on Fri Dec 15 14:28:48 2023  

 Host: 
0

     Scratch files written to ./qchem4844//
 May1621 |scratch|qcdevops|jenkins|workspace|build_RNUM    
 Parallel job on  1  processors
 Processing $rem in /cm/shared/apps/spack/cpu/opt/spack/linux-centos8-zen2/gcc-10.2.0/qchem-5.4-akfmr7b3t57bfs6qan3padb2wnb2i7cl/config/preferences:
 Processing $rem in /home/rramji/.qchemrc:
 Symmetry turned off for PCM/SM12/SMD calculation
 Core orbitals will be frozen

 Checking the input file for inconsistencies... 	...done.

 Q-Chem warning in module forms1/BasisType.C, line 2236:

 You are not using the predefined 5D/6D in this basis set.


--------------------------------------------------------------
User input:
--------------------------------------------------------------
$molecule
0 1
C	0.361285	-3.887800	0.627947
C	-0.331462	-3.701456	-0.572038
C	-0.542953	-2.345170	-0.939610
H	-0.684893	-4.545233	-1.183405
C	-0.000000	-1.450135	-0.000000
S	0.763441	-2.321334	1.323052
C	-1.265941	-1.934439	-2.192207
H	-1.598695	-2.819799	-2.767709
H	-0.620770	-1.326210	-2.860100
H	-2.166438	-1.325374	-1.967682
C	0.000000	0.000000	0.000000
C	0.215623	0.816623	1.113020
C	0.571102	2.161411	0.820578
H	0.116470	0.441406	2.142881
C	0.634696	2.401276	-0.563588
S	0.247646	0.938489	-1.464748
C	0.843182	3.190669	1.882380
H	0.728628	2.757614	2.894974
H	0.148095	4.052998	1.808137
H	1.873652	3.596752	1.808230
H	0.879464	3.327513	-1.097114
H	1.305744	-4.420219	0.469073
H	-0.248940	-4.419395	1.366694
H	0.935300	-1.450628	-0.540012
$end

$rem
JOBTYPE		SP
EXCHANGE	HF
CORRELATION	pRIMP2
BASIS		cc-pvtz
METHOD		rimp2
AUX_BASIS	rimp2-cc-pvtz
SOLVENT_METHOD	PCM
PURECART	11111
SYMMETRY	false
MEM_TOTAL	110000
SCF_CONVERGENCE = 6
THRESH=10
GUI = 2
$end



$solvent
dielectric 4.90
$end
--------------------------------------------------------------
 ----------------------------------------------------------------
             Standard Nuclear Orientation (Angstroms)
    I     Atom           X                Y                Z
 ----------------------------------------------------------------
    1      C       0.3612850000    -3.8878000000     0.6279470000
    2      C      -0.3314620000    -3.7014560000    -0.5720380000
    3      C      -0.5429530000    -2.3451700000    -0.9396100000
    4      H      -0.6848930000    -4.5452330000    -1.1834050000
    5      C       0.0000000000    -1.4501350000     0.0000000000
    6      S       0.7634410000    -2.3213340000     1.3230520000
    7      C      -1.2659410000    -1.9344390000    -2.1922070000
    8      H      -1.5986950000    -2.8197990000    -2.7677090000
    9      H      -0.6207700000    -1.3262100000    -2.8601000000
   10      H      -2.1664380000    -1.3253740000    -1.9676820000
   11      C       0.0000000000     0.0000000000     0.0000000000
   12      C       0.2156230000     0.8166230000     1.1130200000
   13      C       0.5711020000     2.1614110000     0.8205780000
   14      H       0.1164700000     0.4414060000     2.1428810000
   15      C       0.6346960000     2.4012760000    -0.5635880000
   16      S       0.2476460000     0.9384890000    -1.4647480000
   17      C       0.8431820000     3.1906690000     1.8823800000
   18      H       0.7286280000     2.7576140000     2.8949740000
   19      H       0.1480950000     4.0529980000     1.8081370000
   20      H       1.8736520000     3.5967520000     1.8082300000
   21      H       0.8794640000     3.3275130000    -1.0971140000
   22      H       1.3057440000    -4.4202190000     0.4690730000
   23      H      -0.2489400000    -4.4193950000     1.3666940000
   24      H       0.9353000000    -1.4506280000    -0.5400120000
 ----------------------------------------------------------------
 Nuclear Repulsion Energy =         875.78093299 hartrees
 There are       52 alpha and       52 beta electrons
 Requested basis set is cc-pVTZ
 There are 196 shells and 536 basis functions

 Total QAlloc Memory Limit 110000 MB
 Mega-Array Size       188 MB
 MEM_STATIC part       192 MB
 Discretize the solute cavity surface with Lebedev spheres
	Using 110 Lebedev grid points for each H atom
	Using 194 Lebedev grid points for other atoms
	Atomic van der Waals radii will be scaled by 1.20
 Remove points where switching function is < 1.0e-08
 Keep 1586 surface tesserae and discard 2062 interior tesserae
 Molecular Surface Area = 232.787 Angst**2
 Requested basis set is rimp2-cc-pVTZ
 There are 414 shells and 1414 basis functions
 A cutoff of  1.0D-10 yielded  13871 shell pairs
 There are    100533 function pairs (    128925 Cartesian)
 Smallest overlap matrix eigenvalue = 5.63E-05

 Scale SEOQF with 1.000000e-01/1.000000e-01/1.000000e-01

 Standard Electronic Orientation quadrupole field applied
 Nucleus-field energy     =     0.0000000246 hartrees
 Guess from superposition of atomic densities
 Warning:  Energy on first SCF cycle will be non-variational
 SAD guess density has 104.000000 electrons

 -----------------------------------------------------------------------
  General SCF calculation program by
  Eric Jon Sundstrom, Paul Horn, Yuezhi Mao, Dmitri Zuev, Alec White,
  David Stuck, Shaama M.S., Shane Yost, Joonho Lee, David Small,
  Daniel Levine, Susi Lehtola, Hugh Burton, Evgeny Epifanovsky,
  Bang C. Huynh
 -----------------------------------------------------------------------
 Hartree-Fock
 using 64 threads for integral computing
 -------------------------------------------------------
 OpenMP Integral computing Module                
 Release: version 1.0, May 2013, Q-Chem Inc. Pittsburgh 
 -------------------------------------------------------
 A restricted SCF calculation will be
 performed using DIIS
 SCF converges when DIIS error is below 1.0e-06
 ---------------------------------------
  Cycle       Energy         DIIS error
 ---------------------------------------
    1   -1186.0258328366      2.39e-02  
    2   -1180.6117765314      1.58e-03  
    3   -1180.7376362699      6.53e-04  
    4   -1180.7534728645      3.49e-04  
    5   -1180.7591047848      5.94e-05  
    6   -1180.7593530425      2.47e-05  
    7   -1180.7594111595      8.63e-06  
    8   -1180.7594232957      4.16e-06  
    9   -1180.7594258899      1.36e-06  
   10   -1180.7594262933      4.93e-07  Convergence criterion met
 ---------------------------------------
 SCF time:   CPU 1671.27s  wall 52.00s 

************** Final PCM Free Energy Summary **************
 G_electrostatic  =      -0.00806440 hartree =      -5.06048841 kcal/mol
 G_cavitation     =       0.00000000 hartree =       0.00000000 kcal/mol
 G_dispersion     =       0.00000000 hartree =       0.00000000 kcal/mol
 G_repulsion      =       0.00000000 hartree =       0.00000000 kcal/mol
 --------------------------------------------------
 Non-electrostatic Free Energy =       0.00000000 hartree =       0.00000000 kcal/mol
 Total                         =      -0.00806440 hartree =      -5.06048841 kcal/mol
 --------------------------------------------------
 SCF Energy (H0 + V/2)                       =   -1180.75942629 
 Solute Internal Energy (H0)                 =   -1180.75136189 
 Total Free Energy (H0 + V/2 + non-elec)     =   -1180.75942629 hartree
                                             = -740937.72297155 kcal/mol
***********************************************************

 SCF   energy in the final basis set =    -1180.7594262933
 Total energy in the final basis set =    -1180.7594262933


 --------------------------------------------------------------
  Generalized many-body perturbation theory program
  by Joonho Lee, Fazle Rob, Xintian Feng, Evgeny Epifanovsky

 No regularization used 
 (reg. param. = 0.0000e+00)
  (P|Q)^-1/2 Time:  CPU 31.53 s  wall 0.51 s

 In RI-MP2 calculation: 
 # of frozen core orbitals: 20

 Components of the RIMP2 correlation energy:
        aaaa    correlation energy =        -0.2511073319 a.u.
        abab    correlation energy =        -1.5024198622 a.u.
        bbbb    correlation energy =        -0.2511073319 a.u.
        non-Brillouin singles      =        -0.0000000000 a.u.
        total same-spin energy     =        -0.5022146639 a.u.
        total opposite-spin energy =        -1.5024198622 a.u.

 Total  RIMP2   correlation energy =        -2.0046345261 a.u.
        RIMP2         total energy =     -1182.7640608193 a.u.

 RI-MP2 Energy Time:  CPU 178.65 s  wall 3.19 s
 
 --------------------------------------------------------------
 
                    Orbital Energies (a.u.)
 --------------------------------------------------------------
 
 Alpha MOs
 -- Occupied --
-91.9820 -91.9462 -11.2876 -11.2636 -11.2610 -11.2582 -11.2504 -11.2435
-11.2331 -11.2329 -11.2280 -11.2225  -8.9821  -8.9505  -6.6631  -6.6625
 -6.6618  -6.6319  -6.6309  -6.6296  -1.2013  -1.1531  -1.0597  -1.0273
 -1.0058  -0.9581  -0.9159  -0.9014  -0.8136  -0.7706  -0.7229  -0.7040
 -0.6568  -0.6446  -0.6114  -0.5925  -0.5789  -0.5732  -0.5690  -0.5532
 -0.5422  -0.5336  -0.5143  -0.5078  -0.4882  -0.4862  -0.4601  -0.4468
 -0.3581  -0.3428  -0.3252  -0.2684
 -- Virtual --
  0.0980   0.1361   0.1434   0.1508   0.1599   0.1719   0.1819   0.1835
  0.1915   0.1992   0.2016   0.2088   0.2171   0.2322   0.2394   0.2423
  0.2497   0.2655   0.2737   0.3013   0.3187   0.3361   0.3493   0.3613
  0.3681   0.3759   0.3777   0.4012   0.4033   0.4088   0.4162   0.4189
  0.4411   0.4515   0.4645   0.4705   0.4725   0.4763   0.4805   0.4897
  0.5064   0.5184   0.5261   0.5312   0.5329   0.5400   0.5420   0.5515
  0.5722   0.5740   0.5817   0.6033   0.6103   0.6118   0.6161   0.6176
  0.6184   0.6248   0.6311   0.6334   0.6420   0.6434   0.6494   0.6542
  0.6635   0.6795   0.6819   0.6947   0.6980   0.7033   0.7172   0.7233
  0.7337   0.7480   0.7671   0.7788   0.7943   0.8018   0.8077   0.8213
  0.8365   0.8474   0.8531   0.8662   0.8865   0.8975   0.9007   0.9057
  0.9215   0.9417   0.9428   0.9587   0.9736   0.9829   1.0048   1.0101
  1.0150   1.0229   1.0405   1.0481   1.0563   1.0640   1.0736   1.0876
  1.0924   1.0967   1.1078   1.1180   1.1434   1.1484   1.1569   1.1670
  1.1783   1.1825   1.1929   1.2071   1.2196   1.2283   1.2331   1.2383
  1.2551   1.2663   1.2781   1.2792   1.2833   1.2902   1.2947   1.3065
  1.3178   1.3310   1.3380   1.3686   1.3852   1.3948   1.4067   1.4140
  1.4254   1.4284   1.4545   1.4614   1.4672   1.4748   1.4867   1.4924
  1.5010   1.5108   1.5165   1.5201   1.5320   1.5416   1.5449   1.5587
  1.5672   1.5805   1.5914   1.5947   1.6055   1.6185   1.6219   1.6396
  1.6519   1.6684   1.6731   1.6814   1.6950   1.7091   1.7226   1.7292
  1.7507   1.7629   1.7820   1.8090   1.8107   1.8172   1.8309   1.8580
  1.8641   1.9174   1.9306   1.9483   1.9594   1.9775   1.9860   2.0036
  2.0177   2.0356   2.0458   2.0545   2.0649   2.0953   2.1385   2.1530
  2.1839   2.1885   2.2144   2.2179   2.2273   2.2637   2.2733   2.2885
  2.2923   2.3114   2.3307   2.3700   2.4213   2.4283   2.4484   2.4617
  2.4998   2.5076   2.5257   2.5440   2.5643   2.5934   2.5972   2.6070
  2.6384   2.6502   2.6601   2.6624   2.6789   2.6864   2.7030   2.7357
  2.7382   2.7436   2.7638   2.7698   2.7712   2.7812   2.8036   2.8162
  2.8321   2.8388   2.8555   2.8735   2.8940   2.9019   2.9156   2.9269
  2.9447   2.9624   2.9695   2.9840   2.9900   3.0175   3.0272   3.0388
  3.0459   3.0593   3.0857   3.1050   3.1123   3.1209   3.1328   3.1426
  3.1485   3.1543   3.1641   3.1690   3.1802   3.1943   3.2075   3.2226
  3.2307   3.2470   3.2508   3.2537   3.2659   3.2757   3.2889   3.2979
  3.3037   3.3150   3.3335   3.3384   3.3465   3.3472   3.3601   3.3623
  3.3760   3.3830   3.3904   3.3981   3.4071   3.4122   3.4249   3.4313
  3.4483   3.4503   3.4557   3.4604   3.4684   3.4716   3.4930   3.5054
  3.5152   3.5192   3.5295   3.5330   3.5442   3.5503   3.5703   3.5830
  3.5923   3.6054   3.6081   3.6265   3.6335   3.6392   3.6469   3.6604
  3.6690   3.6857   3.7014   3.7121   3.7180   3.7255   3.7328   3.7510
  3.7544   3.7578   3.7698   3.7772   3.7894   3.7966   3.7976   3.8207
  3.8271   3.8443   3.8520   3.8552   3.8591   3.8876   3.9010   3.9086
  3.9224   3.9357   3.9642   3.9659   3.9710   3.9812   3.9986   4.0049
  4.0158   4.0390   4.0508   4.0549   4.0662   4.0810   4.0932   4.1100
  4.1219   4.1352   4.1400   4.1481   4.1629   4.1804   4.1857   4.1969
  4.2098   4.2220   4.2247   4.2356   4.2526   4.2643   4.2740   4.2789
  4.2887   4.2907   4.3036   4.3305   4.3426   4.3535   4.3581   4.3706
  4.3822   4.3918   4.3991   4.4026   4.4114   4.4305   4.4380   4.4471
  4.4523   4.4682   4.4788   4.4915   4.5075   4.5233   4.5473   4.5610
  4.5889   4.5931   4.6053   4.6141   4.6293   4.6412   4.6743   4.6829
  4.7016   4.7110   4.7426   4.7697   4.7804   4.7973   4.8072   4.8327
  4.8547   4.8799   4.8840   4.8968   4.9160   4.9369   4.9554   4.9819
  5.0338   5.0626   5.0901   5.1045   5.1179   5.1267   5.1429   5.1788
  5.1997   5.2163   5.2356   5.2654   5.2742   5.2924   5.3089   5.3222
  5.3457   5.3610   5.3784   5.3870   5.4035   5.4156   5.4378   5.4524
  5.4805   5.5057   5.5279   5.5400   5.5552   5.5601   5.5707   5.5811
  5.6121   5.6268   5.6454   5.6565   5.6695   5.7011   5.7051   5.7377
  5.7550   5.7863   5.8390   5.9536   6.0037   6.0742   6.1387   6.1468
  6.2158   6.2278   6.2281   6.2512   6.2707   6.2874   6.3156   6.3412
  6.4006   6.5043   9.5586  10.7201  11.8969  12.9437  13.1851  13.9347
 14.0938  14.2399  14.4249  14.6637
 --------------------------------------------------------------
 
          Ground-State Mulliken Net Atomic Charges

     Atom                 Charge (a.u.)
  ----------------------------------------
      1 C                    -0.074745
      2 C                    -0.315299
      3 C                    -0.058407
      4 H                     0.178456
      5 C                     0.128940
      6 S                    -0.180371
      7 C                    -0.293160
      8 H                     0.117470
      9 H                     0.105966
     10 H                     0.116729
     11 C                    -0.020856
     12 C                    -0.328036
     13 C                     0.055379
     14 H                     0.181101
     15 C                    -0.270555
     16 S                     0.006147
     17 C                    -0.271895
     18 H                     0.103065
     19 H                     0.108183
     20 H                     0.109012
     21 H                     0.196367
     22 H                     0.112382
     23 H                     0.111370
     24 H                     0.182755
  ----------------------------------------
  Sum of atomic charges =     0.000000

 -----------------------------------------------------------------
                    Cartesian Multipole Moments
 -----------------------------------------------------------------
    Charge (ESU x 10^10)
                -0.0000
    Dipole Moment (Debye)
         X      -0.1153      Y      -0.1747      Z      -1.0328
       Tot       1.0538
    Quadrupole Moments (Debye-Ang)
        XX     -90.7711     XY       3.0649     YY     -73.6491
        XZ       0.7074     YZ       5.1560     ZZ     -86.0253
    Octopole Moments (Debye-Ang^2)
       XXX     -52.9970    XXY      47.2200    XYY      -6.0736
       YYY     121.1352    XXZ      -2.6603    XYZ      -3.1786
       YYZ      -4.0268    XZZ     -19.3925    YZZ      53.7565
       ZZZ      -0.3288
    Hexadecapole Moments (Debye-Ang^3)
      XXXX    -347.1234   XXXY    -125.5341   XXYY    -560.3752
      XYYY    -100.3314   YYYY   -2716.6275   XXXZ    -148.9753
      XXYZ     -26.4735   XYYZ     -38.1162   YYYZ    -110.0140
      XXZZ    -222.3619   XYZZ     -19.1884   YYZZ    -639.1979
      XZZZ    -142.6633   YZZZ     -79.1411   ZZZZ    -973.2303
 -----------------------------------------------------------------
 Total job time:  58.19s(wall), 1923.81s(cpu) 
 Fri Dec 15 14:29:47 2023

        *************************************************************
        *                                                           *
        *  Thank you very much for using Q-Chem.  Have a nice day.  *
        *                                                           *
        *************************************************************


0 sent ACK to 0 
now end server 0 ... 
cleanup process ... done
remove work dirs ./qchem4844.0 -- ./qchem4844.0
rm -rf ./qchem4844.0
rm -rf ./qchem4844
