You are running Q-Chem version: 5.4.0

#
# job setting
#
local host:  exp-6-20
current dir: /home/rramji/project-csd799/aromodel/p3ht-qchem/hydrogenated-rotation-run
input file:  Methylthiophene_Phi_5_Theta_110_Methylthiophene_Hydrogenated.qcin
output file: 
nprocs     : 1
nthreads   : 64
#
# qchem installation setting
#
QC:          /cm/shared/apps/spack/cpu/opt/spack/linux-centos8-zen2/gcc-10.2.0/qchem-5.4-akfmr7b3t57bfs6qan3padb2wnb2i7cl
QCAUX:       /cm/shared/apps/spack/cpu/opt/spack/linux-centos8-zen2/gcc-10.2.0/qchem-5.4-akfmr7b3t57bfs6qan3padb2wnb2i7cl/qcaux
QCPROG:      /cm/shared/apps/spack/cpu/opt/spack/linux-centos8-zen2/gcc-10.2.0/qchem-5.4-akfmr7b3t57bfs6qan3padb2wnb2i7cl/exe/qcprog.exe
QCPROG_S:    /cm/shared/apps/spack/cpu/opt/spack/linux-centos8-zen2/gcc-10.2.0/qchem-5.4-akfmr7b3t57bfs6qan3padb2wnb2i7cl/exe/qcprog.exe_s
PARALLEL:    -DPARALLEL
QCMPI:       mpich
#
# qchem directory setting
#
qcrun:       qchem2815278
QCSCRATCH:   .
QCLOCALSCR:  
QCTMPDIR:    .
QCFILEPREF:  ./qchem2815278
QCSAVEDIR:   
workdirs:    ./qchem2815278
workdir0:    ./qchem2815278
partmpdirs =  
#
# parallel setting
#
QCRSH:           ssh
QCMPI:           mpich
QCMPIRUN:        /cm/shared/apps/spack/cpu/opt/spack/linux-centos8-zen2/gcc-10.2.0/qchem-5.4-akfmr7b3t57bfs6qan3padb2wnb2i7cl/bin/mpi/mpirun_qchem
QCMACHINEFILE:   ./qchem2815278/hostfile
exp-6-20

#
# env setting
#
exported envs:   QC QCAUX QCSCRATCH QCRUNNAME QCFILEPREF QCPROG QCPROG_S GUIFILE

Running Job 1 of 1 Methylthiophene_Phi_5_Theta_110_Methylthiophene_Hydrogenated.qcin
qchem Methylthiophene_Phi_5_Theta_110_Methylthiophene_Hydrogenated.qcin_2815278.0 ./qchem2815278/ 1
/cm/shared/apps/spack/cpu/opt/spack/linux-centos8-zen2/gcc-10.2.0/qchem-5.4-akfmr7b3t57bfs6qan3padb2wnb2i7cl/bin/mpi/mpirun_qchem -machinefile ./qchem2815278/hostfile -np 1 /cm/shared/apps/spack/cpu/opt/spack/linux-centos8-zen2/gcc-10.2.0/qchem-5.4-akfmr7b3t57bfs6qan3padb2wnb2i7cl/exe/qcprog.exe Methylthiophene_Phi_5_Theta_110_Methylthiophene_Hydrogenated.qcin_2815278.0 ./qchem2815278/

Process 0 of 1 is on exp-6-20 - thread support 0
initial socket setup ...start
initial socket setup ...done 
now start server 0 ... 
                  Welcome to Q-Chem
     A Quantum Leap Into The Future Of Chemistry


 Q-Chem 5.4, Q-Chem, Inc., Pleasanton, CA (2021)

 License issued to: University of California, San Diego (site)

 E. Epifanovsky,  A. T. B. Gilbert,  Xintian Feng,  Joonho Lee,  Yuezhi Mao,  
 N. Mardirossian,  P. Pokhilko,  A. White,  M. Wormit,  M. P. Coons,  
 A. L. Dempwolff,  Zhengting Gan,  D. Hait,  P. R. Horn,  L. D. Jacobson,  
 I. Kaliman,  J. Kussmann,  A. W. Lange,  Ka Un Lao,  D. S. Levine,  Jie Liu,  
 S. C. McKenzie,  A. F. Morrison,  K. Nanda,  F. Plasser,  D. R. Rehn,  
 M. L. Vidal,  Zhi-Qiang You,  Ying Zhu,  B. Alam,  B. Albrecht,  
 A. Aldossary,  E. Alguire,  J. H. Andersen,  D. Barton,  K. Begam,  A. Behn,  
 Y. A. Bernard,  E. J. Berquist,  H. Burton,  A. Carreras,  K. Carter-Fenk,  
 R. Chakraborty,  A. D. Chien,  K. D. Closser,  V. Cofer-Shabica,  
 S. Dasgupta,  Jia Deng,  M. de Wergifosse,  M. Diedenhofen,  Hainam Do,  
 S. Ehlert,  Po-Tung Fang,  S. Fatehi,  Qingguo Feng,  J. Gayvert,  
 Qinghui Ge,  G. Gidofalvi,  M. Goldey,  J. Gomes,  C. Gonzalez-Espinoza,  
 S. Gulania,  A. Gunina,  M. W. D. Hanson-Heine,  P. H. P. Harbach,  
 A. W. Hauser,  M. F. Herbst,  M. Hernandez Vera,  M. Hodecker,  
 Z. C. Holden,  S. Houck,  Xunkun Huang,  Kerwin Hui,  B. C. Huynh,  
 M. Ivanov,  Hyunjun Ji,  Hanjie Jiang,  B. Kaduk,  S. Kaehler,  
 K. Khistyaev,  Jaehoon Kim,  P. Klunzinger,  Z. Koczor-Benda,  
 Joong Hoon Koh,  D. Kosenkov,  L. Koulias,  T. Kowalczyk,  C. M. Krauter,  
 K. Kue,  A. Kunitsa,  T. Kus,  A. Landau,  K. V. Lawler,  D. Lefrancois,  
 S. Lehtola,  Rain Li,  Yi-Pei Li,  Jiashu Liang,  M. Liebenthal,  
 Hung-Hsuan Lin,  You-Sheng Lin,  Fenglai Liu,  Kuan-Yu Liu,  
 M. Loipersberger,  A. Luenser,  A. Manjanath,  P. Manohar,  E. Mansoor,  
 S. F. Manzer,  Shan-Ping Mao,  A. V. Marenich,  T. Markovich,  S. Mason,  
 S. A. Maurer,  P. F. McLaughlin,  M. F. S. J. Menger,  J.-M. Mewes,  
 S. A. Mewes,  P. Morgante,  J. W. Mullinax,  T. S. Nguyen-Beck,  
 K. J. Oosterbaan,  G. Paran,  Alexander C. Paul,  Suranjan K. Paul,  
 F. Pavosevic,  Zheng Pei,  S. Prager,  E. I. Proynov,  E. Ramos,  B. Rana,  
 A. E. Rask,  A. Rettig,  R. M. Richard,  F. Rob,  E. Rossomme,  T. Scheele,  
 M. Scheurer,  M. Schneider,  N. Sergueev,  S. M. Sharada,  W. Skomorowski,  
 D. W. Small,  C. J. Stein,  Yu-Chuan Su,  E. J. Sundstrom,  Zhen Tao,  
 J. Thirman,  T. Tsuchimochi,  N. M. Tubman,  S. P. Veccham,  O. Vydrov,  
 J. Wenzel,  J. Witte,  A. Yamada,  Kun Yao,  S. Yeganeh,  S. R. Yost,  
 A. Zech,  Igor Ying Zhang,  Xing Zhang,  Yu Zhang,  D. Zuev,  
 A. Aspuru-Guzik,  A. T. Bell,  N. A. Besley,  K. B. Bravaya,  B. R. Brooks,  
 D. Casanova,  Jeng-Da Chai,  S. Coriani,  C. J. Cramer,  
 A. E. DePrince, III,  R. A. DiStasio Jr.,  A. Dreuw,  B. D. Dunietz,  
 T. R. Furlani,  W. A. Goddard III,  S. Grimme,  S. Hammes-Schiffer,  
 T. Head-Gordon,  W. J. Hehre,  Chao-Ping Hsu,  T.-C. Jagau,  Yousung Jung,  
 A. Klamt,  Jing Kong,  D. S. Lambrecht,  WanZhen Liang,  N. J. Mayhall,  
 C. W. McCurdy,  J. B. Neaton,  C. Ochsenfeld,  J. A. Parkhill,  R. Peverati,  
 V. A. Rassolov,  Yihan Shao,  L. V. Slipchenko,  T. Stauch,  R. P. Steele,  
 J. E. Subotnik,  A. J. W. Thom,  A. Tkatchenko,  D. G. Truhlar,  
 T. Van Voorhis,  T. A. Wesolowski,  K. B. Whaley,  H. L. Woodcock III,  
 P. M. Zimmerman,  S. Faraji,  P. M. W. Gill,  M. Head-Gordon,  
 J. M. Herbert,  A. I. Krylov

 Contributors to earlier versions of Q-Chem not listed above: 
 R. D. Adamson,  B. Austin,  R. Baer,  J. Baker,  G. J. O. Beran,  
 K. Brandhorst,  S. T. Brown,  E. F. C. Byrd,  A. K. Chakraborty,  
 G. K. L. Chan,  Chun-Min Chang,  Yunqing Chen,  C.-L. Cheng,  
 Siu Hung Chien,  D. M. Chipman,  D. L. Crittenden,  H. Dachsel,  
 R. J. Doerksen,  A. D. Dutoi,  R. G. Edgar,  J. Fosso-Tande,  
 L. Fusti-Molnar,  D. Ghosh,  A. Ghysels,  A. Golubeva-Zadorozhnaya,  
 J. Gonthier,  M. S. Gordon,  S. R. Gwaltney,  G. Hawkins,  J. E. Herr,  
 A. Heyden,  S. Hirata,  E. G. Hohenstein,  G. Kedziora,  F. J. Keil,  
 C. Kelley,  Jihan Kim,  R. A. King,  R. Z. Khaliullin,  P. P. Korambath,  
 W. Kurlancheek,  A. Laurent,  A. M. Lee,  M. S. Lee,  S. V. Levchenko,  
 Ching Yeh Lin,  D. Liotard,  E. Livshits,  R. C. Lochan,  I. Lotan,  
 L. A. Martinez-Martinez,  P. E. Maslen,  N. Nair,  D. P. O'Neill,  
 D. Neuhauser,  E. Neuscamman,  C. M. Oana,  R. Olivares-Amaya,  R. Olson,  
 T. M. Perrine,  B. Peters,  P. A. Pieniazek,  A. Prociuk,  Y. M. Rhee,  
 J. Ritchie,  M. A. Rohrdanz,  E. Rosta,  N. J. Russ,  H. F. Schaefer III,  
 M. W. Schmidt,  N. E. Schultz,  S. Sharma,  N. Shenvi,  C. D. Sherrill,  
 A. C. Simmonett,  A. Sodt,  T. Stein,  D. Stuck,  K. S. Thanthiriwatte,  
 V. Vanovschi,  L. Vogt,  Tao Wang,  A. Warshel,  M. A. Watson,  
 C. F. Williams,  Q. Wu,  X. Xu,  Jun Yang,  W. Zhang,  Yan Zhao

 Please cite Q-Chem as follows:
 Y. Shao et al., Mol. Phys. 113, 184-215 (2015)
 DOI: 10.1080/00268976.2014.952696

 Q-Chem 5.4.0 for Intel X86 EM64T Linux

 Parts of Q-Chem use Armadillo 9.800.1 (Horizon Scraper).
 http://arma.sourceforge.net/

 Q-Chem begins on Fri Dec 15 14:04:49 2023  

 Host: 
0

     Scratch files written to ./qchem2815278//
 May1621 |scratch|qcdevops|jenkins|workspace|build_RNUM    
 Parallel job on  1  processors
 Processing $rem in /cm/shared/apps/spack/cpu/opt/spack/linux-centos8-zen2/gcc-10.2.0/qchem-5.4-akfmr7b3t57bfs6qan3padb2wnb2i7cl/config/preferences:
 Processing $rem in /home/rramji/.qchemrc:
 Symmetry turned off for PCM/SM12/SMD calculation
 Core orbitals will be frozen

 Checking the input file for inconsistencies... 	...done.

 Q-Chem warning in module forms1/BasisType.C, line 2236:

 You are not using the predefined 5D/6D in this basis set.


--------------------------------------------------------------
User input:
--------------------------------------------------------------
$molecule
0 1
C	-0.680396	-3.887800	-0.248806
C	0.621614	-3.701456	0.225147
C	1.019896	-2.345170	0.370780
H	1.285337	-4.545233	0.466300
C	-0.000000	-1.450135	-0.000000
S	-1.435271	-2.321334	-0.522786
C	2.378891	-1.934439	0.865597
H	3.003720	-2.819799	1.092567
H	2.313975	-1.326210	1.791940
H	2.924390	-1.325374	0.114772
C	0.000000	0.000000	0.000000
C	0.070542	0.841660	1.113020
C	0.187101	2.227746	0.820578
H	0.038051	0.454925	2.142881
C	0.208076	2.475009	-0.563588
S	0.080917	0.967235	-1.464748
C	0.276318	3.288613	1.882380
H	0.238704	2.842244	2.894974
H	-0.557951	4.017140	1.808137
H	1.220618	3.867466	1.808230
H	0.288286	3.429678	-1.097114
H	-1.301772	-4.420219	0.479986
H	-0.687795	-4.419395	-1.206964
H	-0.369368	-1.450628	1.014873
$end

$rem
JOBTYPE		SP
EXCHANGE	HF
CORRELATION	pRIMP2
BASIS		cc-pvtz
METHOD		rimp2
AUX_BASIS	rimp2-cc-pvtz
SOLVENT_METHOD	PCM
PURECART	11111
SYMMETRY	false
MEM_TOTAL	110000
SCF_CONVERGENCE = 6
THRESH=10
GUI = 2
$end



$solvent
dielectric 4.90
$end
--------------------------------------------------------------
 ----------------------------------------------------------------
             Standard Nuclear Orientation (Angstroms)
    I     Atom           X                Y                Z
 ----------------------------------------------------------------
    1      C      -0.6803960000    -3.8878000000    -0.2488060000
    2      C       0.6216140000    -3.7014560000     0.2251470000
    3      C       1.0198960000    -2.3451700000     0.3707800000
    4      H       1.2853370000    -4.5452330000     0.4663000000
    5      C       0.0000000000    -1.4501350000     0.0000000000
    6      S      -1.4352710000    -2.3213340000    -0.5227860000
    7      C       2.3788910000    -1.9344390000     0.8655970000
    8      H       3.0037200000    -2.8197990000     1.0925670000
    9      H       2.3139750000    -1.3262100000     1.7919400000
   10      H       2.9243900000    -1.3253740000     0.1147720000
   11      C       0.0000000000     0.0000000000     0.0000000000
   12      C       0.0705420000     0.8416600000     1.1130200000
   13      C       0.1871010000     2.2277460000     0.8205780000
   14      H       0.0380510000     0.4549250000     2.1428810000
   15      C       0.2080760000     2.4750090000    -0.5635880000
   16      S       0.0809170000     0.9672350000    -1.4647480000
   17      C       0.2763180000     3.2886130000     1.8823800000
   18      H       0.2387040000     2.8422440000     2.8949740000
   19      H      -0.5579510000     4.0171400000     1.8081370000
   20      H       1.2206180000     3.8674660000     1.8082300000
   21      H       0.2882860000     3.4296780000    -1.0971140000
   22      H      -1.3017720000    -4.4202190000     0.4799860000
   23      H      -0.6877950000    -4.4193950000    -1.2069640000
   24      H      -0.3693680000    -1.4506280000     1.0148730000
 ----------------------------------------------------------------
 Nuclear Repulsion Energy =         871.12363920 hartrees
 There are       52 alpha and       52 beta electrons
 Requested basis set is cc-pVTZ
 There are 196 shells and 536 basis functions

 Total QAlloc Memory Limit 110000 MB
 Mega-Array Size       188 MB
 MEM_STATIC part       192 MB
 Discretize the solute cavity surface with Lebedev spheres
	Using 110 Lebedev grid points for each H atom
	Using 194 Lebedev grid points for other atoms
	Atomic van der Waals radii will be scaled by 1.20
 Remove points where switching function is < 1.0e-08
 Keep 1630 surface tesserae and discard 2018 interior tesserae
 Molecular Surface Area = 238.756 Angst**2
 Requested basis set is rimp2-cc-pVTZ
 There are 414 shells and 1414 basis functions
 A cutoff of  1.0D-10 yielded  13999 shell pairs
 There are    101587 function pairs (    130345 Cartesian)
 Smallest overlap matrix eigenvalue = 6.05E-05

 Scale SEOQF with 1.000000e-01/1.000000e-01/1.000000e-01

 Standard Electronic Orientation quadrupole field applied
 Nucleus-field energy     =     0.0000000354 hartrees
 Guess from superposition of atomic densities
 Warning:  Energy on first SCF cycle will be non-variational
 SAD guess density has 104.000000 electrons

 -----------------------------------------------------------------------
  General SCF calculation program by
  Eric Jon Sundstrom, Paul Horn, Yuezhi Mao, Dmitri Zuev, Alec White,
  David Stuck, Shaama M.S., Shane Yost, Joonho Lee, David Small,
  Daniel Levine, Susi Lehtola, Hugh Burton, Evgeny Epifanovsky,
  Bang C. Huynh
 -----------------------------------------------------------------------
 Hartree-Fock
 using 64 threads for integral computing
 -------------------------------------------------------
 OpenMP Integral computing Module                
 Release: version 1.0, May 2013, Q-Chem Inc. Pittsburgh 
 -------------------------------------------------------
 A restricted SCF calculation will be
 performed using DIIS
 SCF converges when DIIS error is below 1.0e-06
 ---------------------------------------
  Cycle       Energy         DIIS error
 ---------------------------------------
    1   -1185.9985113553      2.38e-02  
    2   -1180.6221482707      1.55e-03  
    3   -1180.7460563454      5.93e-04  
    4   -1180.7597797882      3.30e-04  
    5   -1180.7646853630      5.84e-05  
    6   -1180.7649187511      2.37e-05  
    7   -1180.7649733437      8.64e-06  
    8   -1180.7649857987      4.15e-06  
    9   -1180.7649885918      1.44e-06  
   10   -1180.7649890394      5.01e-07  Convergence criterion met
 ---------------------------------------
 SCF time:   CPU 1680.38s  wall 50.00s 

************** Final PCM Free Energy Summary **************
 G_electrostatic  =      -0.00937960 hartree =      -5.88578660 kcal/mol
 G_cavitation     =       0.00000000 hartree =       0.00000000 kcal/mol
 G_dispersion     =       0.00000000 hartree =       0.00000000 kcal/mol
 G_repulsion      =       0.00000000 hartree =       0.00000000 kcal/mol
 --------------------------------------------------
 Non-electrostatic Free Energy =       0.00000000 hartree =       0.00000000 kcal/mol
 Total                         =      -0.00937960 hartree =      -5.88578660 kcal/mol
 --------------------------------------------------
 SCF Energy (H0 + V/2)                       =   -1180.76498904 
 Solute Internal Energy (H0)                 =   -1180.75560944 
 Total Free Energy (H0 + V/2 + non-elec)     =   -1180.76498904 hartree
                                             = -740941.21364746 kcal/mol
***********************************************************

 SCF   energy in the final basis set =    -1180.7649890394
 Total energy in the final basis set =    -1180.7649890394


 --------------------------------------------------------------
  Generalized many-body perturbation theory program
  by Joonho Lee, Fazle Rob, Xintian Feng, Evgeny Epifanovsky

 No regularization used 
 (reg. param. = 0.0000e+00)
  (P|Q)^-1/2 Time:  CPU 26.41 s  wall 0.44 s

 In RI-MP2 calculation: 
 # of frozen core orbitals: 20

 Components of the RIMP2 correlation energy:
        aaaa    correlation energy =        -0.2509947032 a.u.
        abab    correlation energy =        -1.5023223000 a.u.
        bbbb    correlation energy =        -0.2509947032 a.u.
        non-Brillouin singles      =        -0.0000000000 a.u.
        total same-spin energy     =        -0.5019894065 a.u.
        total opposite-spin energy =        -1.5023223000 a.u.

 Total  RIMP2   correlation energy =        -2.0043117065 a.u.
        RIMP2         total energy =     -1182.7693007459 a.u.

 RI-MP2 Energy Time:  CPU 167.51 s  wall 2.75 s
 
 --------------------------------------------------------------
 
                    Orbital Energies (a.u.)
 --------------------------------------------------------------
 
 Alpha MOs
 -- Occupied --
-91.9810 -91.9423 -11.2825 -11.2643 -11.2629 -11.2568 -11.2511 -11.2422
-11.2415 -11.2315 -11.2296 -11.2196  -8.9809  -8.9468  -6.6618  -6.6613
 -6.6607  -6.6282  -6.6272  -6.6259  -1.1976  -1.1538  -1.0572  -1.0262
 -1.0050  -0.9607  -0.9119  -0.9013  -0.8152  -0.7597  -0.7342  -0.7039
 -0.6602  -0.6417  -0.6109  -0.5898  -0.5814  -0.5711  -0.5641  -0.5514
 -0.5413  -0.5295  -0.5147  -0.5057  -0.4913  -0.4821  -0.4607  -0.4485
 -0.3560  -0.3413  -0.3153  -0.2800
 -- Virtual --
  0.0971   0.1323   0.1419   0.1500   0.1583   0.1718   0.1749   0.1842
  0.1891   0.1938   0.2039   0.2165   0.2251   0.2297   0.2357   0.2436
  0.2503   0.2591   0.2732   0.2995   0.3061   0.3388   0.3448   0.3561
  0.3667   0.3722   0.3821   0.3913   0.3968   0.4007   0.4091   0.4144
  0.4331   0.4367   0.4491   0.4615   0.4692   0.4781   0.4849   0.4922
  0.4946   0.5131   0.5143   0.5232   0.5312   0.5441   0.5451   0.5637
  0.5669   0.5740   0.5853   0.5989   0.6020   0.6057   0.6060   0.6156
  0.6249   0.6288   0.6295   0.6398   0.6429   0.6470   0.6482   0.6556
  0.6582   0.6668   0.6800   0.6845   0.6868   0.7016   0.7188   0.7287
  0.7319   0.7429   0.7622   0.7658   0.7778   0.7923   0.8103   0.8228
  0.8282   0.8425   0.8474   0.8710   0.8774   0.8896   0.9021   0.9104
  0.9266   0.9372   0.9473   0.9598   0.9682   0.9889   0.9955   1.0117
  1.0141   1.0259   1.0343   1.0456   1.0487   1.0635   1.0772   1.0814
  1.0838   1.0970   1.1122   1.1230   1.1281   1.1547   1.1627   1.1796
  1.1824   1.1917   1.1960   1.1983   1.2146   1.2214   1.2289   1.2452
  1.2528   1.2593   1.2639   1.2722   1.2761   1.2793   1.2994   1.3249
  1.3364   1.3413   1.3540   1.3626   1.3747   1.3897   1.4006   1.4101
  1.4106   1.4318   1.4463   1.4633   1.4742   1.4788   1.4851   1.5017
  1.5094   1.5179   1.5269   1.5369   1.5383   1.5444   1.5468   1.5505
  1.5747   1.5758   1.5826   1.5989   1.6068   1.6156   1.6305   1.6327
  1.6503   1.6670   1.6809   1.6919   1.6971   1.7119   1.7189   1.7436
  1.7464   1.7576   1.7742   1.7808   1.8164   1.8181   1.8420   1.8579
  1.8807   1.9111   1.9161   1.9319   1.9423   1.9629   1.9996   2.0055
  2.0144   2.0354   2.0373   2.0469   2.0716   2.1308   2.1435   2.1470
  2.1853   2.1982   2.2040   2.2197   2.2395   2.2519   2.2625   2.2791
  2.2892   2.3136   2.3278   2.3667   2.4008   2.4435   2.4639   2.4748
  2.4837   2.5239   2.5260   2.5366   2.5786   2.5955   2.6042   2.6241
  2.6295   2.6439   2.6576   2.6645   2.6730   2.6825   2.7038   2.7177
  2.7363   2.7466   2.7553   2.7676   2.7752   2.7849   2.7958   2.8243
  2.8455   2.8482   2.8584   2.8784   2.8933   2.9003   2.9132   2.9224
  2.9303   2.9392   2.9620   2.9732   3.0072   3.0145   3.0186   3.0391
  3.0604   3.0778   3.0810   3.1063   3.1125   3.1168   3.1308   3.1450
  3.1532   3.1617   3.1669   3.1754   3.1802   3.1944   3.2034   3.2100
  3.2276   3.2404   3.2516   3.2636   3.2757   3.2877   3.3013   3.3056
  3.3102   3.3228   3.3302   3.3362   3.3439   3.3509   3.3600   3.3659
  3.3685   3.3782   3.3854   3.3943   3.3952   3.4186   3.4247   3.4321
  3.4453   3.4511   3.4569   3.4714   3.4812   3.4888   3.4928   3.5000
  3.5180   3.5269   3.5379   3.5456   3.5495   3.5637   3.5668   3.5766
  3.5840   3.6004   3.6161   3.6213   3.6298   3.6426   3.6447   3.6526
  3.6634   3.6750   3.6855   3.6991   3.7079   3.7252   3.7296   3.7314
  3.7426   3.7535   3.7576   3.7813   3.7919   3.7991   3.8023   3.8223
  3.8380   3.8409   3.8518   3.8677   3.8798   3.8878   3.9064   3.9100
  3.9332   3.9425   3.9509   3.9590   3.9803   3.9938   4.0071   4.0095
  4.0199   4.0369   4.0426   4.0543   4.0670   4.0768   4.0882   4.0993
  4.1257   4.1277   4.1412   4.1478   4.1582   4.1757   4.1932   4.1974
  4.2135   4.2169   4.2248   4.2437   4.2501   4.2578   4.2618   4.2837
  4.2996   4.3060   4.3098   4.3246   4.3370   4.3483   4.3553   4.3682
  4.3812   4.3866   4.4006   4.4088   4.4161   4.4211   4.4351   4.4451
  4.4565   4.4683   4.4757   4.4863   4.5122   4.5190   4.5321   4.5420
  4.5710   4.6061   4.6099   4.6200   4.6330   4.6517   4.6566   4.6672
  4.6812   4.7165   4.7380   4.7562   4.7762   4.8086   4.8193   4.8359
  4.8529   4.8665   4.9009   4.9117   4.9345   4.9612   4.9753   4.9806
  5.0034   5.0499   5.0910   5.1101   5.1215   5.1314   5.1521   5.1631
  5.2029   5.2117   5.2344   5.2686   5.2789   5.2880   5.3080   5.3277
  5.3388   5.3592   5.3777   5.3915   5.4103   5.4304   5.4385   5.4492
  5.4732   5.5206   5.5225   5.5417   5.5494   5.5594   5.5725   5.5998
  5.6177   5.6224   5.6259   5.6554   5.6657   5.6937   5.7100   5.7340
  5.7750   5.7955   5.8352   5.9662   6.0102   6.0975   6.1340   6.1565
  6.2093   6.2221   6.2272   6.2314   6.2527   6.2808   6.3008   6.3250
  6.3811   6.5105   9.4014  10.5395  12.0043  12.9555  13.1778  13.9105
 14.0816  14.1920  14.3698  14.8145
 --------------------------------------------------------------
 
          Ground-State Mulliken Net Atomic Charges

     Atom                 Charge (a.u.)
  ----------------------------------------
      1 C                    -0.076872
      2 C                    -0.329396
      3 C                    -0.022446
      4 H                     0.177394
      5 C                     0.083790
      6 S                    -0.175762
      7 C                    -0.267819
      8 H                     0.114984
      9 H                     0.099548
     10 H                     0.110064
     11 C                    -0.078043
     12 C                    -0.243018
     13 C                     0.016918
     14 H                     0.183470
     15 C                    -0.238879
     16 S                     0.005924
     17 C                    -0.271923
     18 H                     0.101939
     19 H                     0.108829
     20 H                     0.108118
     21 H                     0.197349
     22 H                     0.111762
     23 H                     0.111916
     24 H                     0.172153
  ----------------------------------------
  Sum of atomic charges =     0.000000

 -----------------------------------------------------------------
                    Cartesian Multipole Moments
 -----------------------------------------------------------------
    Charge (ESU x 10^10)
                -0.0000
    Dipole Moment (Debye)
         X       2.1680      Y       0.5146      Z       3.0916
       Tot       3.8110
    Quadrupole Moments (Debye-Ang)
        XX     -91.4552     XY      -2.0489     YY     -73.7051
        XZ      -0.0891     YZ      -1.3553     ZZ     -86.2663
    Octopole Moments (Debye-Ang^2)
       XXX     -16.8826    XXY      41.0244    XYY      -4.5317
       YYY     125.6509    XXZ      -0.2279    XYZ      -1.0505
       YYZ      -2.8014    XZZ      -6.8541    YZZ      55.6860
       ZZZ      -3.1480
    Hexadecapole Moments (Debye-Ang^3)
      XXXX    -641.7008   XXXY     -67.0398   XXYY    -610.9547
      XYYY     -26.5796   YYYY   -2777.2843   XXXZ     -95.5000
      XXYZ     -44.6823   XYYZ     -27.0929   YYYZ    -116.4279
      XXZZ    -219.4893   XYZZ     -12.7356   YYZZ    -608.6619
      XZZZ    -104.7821   YZZZ     -98.8633   ZZZZ    -615.9597
 -----------------------------------------------------------------
 Total job time:  61.25s(wall), 1916.53s(cpu) 
 Fri Dec 15 14:05:51 2023

        *************************************************************
        *                                                           *
        *  Thank you very much for using Q-Chem.  Have a nice day.  *
        *                                                           *
        *************************************************************


0 sent ACK to 0 
now end server 0 ... 
cleanup process ... done
remove work dirs ./qchem2815278.0 -- ./qchem2815278.0
rm -rf ./qchem2815278.0
rm -rf ./qchem2815278
