You are running Q-Chem version: 5.4.0

#
# job setting
#
local host:  exp-9-54
current dir: /home/rramji/project-csd799/aromodel/p3ht-qchem/hydrogenated-rotation-run
input file:  Methylthiophene_Phi_30_Theta_10_Methylthiophene_Hydrogenated.qcin
output file: 
nprocs     : 1
nthreads   : 64
#
# qchem installation setting
#
QC:          /cm/shared/apps/spack/cpu/opt/spack/linux-centos8-zen2/gcc-10.2.0/qchem-5.4-akfmr7b3t57bfs6qan3padb2wnb2i7cl
QCAUX:       /cm/shared/apps/spack/cpu/opt/spack/linux-centos8-zen2/gcc-10.2.0/qchem-5.4-akfmr7b3t57bfs6qan3padb2wnb2i7cl/qcaux
QCPROG:      /cm/shared/apps/spack/cpu/opt/spack/linux-centos8-zen2/gcc-10.2.0/qchem-5.4-akfmr7b3t57bfs6qan3padb2wnb2i7cl/exe/qcprog.exe
QCPROG_S:    /cm/shared/apps/spack/cpu/opt/spack/linux-centos8-zen2/gcc-10.2.0/qchem-5.4-akfmr7b3t57bfs6qan3padb2wnb2i7cl/exe/qcprog.exe_s
PARALLEL:    -DPARALLEL
QCMPI:       mpich
#
# qchem directory setting
#
qcrun:       qchem3687144
QCSCRATCH:   .
QCLOCALSCR:  
QCTMPDIR:    .
QCFILEPREF:  ./qchem3687144
QCSAVEDIR:   
workdirs:    ./qchem3687144
workdir0:    ./qchem3687144
partmpdirs =  
#
# parallel setting
#
QCRSH:           ssh
QCMPI:           mpich
QCMPIRUN:        /cm/shared/apps/spack/cpu/opt/spack/linux-centos8-zen2/gcc-10.2.0/qchem-5.4-akfmr7b3t57bfs6qan3padb2wnb2i7cl/bin/mpi/mpirun_qchem
QCMACHINEFILE:   ./qchem3687144/hostfile
exp-9-54

#
# env setting
#
exported envs:   QC QCAUX QCSCRATCH QCRUNNAME QCFILEPREF QCPROG QCPROG_S GUIFILE

Running Job 1 of 1 Methylthiophene_Phi_30_Theta_10_Methylthiophene_Hydrogenated.qcin
qchem Methylthiophene_Phi_30_Theta_10_Methylthiophene_Hydrogenated.qcin_3687144.0 ./qchem3687144/ 1
/cm/shared/apps/spack/cpu/opt/spack/linux-centos8-zen2/gcc-10.2.0/qchem-5.4-akfmr7b3t57bfs6qan3padb2wnb2i7cl/bin/mpi/mpirun_qchem -machinefile ./qchem3687144/hostfile -np 1 /cm/shared/apps/spack/cpu/opt/spack/linux-centos8-zen2/gcc-10.2.0/qchem-5.4-akfmr7b3t57bfs6qan3padb2wnb2i7cl/exe/qcprog.exe Methylthiophene_Phi_30_Theta_10_Methylthiophene_Hydrogenated.qcin_3687144.0 ./qchem3687144/

Process 0 of 1 is on exp-9-54 - thread support 0
initial socket setup ...start
initial socket setup ...done 
now start server 0 ... 
                  Welcome to Q-Chem
     A Quantum Leap Into The Future Of Chemistry


 Q-Chem 5.4, Q-Chem, Inc., Pleasanton, CA (2021)

 License issued to: University of California, San Diego (site)

 E. Epifanovsky,  A. T. B. Gilbert,  Xintian Feng,  Joonho Lee,  Yuezhi Mao,  
 N. Mardirossian,  P. Pokhilko,  A. White,  M. Wormit,  M. P. Coons,  
 A. L. Dempwolff,  Zhengting Gan,  D. Hait,  P. R. Horn,  L. D. Jacobson,  
 I. Kaliman,  J. Kussmann,  A. W. Lange,  Ka Un Lao,  D. S. Levine,  Jie Liu,  
 S. C. McKenzie,  A. F. Morrison,  K. Nanda,  F. Plasser,  D. R. Rehn,  
 M. L. Vidal,  Zhi-Qiang You,  Ying Zhu,  B. Alam,  B. Albrecht,  
 A. Aldossary,  E. Alguire,  J. H. Andersen,  D. Barton,  K. Begam,  A. Behn,  
 Y. A. Bernard,  E. J. Berquist,  H. Burton,  A. Carreras,  K. Carter-Fenk,  
 R. Chakraborty,  A. D. Chien,  K. D. Closser,  V. Cofer-Shabica,  
 S. Dasgupta,  Jia Deng,  M. de Wergifosse,  M. Diedenhofen,  Hainam Do,  
 S. Ehlert,  Po-Tung Fang,  S. Fatehi,  Qingguo Feng,  J. Gayvert,  
 Qinghui Ge,  G. Gidofalvi,  M. Goldey,  J. Gomes,  C. Gonzalez-Espinoza,  
 S. Gulania,  A. Gunina,  M. W. D. Hanson-Heine,  P. H. P. Harbach,  
 A. W. Hauser,  M. F. Herbst,  M. Hernandez Vera,  M. Hodecker,  
 Z. C. Holden,  S. Houck,  Xunkun Huang,  Kerwin Hui,  B. C. Huynh,  
 M. Ivanov,  Hyunjun Ji,  Hanjie Jiang,  B. Kaduk,  S. Kaehler,  
 K. Khistyaev,  Jaehoon Kim,  P. Klunzinger,  Z. Koczor-Benda,  
 Joong Hoon Koh,  D. Kosenkov,  L. Koulias,  T. Kowalczyk,  C. M. Krauter,  
 K. Kue,  A. Kunitsa,  T. Kus,  A. Landau,  K. V. Lawler,  D. Lefrancois,  
 S. Lehtola,  Rain Li,  Yi-Pei Li,  Jiashu Liang,  M. Liebenthal,  
 Hung-Hsuan Lin,  You-Sheng Lin,  Fenglai Liu,  Kuan-Yu Liu,  
 M. Loipersberger,  A. Luenser,  A. Manjanath,  P. Manohar,  E. Mansoor,  
 S. F. Manzer,  Shan-Ping Mao,  A. V. Marenich,  T. Markovich,  S. Mason,  
 S. A. Maurer,  P. F. McLaughlin,  M. F. S. J. Menger,  J.-M. Mewes,  
 S. A. Mewes,  P. Morgante,  J. W. Mullinax,  T. S. Nguyen-Beck,  
 K. J. Oosterbaan,  G. Paran,  Alexander C. Paul,  Suranjan K. Paul,  
 F. Pavosevic,  Zheng Pei,  S. Prager,  E. I. Proynov,  E. Ramos,  B. Rana,  
 A. E. Rask,  A. Rettig,  R. M. Richard,  F. Rob,  E. Rossomme,  T. Scheele,  
 M. Scheurer,  M. Schneider,  N. Sergueev,  S. M. Sharada,  W. Skomorowski,  
 D. W. Small,  C. J. Stein,  Yu-Chuan Su,  E. J. Sundstrom,  Zhen Tao,  
 J. Thirman,  T. Tsuchimochi,  N. M. Tubman,  S. P. Veccham,  O. Vydrov,  
 J. Wenzel,  J. Witte,  A. Yamada,  Kun Yao,  S. Yeganeh,  S. R. Yost,  
 A. Zech,  Igor Ying Zhang,  Xing Zhang,  Yu Zhang,  D. Zuev,  
 A. Aspuru-Guzik,  A. T. Bell,  N. A. Besley,  K. B. Bravaya,  B. R. Brooks,  
 D. Casanova,  Jeng-Da Chai,  S. Coriani,  C. J. Cramer,  
 A. E. DePrince, III,  R. A. DiStasio Jr.,  A. Dreuw,  B. D. Dunietz,  
 T. R. Furlani,  W. A. Goddard III,  S. Grimme,  S. Hammes-Schiffer,  
 T. Head-Gordon,  W. J. Hehre,  Chao-Ping Hsu,  T.-C. Jagau,  Yousung Jung,  
 A. Klamt,  Jing Kong,  D. S. Lambrecht,  WanZhen Liang,  N. J. Mayhall,  
 C. W. McCurdy,  J. B. Neaton,  C. Ochsenfeld,  J. A. Parkhill,  R. Peverati,  
 V. A. Rassolov,  Yihan Shao,  L. V. Slipchenko,  T. Stauch,  R. P. Steele,  
 J. E. Subotnik,  A. J. W. Thom,  A. Tkatchenko,  D. G. Truhlar,  
 T. Van Voorhis,  T. A. Wesolowski,  K. B. Whaley,  H. L. Woodcock III,  
 P. M. Zimmerman,  S. Faraji,  P. M. W. Gill,  M. Head-Gordon,  
 J. M. Herbert,  A. I. Krylov

 Contributors to earlier versions of Q-Chem not listed above: 
 R. D. Adamson,  B. Austin,  R. Baer,  J. Baker,  G. J. O. Beran,  
 K. Brandhorst,  S. T. Brown,  E. F. C. Byrd,  A. K. Chakraborty,  
 G. K. L. Chan,  Chun-Min Chang,  Yunqing Chen,  C.-L. Cheng,  
 Siu Hung Chien,  D. M. Chipman,  D. L. Crittenden,  H. Dachsel,  
 R. J. Doerksen,  A. D. Dutoi,  R. G. Edgar,  J. Fosso-Tande,  
 L. Fusti-Molnar,  D. Ghosh,  A. Ghysels,  A. Golubeva-Zadorozhnaya,  
 J. Gonthier,  M. S. Gordon,  S. R. Gwaltney,  G. Hawkins,  J. E. Herr,  
 A. Heyden,  S. Hirata,  E. G. Hohenstein,  G. Kedziora,  F. J. Keil,  
 C. Kelley,  Jihan Kim,  R. A. King,  R. Z. Khaliullin,  P. P. Korambath,  
 W. Kurlancheek,  A. Laurent,  A. M. Lee,  M. S. Lee,  S. V. Levchenko,  
 Ching Yeh Lin,  D. Liotard,  E. Livshits,  R. C. Lochan,  I. Lotan,  
 L. A. Martinez-Martinez,  P. E. Maslen,  N. Nair,  D. P. O'Neill,  
 D. Neuhauser,  E. Neuscamman,  C. M. Oana,  R. Olivares-Amaya,  R. Olson,  
 T. M. Perrine,  B. Peters,  P. A. Pieniazek,  A. Prociuk,  Y. M. Rhee,  
 J. Ritchie,  M. A. Rohrdanz,  E. Rosta,  N. J. Russ,  H. F. Schaefer III,  
 M. W. Schmidt,  N. E. Schultz,  S. Sharma,  N. Shenvi,  C. D. Sherrill,  
 A. C. Simmonett,  A. Sodt,  T. Stein,  D. Stuck,  K. S. Thanthiriwatte,  
 V. Vanovschi,  L. Vogt,  Tao Wang,  A. Warshel,  M. A. Watson,  
 C. F. Williams,  Q. Wu,  X. Xu,  Jun Yang,  W. Zhang,  Yan Zhao

 Please cite Q-Chem as follows:
 Y. Shao et al., Mol. Phys. 113, 184-215 (2015)
 DOI: 10.1080/00268976.2014.952696

 Q-Chem 5.4.0 for Intel X86 EM64T Linux

 Parts of Q-Chem use Armadillo 9.800.1 (Horizon Scraper).
 http://arma.sourceforge.net/

 Q-Chem begins on Fri Dec 15 13:54:50 2023  

 Host: 
0

     Scratch files written to ./qchem3687144//
 May1621 |scratch|qcdevops|jenkins|workspace|build_RNUM    
 Parallel job on  1  processors
 Processing $rem in /cm/shared/apps/spack/cpu/opt/spack/linux-centos8-zen2/gcc-10.2.0/qchem-5.4-akfmr7b3t57bfs6qan3padb2wnb2i7cl/config/preferences:
 Processing $rem in /home/rramji/.qchemrc:
 Symmetry turned off for PCM/SM12/SMD calculation
 Core orbitals will be frozen

 Checking the input file for inconsistencies... 	...done.

 Q-Chem warning in module forms1/BasisType.C, line 2236:

 You are not using the predefined 5D/6D in this basis set.


--------------------------------------------------------------
User input:
--------------------------------------------------------------
$molecule
0 1
C	-0.126876	-3.887800	0.713264
C	0.113784	-3.701456	-0.651267
C	0.188043	-2.345170	-1.068787
H	0.236019	-4.545233	-1.346782
C	0.000000	-1.450135	-0.000000
S	-0.265612	-2.321334	1.504247
C	0.439357	-1.934439	-2.493059
H	0.554378	-2.819799	-3.147809
H	1.362899	-1.326210	-2.589987
H	-0.394786	-1.325374	-2.899892
C	0.000000	0.000000	0.000000
C	0.419634	0.732990	1.113020
C	1.111057	1.939951	0.820578
H	0.226746	0.396221	2.142881
C	1.234565	2.155183	-0.563588
S	0.482106	0.842416	-1.464748
C	1.640257	2.863718	1.882380
H	1.417524	2.475067	2.894974
H	1.192042	3.876565	1.808137
H	2.740717	2.989259	1.808230
H	1.710720	2.986508	-1.097114
H	0.698744	-4.420219	1.198647
H	-1.069193	-4.419395	0.886933
H	1.063595	-1.450628	0.187526
$end

$rem
JOBTYPE		SP
EXCHANGE	HF
CORRELATION	pRIMP2
BASIS		cc-pvtz
METHOD		rimp2
AUX_BASIS	rimp2-cc-pvtz
SOLVENT_METHOD	PCM
PURECART	11111
SYMMETRY	false
MEM_TOTAL	110000
SCF_CONVERGENCE = 6
THRESH=10
GUI = 2
$end



$solvent
dielectric 4.90
$end
--------------------------------------------------------------
 ----------------------------------------------------------------
             Standard Nuclear Orientation (Angstroms)
    I     Atom           X                Y                Z
 ----------------------------------------------------------------
    1      C      -0.1268760000    -3.8878000000     0.7132640000
    2      C       0.1137840000    -3.7014560000    -0.6512670000
    3      C       0.1880430000    -2.3451700000    -1.0687870000
    4      H       0.2360190000    -4.5452330000    -1.3467820000
    5      C       0.0000000000    -1.4501350000     0.0000000000
    6      S      -0.2656120000    -2.3213340000     1.5042470000
    7      C       0.4393570000    -1.9344390000    -2.4930590000
    8      H       0.5543780000    -2.8197990000    -3.1478090000
    9      H       1.3628990000    -1.3262100000    -2.5899870000
   10      H      -0.3947860000    -1.3253740000    -2.8998920000
   11      C       0.0000000000     0.0000000000     0.0000000000
   12      C       0.4196340000     0.7329900000     1.1130200000
   13      C       1.1110570000     1.9399510000     0.8205780000
   14      H       0.2267460000     0.3962210000     2.1428810000
   15      C       1.2345650000     2.1551830000    -0.5635880000
   16      S       0.4821060000     0.8424160000    -1.4647480000
   17      C       1.6402570000     2.8637180000     1.8823800000
   18      H       1.4175240000     2.4750670000     2.8949740000
   19      H       1.1920420000     3.8765650000     1.8081370000
   20      H       2.7407170000     2.9892590000     1.8082300000
   21      H       1.7107200000     2.9865080000    -1.0971140000
   22      H       0.6987440000    -4.4202190000     1.1986470000
   23      H      -1.0691930000    -4.4193950000     0.8869330000
   24      H       1.0635950000    -1.4506280000     0.1875260000
 ----------------------------------------------------------------
 Nuclear Repulsion Energy =         883.07700119 hartrees
 There are       52 alpha and       52 beta electrons
 Requested basis set is cc-pVTZ
 There are 196 shells and 536 basis functions

 Total QAlloc Memory Limit 110000 MB
 Mega-Array Size       188 MB
 MEM_STATIC part       192 MB
 Discretize the solute cavity surface with Lebedev spheres
	Using 110 Lebedev grid points for each H atom
	Using 194 Lebedev grid points for other atoms
	Atomic van der Waals radii will be scaled by 1.20
 Remove points where switching function is < 1.0e-08
 Keep 1567 surface tesserae and discard 2081 interior tesserae
 Molecular Surface Area = 228.541 Angst**2
 Requested basis set is rimp2-cc-pVTZ
 There are 414 shells and 1414 basis functions
 A cutoff of  1.0D-10 yielded  14119 shell pairs
 There are    102293 function pairs (    131135 Cartesian)
 Smallest overlap matrix eigenvalue = 5.95E-05

 Scale SEOQF with 1.000000e-01/1.000000e-01/1.000000e-01

 Standard Electronic Orientation quadrupole field applied
 Nucleus-field energy     =     0.0000000197 hartrees
 Guess from superposition of atomic densities
 Warning:  Energy on first SCF cycle will be non-variational
 SAD guess density has 104.000000 electrons

 -----------------------------------------------------------------------
  General SCF calculation program by
  Eric Jon Sundstrom, Paul Horn, Yuezhi Mao, Dmitri Zuev, Alec White,
  David Stuck, Shaama M.S., Shane Yost, Joonho Lee, David Small,
  Daniel Levine, Susi Lehtola, Hugh Burton, Evgeny Epifanovsky,
  Bang C. Huynh
 -----------------------------------------------------------------------
 Hartree-Fock
 using 64 threads for integral computing
 -------------------------------------------------------
 OpenMP Integral computing Module                
 Release: version 1.0, May 2013, Q-Chem Inc. Pittsburgh 
 -------------------------------------------------------
 A restricted SCF calculation will be
 performed using DIIS
 SCF converges when DIIS error is below 1.0e-06
 ---------------------------------------
  Cycle       Energy         DIIS error
 ---------------------------------------
    1   -1186.0847761506      2.39e-02  
    2   -1180.5903915402      1.59e-03  
    3   -1180.7172269185      6.56e-04  
    4   -1180.7332546905      3.52e-04  
    5   -1180.7389888189      6.14e-05  
    6   -1180.7392468335      2.49e-05  
    7   -1180.7393056132      8.64e-06  
    8   -1180.7393171645      4.04e-06  
    9   -1180.7393196495      1.43e-06  
   10   -1180.7393200722      5.18e-07  Convergence criterion met
 ---------------------------------------
 SCF time:   CPU 1664.24s  wall 50.00s 

************** Final PCM Free Energy Summary **************
 G_electrostatic  =      -0.00797035 hartree =      -5.00147048 kcal/mol
 G_cavitation     =       0.00000000 hartree =       0.00000000 kcal/mol
 G_dispersion     =       0.00000000 hartree =       0.00000000 kcal/mol
 G_repulsion      =       0.00000000 hartree =       0.00000000 kcal/mol
 --------------------------------------------------
 Non-electrostatic Free Energy =       0.00000000 hartree =       0.00000000 kcal/mol
 Total                         =      -0.00797035 hartree =      -5.00147048 kcal/mol
 --------------------------------------------------
 SCF Energy (H0 + V/2)                       =   -1180.73932007 
 Solute Internal Energy (H0)                 =   -1180.73134972 
 Total Free Energy (H0 + V/2 + non-elec)     =   -1180.73932007 hartree
                                             = -740925.10612740 kcal/mol
***********************************************************

 SCF   energy in the final basis set =    -1180.7393200722
 Total energy in the final basis set =    -1180.7393200722


 --------------------------------------------------------------
  Generalized many-body perturbation theory program
  by Joonho Lee, Fazle Rob, Xintian Feng, Evgeny Epifanovsky

 No regularization used 
 (reg. param. = 0.0000e+00)
  (P|Q)^-1/2 Time:  CPU 27.42 s  wall 0.47 s

 In RI-MP2 calculation: 
 # of frozen core orbitals: 20

 Components of the RIMP2 correlation energy:
        aaaa    correlation energy =        -0.2526118541 a.u.
        abab    correlation energy =        -1.5062862405 a.u.
        bbbb    correlation energy =        -0.2526118541 a.u.
        non-Brillouin singles      =        -0.0000000000 a.u.
        total same-spin energy     =        -0.5052237081 a.u.
        total opposite-spin energy =        -1.5062862405 a.u.

 Total  RIMP2   correlation energy =        -2.0115099486 a.u.
        RIMP2         total energy =     -1182.7508300208 a.u.

 RI-MP2 Energy Time:  CPU 176.29 s  wall 3.52 s
 
 --------------------------------------------------------------
 
                    Orbital Energies (a.u.)
 --------------------------------------------------------------
 
 Alpha MOs
 -- Occupied --
-91.9802 -91.9453 -11.2861 -11.2637 -11.2615 -11.2576 -11.2504 -11.2436
-11.2316 -11.2305 -11.2279 -11.2210  -8.9806  -8.9498  -6.6615  -6.6609
 -6.6603  -6.6312  -6.6302  -6.6290  -1.2032  -1.1524  -1.0598  -1.0276
 -1.0067  -0.9553  -0.9150  -0.9027  -0.8110  -0.7717  -0.7181  -0.7027
 -0.6620  -0.6470  -0.6116  -0.5882  -0.5826  -0.5723  -0.5688  -0.5534
 -0.5416  -0.5328  -0.5166  -0.5124  -0.4912  -0.4763  -0.4553  -0.4441
 -0.3577  -0.3404  -0.3268  -0.2632
 -- Virtual --
  0.0928   0.1343   0.1453   0.1532   0.1610   0.1726   0.1735   0.1840
  0.1934   0.1978   0.1996   0.2047   0.2239   0.2344   0.2392   0.2469
  0.2493   0.2698   0.2769   0.3059   0.3187   0.3354   0.3536   0.3666
  0.3694   0.3750   0.3754   0.3914   0.4083   0.4115   0.4209   0.4360
  0.4458   0.4523   0.4579   0.4639   0.4784   0.4796   0.4872   0.4935
  0.5057   0.5129   0.5193   0.5342   0.5378   0.5433   0.5560   0.5593
  0.5653   0.5821   0.5935   0.5960   0.5980   0.6154   0.6179   0.6219
  0.6233   0.6261   0.6353   0.6382   0.6391   0.6492   0.6534   0.6571
  0.6673   0.6697   0.6844   0.6859   0.6945   0.7112   0.7241   0.7249
  0.7317   0.7601   0.7709   0.7749   0.7855   0.7933   0.8113   0.8221
  0.8391   0.8417   0.8543   0.8573   0.8741   0.8942   0.9076   0.9238
  0.9276   0.9343   0.9567   0.9615   0.9736   0.9799   0.9966   0.9975
  1.0174   1.0266   1.0292   1.0501   1.0559   1.0626   1.0763   1.0791
  1.0941   1.1102   1.1279   1.1369   1.1457   1.1494   1.1571   1.1702
  1.1786   1.1831   1.1974   1.2100   1.2170   1.2260   1.2310   1.2406
  1.2612   1.2653   1.2722   1.2776   1.2858   1.2923   1.2994   1.3127
  1.3208   1.3267   1.3452   1.3625   1.3771   1.3983   1.4034   1.4125
  1.4380   1.4427   1.4447   1.4550   1.4639   1.4777   1.4886   1.4985
  1.5073   1.5171   1.5214   1.5278   1.5364   1.5386   1.5496   1.5524
  1.5622   1.5777   1.5812   1.5936   1.6084   1.6325   1.6453   1.6513
  1.6614   1.6645   1.6818   1.6897   1.7003   1.7150   1.7215   1.7333
  1.7373   1.7776   1.7861   1.7986   1.8008   1.8232   1.8425   1.8494
  1.8893   1.9068   1.9353   1.9474   1.9585   1.9760   1.9867   2.0217
  2.0377   2.0536   2.0587   2.0676   2.0911   2.1071   2.1251   2.1528
  2.1843   2.2032   2.2103   2.2176   2.2259   2.2477   2.2822   2.2877
  2.3054   2.3278   2.3582   2.3798   2.4049   2.4470   2.4630   2.4677
  2.4930   2.5174   2.5315   2.5418   2.5571   2.5913   2.5994   2.6126
  2.6409   2.6531   2.6617   2.6667   2.6807   2.6940   2.7035   2.7257
  2.7443   2.7493   2.7598   2.7741   2.7898   2.7982   2.8173   2.8285
  2.8341   2.8446   2.8540   2.8760   2.8840   2.9063   2.9315   2.9530
  2.9651   2.9726   2.9884   2.9993   3.0090   3.0177   3.0274   3.0423
  3.0649   3.0791   3.0871   3.1072   3.1147   3.1207   3.1321   3.1461
  3.1551   3.1594   3.1695   3.1780   3.1874   3.1962   3.2122   3.2213
  3.2229   3.2401   3.2477   3.2551   3.2704   3.2803   3.2924   3.3007
  3.3127   3.3199   3.3295   3.3369   3.3429   3.3517   3.3620   3.3685
  3.3723   3.3809   3.3842   3.4025   3.4100   3.4194   3.4254   3.4319
  3.4380   3.4438   3.4628   3.4682   3.4743   3.4933   3.4977   3.5087
  3.5139   3.5271   3.5331   3.5383   3.5491   3.5575   3.5810   3.5890
  3.5948   3.6134   3.6203   3.6244   3.6350   3.6405   3.6523   3.6587
  3.6779   3.6931   3.7038   3.7107   3.7153   3.7247   3.7355   3.7460
  3.7489   3.7544   3.7680   3.7830   3.7941   3.7977   3.8146   3.8170
  3.8236   3.8468   3.8521   3.8618   3.8673   3.8861   3.9035   3.9119
  3.9428   3.9493   3.9553   3.9672   3.9826   3.9911   4.0057   4.0168
  4.0294   4.0350   4.0498   4.0659   4.0699   4.0846   4.1098   4.1148
  4.1263   4.1351   4.1450   4.1551   4.1599   4.1765   4.1979   4.2092
  4.2105   4.2171   4.2366   4.2414   4.2485   4.2631   4.2702   4.2847
  4.2976   4.3079   4.3291   4.3380   4.3449   4.3521   4.3652   4.3702
  4.3883   4.3999   4.4022   4.4099   4.4148   4.4294   4.4376   4.4509
  4.4640   4.4830   4.4920   4.5009   4.5051   4.5239   4.5526   4.5769
  4.5786   4.5977   4.6064   4.6370   4.6426   4.6587   4.6652   4.6804
  4.7120   4.7282   4.7361   4.7524   4.7845   4.8068   4.8155   4.8419
  4.8582   4.8681   4.8952   4.9098   4.9212   4.9540   4.9679   4.9952
  5.0273   5.0558   5.0895   5.0974   5.1175   5.1262   5.1682   5.1810
  5.1902   5.2130   5.2164   5.2687   5.2849   5.2894   5.3076   5.3122
  5.3440   5.3611   5.3851   5.3964   5.4087   5.4235   5.4418   5.4561
  5.4974   5.5017   5.5265   5.5411   5.5552   5.5634   5.5674   5.5766
  5.6240   5.6325   5.6386   5.6672   5.6754   5.6982   5.7040   5.7239
  5.7652   5.7943   5.8404   5.9604   6.0021   6.0809   6.1299   6.1513
  6.2285   6.2326   6.2350   6.2442   6.2725   6.2853   6.2913   6.3060
  6.4206   6.4283   9.4082  10.5806  12.0973  12.9051  13.1726  13.8658
 14.1257  14.2695  14.3554  14.7529
 --------------------------------------------------------------
 
          Ground-State Mulliken Net Atomic Charges

     Atom                 Charge (a.u.)
  ----------------------------------------
      1 C                    -0.073740
      2 C                    -0.318497
      3 C                    -0.045730
      4 H                     0.179175
      5 C                     0.089481
      6 S                    -0.191174
      7 C                    -0.303028
      8 H                     0.116905
      9 H                     0.113242
     10 H                     0.113178
     11 C                    -0.002158
     12 C                    -0.301245
     13 C                     0.044137
     14 H                     0.177705
     15 C                    -0.275286
     16 S                     0.013225
     17 C                    -0.269711
     18 H                     0.102981
     19 H                     0.108650
     20 H                     0.107230
     21 H                     0.197245
     22 H                     0.111098
     23 H                     0.113051
     24 H                     0.193265
  ----------------------------------------
  Sum of atomic charges =     0.000000

 -----------------------------------------------------------------
                    Cartesian Multipole Moments
 -----------------------------------------------------------------
    Charge (ESU x 10^10)
                -0.0000
    Dipole Moment (Debye)
         X       2.0695      Y      -0.3247      Z      -0.9401
       Tot       2.2961
    Quadrupole Moments (Debye-Ang)
        XX     -89.2725     XY       2.2475     YY     -76.3085
        XZ       0.7235     YZ       4.2428     ZZ     -85.3602
    Octopole Moments (Debye-Ang^2)
       XXX    -106.2210    XXY      62.5661    XYY     -19.4088
       YYY     134.5108    XXZ      -0.6560    XYZ      -0.3873
       YYZ      -1.3482    XZZ     -29.4598    YZZ      58.3088
       ZZZ      -4.5788
    Hexadecapole Moments (Debye-Ang^3)
      XXXX    -398.8890   XXXY    -205.2539   XXYY    -533.8737
      XYYY    -180.0918   YYYY   -2582.9950   XXXZ       0.9085
      XXYZ     -34.2755   XYYZ      -9.0252   YYYZ    -102.0649
      XXZZ    -253.8409   XYZZ     -67.1412   YYZZ    -628.5464
      XZZZ      -5.7591   YZZZ     -59.5997   ZZZZ   -1083.7219
 -----------------------------------------------------------------
 Total job time:  55.17s(wall), 1910.20s(cpu) 
 Fri Dec 15 13:55:46 2023

        *************************************************************
        *                                                           *
        *  Thank you very much for using Q-Chem.  Have a nice day.  *
        *                                                           *
        *************************************************************


0 sent ACK to 0 
now end server 0 ... 
cleanup process ... done
remove work dirs ./qchem3687144.0 -- ./qchem3687144.0
rm -rf ./qchem3687144.0
rm -rf ./qchem3687144
