You are running Q-Chem version: 5.4.0

#
# job setting
#
local host:  exp-7-18
current dir: /home/rramji/project-csd799/aromodel/p3ht-qchem/hydrogenated-rotation-run
input file:  Methylthiophene_Phi_10_Theta_130_Methylthiophene_Hydrogenated.qcin
output file: 
nprocs     : 1
nthreads   : 64
#
# qchem installation setting
#
QC:          /cm/shared/apps/spack/cpu/opt/spack/linux-centos8-zen2/gcc-10.2.0/qchem-5.4-akfmr7b3t57bfs6qan3padb2wnb2i7cl
QCAUX:       /cm/shared/apps/spack/cpu/opt/spack/linux-centos8-zen2/gcc-10.2.0/qchem-5.4-akfmr7b3t57bfs6qan3padb2wnb2i7cl/qcaux
QCPROG:      /cm/shared/apps/spack/cpu/opt/spack/linux-centos8-zen2/gcc-10.2.0/qchem-5.4-akfmr7b3t57bfs6qan3padb2wnb2i7cl/exe/qcprog.exe
QCPROG_S:    /cm/shared/apps/spack/cpu/opt/spack/linux-centos8-zen2/gcc-10.2.0/qchem-5.4-akfmr7b3t57bfs6qan3padb2wnb2i7cl/exe/qcprog.exe_s
PARALLEL:    -DPARALLEL
QCMPI:       mpich
#
# qchem directory setting
#
qcrun:       qchem2325982
QCSCRATCH:   .
QCLOCALSCR:  
QCTMPDIR:    .
QCFILEPREF:  ./qchem2325982
QCSAVEDIR:   
workdirs:    ./qchem2325982
workdir0:    ./qchem2325982
partmpdirs =  
#
# parallel setting
#
QCRSH:           ssh
QCMPI:           mpich
QCMPIRUN:        /cm/shared/apps/spack/cpu/opt/spack/linux-centos8-zen2/gcc-10.2.0/qchem-5.4-akfmr7b3t57bfs6qan3padb2wnb2i7cl/bin/mpi/mpirun_qchem
QCMACHINEFILE:   ./qchem2325982/hostfile
exp-7-18

#
# env setting
#
exported envs:   QC QCAUX QCSCRATCH QCRUNNAME QCFILEPREF QCPROG QCPROG_S GUIFILE

Running Job 1 of 1 Methylthiophene_Phi_10_Theta_130_Methylthiophene_Hydrogenated.qcin
qchem Methylthiophene_Phi_10_Theta_130_Methylthiophene_Hydrogenated.qcin_2325982.0 ./qchem2325982/ 1
/cm/shared/apps/spack/cpu/opt/spack/linux-centos8-zen2/gcc-10.2.0/qchem-5.4-akfmr7b3t57bfs6qan3padb2wnb2i7cl/bin/mpi/mpirun_qchem -machinefile ./qchem2325982/hostfile -np 1 /cm/shared/apps/spack/cpu/opt/spack/linux-centos8-zen2/gcc-10.2.0/qchem-5.4-akfmr7b3t57bfs6qan3padb2wnb2i7cl/exe/qcprog.exe Methylthiophene_Phi_10_Theta_130_Methylthiophene_Hydrogenated.qcin_2325982.0 ./qchem2325982/

Process 0 of 1 is on exp-7-18 - thread support 0
initial socket setup ...start
initial socket setup ...done 
now start server 0 ... 
                  Welcome to Q-Chem
     A Quantum Leap Into The Future Of Chemistry


 Q-Chem 5.4, Q-Chem, Inc., Pleasanton, CA (2021)

 License issued to: University of California, San Diego (site)

 E. Epifanovsky,  A. T. B. Gilbert,  Xintian Feng,  Joonho Lee,  Yuezhi Mao,  
 N. Mardirossian,  P. Pokhilko,  A. White,  M. Wormit,  M. P. Coons,  
 A. L. Dempwolff,  Zhengting Gan,  D. Hait,  P. R. Horn,  L. D. Jacobson,  
 I. Kaliman,  J. Kussmann,  A. W. Lange,  Ka Un Lao,  D. S. Levine,  Jie Liu,  
 S. C. McKenzie,  A. F. Morrison,  K. Nanda,  F. Plasser,  D. R. Rehn,  
 M. L. Vidal,  Zhi-Qiang You,  Ying Zhu,  B. Alam,  B. Albrecht,  
 A. Aldossary,  E. Alguire,  J. H. Andersen,  D. Barton,  K. Begam,  A. Behn,  
 Y. A. Bernard,  E. J. Berquist,  H. Burton,  A. Carreras,  K. Carter-Fenk,  
 R. Chakraborty,  A. D. Chien,  K. D. Closser,  V. Cofer-Shabica,  
 S. Dasgupta,  Jia Deng,  M. de Wergifosse,  M. Diedenhofen,  Hainam Do,  
 S. Ehlert,  Po-Tung Fang,  S. Fatehi,  Qingguo Feng,  J. Gayvert,  
 Qinghui Ge,  G. Gidofalvi,  M. Goldey,  J. Gomes,  C. Gonzalez-Espinoza,  
 S. Gulania,  A. Gunina,  M. W. D. Hanson-Heine,  P. H. P. Harbach,  
 A. W. Hauser,  M. F. Herbst,  M. Hernandez Vera,  M. Hodecker,  
 Z. C. Holden,  S. Houck,  Xunkun Huang,  Kerwin Hui,  B. C. Huynh,  
 M. Ivanov,  Hyunjun Ji,  Hanjie Jiang,  B. Kaduk,  S. Kaehler,  
 K. Khistyaev,  Jaehoon Kim,  P. Klunzinger,  Z. Koczor-Benda,  
 Joong Hoon Koh,  D. Kosenkov,  L. Koulias,  T. Kowalczyk,  C. M. Krauter,  
 K. Kue,  A. Kunitsa,  T. Kus,  A. Landau,  K. V. Lawler,  D. Lefrancois,  
 S. Lehtola,  Rain Li,  Yi-Pei Li,  Jiashu Liang,  M. Liebenthal,  
 Hung-Hsuan Lin,  You-Sheng Lin,  Fenglai Liu,  Kuan-Yu Liu,  
 M. Loipersberger,  A. Luenser,  A. Manjanath,  P. Manohar,  E. Mansoor,  
 S. F. Manzer,  Shan-Ping Mao,  A. V. Marenich,  T. Markovich,  S. Mason,  
 S. A. Maurer,  P. F. McLaughlin,  M. F. S. J. Menger,  J.-M. Mewes,  
 S. A. Mewes,  P. Morgante,  J. W. Mullinax,  T. S. Nguyen-Beck,  
 K. J. Oosterbaan,  G. Paran,  Alexander C. Paul,  Suranjan K. Paul,  
 F. Pavosevic,  Zheng Pei,  S. Prager,  E. I. Proynov,  E. Ramos,  B. Rana,  
 A. E. Rask,  A. Rettig,  R. M. Richard,  F. Rob,  E. Rossomme,  T. Scheele,  
 M. Scheurer,  M. Schneider,  N. Sergueev,  S. M. Sharada,  W. Skomorowski,  
 D. W. Small,  C. J. Stein,  Yu-Chuan Su,  E. J. Sundstrom,  Zhen Tao,  
 J. Thirman,  T. Tsuchimochi,  N. M. Tubman,  S. P. Veccham,  O. Vydrov,  
 J. Wenzel,  J. Witte,  A. Yamada,  Kun Yao,  S. Yeganeh,  S. R. Yost,  
 A. Zech,  Igor Ying Zhang,  Xing Zhang,  Yu Zhang,  D. Zuev,  
 A. Aspuru-Guzik,  A. T. Bell,  N. A. Besley,  K. B. Bravaya,  B. R. Brooks,  
 D. Casanova,  Jeng-Da Chai,  S. Coriani,  C. J. Cramer,  
 A. E. DePrince, III,  R. A. DiStasio Jr.,  A. Dreuw,  B. D. Dunietz,  
 T. R. Furlani,  W. A. Goddard III,  S. Grimme,  S. Hammes-Schiffer,  
 T. Head-Gordon,  W. J. Hehre,  Chao-Ping Hsu,  T.-C. Jagau,  Yousung Jung,  
 A. Klamt,  Jing Kong,  D. S. Lambrecht,  WanZhen Liang,  N. J. Mayhall,  
 C. W. McCurdy,  J. B. Neaton,  C. Ochsenfeld,  J. A. Parkhill,  R. Peverati,  
 V. A. Rassolov,  Yihan Shao,  L. V. Slipchenko,  T. Stauch,  R. P. Steele,  
 J. E. Subotnik,  A. J. W. Thom,  A. Tkatchenko,  D. G. Truhlar,  
 T. Van Voorhis,  T. A. Wesolowski,  K. B. Whaley,  H. L. Woodcock III,  
 P. M. Zimmerman,  S. Faraji,  P. M. W. Gill,  M. Head-Gordon,  
 J. M. Herbert,  A. I. Krylov

 Contributors to earlier versions of Q-Chem not listed above: 
 R. D. Adamson,  B. Austin,  R. Baer,  J. Baker,  G. J. O. Beran,  
 K. Brandhorst,  S. T. Brown,  E. F. C. Byrd,  A. K. Chakraborty,  
 G. K. L. Chan,  Chun-Min Chang,  Yunqing Chen,  C.-L. Cheng,  
 Siu Hung Chien,  D. M. Chipman,  D. L. Crittenden,  H. Dachsel,  
 R. J. Doerksen,  A. D. Dutoi,  R. G. Edgar,  J. Fosso-Tande,  
 L. Fusti-Molnar,  D. Ghosh,  A. Ghysels,  A. Golubeva-Zadorozhnaya,  
 J. Gonthier,  M. S. Gordon,  S. R. Gwaltney,  G. Hawkins,  J. E. Herr,  
 A. Heyden,  S. Hirata,  E. G. Hohenstein,  G. Kedziora,  F. J. Keil,  
 C. Kelley,  Jihan Kim,  R. A. King,  R. Z. Khaliullin,  P. P. Korambath,  
 W. Kurlancheek,  A. Laurent,  A. M. Lee,  M. S. Lee,  S. V. Levchenko,  
 Ching Yeh Lin,  D. Liotard,  E. Livshits,  R. C. Lochan,  I. Lotan,  
 L. A. Martinez-Martinez,  P. E. Maslen,  N. Nair,  D. P. O'Neill,  
 D. Neuhauser,  E. Neuscamman,  C. M. Oana,  R. Olivares-Amaya,  R. Olson,  
 T. M. Perrine,  B. Peters,  P. A. Pieniazek,  A. Prociuk,  Y. M. Rhee,  
 J. Ritchie,  M. A. Rohrdanz,  E. Rosta,  N. J. Russ,  H. F. Schaefer III,  
 M. W. Schmidt,  N. E. Schultz,  S. Sharma,  N. Shenvi,  C. D. Sherrill,  
 A. C. Simmonett,  A. Sodt,  T. Stein,  D. Stuck,  K. S. Thanthiriwatte,  
 V. Vanovschi,  L. Vogt,  Tao Wang,  A. Warshel,  M. A. Watson,  
 C. F. Williams,  Q. Wu,  X. Xu,  Jun Yang,  W. Zhang,  Yan Zhao

 Please cite Q-Chem as follows:
 Y. Shao et al., Mol. Phys. 113, 184-215 (2015)
 DOI: 10.1080/00268976.2014.952696

 Q-Chem 5.4.0 for Intel X86 EM64T Linux

 Parts of Q-Chem use Armadillo 9.800.1 (Horizon Scraper).
 http://arma.sourceforge.net/

 Q-Chem begins on Fri Dec 15 14:06:41 2023  

 Host: 
0

     Scratch files written to ./qchem2325982//
 May1621 |scratch|qcdevops|jenkins|workspace|build_RNUM    
 Parallel job on  1  processors
 Processing $rem in /cm/shared/apps/spack/cpu/opt/spack/linux-centos8-zen2/gcc-10.2.0/qchem-5.4-akfmr7b3t57bfs6qan3padb2wnb2i7cl/config/preferences:
 Processing $rem in /home/rramji/.qchemrc:
 Symmetry turned off for PCM/SM12/SMD calculation
 Core orbitals will be frozen

 Checking the input file for inconsistencies... 	...done.

 Q-Chem warning in module forms1/BasisType.C, line 2236:

 You are not using the predefined 5D/6D in this basis set.


--------------------------------------------------------------
User input:
--------------------------------------------------------------
$molecule
0 1
C	-0.554267	-3.887800	-0.466510
C	0.507121	-3.701456	0.424173
C	0.831575	-2.345170	0.697244
H	1.048337	-4.545233	0.877789
C	0.000000	-1.450135	0.000000
S	-1.169911	-2.321334	-0.982150
C	1.939374	-1.934439	1.627024
H	2.448894	-2.819799	2.054010
H	1.561545	-1.326210	2.475299
H	2.708773	-1.325374	1.108051
C	0.000000	0.000000	0.000000
C	0.143630	0.832309	1.113020
C	0.380550	2.202961	0.820578
H	0.077556	0.449877	2.142881
C	0.422995	2.447456	-0.563588
S	0.164909	0.956502	-1.464748
C	0.561888	3.252016	1.882380
H	0.485513	2.810624	2.894974
H	-0.205711	4.050482	1.808137
H	1.553045	3.746365	1.808230
H	0.586105	3.391501	-1.097114
H	-1.387431	-4.420219	0.005807
H	-0.233510	-4.419395	-1.369415
H	-0.694200	-1.450628	0.827337
$end

$rem
JOBTYPE		SP
EXCHANGE	HF
CORRELATION	pRIMP2
BASIS		cc-pvtz
METHOD		rimp2
AUX_BASIS	rimp2-cc-pvtz
SOLVENT_METHOD	PCM
PURECART	11111
SYMMETRY	false
MEM_TOTAL	110000
SCF_CONVERGENCE = 6
THRESH=10
GUI = 2
$end



$solvent
dielectric 4.90
$end
--------------------------------------------------------------
 ----------------------------------------------------------------
             Standard Nuclear Orientation (Angstroms)
    I     Atom           X                Y                Z
 ----------------------------------------------------------------
    1      C      -0.5542670000    -3.8878000000    -0.4665100000
    2      C       0.5071210000    -3.7014560000     0.4241730000
    3      C       0.8315750000    -2.3451700000     0.6972440000
    4      H       1.0483370000    -4.5452330000     0.8777890000
    5      C       0.0000000000    -1.4501350000     0.0000000000
    6      S      -1.1699110000    -2.3213340000    -0.9821500000
    7      C       1.9393740000    -1.9344390000     1.6270240000
    8      H       2.4488940000    -2.8197990000     2.0540100000
    9      H       1.5615450000    -1.3262100000     2.4752990000
   10      H       2.7087730000    -1.3253740000     1.1080510000
   11      C       0.0000000000     0.0000000000     0.0000000000
   12      C       0.1436300000     0.8323090000     1.1130200000
   13      C       0.3805500000     2.2029610000     0.8205780000
   14      H       0.0775560000     0.4498770000     2.1428810000
   15      C       0.4229950000     2.4474560000    -0.5635880000
   16      S       0.1649090000     0.9565020000    -1.4647480000
   17      C       0.5618880000     3.2520160000     1.8823800000
   18      H       0.4855130000     2.8106240000     2.8949740000
   19      H      -0.2057110000     4.0504820000     1.8081370000
   20      H       1.5530450000     3.7463650000     1.8082300000
   21      H       0.5861050000     3.3915010000    -1.0971140000
   22      H      -1.3874310000    -4.4202190000     0.0058070000
   23      H      -0.2335100000    -4.4193950000    -1.3694150000
   24      H      -0.6942000000    -1.4506280000     0.8273370000
 ----------------------------------------------------------------
 Nuclear Repulsion Energy =         873.02324404 hartrees
 There are       52 alpha and       52 beta electrons
 Requested basis set is cc-pVTZ
 There are 196 shells and 536 basis functions

 Total QAlloc Memory Limit 110000 MB
 Mega-Array Size       188 MB
 MEM_STATIC part       192 MB
 Discretize the solute cavity surface with Lebedev spheres
	Using 110 Lebedev grid points for each H atom
	Using 194 Lebedev grid points for other atoms
	Atomic van der Waals radii will be scaled by 1.20
 Remove points where switching function is < 1.0e-08
 Keep 1604 surface tesserae and discard 2044 interior tesserae
 Molecular Surface Area = 235.601 Angst**2
 Requested basis set is rimp2-cc-pVTZ
 There are 414 shells and 1414 basis functions
 A cutoff of  1.0D-10 yielded  14068 shell pairs
 There are    102080 function pairs (    130895 Cartesian)
 Smallest overlap matrix eigenvalue = 5.67E-05

 Scale SEOQF with 1.000000e-01/1.000000e-01/1.000000e-01

 Standard Electronic Orientation quadrupole field applied
 Nucleus-field energy     =     0.0000000304 hartrees
 Guess from superposition of atomic densities
 Warning:  Energy on first SCF cycle will be non-variational
 SAD guess density has 104.000000 electrons

 -----------------------------------------------------------------------
  General SCF calculation program by
  Eric Jon Sundstrom, Paul Horn, Yuezhi Mao, Dmitri Zuev, Alec White,
  David Stuck, Shaama M.S., Shane Yost, Joonho Lee, David Small,
  Daniel Levine, Susi Lehtola, Hugh Burton, Evgeny Epifanovsky,
  Bang C. Huynh
 -----------------------------------------------------------------------
 Hartree-Fock
 using 64 threads for integral computing
 -------------------------------------------------------
 OpenMP Integral computing Module                
 Release: version 1.0, May 2013, Q-Chem Inc. Pittsburgh 
 -------------------------------------------------------
 A restricted SCF calculation will be
 performed using DIIS
 SCF converges when DIIS error is below 1.0e-06
 ---------------------------------------
  Cycle       Energy         DIIS error
 ---------------------------------------
    1   -1186.0073917619      2.38e-02  
    2   -1180.6166152917      1.56e-03  
    3   -1180.7412115092      6.11e-04  
    4   -1180.7555512233      3.36e-04  
    5   -1180.7606999594      5.88e-05  
    6   -1180.7609355545      2.39e-05  
    7   -1180.7609896443      8.53e-06  
    8   -1180.7610014379      4.08e-06  
    9   -1180.7610040835      1.43e-06  
   10   -1180.7610045180      5.03e-07  Convergence criterion met
 ---------------------------------------
 SCF time:   CPU 1647.12s  wall 48.00s 

************** Final PCM Free Energy Summary **************
 G_electrostatic  =      -0.00950148 hartree =      -5.96226845 kcal/mol
 G_cavitation     =       0.00000000 hartree =       0.00000000 kcal/mol
 G_dispersion     =       0.00000000 hartree =       0.00000000 kcal/mol
 G_repulsion      =       0.00000000 hartree =       0.00000000 kcal/mol
 --------------------------------------------------
 Non-electrostatic Free Energy =       0.00000000 hartree =       0.00000000 kcal/mol
 Total                         =      -0.00950148 hartree =      -5.96226845 kcal/mol
 --------------------------------------------------
 SCF Energy (H0 + V/2)                       =   -1180.76100452 
 Solute Internal Energy (H0)                 =   -1180.75150304 
 Total Free Energy (H0 + V/2 + non-elec)     =   -1180.76100452 hartree
                                             = -740938.71332255 kcal/mol
***********************************************************

 SCF   energy in the final basis set =    -1180.7610045180
 Total energy in the final basis set =    -1180.7610045180


 --------------------------------------------------------------
  Generalized many-body perturbation theory program
  by Joonho Lee, Fazle Rob, Xintian Feng, Evgeny Epifanovsky

 No regularization used 
 (reg. param. = 0.0000e+00)
  (P|Q)^-1/2 Time:  CPU 21.32 s  wall 0.34 s

 In RI-MP2 calculation: 
 # of frozen core orbitals: 20

 Components of the RIMP2 correlation energy:
        aaaa    correlation energy =        -0.2513264456 a.u.
        abab    correlation energy =        -1.5030827706 a.u.
        bbbb    correlation energy =        -0.2513264456 a.u.
        non-Brillouin singles      =        -0.0000000000 a.u.
        total same-spin energy     =        -0.5026528912 a.u.
        total opposite-spin energy =        -1.5030827706 a.u.

 Total  RIMP2   correlation energy =        -2.0057356618 a.u.
        RIMP2         total energy =     -1182.7667401798 a.u.

 RI-MP2 Energy Time:  CPU 169.49 s  wall 3.51 s
 
 --------------------------------------------------------------
 
                    Orbital Energies (a.u.)
 --------------------------------------------------------------
 
 Alpha MOs
 -- Occupied --
-91.9818 -91.9435 -11.2842 -11.2640 -11.2614 -11.2581 -11.2512 -11.2424
-11.2387 -11.2318 -11.2294 -11.2206  -8.9816  -8.9481  -6.6625  -6.6619
 -6.6614  -6.6295  -6.6285  -6.6272  -1.1988  -1.1534  -1.0578  -1.0277
 -1.0037  -0.9612  -0.9128  -0.9010  -0.8159  -0.7602  -0.7308  -0.7060
 -0.6592  -0.6437  -0.6111  -0.5907  -0.5841  -0.5707  -0.5609  -0.5535
 -0.5415  -0.5311  -0.5173  -0.5057  -0.4870  -0.4823  -0.4626  -0.4476
 -0.3565  -0.3420  -0.3198  -0.2736
 -- Virtual --
  0.0988   0.1315   0.1435   0.1493   0.1576   0.1701   0.1735   0.1855
  0.1936   0.1984   0.2026   0.2160   0.2201   0.2342   0.2373   0.2427
  0.2539   0.2627   0.2796   0.2982   0.3145   0.3386   0.3448   0.3590
  0.3664   0.3720   0.3850   0.3927   0.3980   0.4122   0.4126   0.4159
  0.4288   0.4414   0.4472   0.4623   0.4706   0.4795   0.4860   0.4936
  0.4965   0.5112   0.5143   0.5264   0.5382   0.5397   0.5464   0.5556
  0.5655   0.5799   0.5869   0.5934   0.5978   0.6071   0.6117   0.6185
  0.6210   0.6273   0.6321   0.6407   0.6431   0.6495   0.6498   0.6567
  0.6604   0.6710   0.6823   0.6900   0.6987   0.7074   0.7159   0.7252
  0.7335   0.7463   0.7574   0.7733   0.7822   0.7847   0.8103   0.8218
  0.8288   0.8317   0.8630   0.8676   0.8793   0.8879   0.9043   0.9138
  0.9285   0.9404   0.9451   0.9580   0.9737   0.9887   1.0026   1.0092
  1.0159   1.0342   1.0394   1.0450   1.0538   1.0616   1.0792   1.0868
  1.0892   1.0965   1.1237   1.1246   1.1304   1.1480   1.1591   1.1714
  1.1834   1.1912   1.2035   1.2096   1.2136   1.2201   1.2337   1.2425
  1.2546   1.2577   1.2677   1.2730   1.2803   1.2840   1.3077   1.3238
  1.3337   1.3432   1.3587   1.3731   1.3773   1.3842   1.3937   1.4089
  1.4188   1.4351   1.4517   1.4583   1.4704   1.4785   1.4813   1.4990
  1.5069   1.5175   1.5186   1.5210   1.5387   1.5405   1.5446   1.5549
  1.5767   1.5881   1.5968   1.6083   1.6130   1.6220   1.6369   1.6439
  1.6541   1.6643   1.6733   1.6868   1.7049   1.7081   1.7305   1.7355
  1.7467   1.7529   1.7737   1.7856   1.8082   1.8141   1.8521   1.8784
  1.8837   1.9093   1.9298   1.9377   1.9447   1.9555   1.9999   2.0073
  2.0173   2.0316   2.0373   2.0557   2.0653   2.1192   2.1396   2.1607
  2.1846   2.1989   2.2103   2.2254   2.2446   2.2535   2.2677   2.2821
  2.2941   2.3078   2.3183   2.3618   2.3977   2.4397   2.4648   2.4732
  2.4913   2.5199   2.5372   2.5560   2.5714   2.5889   2.6031   2.6313
  2.6389   2.6504   2.6558   2.6657   2.6730   2.6894   2.6969   2.7296
  2.7403   2.7456   2.7614   2.7656   2.7755   2.7867   2.8089   2.8215
  2.8440   2.8488   2.8556   2.8622   2.8857   2.9030   2.9141   2.9194
  2.9265   2.9574   2.9648   2.9779   3.0010   3.0126   3.0290   3.0410
  3.0429   3.0647   3.0893   3.0966   3.1114   3.1192   3.1348   3.1351
  3.1496   3.1605   3.1679   3.1792   3.1893   3.1942   3.2002   3.2199
  3.2275   3.2405   3.2500   3.2595   3.2798   3.2904   3.2951   3.3026
  3.3045   3.3240   3.3278   3.3317   3.3470   3.3527   3.3596   3.3633
  3.3758   3.3867   3.3892   3.3966   3.4122   3.4178   3.4293   3.4394
  3.4457   3.4506   3.4581   3.4650   3.4756   3.4862   3.4899   3.5033
  3.5174   3.5226   3.5263   3.5414   3.5495   3.5578   3.5692   3.5807
  3.5829   3.5960   3.6127   3.6200   3.6335   3.6370   3.6497   3.6573
  3.6694   3.6743   3.6940   3.6977   3.7055   3.7224   3.7329   3.7411
  3.7484   3.7535   3.7827   3.7873   3.7923   3.7960   3.8126   3.8193
  3.8357   3.8484   3.8629   3.8654   3.8793   3.8870   3.9004   3.9183
  3.9250   3.9348   3.9424   3.9667   3.9699   3.9967   4.0113   4.0179
  4.0274   4.0403   4.0484   4.0546   4.0631   4.0729   4.0832   4.0999
  4.1221   4.1309   4.1439   4.1548   4.1603   4.1793   4.1868   4.1954
  4.2085   4.2178   4.2265   4.2307   4.2383   4.2634   4.2774   4.2860
  4.2959   4.3048   4.3101   4.3296   4.3378   4.3585   4.3674   4.3725
  4.3767   4.3954   4.4021   4.4093   4.4212   4.4279   4.4370   4.4485
  4.4541   4.4678   4.4797   4.4928   4.5131   4.5255   4.5287   4.5408
  4.5661   4.5978   4.6132   4.6326   4.6337   4.6498   4.6536   4.6771
  4.6821   4.7196   4.7415   4.7470   4.7836   4.8054   4.8292   4.8390
  4.8545   4.8828   4.8913   4.9267   4.9354   4.9476   4.9694   4.9759
  5.0225   5.0679   5.0832   5.1104   5.1215   5.1302   5.1357   5.1835
  5.2036   5.2111   5.2382   5.2633   5.2715   5.2861   5.3014   5.3263
  5.3393   5.3574   5.3820   5.3911   5.4083   5.4305   5.4337   5.4451
  5.4605   5.5217   5.5270   5.5401   5.5481   5.5640   5.5707   5.6006
  5.6134   5.6220   5.6364   5.6444   5.6644   5.6977   5.7122   5.7402
  5.7709   5.7941   5.8299   5.9684   6.0313   6.1050   6.1296   6.1774
  6.2107   6.2261   6.2312   6.2359   6.2622   6.2753   6.3055   6.3154
  6.3894   6.5532   9.3396  10.5792  11.9893  12.9574  13.1727  13.8914
 14.0839  14.1988  14.3784  14.9923
 --------------------------------------------------------------
 
          Ground-State Mulliken Net Atomic Charges

     Atom                 Charge (a.u.)
  ----------------------------------------
      1 C                    -0.074489
      2 C                    -0.323886
      3 C                    -0.044181
      4 H                     0.178183
      5 C                     0.103013
      6 S                    -0.176644
      7 C                    -0.271871
      8 H                     0.117388
      9 H                     0.097144
     10 H                     0.113083
     11 C                    -0.068806
     12 C                    -0.264340
     13 C                     0.023820
     14 H                     0.189548
     15 C                    -0.249909
     16 S                     0.008369
     17 C                    -0.272493
     18 H                     0.101513
     19 H                     0.108878
     20 H                     0.108380
     21 H                     0.196938
     22 H                     0.111771
     23 H                     0.111282
     24 H                     0.177307
  ----------------------------------------
  Sum of atomic charges =     0.000000

 -----------------------------------------------------------------
                    Cartesian Multipole Moments
 -----------------------------------------------------------------
    Charge (ESU x 10^10)
                -0.0000
    Dipole Moment (Debye)
         X       1.6233      Y       0.2433      Z       3.6768
       Tot       4.0265
    Quadrupole Moments (Debye-Ang)
        XX     -91.0954     XY      -0.0080     YY     -73.8126
        XZ       0.2685     YZ      -2.2131     ZZ     -86.3195
    Octopole Moments (Debye-Ang^2)
       XXX     -38.5148    XXY      43.5009    XYY      -8.0253
       YYY     123.7594    XXZ      -0.2251    XYZ      -2.5067
       YYZ      -3.5253    XZZ      -9.2861    YZZ      54.9789
       ZZZ      -3.5249
    Hexadecapole Moments (Debye-Ang^3)
      XXXX    -501.2384   XXXY     -94.5746   XXYY    -587.5284
      XYYY     -57.6137   YYYY   -2755.6077   XXXZ    -153.1220
      XXYZ     -46.2042   XYYZ     -40.5420   YYYZ    -111.6915
      XXZZ    -216.7388   XYZZ     -33.9381   YYZZ    -625.2147
      XZZZ    -158.7069   YZZZ    -104.4744   ZZZZ    -788.9575
 -----------------------------------------------------------------
 Total job time:  53.77s(wall), 1877.75s(cpu) 
 Fri Dec 15 14:07:35 2023

        *************************************************************
        *                                                           *
        *  Thank you very much for using Q-Chem.  Have a nice day.  *
        *                                                           *
        *************************************************************


0 sent ACK to 0 
now end server 0 ... 
cleanup process ... done
remove work dirs ./qchem2325982.0 -- ./qchem2325982.0
rm -rf ./qchem2325982.0
rm -rf ./qchem2325982
