You are running Q-Chem version: 5.4.0

#
# job setting
#
local host:  exp-9-54
current dir: /home/rramji/project-csd799/aromodel/p3ht-qchem/hydrogenated-rotation-run
input file:  Methylthiophene_Phi_25_Theta_330_Methylthiophene_Hydrogenated.qcin
output file: 
nprocs     : 1
nthreads   : 64
#
# qchem installation setting
#
QC:          /cm/shared/apps/spack/cpu/opt/spack/linux-centos8-zen2/gcc-10.2.0/qchem-5.4-akfmr7b3t57bfs6qan3padb2wnb2i7cl
QCAUX:       /cm/shared/apps/spack/cpu/opt/spack/linux-centos8-zen2/gcc-10.2.0/qchem-5.4-akfmr7b3t57bfs6qan3padb2wnb2i7cl/qcaux
QCPROG:      /cm/shared/apps/spack/cpu/opt/spack/linux-centos8-zen2/gcc-10.2.0/qchem-5.4-akfmr7b3t57bfs6qan3padb2wnb2i7cl/exe/qcprog.exe
QCPROG_S:    /cm/shared/apps/spack/cpu/opt/spack/linux-centos8-zen2/gcc-10.2.0/qchem-5.4-akfmr7b3t57bfs6qan3padb2wnb2i7cl/exe/qcprog.exe_s
PARALLEL:    -DPARALLEL
QCMPI:       mpich
#
# qchem directory setting
#
qcrun:       qchem3701611
QCSCRATCH:   .
QCLOCALSCR:  
QCTMPDIR:    .
QCFILEPREF:  ./qchem3701611
QCSAVEDIR:   
workdirs:    ./qchem3701611
workdir0:    ./qchem3701611
partmpdirs =  
#
# parallel setting
#
QCRSH:           ssh
QCMPI:           mpich
QCMPIRUN:        /cm/shared/apps/spack/cpu/opt/spack/linux-centos8-zen2/gcc-10.2.0/qchem-5.4-akfmr7b3t57bfs6qan3padb2wnb2i7cl/bin/mpi/mpirun_qchem
QCMACHINEFILE:   ./qchem3701611/hostfile
exp-9-54

#
# env setting
#
exported envs:   QC QCAUX QCSCRATCH QCRUNNAME QCFILEPREF QCPROG QCPROG_S GUIFILE

Running Job 1 of 1 Methylthiophene_Phi_25_Theta_330_Methylthiophene_Hydrogenated.qcin
qchem Methylthiophene_Phi_25_Theta_330_Methylthiophene_Hydrogenated.qcin_3701611.0 ./qchem3701611/ 1
/cm/shared/apps/spack/cpu/opt/spack/linux-centos8-zen2/gcc-10.2.0/qchem-5.4-akfmr7b3t57bfs6qan3padb2wnb2i7cl/bin/mpi/mpirun_qchem -machinefile ./qchem3701611/hostfile -np 1 /cm/shared/apps/spack/cpu/opt/spack/linux-centos8-zen2/gcc-10.2.0/qchem-5.4-akfmr7b3t57bfs6qan3padb2wnb2i7cl/exe/qcprog.exe Methylthiophene_Phi_25_Theta_330_Methylthiophene_Hydrogenated.qcin_3701611.0 ./qchem3701611/

Process 0 of 1 is on exp-9-54 - thread support 0
initial socket setup ...start
initial socket setup ...done 
now start server 0 ... 
                  Welcome to Q-Chem
     A Quantum Leap Into The Future Of Chemistry


 Q-Chem 5.4, Q-Chem, Inc., Pleasanton, CA (2021)

 License issued to: University of California, San Diego (site)

 E. Epifanovsky,  A. T. B. Gilbert,  Xintian Feng,  Joonho Lee,  Yuezhi Mao,  
 N. Mardirossian,  P. Pokhilko,  A. White,  M. Wormit,  M. P. Coons,  
 A. L. Dempwolff,  Zhengting Gan,  D. Hait,  P. R. Horn,  L. D. Jacobson,  
 I. Kaliman,  J. Kussmann,  A. W. Lange,  Ka Un Lao,  D. S. Levine,  Jie Liu,  
 S. C. McKenzie,  A. F. Morrison,  K. Nanda,  F. Plasser,  D. R. Rehn,  
 M. L. Vidal,  Zhi-Qiang You,  Ying Zhu,  B. Alam,  B. Albrecht,  
 A. Aldossary,  E. Alguire,  J. H. Andersen,  D. Barton,  K. Begam,  A. Behn,  
 Y. A. Bernard,  E. J. Berquist,  H. Burton,  A. Carreras,  K. Carter-Fenk,  
 R. Chakraborty,  A. D. Chien,  K. D. Closser,  V. Cofer-Shabica,  
 S. Dasgupta,  Jia Deng,  M. de Wergifosse,  M. Diedenhofen,  Hainam Do,  
 S. Ehlert,  Po-Tung Fang,  S. Fatehi,  Qingguo Feng,  J. Gayvert,  
 Qinghui Ge,  G. Gidofalvi,  M. Goldey,  J. Gomes,  C. Gonzalez-Espinoza,  
 S. Gulania,  A. Gunina,  M. W. D. Hanson-Heine,  P. H. P. Harbach,  
 A. W. Hauser,  M. F. Herbst,  M. Hernandez Vera,  M. Hodecker,  
 Z. C. Holden,  S. Houck,  Xunkun Huang,  Kerwin Hui,  B. C. Huynh,  
 M. Ivanov,  Hyunjun Ji,  Hanjie Jiang,  B. Kaduk,  S. Kaehler,  
 K. Khistyaev,  Jaehoon Kim,  P. Klunzinger,  Z. Koczor-Benda,  
 Joong Hoon Koh,  D. Kosenkov,  L. Koulias,  T. Kowalczyk,  C. M. Krauter,  
 K. Kue,  A. Kunitsa,  T. Kus,  A. Landau,  K. V. Lawler,  D. Lefrancois,  
 S. Lehtola,  Rain Li,  Yi-Pei Li,  Jiashu Liang,  M. Liebenthal,  
 Hung-Hsuan Lin,  You-Sheng Lin,  Fenglai Liu,  Kuan-Yu Liu,  
 M. Loipersberger,  A. Luenser,  A. Manjanath,  P. Manohar,  E. Mansoor,  
 S. F. Manzer,  Shan-Ping Mao,  A. V. Marenich,  T. Markovich,  S. Mason,  
 S. A. Maurer,  P. F. McLaughlin,  M. F. S. J. Menger,  J.-M. Mewes,  
 S. A. Mewes,  P. Morgante,  J. W. Mullinax,  T. S. Nguyen-Beck,  
 K. J. Oosterbaan,  G. Paran,  Alexander C. Paul,  Suranjan K. Paul,  
 F. Pavosevic,  Zheng Pei,  S. Prager,  E. I. Proynov,  E. Ramos,  B. Rana,  
 A. E. Rask,  A. Rettig,  R. M. Richard,  F. Rob,  E. Rossomme,  T. Scheele,  
 M. Scheurer,  M. Schneider,  N. Sergueev,  S. M. Sharada,  W. Skomorowski,  
 D. W. Small,  C. J. Stein,  Yu-Chuan Su,  E. J. Sundstrom,  Zhen Tao,  
 J. Thirman,  T. Tsuchimochi,  N. M. Tubman,  S. P. Veccham,  O. Vydrov,  
 J. Wenzel,  J. Witte,  A. Yamada,  Kun Yao,  S. Yeganeh,  S. R. Yost,  
 A. Zech,  Igor Ying Zhang,  Xing Zhang,  Yu Zhang,  D. Zuev,  
 A. Aspuru-Guzik,  A. T. Bell,  N. A. Besley,  K. B. Bravaya,  B. R. Brooks,  
 D. Casanova,  Jeng-Da Chai,  S. Coriani,  C. J. Cramer,  
 A. E. DePrince, III,  R. A. DiStasio Jr.,  A. Dreuw,  B. D. Dunietz,  
 T. R. Furlani,  W. A. Goddard III,  S. Grimme,  S. Hammes-Schiffer,  
 T. Head-Gordon,  W. J. Hehre,  Chao-Ping Hsu,  T.-C. Jagau,  Yousung Jung,  
 A. Klamt,  Jing Kong,  D. S. Lambrecht,  WanZhen Liang,  N. J. Mayhall,  
 C. W. McCurdy,  J. B. Neaton,  C. Ochsenfeld,  J. A. Parkhill,  R. Peverati,  
 V. A. Rassolov,  Yihan Shao,  L. V. Slipchenko,  T. Stauch,  R. P. Steele,  
 J. E. Subotnik,  A. J. W. Thom,  A. Tkatchenko,  D. G. Truhlar,  
 T. Van Voorhis,  T. A. Wesolowski,  K. B. Whaley,  H. L. Woodcock III,  
 P. M. Zimmerman,  S. Faraji,  P. M. W. Gill,  M. Head-Gordon,  
 J. M. Herbert,  A. I. Krylov

 Contributors to earlier versions of Q-Chem not listed above: 
 R. D. Adamson,  B. Austin,  R. Baer,  J. Baker,  G. J. O. Beran,  
 K. Brandhorst,  S. T. Brown,  E. F. C. Byrd,  A. K. Chakraborty,  
 G. K. L. Chan,  Chun-Min Chang,  Yunqing Chen,  C.-L. Cheng,  
 Siu Hung Chien,  D. M. Chipman,  D. L. Crittenden,  H. Dachsel,  
 R. J. Doerksen,  A. D. Dutoi,  R. G. Edgar,  J. Fosso-Tande,  
 L. Fusti-Molnar,  D. Ghosh,  A. Ghysels,  A. Golubeva-Zadorozhnaya,  
 J. Gonthier,  M. S. Gordon,  S. R. Gwaltney,  G. Hawkins,  J. E. Herr,  
 A. Heyden,  S. Hirata,  E. G. Hohenstein,  G. Kedziora,  F. J. Keil,  
 C. Kelley,  Jihan Kim,  R. A. King,  R. Z. Khaliullin,  P. P. Korambath,  
 W. Kurlancheek,  A. Laurent,  A. M. Lee,  M. S. Lee,  S. V. Levchenko,  
 Ching Yeh Lin,  D. Liotard,  E. Livshits,  R. C. Lochan,  I. Lotan,  
 L. A. Martinez-Martinez,  P. E. Maslen,  N. Nair,  D. P. O'Neill,  
 D. Neuhauser,  E. Neuscamman,  C. M. Oana,  R. Olivares-Amaya,  R. Olson,  
 T. M. Perrine,  B. Peters,  P. A. Pieniazek,  A. Prociuk,  Y. M. Rhee,  
 J. Ritchie,  M. A. Rohrdanz,  E. Rosta,  N. J. Russ,  H. F. Schaefer III,  
 M. W. Schmidt,  N. E. Schultz,  S. Sharma,  N. Shenvi,  C. D. Sherrill,  
 A. C. Simmonett,  A. Sodt,  T. Stein,  D. Stuck,  K. S. Thanthiriwatte,  
 V. Vanovschi,  L. Vogt,  Tao Wang,  A. Warshel,  M. A. Watson,  
 C. F. Williams,  Q. Wu,  X. Xu,  Jun Yang,  W. Zhang,  Yan Zhao

 Please cite Q-Chem as follows:
 Y. Shao et al., Mol. Phys. 113, 184-215 (2015)
 DOI: 10.1080/00268976.2014.952696

 Q-Chem 5.4.0 for Intel X86 EM64T Linux

 Parts of Q-Chem use Armadillo 9.800.1 (Horizon Scraper).
 http://arma.sourceforge.net/

 Q-Chem begins on Fri Dec 15 14:26:45 2023  

 Host: 
0

     Scratch files written to ./qchem3701611//
 May1621 |scratch|qcdevops|jenkins|workspace|build_RNUM    
 Parallel job on  1  processors
 Processing $rem in /cm/shared/apps/spack/cpu/opt/spack/linux-centos8-zen2/gcc-10.2.0/qchem-5.4-akfmr7b3t57bfs6qan3padb2wnb2i7cl/config/preferences:
 Processing $rem in /home/rramji/.qchemrc:
 Symmetry turned off for PCM/SM12/SMD calculation
 Core orbitals will be frozen

 Checking the input file for inconsistencies... 	...done.

 Q-Chem warning in module forms1/BasisType.C, line 2236:

 You are not using the predefined 5D/6D in this basis set.


--------------------------------------------------------------
User input:
--------------------------------------------------------------
$molecule
0 1
C	0.361285	-3.887800	0.627947
C	-0.331462	-3.701456	-0.572038
C	-0.542953	-2.345170	-0.939610
H	-0.684893	-4.545233	-1.183405
C	0.000000	-1.450135	0.000000
S	0.763441	-2.321334	1.323052
C	-1.265941	-1.934439	-2.192207
H	-1.598695	-2.819799	-2.767709
H	-0.620770	-1.326210	-2.860100
H	-2.166438	-1.325374	-1.967682
C	0.000000	0.000000	0.000000
C	0.354153	0.766774	1.113020
C	0.937751	2.029404	0.820578
H	0.191350	0.414475	2.142881
C	1.042030	2.254581	-0.563588
S	0.406851	0.881228	-1.464748
C	1.384426	2.995779	1.882380
H	1.196413	2.589194	2.894974
H	0.849641	3.965707	1.808137
H	2.469756	3.216753	1.808230
H	1.443919	3.124243	-1.097114
H	1.305744	-4.420219	0.469073
H	-0.248940	-4.419395	1.366694
H	0.935300	-1.450628	-0.540012
$end

$rem
JOBTYPE		SP
EXCHANGE	HF
CORRELATION	pRIMP2
BASIS		cc-pvtz
METHOD		rimp2
AUX_BASIS	rimp2-cc-pvtz
SOLVENT_METHOD	PCM
PURECART	11111
SYMMETRY	false
MEM_TOTAL	110000
SCF_CONVERGENCE = 6
THRESH=10
GUI = 2
$end



$solvent
dielectric 4.90
$end
--------------------------------------------------------------
 ----------------------------------------------------------------
             Standard Nuclear Orientation (Angstroms)
    I     Atom           X                Y                Z
 ----------------------------------------------------------------
    1      C       0.3612850000    -3.8878000000     0.6279470000
    2      C      -0.3314620000    -3.7014560000    -0.5720380000
    3      C      -0.5429530000    -2.3451700000    -0.9396100000
    4      H      -0.6848930000    -4.5452330000    -1.1834050000
    5      C       0.0000000000    -1.4501350000     0.0000000000
    6      S       0.7634410000    -2.3213340000     1.3230520000
    7      C      -1.2659410000    -1.9344390000    -2.1922070000
    8      H      -1.5986950000    -2.8197990000    -2.7677090000
    9      H      -0.6207700000    -1.3262100000    -2.8601000000
   10      H      -2.1664380000    -1.3253740000    -1.9676820000
   11      C       0.0000000000     0.0000000000     0.0000000000
   12      C       0.3541530000     0.7667740000     1.1130200000
   13      C       0.9377510000     2.0294040000     0.8205780000
   14      H       0.1913500000     0.4144750000     2.1428810000
   15      C       1.0420300000     2.2545810000    -0.5635880000
   16      S       0.4068510000     0.8812280000    -1.4647480000
   17      C       1.3844260000     2.9957790000     1.8823800000
   18      H       1.1964130000     2.5891940000     2.8949740000
   19      H       0.8496410000     3.9657070000     1.8081370000
   20      H       2.4697560000     3.2167530000     1.8082300000
   21      H       1.4439190000     3.1242430000    -1.0971140000
   22      H       1.3057440000    -4.4202190000     0.4690730000
   23      H      -0.2489400000    -4.4193950000     1.3666940000
   24      H       0.9353000000    -1.4506280000    -0.5400120000
 ----------------------------------------------------------------
 Nuclear Repulsion Energy =         878.79097390 hartrees
 There are       52 alpha and       52 beta electrons
 Requested basis set is cc-pVTZ
 There are 196 shells and 536 basis functions

 Total QAlloc Memory Limit 110000 MB
 Mega-Array Size       188 MB
 MEM_STATIC part       192 MB
 Discretize the solute cavity surface with Lebedev spheres
	Using 110 Lebedev grid points for each H atom
	Using 194 Lebedev grid points for other atoms
	Atomic van der Waals radii will be scaled by 1.20
 Remove points where switching function is < 1.0e-08
 Keep 1592 surface tesserae and discard 2056 interior tesserae
 Molecular Surface Area = 232.263 Angst**2
 Requested basis set is rimp2-cc-pVTZ
 There are 414 shells and 1414 basis functions
 A cutoff of  1.0D-10 yielded  13915 shell pairs
 There are    100865 function pairs (    129367 Cartesian)
 Smallest overlap matrix eigenvalue = 6.57E-05

 Scale SEOQF with 1.000000e-01/1.000000e-01/1.000000e-01

 Standard Electronic Orientation quadrupole field applied
 Nucleus-field energy     =     0.0000000238 hartrees
 Guess from superposition of atomic densities
 Warning:  Energy on first SCF cycle will be non-variational
 SAD guess density has 104.000000 electrons

 -----------------------------------------------------------------------
  General SCF calculation program by
  Eric Jon Sundstrom, Paul Horn, Yuezhi Mao, Dmitri Zuev, Alec White,
  David Stuck, Shaama M.S., Shane Yost, Joonho Lee, David Small,
  Daniel Levine, Susi Lehtola, Hugh Burton, Evgeny Epifanovsky,
  Bang C. Huynh
 -----------------------------------------------------------------------
 Hartree-Fock
 using 64 threads for integral computing
 -------------------------------------------------------
 OpenMP Integral computing Module                
 Release: version 1.0, May 2013, Q-Chem Inc. Pittsburgh 
 -------------------------------------------------------
 A restricted SCF calculation will be
 performed using DIIS
 SCF converges when DIIS error is below 1.0e-06
 ---------------------------------------
  Cycle       Energy         DIIS error
 ---------------------------------------
    1   -1186.0411253155      2.39e-02  
    2   -1180.6052724605      1.57e-03  
    3   -1180.7311607761      6.39e-04  
    4   -1180.7465015489      3.47e-04  
    5   -1180.7520288594      5.96e-05  
    6   -1180.7522789712      2.48e-05  
    7   -1180.7523376300      8.69e-06  
    8   -1180.7523498813      4.17e-06  
    9   -1180.7523525043      1.39e-06  
   10   -1180.7523529265      4.93e-07  Convergence criterion met
 ---------------------------------------
 SCF time:   CPU 1646.89s  wall 49.00s 

************** Final PCM Free Energy Summary **************
 G_electrostatic  =      -0.00798795 hartree =      -5.01251347 kcal/mol
 G_cavitation     =       0.00000000 hartree =       0.00000000 kcal/mol
 G_dispersion     =       0.00000000 hartree =       0.00000000 kcal/mol
 G_repulsion      =       0.00000000 hartree =       0.00000000 kcal/mol
 --------------------------------------------------
 Non-electrostatic Free Energy =       0.00000000 hartree =       0.00000000 kcal/mol
 Total                         =      -0.00798795 hartree =      -5.01251347 kcal/mol
 --------------------------------------------------
 SCF Energy (H0 + V/2)                       =   -1180.75235293 
 Solute Internal Energy (H0)                 =   -1180.74436498 
 Total Free Energy (H0 + V/2 + non-elec)     =   -1180.75235293 hartree
                                             = -740933.28436692 kcal/mol
***********************************************************

 SCF   energy in the final basis set =    -1180.7523529265
 Total energy in the final basis set =    -1180.7523529265


 --------------------------------------------------------------
  Generalized many-body perturbation theory program
  by Joonho Lee, Fazle Rob, Xintian Feng, Evgeny Epifanovsky

 No regularization used 
 (reg. param. = 0.0000e+00)
  (P|Q)^-1/2 Time:  CPU 23.18 s  wall 0.38 s

 In RI-MP2 calculation: 
 # of frozen core orbitals: 20

 Components of the RIMP2 correlation energy:
        aaaa    correlation energy =        -0.2514468889 a.u.
        abab    correlation energy =        -1.5036165877 a.u.
        bbbb    correlation energy =        -0.2514468889 a.u.
        non-Brillouin singles      =        -0.0000000000 a.u.
        total same-spin energy     =        -0.5028937777 a.u.
        total opposite-spin energy =        -1.5036165877 a.u.

 Total  RIMP2   correlation energy =        -2.0065103655 a.u.
        RIMP2         total energy =     -1182.7588632920 a.u.

 RI-MP2 Energy Time:  CPU 170.41 s  wall 3.52 s
 
 --------------------------------------------------------------
 
                    Orbital Energies (a.u.)
 --------------------------------------------------------------
 
 Alpha MOs
 -- Occupied --
-91.9807 -91.9455 -11.2854 -11.2623 -11.2605 -11.2600 -11.2507 -11.2428
-11.2352 -11.2327 -11.2282 -11.2218  -8.9811  -8.9498  -6.6621  -6.6615
 -6.6608  -6.6312  -6.6302  -6.6289  -1.2018  -1.1533  -1.0596  -1.0272
 -1.0055  -0.9581  -0.9156  -0.9014  -0.8126  -0.7707  -0.7233  -0.7035
 -0.6565  -0.6443  -0.6117  -0.5919  -0.5787  -0.5739  -0.5691  -0.5530
 -0.5422  -0.5339  -0.5143  -0.5087  -0.4882  -0.4824  -0.4602  -0.4459
 -0.3577  -0.3431  -0.3257  -0.2673
 -- Virtual --
  0.0918   0.1365   0.1436   0.1512   0.1602   0.1717   0.1823   0.1838
  0.1905   0.1992   0.2020   0.2089   0.2182   0.2326   0.2398   0.2420
  0.2489   0.2662   0.2757   0.2989   0.3179   0.3347   0.3518   0.3611
  0.3691   0.3711   0.3768   0.3991   0.4064   0.4104   0.4142   0.4188
  0.4406   0.4506   0.4659   0.4666   0.4698   0.4774   0.4814   0.4903
  0.5062   0.5127   0.5241   0.5262   0.5331   0.5440   0.5463   0.5520
  0.5685   0.5737   0.5799   0.6046   0.6096   0.6134   0.6134   0.6179
  0.6215   0.6236   0.6323   0.6356   0.6417   0.6449   0.6483   0.6551
  0.6588   0.6761   0.6809   0.6964   0.7008   0.7037   0.7193   0.7241
  0.7296   0.7492   0.7653   0.7757   0.7879   0.7971   0.8086   0.8193
  0.8329   0.8472   0.8513   0.8649   0.8810   0.8944   0.9018   0.9102
  0.9196   0.9355   0.9443   0.9613   0.9730   0.9847   0.9977   1.0073
  1.0179   1.0269   1.0429   1.0487   1.0518   1.0660   1.0737   1.0868
  1.0924   1.0958   1.1041   1.1199   1.1432   1.1475   1.1599   1.1688
  1.1796   1.1830   1.1953   1.2014   1.2191   1.2273   1.2346   1.2403
  1.2548   1.2720   1.2749   1.2795   1.2815   1.2904   1.2921   1.3020
  1.3131   1.3249   1.3400   1.3656   1.3861   1.3947   1.4078   1.4156
  1.4259   1.4328   1.4536   1.4572   1.4641   1.4716   1.4866   1.4974
  1.5006   1.5101   1.5152   1.5190   1.5351   1.5413   1.5469   1.5557
  1.5683   1.5795   1.5891   1.5905   1.6096   1.6147   1.6206   1.6393
  1.6509   1.6675   1.6704   1.6814   1.6992   1.7150   1.7218   1.7329
  1.7521   1.7605   1.7730   1.7954   1.8076   1.8191   1.8359   1.8557
  1.8687   1.9088   1.9381   1.9476   1.9590   1.9743   1.9836   2.0127
  2.0212   2.0345   2.0476   2.0485   2.0700   2.0976   2.1403   2.1465
  2.1816   2.1858   2.2117   2.2207   2.2317   2.2534   2.2684   2.2862
  2.2884   2.3086   2.3319   2.3619   2.4161   2.4248   2.4478   2.4605
  2.5034   2.5088   2.5281   2.5422   2.5643   2.5930   2.5979   2.6037
  2.6341   2.6391   2.6519   2.6614   2.6750   2.6869   2.7054   2.7360
  2.7415   2.7500   2.7676   2.7719   2.7763   2.7862   2.8056   2.8177
  2.8276   2.8418   2.8602   2.8656   2.8918   2.9126   2.9226   2.9309
  2.9570   2.9653   2.9720   2.9828   3.0001   3.0177   3.0289   3.0453
  3.0473   3.0640   3.0841   3.1021   3.1115   3.1192   3.1304   3.1396
  3.1548   3.1576   3.1619   3.1667   3.1864   3.1936   3.2081   3.2131
  3.2310   3.2449   3.2509   3.2603   3.2631   3.2760   3.2794   3.2918
  3.3024   3.3190   3.3326   3.3355   3.3461   3.3497   3.3572   3.3604
  3.3706   3.3847   3.3908   3.3972   3.4106   3.4174   3.4211   3.4304
  3.4467   3.4500   3.4540   3.4615   3.4661   3.4803   3.5019   3.5065
  3.5139   3.5189   3.5330   3.5380   3.5470   3.5525   3.5717   3.5843
  3.5938   3.6039   3.6135   3.6280   3.6338   3.6418   3.6484   3.6645
  3.6710   3.6931   3.7070   3.7107   3.7197   3.7288   3.7316   3.7481
  3.7537   3.7608   3.7685   3.7713   3.7917   3.7953   3.8019   3.8228
  3.8289   3.8406   3.8507   3.8599   3.8638   3.8849   3.8990   3.9105
  3.9197   3.9385   3.9573   3.9638   3.9764   3.9816   3.9980   4.0153
  4.0261   4.0360   4.0466   4.0519   4.0647   4.0825   4.0983   4.1064
  4.1211   4.1372   4.1384   4.1556   4.1639   4.1820   4.1909   4.1960
  4.2139   4.2193   4.2325   4.2346   4.2500   4.2634   4.2737   4.2814
  4.2900   4.2925   4.3131   4.3313   4.3405   4.3550   4.3564   4.3685
  4.3771   4.3876   4.3997   4.4033   4.4100   4.4329   4.4401   4.4450
  4.4548   4.4662   4.4835   4.4968   4.5029   4.5213   4.5469   4.5595
  4.5865   4.5997   4.6058   4.6186   4.6373   4.6452   4.6755   4.6847
  4.7060   4.7067   4.7456   4.7672   4.7822   4.8007   4.8131   4.8348
  4.8556   4.8781   4.8925   4.8998   4.9171   4.9279   4.9535   4.9828
  5.0239   5.0623   5.0859   5.1036   5.1161   5.1285   5.1376   5.1722
  5.1965   5.2160   5.2302   5.2660   5.2725   5.2961   5.3098   5.3202
  5.3444   5.3675   5.3706   5.3871   5.4066   5.4134   5.4384   5.4522
  5.4871   5.5047   5.5282   5.5391   5.5553   5.5595   5.5705   5.5828
  5.6184   5.6299   5.6413   5.6574   5.6662   5.6976   5.7062   5.7294
  5.7567   5.7865   5.8341   5.9481   5.9962   6.0602   6.1299   6.1434
  6.2147   6.2255   6.2297   6.2430   6.2619   6.2855   6.3041   6.3291
  6.3976   6.4756   9.5294  10.6333  11.9795  12.9050  13.1699  13.9010
 14.0990  14.2365  14.3741  14.6248
 --------------------------------------------------------------
 
          Ground-State Mulliken Net Atomic Charges

     Atom                 Charge (a.u.)
  ----------------------------------------
      1 C                    -0.075655
      2 C                    -0.315096
      3 C                    -0.056129
      4 H                     0.177724
      5 C                     0.112319
      6 S                    -0.182146
      7 C                    -0.292930
      8 H                     0.117473
      9 H                     0.106682
     10 H                     0.115555
     11 C                    -0.000675
     12 C                    -0.341032
     13 C                     0.061819
     14 H                     0.181541
     15 C                    -0.267133
     16 S                     0.004489
     17 C                    -0.270324
     18 H                     0.103225
     19 H                     0.108398
     20 H                     0.108973
     21 H                     0.196321
     22 H                     0.111841
     23 H                     0.110751
     24 H                     0.184007
  ----------------------------------------
  Sum of atomic charges =     0.000000

 -----------------------------------------------------------------
                    Cartesian Multipole Moments
 -----------------------------------------------------------------
    Charge (ESU x 10^10)
                -0.0000
    Dipole Moment (Debye)
         X       0.1812      Y      -0.1108      Z      -0.9619
       Tot       0.9850
    Quadrupole Moments (Debye-Ang)
        XX     -89.5791     XY       4.5247     YY     -74.9186
        XZ       0.8818     YZ       5.1129     ZZ     -86.0263
    Octopole Moments (Debye-Ang^2)
       XXX     -86.5277    XXY      55.7911    XYY     -13.4929
       YYY     129.6309    XXZ      -2.7796    XYZ      -3.4097
       YYZ      -4.0214    XZZ     -29.6273    YZZ      57.6823
       ZZZ       0.0450
    Hexadecapole Moments (Debye-Ang^3)
      XXXX    -456.5970   XXXY    -186.6338   XXYY    -548.6129
      XYYY    -157.3168   YYYY   -2634.5679   XXXZ    -165.9718
      XXYZ     -26.2980   XYYZ     -45.5297   YYYZ    -101.7336
      XXZZ    -237.5965   XYZZ     -37.5087   YYZZ    -624.5572
      XZZZ    -159.6804   YZZZ     -72.4707   ZZZZ    -973.3862
 -----------------------------------------------------------------
 Total job time:  57.05s(wall), 1879.49s(cpu) 
 Fri Dec 15 14:27:42 2023

        *************************************************************
        *                                                           *
        *  Thank you very much for using Q-Chem.  Have a nice day.  *
        *                                                           *
        *************************************************************


0 sent ACK to 0 
now end server 0 ... 
cleanup process ... done
remove work dirs ./qchem3701611.0 -- ./qchem3701611.0
rm -rf ./qchem3701611.0
rm -rf ./qchem3701611
