You are running Q-Chem version: 5.4.0

#
# job setting
#
local host:  exp-7-18
current dir: /home/rramji/project-csd799/aromodel/p3ht-qchem/hydrogenated-rotation-run
input file:  Methylthiophene_Phi_10_Theta_40_Methylthiophene_Hydrogenated.qcin
output file: 
nprocs     : 1
nthreads   : 64
#
# qchem installation setting
#
QC:          /cm/shared/apps/spack/cpu/opt/spack/linux-centos8-zen2/gcc-10.2.0/qchem-5.4-akfmr7b3t57bfs6qan3padb2wnb2i7cl
QCAUX:       /cm/shared/apps/spack/cpu/opt/spack/linux-centos8-zen2/gcc-10.2.0/qchem-5.4-akfmr7b3t57bfs6qan3padb2wnb2i7cl/qcaux
QCPROG:      /cm/shared/apps/spack/cpu/opt/spack/linux-centos8-zen2/gcc-10.2.0/qchem-5.4-akfmr7b3t57bfs6qan3padb2wnb2i7cl/exe/qcprog.exe
QCPROG_S:    /cm/shared/apps/spack/cpu/opt/spack/linux-centos8-zen2/gcc-10.2.0/qchem-5.4-akfmr7b3t57bfs6qan3padb2wnb2i7cl/exe/qcprog.exe_s
PARALLEL:    -DPARALLEL
QCMPI:       mpich
#
# qchem directory setting
#
qcrun:       qchem2322973
QCSCRATCH:   .
QCLOCALSCR:  
QCTMPDIR:    .
QCFILEPREF:  ./qchem2322973
QCSAVEDIR:   
workdirs:    ./qchem2322973
workdir0:    ./qchem2322973
partmpdirs =  
#
# parallel setting
#
QCRSH:           ssh
QCMPI:           mpich
QCMPIRUN:        /cm/shared/apps/spack/cpu/opt/spack/linux-centos8-zen2/gcc-10.2.0/qchem-5.4-akfmr7b3t57bfs6qan3padb2wnb2i7cl/bin/mpi/mpirun_qchem
QCMACHINEFILE:   ./qchem2322973/hostfile
exp-7-18

#
# env setting
#
exported envs:   QC QCAUX QCSCRATCH QCRUNNAME QCFILEPREF QCPROG QCPROG_S GUIFILE

Running Job 1 of 1 Methylthiophene_Phi_10_Theta_40_Methylthiophene_Hydrogenated.qcin
qchem Methylthiophene_Phi_10_Theta_40_Methylthiophene_Hydrogenated.qcin_2322973.0 ./qchem2322973/ 1
/cm/shared/apps/spack/cpu/opt/spack/linux-centos8-zen2/gcc-10.2.0/qchem-5.4-akfmr7b3t57bfs6qan3padb2wnb2i7cl/bin/mpi/mpirun_qchem -machinefile ./qchem2322973/hostfile -np 1 /cm/shared/apps/spack/cpu/opt/spack/linux-centos8-zen2/gcc-10.2.0/qchem-5.4-akfmr7b3t57bfs6qan3padb2wnb2i7cl/exe/qcprog.exe Methylthiophene_Phi_10_Theta_40_Methylthiophene_Hydrogenated.qcin_2322973.0 ./qchem2322973/

Process 0 of 1 is on exp-7-18 - thread support 0
initial socket setup ...start
initial socket setup ...done 
now start server 0 ... 
                  Welcome to Q-Chem
     A Quantum Leap Into The Future Of Chemistry


 Q-Chem 5.4, Q-Chem, Inc., Pleasanton, CA (2021)

 License issued to: University of California, San Diego (site)

 E. Epifanovsky,  A. T. B. Gilbert,  Xintian Feng,  Joonho Lee,  Yuezhi Mao,  
 N. Mardirossian,  P. Pokhilko,  A. White,  M. Wormit,  M. P. Coons,  
 A. L. Dempwolff,  Zhengting Gan,  D. Hait,  P. R. Horn,  L. D. Jacobson,  
 I. Kaliman,  J. Kussmann,  A. W. Lange,  Ka Un Lao,  D. S. Levine,  Jie Liu,  
 S. C. McKenzie,  A. F. Morrison,  K. Nanda,  F. Plasser,  D. R. Rehn,  
 M. L. Vidal,  Zhi-Qiang You,  Ying Zhu,  B. Alam,  B. Albrecht,  
 A. Aldossary,  E. Alguire,  J. H. Andersen,  D. Barton,  K. Begam,  A. Behn,  
 Y. A. Bernard,  E. J. Berquist,  H. Burton,  A. Carreras,  K. Carter-Fenk,  
 R. Chakraborty,  A. D. Chien,  K. D. Closser,  V. Cofer-Shabica,  
 S. Dasgupta,  Jia Deng,  M. de Wergifosse,  M. Diedenhofen,  Hainam Do,  
 S. Ehlert,  Po-Tung Fang,  S. Fatehi,  Qingguo Feng,  J. Gayvert,  
 Qinghui Ge,  G. Gidofalvi,  M. Goldey,  J. Gomes,  C. Gonzalez-Espinoza,  
 S. Gulania,  A. Gunina,  M. W. D. Hanson-Heine,  P. H. P. Harbach,  
 A. W. Hauser,  M. F. Herbst,  M. Hernandez Vera,  M. Hodecker,  
 Z. C. Holden,  S. Houck,  Xunkun Huang,  Kerwin Hui,  B. C. Huynh,  
 M. Ivanov,  Hyunjun Ji,  Hanjie Jiang,  B. Kaduk,  S. Kaehler,  
 K. Khistyaev,  Jaehoon Kim,  P. Klunzinger,  Z. Koczor-Benda,  
 Joong Hoon Koh,  D. Kosenkov,  L. Koulias,  T. Kowalczyk,  C. M. Krauter,  
 K. Kue,  A. Kunitsa,  T. Kus,  A. Landau,  K. V. Lawler,  D. Lefrancois,  
 S. Lehtola,  Rain Li,  Yi-Pei Li,  Jiashu Liang,  M. Liebenthal,  
 Hung-Hsuan Lin,  You-Sheng Lin,  Fenglai Liu,  Kuan-Yu Liu,  
 M. Loipersberger,  A. Luenser,  A. Manjanath,  P. Manohar,  E. Mansoor,  
 S. F. Manzer,  Shan-Ping Mao,  A. V. Marenich,  T. Markovich,  S. Mason,  
 S. A. Maurer,  P. F. McLaughlin,  M. F. S. J. Menger,  J.-M. Mewes,  
 S. A. Mewes,  P. Morgante,  J. W. Mullinax,  T. S. Nguyen-Beck,  
 K. J. Oosterbaan,  G. Paran,  Alexander C. Paul,  Suranjan K. Paul,  
 F. Pavosevic,  Zheng Pei,  S. Prager,  E. I. Proynov,  E. Ramos,  B. Rana,  
 A. E. Rask,  A. Rettig,  R. M. Richard,  F. Rob,  E. Rossomme,  T. Scheele,  
 M. Scheurer,  M. Schneider,  N. Sergueev,  S. M. Sharada,  W. Skomorowski,  
 D. W. Small,  C. J. Stein,  Yu-Chuan Su,  E. J. Sundstrom,  Zhen Tao,  
 J. Thirman,  T. Tsuchimochi,  N. M. Tubman,  S. P. Veccham,  O. Vydrov,  
 J. Wenzel,  J. Witte,  A. Yamada,  Kun Yao,  S. Yeganeh,  S. R. Yost,  
 A. Zech,  Igor Ying Zhang,  Xing Zhang,  Yu Zhang,  D. Zuev,  
 A. Aspuru-Guzik,  A. T. Bell,  N. A. Besley,  K. B. Bravaya,  B. R. Brooks,  
 D. Casanova,  Jeng-Da Chai,  S. Coriani,  C. J. Cramer,  
 A. E. DePrince, III,  R. A. DiStasio Jr.,  A. Dreuw,  B. D. Dunietz,  
 T. R. Furlani,  W. A. Goddard III,  S. Grimme,  S. Hammes-Schiffer,  
 T. Head-Gordon,  W. J. Hehre,  Chao-Ping Hsu,  T.-C. Jagau,  Yousung Jung,  
 A. Klamt,  Jing Kong,  D. S. Lambrecht,  WanZhen Liang,  N. J. Mayhall,  
 C. W. McCurdy,  J. B. Neaton,  C. Ochsenfeld,  J. A. Parkhill,  R. Peverati,  
 V. A. Rassolov,  Yihan Shao,  L. V. Slipchenko,  T. Stauch,  R. P. Steele,  
 J. E. Subotnik,  A. J. W. Thom,  A. Tkatchenko,  D. G. Truhlar,  
 T. Van Voorhis,  T. A. Wesolowski,  K. B. Whaley,  H. L. Woodcock III,  
 P. M. Zimmerman,  S. Faraji,  P. M. W. Gill,  M. Head-Gordon,  
 J. M. Herbert,  A. I. Krylov

 Contributors to earlier versions of Q-Chem not listed above: 
 R. D. Adamson,  B. Austin,  R. Baer,  J. Baker,  G. J. O. Beran,  
 K. Brandhorst,  S. T. Brown,  E. F. C. Byrd,  A. K. Chakraborty,  
 G. K. L. Chan,  Chun-Min Chang,  Yunqing Chen,  C.-L. Cheng,  
 Siu Hung Chien,  D. M. Chipman,  D. L. Crittenden,  H. Dachsel,  
 R. J. Doerksen,  A. D. Dutoi,  R. G. Edgar,  J. Fosso-Tande,  
 L. Fusti-Molnar,  D. Ghosh,  A. Ghysels,  A. Golubeva-Zadorozhnaya,  
 J. Gonthier,  M. S. Gordon,  S. R. Gwaltney,  G. Hawkins,  J. E. Herr,  
 A. Heyden,  S. Hirata,  E. G. Hohenstein,  G. Kedziora,  F. J. Keil,  
 C. Kelley,  Jihan Kim,  R. A. King,  R. Z. Khaliullin,  P. P. Korambath,  
 W. Kurlancheek,  A. Laurent,  A. M. Lee,  M. S. Lee,  S. V. Levchenko,  
 Ching Yeh Lin,  D. Liotard,  E. Livshits,  R. C. Lochan,  I. Lotan,  
 L. A. Martinez-Martinez,  P. E. Maslen,  N. Nair,  D. P. O'Neill,  
 D. Neuhauser,  E. Neuscamman,  C. M. Oana,  R. Olivares-Amaya,  R. Olson,  
 T. M. Perrine,  B. Peters,  P. A. Pieniazek,  A. Prociuk,  Y. M. Rhee,  
 J. Ritchie,  M. A. Rohrdanz,  E. Rosta,  N. J. Russ,  H. F. Schaefer III,  
 M. W. Schmidt,  N. E. Schultz,  S. Sharma,  N. Shenvi,  C. D. Sherrill,  
 A. C. Simmonett,  A. Sodt,  T. Stein,  D. Stuck,  K. S. Thanthiriwatte,  
 V. Vanovschi,  L. Vogt,  Tao Wang,  A. Warshel,  M. A. Watson,  
 C. F. Williams,  Q. Wu,  X. Xu,  Jun Yang,  W. Zhang,  Yan Zhao

 Please cite Q-Chem as follows:
 Y. Shao et al., Mol. Phys. 113, 184-215 (2015)
 DOI: 10.1080/00268976.2014.952696

 Q-Chem 5.4.0 for Intel X86 EM64T Linux

 Parts of Q-Chem use Armadillo 9.800.1 (Horizon Scraper).
 http://arma.sourceforge.net/

 Q-Chem begins on Fri Dec 15 13:57:48 2023  

 Host: 
0

     Scratch files written to ./qchem2322973//
 May1621 |scratch|qcdevops|jenkins|workspace|build_RNUM    
 Parallel job on  1  processors
 Processing $rem in /cm/shared/apps/spack/cpu/opt/spack/linux-centos8-zen2/gcc-10.2.0/qchem-5.4-akfmr7b3t57bfs6qan3padb2wnb2i7cl/config/preferences:
 Processing $rem in /home/rramji/.qchemrc:
 Symmetry turned off for PCM/SM12/SMD calculation
 Core orbitals will be frozen

 Checking the input file for inconsistencies... 	...done.

 Q-Chem warning in module forms1/BasisType.C, line 2236:

 You are not using the predefined 5D/6D in this basis set.


--------------------------------------------------------------
User input:
--------------------------------------------------------------
$molecule
0 1
C	-0.466510	-3.887800	0.554267
C	0.424173	-3.701456	-0.507121
C	0.697244	-2.345170	-0.831575
H	0.877789	-4.545233	-1.048337
C	0.000000	-1.450135	0.000000
S	-0.982150	-2.321334	1.169911
C	1.627024	-1.934439	-1.939374
H	2.054010	-2.819799	-2.448894
H	2.475299	-1.326210	-1.561545
H	1.108051	-1.325374	-2.708773
C	0.000000	0.000000	0.000000
C	0.143630	0.832309	1.113020
C	0.380550	2.202961	0.820578
H	0.077556	0.449877	2.142881
C	0.422995	2.447456	-0.563588
S	0.164909	0.956502	-1.464748
C	0.561888	3.252016	1.882380
H	0.485513	2.810624	2.894974
H	-0.205711	4.050482	1.808137
H	1.553045	3.746365	1.808230
H	0.586105	3.391501	-1.097114
H	0.005807	-4.420219	1.387431
H	-1.369415	-4.419395	0.233510
H	0.827337	-1.450628	0.694200
$end

$rem
JOBTYPE		SP
EXCHANGE	HF
CORRELATION	pRIMP2
BASIS		cc-pvtz
METHOD		rimp2
AUX_BASIS	rimp2-cc-pvtz
SOLVENT_METHOD	PCM
PURECART	11111
SYMMETRY	false
MEM_TOTAL	110000
SCF_CONVERGENCE = 6
THRESH=10
GUI = 2
$end



$solvent
dielectric 4.90
$end
--------------------------------------------------------------
 ----------------------------------------------------------------
             Standard Nuclear Orientation (Angstroms)
    I     Atom           X                Y                Z
 ----------------------------------------------------------------
    1      C      -0.4665100000    -3.8878000000     0.5542670000
    2      C       0.4241730000    -3.7014560000    -0.5071210000
    3      C       0.6972440000    -2.3451700000    -0.8315750000
    4      H       0.8777890000    -4.5452330000    -1.0483370000
    5      C       0.0000000000    -1.4501350000     0.0000000000
    6      S      -0.9821500000    -2.3213340000     1.1699110000
    7      C       1.6270240000    -1.9344390000    -1.9393740000
    8      H       2.0540100000    -2.8197990000    -2.4488940000
    9      H       2.4752990000    -1.3262100000    -1.5615450000
   10      H       1.1080510000    -1.3253740000    -2.7087730000
   11      C       0.0000000000     0.0000000000     0.0000000000
   12      C       0.1436300000     0.8323090000     1.1130200000
   13      C       0.3805500000     2.2029610000     0.8205780000
   14      H       0.0775560000     0.4498770000     2.1428810000
   15      C       0.4229950000     2.4474560000    -0.5635880000
   16      S       0.1649090000     0.9565020000    -1.4647480000
   17      C       0.5618880000     3.2520160000     1.8823800000
   18      H       0.4855130000     2.8106240000     2.8949740000
   19      H      -0.2057110000     4.0504820000     1.8081370000
   20      H       1.5530450000     3.7463650000     1.8082300000
   21      H       0.5861050000     3.3915010000    -1.0971140000
   22      H       0.0058070000    -4.4202190000     1.3874310000
   23      H      -1.3694150000    -4.4193950000     0.2335100000
   24      H       0.8273370000    -1.4506280000     0.6942000000
 ----------------------------------------------------------------
 Nuclear Repulsion Energy =         874.46772855 hartrees
 There are       52 alpha and       52 beta electrons
 Requested basis set is cc-pVTZ
 There are 196 shells and 536 basis functions

 Total QAlloc Memory Limit 110000 MB
 Mega-Array Size       188 MB
 MEM_STATIC part       192 MB
 Discretize the solute cavity surface with Lebedev spheres
	Using 110 Lebedev grid points for each H atom
	Using 194 Lebedev grid points for other atoms
	Atomic van der Waals radii will be scaled by 1.20
 Remove points where switching function is < 1.0e-08
 Keep 1590 surface tesserae and discard 2058 interior tesserae
 Molecular Surface Area = 233.379 Angst**2
 Requested basis set is rimp2-cc-pVTZ
 There are 414 shells and 1414 basis functions
 A cutoff of  1.0D-10 yielded  13935 shell pairs
 There are    100983 function pairs (    129519 Cartesian)
 Smallest overlap matrix eigenvalue = 5.62E-05

 Scale SEOQF with 1.000000e-01/1.000000e-01/1.000000e-01

 Standard Electronic Orientation quadrupole field applied
 Nucleus-field energy     =     0.0000000276 hartrees
 Guess from superposition of atomic densities
 Warning:  Energy on first SCF cycle will be non-variational
 SAD guess density has 104.000000 electrons

 -----------------------------------------------------------------------
  General SCF calculation program by
  Eric Jon Sundstrom, Paul Horn, Yuezhi Mao, Dmitri Zuev, Alec White,
  David Stuck, Shaama M.S., Shane Yost, Joonho Lee, David Small,
  Daniel Levine, Susi Lehtola, Hugh Burton, Evgeny Epifanovsky,
  Bang C. Huynh
 -----------------------------------------------------------------------
 Hartree-Fock
 using 64 threads for integral computing
 -------------------------------------------------------
 OpenMP Integral computing Module                
 Release: version 1.0, May 2013, Q-Chem Inc. Pittsburgh 
 -------------------------------------------------------
 A restricted SCF calculation will be
 performed using DIIS
 SCF converges when DIIS error is below 1.0e-06
 ---------------------------------------
  Cycle       Energy         DIIS error
 ---------------------------------------
    1   -1186.0208732220      2.39e-02  
    2   -1180.6119231341      1.57e-03  
    3   -1180.7370851523      6.38e-04  
    4   -1180.7523299132      3.47e-04  
    5   -1180.7578600961      5.90e-05  
    6   -1180.7581043594      2.44e-05  
    7   -1180.7581612598      8.61e-06  
    8   -1180.7581735760      4.15e-06  
    9   -1180.7581763091      1.42e-06  
   10   -1180.7581767409      4.90e-07  Convergence criterion met
 ---------------------------------------
 SCF time:   CPU 1639.89s  wall 49.00s 

************** Final PCM Free Energy Summary **************
 G_electrostatic  =      -0.00835444 hartree =      -5.24249022 kcal/mol
 G_cavitation     =       0.00000000 hartree =       0.00000000 kcal/mol
 G_dispersion     =       0.00000000 hartree =       0.00000000 kcal/mol
 G_repulsion      =       0.00000000 hartree =       0.00000000 kcal/mol
 --------------------------------------------------
 Non-electrostatic Free Energy =       0.00000000 hartree =       0.00000000 kcal/mol
 Total                         =      -0.00835444 hartree =      -5.24249022 kcal/mol
 --------------------------------------------------
 SCF Energy (H0 + V/2)                       =   -1180.75817674 
 Solute Internal Energy (H0)                 =   -1180.74982230 
 Total Free Energy (H0 + V/2 + non-elec)     =   -1180.75817674 hartree
                                             = -740936.93886562 kcal/mol
***********************************************************

 SCF   energy in the final basis set =    -1180.7581767409
 Total energy in the final basis set =    -1180.7581767409


 --------------------------------------------------------------
  Generalized many-body perturbation theory program
  by Joonho Lee, Fazle Rob, Xintian Feng, Evgeny Epifanovsky

 No regularization used 
 (reg. param. = 0.0000e+00)
  (P|Q)^-1/2 Time:  CPU 19.10 s  wall 0.31 s

 In RI-MP2 calculation: 
 # of frozen core orbitals: 20

 Components of the RIMP2 correlation energy:
        aaaa    correlation energy =        -0.2514912415 a.u.
        abab    correlation energy =        -1.5031535488 a.u.
        bbbb    correlation energy =        -0.2514912415 a.u.
        non-Brillouin singles      =        -0.0000000000 a.u.
        total same-spin energy     =        -0.5029824831 a.u.
        total opposite-spin energy =        -1.5031535488 a.u.

 Total  RIMP2   correlation energy =        -2.0061360319 a.u.
        RIMP2         total energy =     -1182.7643127728 a.u.

 RI-MP2 Energy Time:  CPU 159.03 s  wall 2.57 s
 
 --------------------------------------------------------------
 
                    Orbital Energies (a.u.)
 --------------------------------------------------------------
 
 Alpha MOs
 -- Occupied --
-91.9827 -91.9442 -11.2874 -11.2643 -11.2589 -11.2574 -11.2506 -11.2430
-11.2339 -11.2314 -11.2284 -11.2213  -8.9824  -8.9488  -6.6634  -6.6628
 -6.6622  -6.6302  -6.6292  -6.6279  -1.1999  -1.1527  -1.0585  -1.0261
 -1.0075  -0.9568  -0.9139  -0.9016  -0.8136  -0.7684  -0.7243  -0.7008
 -0.6622  -0.6440  -0.6108  -0.5866  -0.5806  -0.5736  -0.5681  -0.5529
 -0.5419  -0.5320  -0.5143  -0.5073  -0.4927  -0.4816  -0.4574  -0.4493
 -0.3568  -0.3428  -0.3215  -0.2682
 -- Virtual --
  0.1005   0.1324   0.1440   0.1506   0.1585   0.1696   0.1771   0.1805
  0.1967   0.1977   0.2002   0.2051   0.2246   0.2356   0.2390   0.2421
  0.2526   0.2647   0.2734   0.3009   0.3296   0.3358   0.3538   0.3589
  0.3659   0.3685   0.3798   0.3902   0.3986   0.4040   0.4117   0.4311
  0.4389   0.4521   0.4567   0.4666   0.4716   0.4790   0.4832   0.4978
  0.5101   0.5141   0.5207   0.5304   0.5324   0.5420   0.5479   0.5516
  0.5607   0.5762   0.5826   0.5891   0.5955   0.6141   0.6167   0.6195
  0.6227   0.6288   0.6323   0.6405   0.6431   0.6453   0.6521   0.6566
  0.6647   0.6748   0.6883   0.6934   0.6950   0.7096   0.7120   0.7224
  0.7366   0.7458   0.7550   0.7822   0.7931   0.7933   0.8005   0.8248
  0.8285   0.8416   0.8547   0.8683   0.8749   0.8933   0.8962   0.9196
  0.9220   0.9518   0.9628   0.9660   0.9736   0.9892   0.9964   1.0026
  1.0132   1.0209   1.0392   1.0413   1.0607   1.0684   1.0749   1.0781
  1.0876   1.0938   1.1148   1.1259   1.1439   1.1500   1.1579   1.1639
  1.1731   1.1877   1.2010   1.2126   1.2201   1.2238   1.2373   1.2429
  1.2558   1.2626   1.2710   1.2740   1.2787   1.2862   1.2941   1.3051
  1.3285   1.3367   1.3458   1.3624   1.3835   1.3991   1.4003   1.4095
  1.4256   1.4413   1.4487   1.4705   1.4742   1.4796   1.4866   1.4915
  1.5061   1.5169   1.5242   1.5284   1.5361   1.5404   1.5496   1.5604
  1.5629   1.5758   1.5882   1.5918   1.6123   1.6193   1.6284   1.6394
  1.6479   1.6588   1.6731   1.6855   1.6981   1.7166   1.7223   1.7285
  1.7401   1.7589   1.7978   1.8032   1.8082   1.8222   1.8411   1.8578
  1.8876   1.9052   1.9333   1.9454   1.9536   1.9723   2.0044   2.0075
  2.0308   2.0316   2.0462   2.0594   2.0648   2.0776   2.1381   2.1630
  2.1918   2.1975   2.2130   2.2178   2.2310   2.2649   2.2694   2.2815
  2.3244   2.3346   2.3511   2.3631   2.4130   2.4288   2.4538   2.4665
  2.4901   2.5125   2.5430   2.5540   2.5700   2.5841   2.6090   2.6246
  2.6278   2.6476   2.6585   2.6687   2.6851   2.6979   2.7177   2.7327
  2.7410   2.7500   2.7580   2.7682   2.7747   2.7822   2.7952   2.8030
  2.8247   2.8463   2.8534   2.8782   2.8875   2.9060   2.9227   2.9276
  2.9424   2.9449   2.9531   2.9716   3.0043   3.0136   3.0276   3.0344
  3.0580   3.0637   3.0858   3.1012   3.1129   3.1179   3.1304   3.1423
  3.1448   3.1593   3.1614   3.1735   3.1910   3.1981   3.2062   3.2214
  3.2309   3.2427   3.2459   3.2680   3.2768   3.2887   3.2899   3.3099
  3.3152   3.3214   3.3256   3.3349   3.3402   3.3509   3.3523   3.3723
  3.3782   3.3817   3.3920   3.3979   3.4034   3.4080   3.4219   3.4331
  3.4381   3.4494   3.4573   3.4596   3.4667   3.4777   3.4958   3.4993
  3.5165   3.5197   3.5262   3.5368   3.5450   3.5503   3.5656   3.5784
  3.5900   3.5999   3.6103   3.6197   3.6285   3.6369   3.6473   3.6534
  3.6588   3.6787   3.6964   3.7100   3.7136   3.7202   3.7326   3.7382
  3.7467   3.7600   3.7733   3.7780   3.7892   3.7934   3.8075   3.8120
  3.8244   3.8332   3.8510   3.8608   3.8760   3.9001   3.9062   3.9145
  3.9330   3.9431   3.9556   3.9695   3.9748   3.9864   4.0091   4.0156
  4.0227   4.0374   4.0485   4.0571   4.0762   4.0908   4.1040   4.1099
  4.1238   4.1353   4.1472   4.1540   4.1569   4.1667   4.1809   4.1914
  4.2051   4.2147   4.2297   4.2442   4.2567   4.2689   4.2752   4.2847
  4.2898   4.3070   4.3204   4.3318   4.3390   4.3483   4.3595   4.3658
  4.3852   4.3924   4.4019   4.4044   4.4183   4.4251   4.4369   4.4567
  4.4660   4.4718   4.4789   4.4868   4.5022   4.5293   4.5420   4.5523
  4.5710   4.5892   4.6086   4.6289   4.6373   4.6458   4.6594   4.6686
  4.7060   4.7132   4.7327   4.7498   4.7729   4.8016   4.8316   4.8435
  4.8553   4.8699   4.8780   4.8967   4.9374   4.9588   4.9811   4.9895
  5.0153   5.0396   5.0911   5.0940   5.1210   5.1257   5.1631   5.1777
  5.1873   5.2236   5.2347   5.2692   5.2807   5.2868   5.3067   5.3168
  5.3400   5.3667   5.3817   5.3989   5.4040   5.4236   5.4406   5.4476
  5.4777   5.5128   5.5198   5.5443   5.5482   5.5614   5.5704   5.5844
  5.6237   5.6322   5.6441   5.6629   5.6735   5.6978   5.7018   5.7220
  5.7680   5.7881   5.8370   5.9800   5.9985   6.1342   6.1357   6.1500
  6.2187   6.2275   6.2302   6.2462   6.2696   6.2830   6.3106   6.3205
  6.3992   6.4856   9.4332  10.5845  11.9894  12.9547  13.1626  13.9541
 14.1102  14.2612  14.3244  14.7135
 --------------------------------------------------------------
 
          Ground-State Mulliken Net Atomic Charges

     Atom                 Charge (a.u.)
  ----------------------------------------
      1 C                    -0.074474
      2 C                    -0.324150
      3 C                    -0.027577
      4 H                     0.178619
      5 C                     0.075501
      6 S                    -0.176490
      7 C                    -0.289206
      8 H                     0.115785
      9 H                     0.112269
     10 H                     0.109830
     11 C                    -0.033784
     12 C                    -0.275465
     13 C                     0.029072
     14 H                     0.181993
     15 C                    -0.261145
     16 S                     0.008283
     17 C                    -0.271337
     18 H                     0.102658
     19 H                     0.108534
     20 H                     0.107678
     21 H                     0.196484
     22 H                     0.110480
     23 H                     0.113587
     24 H                     0.182854
  ----------------------------------------
  Sum of atomic charges =     0.000000

 -----------------------------------------------------------------
                    Cartesian Multipole Moments
 -----------------------------------------------------------------
    Charge (ESU x 10^10)
                -0.0000
    Dipole Moment (Debye)
         X       2.4918      Y      -0.0318      Z       0.0684
       Tot       2.4929
    Quadrupole Moments (Debye-Ang)
        XX     -91.6729     XY      -1.7957     YY     -74.1067
        XZ       0.1146     YZ       3.0954     ZZ     -85.4879
    Octopole Moments (Debye-Ang^2)
       XXX     -40.2086    XXY      45.3031    XYY      -5.1977
       YYY     121.5236    XXZ      -4.3282    XYZ       1.9938
       YYZ      -1.3582    XZZ      -8.0197    YZZ      52.4174
       ZZZ       0.2172
    Hexadecapole Moments (Debye-Ang^3)
      XXXX    -408.8943   XXXY     -89.6065   XXYY    -581.6234
      XYYY     -64.4596   YYYY   -2756.7557   XXXZ     124.0746
      XXYZ     -21.3965   XYYZ      24.0039   YYYZ    -115.9842
      XXZZ    -216.2207   XYZZ     -37.3185   YYZZ    -631.7601
      XZZZ     118.2387   YZZZ     -90.8735   ZZZZ    -878.3007
 -----------------------------------------------------------------
 Total job time:  52.77s(wall), 1865.98s(cpu) 
 Fri Dec 15 13:58:41 2023

        *************************************************************
        *                                                           *
        *  Thank you very much for using Q-Chem.  Have a nice day.  *
        *                                                           *
        *************************************************************


0 sent ACK to 0 
now end server 0 ... 
cleanup process ... done
remove work dirs ./qchem2322973.0 -- ./qchem2322973.0
rm -rf ./qchem2322973.0
rm -rf ./qchem2322973
