You are running Q-Chem version: 5.4.0

#
# job setting
#
local host:  exp-7-18
current dir: /home/rramji/project-csd799/aromodel/p3ht-qchem/hydrogenated-rotation-run
input file:  Methylthiophene_Phi_10_Theta_220_Methylthiophene_Hydrogenated.qcin
output file: 
nprocs     : 1
nthreads   : 64
#
# qchem installation setting
#
QC:          /cm/shared/apps/spack/cpu/opt/spack/linux-centos8-zen2/gcc-10.2.0/qchem-5.4-akfmr7b3t57bfs6qan3padb2wnb2i7cl
QCAUX:       /cm/shared/apps/spack/cpu/opt/spack/linux-centos8-zen2/gcc-10.2.0/qchem-5.4-akfmr7b3t57bfs6qan3padb2wnb2i7cl/qcaux
QCPROG:      /cm/shared/apps/spack/cpu/opt/spack/linux-centos8-zen2/gcc-10.2.0/qchem-5.4-akfmr7b3t57bfs6qan3padb2wnb2i7cl/exe/qcprog.exe
QCPROG_S:    /cm/shared/apps/spack/cpu/opt/spack/linux-centos8-zen2/gcc-10.2.0/qchem-5.4-akfmr7b3t57bfs6qan3padb2wnb2i7cl/exe/qcprog.exe_s
PARALLEL:    -DPARALLEL
QCMPI:       mpich
#
# qchem directory setting
#
qcrun:       qchem2329238
QCSCRATCH:   .
QCLOCALSCR:  
QCTMPDIR:    .
QCFILEPREF:  ./qchem2329238
QCSAVEDIR:   
workdirs:    ./qchem2329238
workdir0:    ./qchem2329238
partmpdirs =  
#
# parallel setting
#
QCRSH:           ssh
QCMPI:           mpich
QCMPIRUN:        /cm/shared/apps/spack/cpu/opt/spack/linux-centos8-zen2/gcc-10.2.0/qchem-5.4-akfmr7b3t57bfs6qan3padb2wnb2i7cl/bin/mpi/mpirun_qchem
QCMACHINEFILE:   ./qchem2329238/hostfile
exp-7-18

#
# env setting
#
exported envs:   QC QCAUX QCSCRATCH QCRUNNAME QCFILEPREF QCPROG QCPROG_S GUIFILE

Running Job 1 of 1 Methylthiophene_Phi_10_Theta_220_Methylthiophene_Hydrogenated.qcin
qchem Methylthiophene_Phi_10_Theta_220_Methylthiophene_Hydrogenated.qcin_2329238.0 ./qchem2329238/ 1
/cm/shared/apps/spack/cpu/opt/spack/linux-centos8-zen2/gcc-10.2.0/qchem-5.4-akfmr7b3t57bfs6qan3padb2wnb2i7cl/bin/mpi/mpirun_qchem -machinefile ./qchem2329238/hostfile -np 1 /cm/shared/apps/spack/cpu/opt/spack/linux-centos8-zen2/gcc-10.2.0/qchem-5.4-akfmr7b3t57bfs6qan3padb2wnb2i7cl/exe/qcprog.exe Methylthiophene_Phi_10_Theta_220_Methylthiophene_Hydrogenated.qcin_2329238.0 ./qchem2329238/

Process 0 of 1 is on exp-7-18 - thread support 0
initial socket setup ...start
initial socket setup ...done 
now start server 0 ... 
                  Welcome to Q-Chem
     A Quantum Leap Into The Future Of Chemistry


 Q-Chem 5.4, Q-Chem, Inc., Pleasanton, CA (2021)

 License issued to: University of California, San Diego (site)

 E. Epifanovsky,  A. T. B. Gilbert,  Xintian Feng,  Joonho Lee,  Yuezhi Mao,  
 N. Mardirossian,  P. Pokhilko,  A. White,  M. Wormit,  M. P. Coons,  
 A. L. Dempwolff,  Zhengting Gan,  D. Hait,  P. R. Horn,  L. D. Jacobson,  
 I. Kaliman,  J. Kussmann,  A. W. Lange,  Ka Un Lao,  D. S. Levine,  Jie Liu,  
 S. C. McKenzie,  A. F. Morrison,  K. Nanda,  F. Plasser,  D. R. Rehn,  
 M. L. Vidal,  Zhi-Qiang You,  Ying Zhu,  B. Alam,  B. Albrecht,  
 A. Aldossary,  E. Alguire,  J. H. Andersen,  D. Barton,  K. Begam,  A. Behn,  
 Y. A. Bernard,  E. J. Berquist,  H. Burton,  A. Carreras,  K. Carter-Fenk,  
 R. Chakraborty,  A. D. Chien,  K. D. Closser,  V. Cofer-Shabica,  
 S. Dasgupta,  Jia Deng,  M. de Wergifosse,  M. Diedenhofen,  Hainam Do,  
 S. Ehlert,  Po-Tung Fang,  S. Fatehi,  Qingguo Feng,  J. Gayvert,  
 Qinghui Ge,  G. Gidofalvi,  M. Goldey,  J. Gomes,  C. Gonzalez-Espinoza,  
 S. Gulania,  A. Gunina,  M. W. D. Hanson-Heine,  P. H. P. Harbach,  
 A. W. Hauser,  M. F. Herbst,  M. Hernandez Vera,  M. Hodecker,  
 Z. C. Holden,  S. Houck,  Xunkun Huang,  Kerwin Hui,  B. C. Huynh,  
 M. Ivanov,  Hyunjun Ji,  Hanjie Jiang,  B. Kaduk,  S. Kaehler,  
 K. Khistyaev,  Jaehoon Kim,  P. Klunzinger,  Z. Koczor-Benda,  
 Joong Hoon Koh,  D. Kosenkov,  L. Koulias,  T. Kowalczyk,  C. M. Krauter,  
 K. Kue,  A. Kunitsa,  T. Kus,  A. Landau,  K. V. Lawler,  D. Lefrancois,  
 S. Lehtola,  Rain Li,  Yi-Pei Li,  Jiashu Liang,  M. Liebenthal,  
 Hung-Hsuan Lin,  You-Sheng Lin,  Fenglai Liu,  Kuan-Yu Liu,  
 M. Loipersberger,  A. Luenser,  A. Manjanath,  P. Manohar,  E. Mansoor,  
 S. F. Manzer,  Shan-Ping Mao,  A. V. Marenich,  T. Markovich,  S. Mason,  
 S. A. Maurer,  P. F. McLaughlin,  M. F. S. J. Menger,  J.-M. Mewes,  
 S. A. Mewes,  P. Morgante,  J. W. Mullinax,  T. S. Nguyen-Beck,  
 K. J. Oosterbaan,  G. Paran,  Alexander C. Paul,  Suranjan K. Paul,  
 F. Pavosevic,  Zheng Pei,  S. Prager,  E. I. Proynov,  E. Ramos,  B. Rana,  
 A. E. Rask,  A. Rettig,  R. M. Richard,  F. Rob,  E. Rossomme,  T. Scheele,  
 M. Scheurer,  M. Schneider,  N. Sergueev,  S. M. Sharada,  W. Skomorowski,  
 D. W. Small,  C. J. Stein,  Yu-Chuan Su,  E. J. Sundstrom,  Zhen Tao,  
 J. Thirman,  T. Tsuchimochi,  N. M. Tubman,  S. P. Veccham,  O. Vydrov,  
 J. Wenzel,  J. Witte,  A. Yamada,  Kun Yao,  S. Yeganeh,  S. R. Yost,  
 A. Zech,  Igor Ying Zhang,  Xing Zhang,  Yu Zhang,  D. Zuev,  
 A. Aspuru-Guzik,  A. T. Bell,  N. A. Besley,  K. B. Bravaya,  B. R. Brooks,  
 D. Casanova,  Jeng-Da Chai,  S. Coriani,  C. J. Cramer,  
 A. E. DePrince, III,  R. A. DiStasio Jr.,  A. Dreuw,  B. D. Dunietz,  
 T. R. Furlani,  W. A. Goddard III,  S. Grimme,  S. Hammes-Schiffer,  
 T. Head-Gordon,  W. J. Hehre,  Chao-Ping Hsu,  T.-C. Jagau,  Yousung Jung,  
 A. Klamt,  Jing Kong,  D. S. Lambrecht,  WanZhen Liang,  N. J. Mayhall,  
 C. W. McCurdy,  J. B. Neaton,  C. Ochsenfeld,  J. A. Parkhill,  R. Peverati,  
 V. A. Rassolov,  Yihan Shao,  L. V. Slipchenko,  T. Stauch,  R. P. Steele,  
 J. E. Subotnik,  A. J. W. Thom,  A. Tkatchenko,  D. G. Truhlar,  
 T. Van Voorhis,  T. A. Wesolowski,  K. B. Whaley,  H. L. Woodcock III,  
 P. M. Zimmerman,  S. Faraji,  P. M. W. Gill,  M. Head-Gordon,  
 J. M. Herbert,  A. I. Krylov

 Contributors to earlier versions of Q-Chem not listed above: 
 R. D. Adamson,  B. Austin,  R. Baer,  J. Baker,  G. J. O. Beran,  
 K. Brandhorst,  S. T. Brown,  E. F. C. Byrd,  A. K. Chakraborty,  
 G. K. L. Chan,  Chun-Min Chang,  Yunqing Chen,  C.-L. Cheng,  
 Siu Hung Chien,  D. M. Chipman,  D. L. Crittenden,  H. Dachsel,  
 R. J. Doerksen,  A. D. Dutoi,  R. G. Edgar,  J. Fosso-Tande,  
 L. Fusti-Molnar,  D. Ghosh,  A. Ghysels,  A. Golubeva-Zadorozhnaya,  
 J. Gonthier,  M. S. Gordon,  S. R. Gwaltney,  G. Hawkins,  J. E. Herr,  
 A. Heyden,  S. Hirata,  E. G. Hohenstein,  G. Kedziora,  F. J. Keil,  
 C. Kelley,  Jihan Kim,  R. A. King,  R. Z. Khaliullin,  P. P. Korambath,  
 W. Kurlancheek,  A. Laurent,  A. M. Lee,  M. S. Lee,  S. V. Levchenko,  
 Ching Yeh Lin,  D. Liotard,  E. Livshits,  R. C. Lochan,  I. Lotan,  
 L. A. Martinez-Martinez,  P. E. Maslen,  N. Nair,  D. P. O'Neill,  
 D. Neuhauser,  E. Neuscamman,  C. M. Oana,  R. Olivares-Amaya,  R. Olson,  
 T. M. Perrine,  B. Peters,  P. A. Pieniazek,  A. Prociuk,  Y. M. Rhee,  
 J. Ritchie,  M. A. Rohrdanz,  E. Rosta,  N. J. Russ,  H. F. Schaefer III,  
 M. W. Schmidt,  N. E. Schultz,  S. Sharma,  N. Shenvi,  C. D. Sherrill,  
 A. C. Simmonett,  A. Sodt,  T. Stein,  D. Stuck,  K. S. Thanthiriwatte,  
 V. Vanovschi,  L. Vogt,  Tao Wang,  A. Warshel,  M. A. Watson,  
 C. F. Williams,  Q. Wu,  X. Xu,  Jun Yang,  W. Zhang,  Yan Zhao

 Please cite Q-Chem as follows:
 Y. Shao et al., Mol. Phys. 113, 184-215 (2015)
 DOI: 10.1080/00268976.2014.952696

 Q-Chem 5.4.0 for Intel X86 EM64T Linux

 Parts of Q-Chem use Armadillo 9.800.1 (Horizon Scraper).
 http://arma.sourceforge.net/

 Q-Chem begins on Fri Dec 15 14:15:44 2023  

 Host: 
0

     Scratch files written to ./qchem2329238//
 May1621 |scratch|qcdevops|jenkins|workspace|build_RNUM    
 Parallel job on  1  processors
 Processing $rem in /cm/shared/apps/spack/cpu/opt/spack/linux-centos8-zen2/gcc-10.2.0/qchem-5.4-akfmr7b3t57bfs6qan3padb2wnb2i7cl/config/preferences:
 Processing $rem in /home/rramji/.qchemrc:
 Symmetry turned off for PCM/SM12/SMD calculation
 Core orbitals will be frozen

 Checking the input file for inconsistencies... 	...done.

 Q-Chem warning in module forms1/BasisType.C, line 2236:

 You are not using the predefined 5D/6D in this basis set.


--------------------------------------------------------------
User input:
--------------------------------------------------------------
$molecule
0 1
C	0.466510	-3.887800	-0.554267
C	-0.424173	-3.701456	0.507121
C	-0.697244	-2.345170	0.831575
H	-0.877789	-4.545233	1.048337
C	0.000000	-1.450135	0.000000
S	0.982150	-2.321334	-1.169911
C	-1.627024	-1.934439	1.939374
H	-2.054010	-2.819799	2.448894
H	-2.475299	-1.326210	1.561545
H	-1.108051	-1.325374	2.708773
C	0.000000	0.000000	0.000000
C	0.143630	0.832309	1.113020
C	0.380550	2.202961	0.820578
H	0.077556	0.449877	2.142881
C	0.422995	2.447456	-0.563588
S	0.164909	0.956502	-1.464748
C	0.561888	3.252016	1.882380
H	0.485513	2.810624	2.894974
H	-0.205711	4.050482	1.808137
H	1.553045	3.746365	1.808230
H	0.586105	3.391501	-1.097114
H	-0.005807	-4.420219	-1.387431
H	1.369415	-4.419395	-0.233510
H	-0.827337	-1.450628	-0.694200
$end

$rem
JOBTYPE		SP
EXCHANGE	HF
CORRELATION	pRIMP2
BASIS		cc-pvtz
METHOD		rimp2
AUX_BASIS	rimp2-cc-pvtz
SOLVENT_METHOD	PCM
PURECART	11111
SYMMETRY	false
MEM_TOTAL	110000
SCF_CONVERGENCE = 6
THRESH=10
GUI = 2
$end



$solvent
dielectric 4.90
$end
--------------------------------------------------------------
 ----------------------------------------------------------------
             Standard Nuclear Orientation (Angstroms)
    I     Atom           X                Y                Z
 ----------------------------------------------------------------
    1      C       0.4665100000    -3.8878000000    -0.5542670000
    2      C      -0.4241730000    -3.7014560000     0.5071210000
    3      C      -0.6972440000    -2.3451700000     0.8315750000
    4      H      -0.8777890000    -4.5452330000     1.0483370000
    5      C       0.0000000000    -1.4501350000     0.0000000000
    6      S       0.9821500000    -2.3213340000    -1.1699110000
    7      C      -1.6270240000    -1.9344390000     1.9393740000
    8      H      -2.0540100000    -2.8197990000     2.4488940000
    9      H      -2.4752990000    -1.3262100000     1.5615450000
   10      H      -1.1080510000    -1.3253740000     2.7087730000
   11      C       0.0000000000     0.0000000000     0.0000000000
   12      C       0.1436300000     0.8323090000     1.1130200000
   13      C       0.3805500000     2.2029610000     0.8205780000
   14      H       0.0775560000     0.4498770000     2.1428810000
   15      C       0.4229950000     2.4474560000    -0.5635880000
   16      S       0.1649090000     0.9565020000    -1.4647480000
   17      C       0.5618880000     3.2520160000     1.8823800000
   18      H       0.4855130000     2.8106240000     2.8949740000
   19      H      -0.2057110000     4.0504820000     1.8081370000
   20      H       1.5530450000     3.7463650000     1.8082300000
   21      H       0.5861050000     3.3915010000    -1.0971140000
   22      H      -0.0058070000    -4.4202190000    -1.3874310000
   23      H       1.3694150000    -4.4193950000    -0.2335100000
   24      H      -0.8273370000    -1.4506280000    -0.6942000000
 ----------------------------------------------------------------
 Nuclear Repulsion Energy =         873.76155325 hartrees
 There are       52 alpha and       52 beta electrons
 Requested basis set is cc-pVTZ
 There are 196 shells and 536 basis functions

 Total QAlloc Memory Limit 110000 MB
 Mega-Array Size       188 MB
 MEM_STATIC part       192 MB
 Discretize the solute cavity surface with Lebedev spheres
	Using 110 Lebedev grid points for each H atom
	Using 194 Lebedev grid points for other atoms
	Atomic van der Waals radii will be scaled by 1.20
 Remove points where switching function is < 1.0e-08
 Keep 1598 surface tesserae and discard 2050 interior tesserae
 Molecular Surface Area = 233.991 Angst**2
 Requested basis set is rimp2-cc-pVTZ
 There are 414 shells and 1414 basis functions
 A cutoff of  1.0D-10 yielded  13995 shell pairs
 There are    101415 function pairs (    130008 Cartesian)
 Smallest overlap matrix eigenvalue = 6.39E-05

 Scale SEOQF with 1.000000e-01/1.000000e-01/1.000000e-01

 Standard Electronic Orientation quadrupole field applied
 Nucleus-field energy     =     0.0000000276 hartrees
 Guess from superposition of atomic densities
 Warning:  Energy on first SCF cycle will be non-variational
 SAD guess density has 104.000000 electrons

 -----------------------------------------------------------------------
  General SCF calculation program by
  Eric Jon Sundstrom, Paul Horn, Yuezhi Mao, Dmitri Zuev, Alec White,
  David Stuck, Shaama M.S., Shane Yost, Joonho Lee, David Small,
  Daniel Levine, Susi Lehtola, Hugh Burton, Evgeny Epifanovsky,
  Bang C. Huynh
 -----------------------------------------------------------------------
 Hartree-Fock
 using 64 threads for integral computing
 -------------------------------------------------------
 OpenMP Integral computing Module                
 Release: version 1.0, May 2013, Q-Chem Inc. Pittsburgh 
 -------------------------------------------------------
 A restricted SCF calculation will be
 performed using DIIS
 SCF converges when DIIS error is below 1.0e-06
 ---------------------------------------
  Cycle       Energy         DIIS error
 ---------------------------------------
    1   -1186.0119356953      2.38e-02  
    2   -1180.6113159869      1.58e-03  
    3   -1180.7371140363      6.31e-04  
    4   -1180.7522941333      3.36e-04  
    5   -1180.7575457285      6.01e-05  
    6   -1180.7577971485      2.48e-05  
    7   -1180.7578578816      9.04e-06  
    8   -1180.7578714995      4.40e-06  
    9   -1180.7578745345      1.44e-06  
   10   -1180.7578749871      5.09e-07  Convergence criterion met
 ---------------------------------------
 SCF time:   CPU 1639.37s  wall 48.00s 

************** Final PCM Free Energy Summary **************
 G_electrostatic  =      -0.00945499 hartree =      -5.93309890 kcal/mol
 G_cavitation     =       0.00000000 hartree =       0.00000000 kcal/mol
 G_dispersion     =       0.00000000 hartree =       0.00000000 kcal/mol
 G_repulsion      =       0.00000000 hartree =       0.00000000 kcal/mol
 --------------------------------------------------
 Non-electrostatic Free Energy =       0.00000000 hartree =       0.00000000 kcal/mol
 Total                         =      -0.00945499 hartree =      -5.93309890 kcal/mol
 --------------------------------------------------
 SCF Energy (H0 + V/2)                       =   -1180.75787499 
 Solute Internal Energy (H0)                 =   -1180.74841999 
 Total Free Energy (H0 + V/2 + non-elec)     =   -1180.75787499 hartree
                                             = -740936.74951223 kcal/mol
***********************************************************

 SCF   energy in the final basis set =    -1180.7578749871
 Total energy in the final basis set =    -1180.7578749871


 --------------------------------------------------------------
  Generalized many-body perturbation theory program
  by Joonho Lee, Fazle Rob, Xintian Feng, Evgeny Epifanovsky

 No regularization used 
 (reg. param. = 0.0000e+00)
  (P|Q)^-1/2 Time:  CPU 19.31 s  wall 0.31 s

 In RI-MP2 calculation: 
 # of frozen core orbitals: 20

 Components of the RIMP2 correlation energy:
        aaaa    correlation energy =        -0.2510183104 a.u.
        abab    correlation energy =        -1.5026009444 a.u.
        bbbb    correlation energy =        -0.2510183104 a.u.
        non-Brillouin singles      =        -0.0000000000 a.u.
        total same-spin energy     =        -0.5020366208 a.u.
        total opposite-spin energy =        -1.5026009444 a.u.

 Total  RIMP2   correlation energy =        -2.0046375652 a.u.
        RIMP2         total energy =     -1182.7625125523 a.u.

 RI-MP2 Energy Time:  CPU 173.13 s  wall 3.24 s
 
 --------------------------------------------------------------
 
                    Orbital Energies (a.u.)
 --------------------------------------------------------------
 
 Alpha MOs
 -- Occupied --
-91.9848 -91.9445 -11.2846 -11.2646 -11.2605 -11.2584 -11.2505 -11.2430
-11.2340 -11.2328 -11.2286 -11.2214  -8.9845  -8.9491  -6.6654  -6.6649
 -6.6643  -6.6305  -6.6294  -6.6281  -1.1993  -1.1533  -1.0582  -1.0294
 -1.0012  -0.9629  -0.9139  -0.9004  -0.8157  -0.7602  -0.7386  -0.7033
 -0.6543  -0.6400  -0.6108  -0.5912  -0.5813  -0.5685  -0.5660  -0.5535
 -0.5447  -0.5324  -0.5171  -0.5040  -0.4900  -0.4819  -0.4651  -0.4485
 -0.3569  -0.3426  -0.3226  -0.2695
 -- Virtual --
  0.0978   0.1317   0.1406   0.1494   0.1585   0.1701   0.1783   0.1863
  0.1927   0.2029   0.2039   0.2159   0.2262   0.2315   0.2394   0.2416
  0.2520   0.2605   0.2820   0.2996   0.3213   0.3348   0.3467   0.3608
  0.3675   0.3755   0.3779   0.3883   0.4024   0.4099   0.4121   0.4213
  0.4372   0.4438   0.4539   0.4680   0.4757   0.4827   0.4835   0.4896
  0.4985   0.5082   0.5123   0.5264   0.5407   0.5439   0.5484   0.5548
  0.5673   0.5765   0.5861   0.5914   0.6026   0.6065   0.6134   0.6169
  0.6246   0.6286   0.6319   0.6346   0.6404   0.6480   0.6505   0.6598
  0.6660   0.6779   0.6876   0.6896   0.7031   0.7043   0.7155   0.7236
  0.7301   0.7493   0.7699   0.7713   0.7757   0.7907   0.8066   0.8226
  0.8343   0.8518   0.8620   0.8661   0.8882   0.8915   0.9002   0.9089
  0.9313   0.9386   0.9443   0.9605   0.9658   0.9780   1.0059   1.0161
  1.0179   1.0289   1.0373   1.0416   1.0599   1.0661   1.0740   1.0816
  1.0876   1.0985   1.1117   1.1225   1.1337   1.1421   1.1607   1.1719
  1.1808   1.1951   1.2041   1.2062   1.2128   1.2228   1.2325   1.2454
  1.2482   1.2624   1.2637   1.2784   1.2827   1.2924   1.2981   1.3122
  1.3175   1.3274   1.3459   1.3633   1.3791   1.3894   1.4029   1.4154
  1.4231   1.4347   1.4395   1.4557   1.4640   1.4787   1.4901   1.4944
  1.5020   1.5125   1.5242   1.5303   1.5356   1.5427   1.5455   1.5568
  1.5677   1.5821   1.5849   1.5999   1.6245   1.6298   1.6358   1.6397
  1.6471   1.6692   1.6762   1.6879   1.7043   1.7197   1.7306   1.7405
  1.7457   1.7511   1.7632   1.8020   1.8203   1.8305   1.8474   1.8652
  1.8851   1.9030   1.9186   1.9246   1.9266   1.9671   1.9900   2.0020
  2.0184   2.0329   2.0551   2.0627   2.0743   2.1067   2.1325   2.1659
  2.1858   2.1907   2.2101   2.2295   2.2347   2.2440   2.2704   2.2738
  2.2928   2.3239   2.3348   2.3760   2.4150   2.4476   2.4593   2.4724
  2.4922   2.5161   2.5295   2.5418   2.5695   2.5721   2.5925   2.6024
  2.6199   2.6421   2.6583   2.6676   2.6823   2.6889   2.7007   2.7316
  2.7415   2.7569   2.7618   2.7746   2.7821   2.7934   2.8019   2.8165
  2.8419   2.8487   2.8616   2.8659   2.8782   2.8985   2.9077   2.9293
  2.9406   2.9674   2.9743   2.9821   2.9950   3.0213   3.0346   3.0417
  3.0466   3.0703   3.0891   3.1085   3.1160   3.1183   3.1197   3.1355
  3.1376   3.1520   3.1594   3.1712   3.1792   3.1933   3.2014   3.2188
  3.2253   3.2477   3.2518   3.2639   3.2815   3.2888   3.2974   3.3116
  3.3159   3.3218   3.3366   3.3413   3.3439   3.3498   3.3583   3.3646
  3.3684   3.3833   3.3930   3.3954   3.4070   3.4180   3.4268   3.4282
  3.4399   3.4471   3.4533   3.4632   3.4712   3.4777   3.4968   3.5066
  3.5137   3.5167   3.5326   3.5356   3.5533   3.5583   3.5659   3.5856
  3.5909   3.5934   3.6142   3.6211   3.6264   3.6325   3.6475   3.6561
  3.6621   3.6707   3.6887   3.7011   3.7073   3.7166   3.7379   3.7455
  3.7502   3.7529   3.7726   3.7783   3.7831   3.7879   3.7988   3.8078
  3.8322   3.8354   3.8609   3.8652   3.8698   3.8907   3.8978   3.9189
  3.9278   3.9405   3.9572   3.9663   3.9694   3.9805   3.9960   4.0212
  4.0292   4.0372   4.0500   4.0593   4.0649   4.0745   4.0930   4.0965
  4.1179   4.1267   4.1491   4.1506   4.1657   4.1680   4.1800   4.2054
  4.2144   4.2263   4.2282   4.2365   4.2537   4.2574   4.2712   4.2861
  4.2976   4.3053   4.3185   4.3210   4.3448   4.3529   4.3641   4.3690
  4.3804   4.3915   4.4014   4.4057   4.4211   4.4299   4.4391   4.4545
  4.4598   4.4760   4.4873   4.4912   4.4975   4.5072   4.5386   4.5508
  4.5818   4.5924   4.6098   4.6199   4.6258   4.6405   4.6530   4.6789
  4.6985   4.7189   4.7520   4.7631   4.7758   4.8042   4.8163   4.8455
  4.8626   4.8668   4.8965   4.9026   4.9301   4.9700   4.9751   4.9942
  5.0137   5.0384   5.0964   5.0980   5.1169   5.1302   5.1610   5.1771
  5.1968   5.2125   5.2401   5.2613   5.2764   5.2945   5.3060   5.3260
  5.3517   5.3702   5.3771   5.4032   5.4158   5.4172   5.4368   5.4445
  5.4708   5.5171   5.5255   5.5381   5.5509   5.5576   5.5703   5.5973
  5.6085   5.6242   5.6328   5.6748   5.6823   5.6987   5.7053   5.7295
  5.7638   5.7879   5.8334   5.9868   6.0361   6.0750   6.1201   6.1651
  6.2089   6.2270   6.2359   6.2387   6.2660   6.2955   6.2991   6.3556
  6.3999   6.5272   9.4003  10.8541  11.9979  12.9635  13.2135  13.9830
 14.0663  14.1904  14.3588  14.6875
 --------------------------------------------------------------
 
          Ground-State Mulliken Net Atomic Charges

     Atom                 Charge (a.u.)
  ----------------------------------------
      1 C                    -0.074732
      2 C                    -0.326016
      3 C                    -0.030741
      4 H                     0.178364
      5 C                     0.115028
      6 S                    -0.175461
      7 C                    -0.279864
      8 H                     0.116216
      9 H                     0.108432
     10 H                     0.103202
     11 C                    -0.104483
     12 C                    -0.226963
     13 C                     0.014276
     14 H                     0.192020
     15 C                    -0.246640
     16 S                     0.001251
     17 C                    -0.273986
     18 H                     0.101378
     19 H                     0.108068
     20 H                     0.108943
     21 H                     0.198102
     22 H                     0.110719
     23 H                     0.114434
     24 H                     0.168453
  ----------------------------------------
  Sum of atomic charges =     0.000000

 -----------------------------------------------------------------
                    Cartesian Multipole Moments
 -----------------------------------------------------------------
    Charge (ESU x 10^10)
                -0.0000
    Dipole Moment (Debye)
         X      -1.9027      Y       0.1518      Z       2.7410
       Tot       3.3401
    Quadrupole Moments (Debye-Ang)
        XX     -91.7251     XY       5.1832     YY     -73.4091
        XZ       0.0862     YZ      -0.7299     ZZ     -85.6254
    Octopole Moments (Debye-Ang^2)
       XXX     -34.0272    XXY      45.5391    XYY      -6.0145
       YYY     121.9706    XXZ      -1.1211    XYZ       2.0979
       YYZ      -7.1576    XZZ     -12.9824    YZZ      52.6845
       ZZZ      -2.2203
    Hexadecapole Moments (Debye-Ang^3)
      XXXX    -409.0174   XXXY     -81.1641   XXYY    -580.2167
      XYYY     -63.2945   YYYY   -2748.5495   XXXZ     124.0733
      XXYZ     -43.3239   XYYZ      23.3389   YYYZ    -107.4997
      XXZZ    -216.6319   XYZZ      -9.3909   YYZZ    -630.6888
      XZZZ     118.7175   YZZZ    -110.8364   ZZZZ    -879.8844
 -----------------------------------------------------------------
 Total job time:  53.34s(wall), 1880.00s(cpu) 
 Fri Dec 15 14:16:38 2023

        *************************************************************
        *                                                           *
        *  Thank you very much for using Q-Chem.  Have a nice day.  *
        *                                                           *
        *************************************************************


0 sent ACK to 0 
now end server 0 ... 
cleanup process ... done
remove work dirs ./qchem2329238.0 -- ./qchem2329238.0
rm -rf ./qchem2329238.0
rm -rf ./qchem2329238
