You are running Q-Chem version: 5.4.0

#
# job setting
#
local host:  exp-6-19
current dir: /home/rramji/project-csd799/aromodel/p3ht-qchem/hydrogenated-rotation-run
input file:  Methylthiophene_Phi_40_Theta_230_Methylthiophene_Hydrogenated.qcin
output file: 
nprocs     : 1
nthreads   : 64
#
# qchem installation setting
#
QC:          /cm/shared/apps/spack/cpu/opt/spack/linux-centos8-zen2/gcc-10.2.0/qchem-5.4-akfmr7b3t57bfs6qan3padb2wnb2i7cl
QCAUX:       /cm/shared/apps/spack/cpu/opt/spack/linux-centos8-zen2/gcc-10.2.0/qchem-5.4-akfmr7b3t57bfs6qan3padb2wnb2i7cl/qcaux
QCPROG:      /cm/shared/apps/spack/cpu/opt/spack/linux-centos8-zen2/gcc-10.2.0/qchem-5.4-akfmr7b3t57bfs6qan3padb2wnb2i7cl/exe/qcprog.exe
QCPROG_S:    /cm/shared/apps/spack/cpu/opt/spack/linux-centos8-zen2/gcc-10.2.0/qchem-5.4-akfmr7b3t57bfs6qan3padb2wnb2i7cl/exe/qcprog.exe_s
PARALLEL:    -DPARALLEL
QCMPI:       mpich
#
# qchem directory setting
#
qcrun:       qchem2719168
QCSCRATCH:   .
QCLOCALSCR:  
QCTMPDIR:    .
QCFILEPREF:  ./qchem2719168
QCSAVEDIR:   
workdirs:    ./qchem2719168
workdir0:    ./qchem2719168
partmpdirs =  
#
# parallel setting
#
QCRSH:           ssh
QCMPI:           mpich
QCMPIRUN:        /cm/shared/apps/spack/cpu/opt/spack/linux-centos8-zen2/gcc-10.2.0/qchem-5.4-akfmr7b3t57bfs6qan3padb2wnb2i7cl/bin/mpi/mpirun_qchem
QCMACHINEFILE:   ./qchem2719168/hostfile
exp-6-19

#
# env setting
#
exported envs:   QC QCAUX QCSCRATCH QCRUNNAME QCFILEPREF QCPROG QCPROG_S GUIFILE

Running Job 1 of 1 Methylthiophene_Phi_40_Theta_230_Methylthiophene_Hydrogenated.qcin
qchem Methylthiophene_Phi_40_Theta_230_Methylthiophene_Hydrogenated.qcin_2719168.0 ./qchem2719168/ 1
/cm/shared/apps/spack/cpu/opt/spack/linux-centos8-zen2/gcc-10.2.0/qchem-5.4-akfmr7b3t57bfs6qan3padb2wnb2i7cl/bin/mpi/mpirun_qchem -machinefile ./qchem2719168/hostfile -np 1 /cm/shared/apps/spack/cpu/opt/spack/linux-centos8-zen2/gcc-10.2.0/qchem-5.4-akfmr7b3t57bfs6qan3padb2wnb2i7cl/exe/qcprog.exe Methylthiophene_Phi_40_Theta_230_Methylthiophene_Hydrogenated.qcin_2719168.0 ./qchem2719168/

Process 0 of 1 is on exp-6-19 - thread support 0
initial socket setup ...start
initial socket setup ...done 
now start server 0 ... 
                  Welcome to Q-Chem
     A Quantum Leap Into The Future Of Chemistry


 Q-Chem 5.4, Q-Chem, Inc., Pleasanton, CA (2021)

 License issued to: University of California, San Diego (site)

 E. Epifanovsky,  A. T. B. Gilbert,  Xintian Feng,  Joonho Lee,  Yuezhi Mao,  
 N. Mardirossian,  P. Pokhilko,  A. White,  M. Wormit,  M. P. Coons,  
 A. L. Dempwolff,  Zhengting Gan,  D. Hait,  P. R. Horn,  L. D. Jacobson,  
 I. Kaliman,  J. Kussmann,  A. W. Lange,  Ka Un Lao,  D. S. Levine,  Jie Liu,  
 S. C. McKenzie,  A. F. Morrison,  K. Nanda,  F. Plasser,  D. R. Rehn,  
 M. L. Vidal,  Zhi-Qiang You,  Ying Zhu,  B. Alam,  B. Albrecht,  
 A. Aldossary,  E. Alguire,  J. H. Andersen,  D. Barton,  K. Begam,  A. Behn,  
 Y. A. Bernard,  E. J. Berquist,  H. Burton,  A. Carreras,  K. Carter-Fenk,  
 R. Chakraborty,  A. D. Chien,  K. D. Closser,  V. Cofer-Shabica,  
 S. Dasgupta,  Jia Deng,  M. de Wergifosse,  M. Diedenhofen,  Hainam Do,  
 S. Ehlert,  Po-Tung Fang,  S. Fatehi,  Qingguo Feng,  J. Gayvert,  
 Qinghui Ge,  G. Gidofalvi,  M. Goldey,  J. Gomes,  C. Gonzalez-Espinoza,  
 S. Gulania,  A. Gunina,  M. W. D. Hanson-Heine,  P. H. P. Harbach,  
 A. W. Hauser,  M. F. Herbst,  M. Hernandez Vera,  M. Hodecker,  
 Z. C. Holden,  S. Houck,  Xunkun Huang,  Kerwin Hui,  B. C. Huynh,  
 M. Ivanov,  Hyunjun Ji,  Hanjie Jiang,  B. Kaduk,  S. Kaehler,  
 K. Khistyaev,  Jaehoon Kim,  P. Klunzinger,  Z. Koczor-Benda,  
 Joong Hoon Koh,  D. Kosenkov,  L. Koulias,  T. Kowalczyk,  C. M. Krauter,  
 K. Kue,  A. Kunitsa,  T. Kus,  A. Landau,  K. V. Lawler,  D. Lefrancois,  
 S. Lehtola,  Rain Li,  Yi-Pei Li,  Jiashu Liang,  M. Liebenthal,  
 Hung-Hsuan Lin,  You-Sheng Lin,  Fenglai Liu,  Kuan-Yu Liu,  
 M. Loipersberger,  A. Luenser,  A. Manjanath,  P. Manohar,  E. Mansoor,  
 S. F. Manzer,  Shan-Ping Mao,  A. V. Marenich,  T. Markovich,  S. Mason,  
 S. A. Maurer,  P. F. McLaughlin,  M. F. S. J. Menger,  J.-M. Mewes,  
 S. A. Mewes,  P. Morgante,  J. W. Mullinax,  T. S. Nguyen-Beck,  
 K. J. Oosterbaan,  G. Paran,  Alexander C. Paul,  Suranjan K. Paul,  
 F. Pavosevic,  Zheng Pei,  S. Prager,  E. I. Proynov,  E. Ramos,  B. Rana,  
 A. E. Rask,  A. Rettig,  R. M. Richard,  F. Rob,  E. Rossomme,  T. Scheele,  
 M. Scheurer,  M. Schneider,  N. Sergueev,  S. M. Sharada,  W. Skomorowski,  
 D. W. Small,  C. J. Stein,  Yu-Chuan Su,  E. J. Sundstrom,  Zhen Tao,  
 J. Thirman,  T. Tsuchimochi,  N. M. Tubman,  S. P. Veccham,  O. Vydrov,  
 J. Wenzel,  J. Witte,  A. Yamada,  Kun Yao,  S. Yeganeh,  S. R. Yost,  
 A. Zech,  Igor Ying Zhang,  Xing Zhang,  Yu Zhang,  D. Zuev,  
 A. Aspuru-Guzik,  A. T. Bell,  N. A. Besley,  K. B. Bravaya,  B. R. Brooks,  
 D. Casanova,  Jeng-Da Chai,  S. Coriani,  C. J. Cramer,  
 A. E. DePrince, III,  R. A. DiStasio Jr.,  A. Dreuw,  B. D. Dunietz,  
 T. R. Furlani,  W. A. Goddard III,  S. Grimme,  S. Hammes-Schiffer,  
 T. Head-Gordon,  W. J. Hehre,  Chao-Ping Hsu,  T.-C. Jagau,  Yousung Jung,  
 A. Klamt,  Jing Kong,  D. S. Lambrecht,  WanZhen Liang,  N. J. Mayhall,  
 C. W. McCurdy,  J. B. Neaton,  C. Ochsenfeld,  J. A. Parkhill,  R. Peverati,  
 V. A. Rassolov,  Yihan Shao,  L. V. Slipchenko,  T. Stauch,  R. P. Steele,  
 J. E. Subotnik,  A. J. W. Thom,  A. Tkatchenko,  D. G. Truhlar,  
 T. Van Voorhis,  T. A. Wesolowski,  K. B. Whaley,  H. L. Woodcock III,  
 P. M. Zimmerman,  S. Faraji,  P. M. W. Gill,  M. Head-Gordon,  
 J. M. Herbert,  A. I. Krylov

 Contributors to earlier versions of Q-Chem not listed above: 
 R. D. Adamson,  B. Austin,  R. Baer,  J. Baker,  G. J. O. Beran,  
 K. Brandhorst,  S. T. Brown,  E. F. C. Byrd,  A. K. Chakraborty,  
 G. K. L. Chan,  Chun-Min Chang,  Yunqing Chen,  C.-L. Cheng,  
 Siu Hung Chien,  D. M. Chipman,  D. L. Crittenden,  H. Dachsel,  
 R. J. Doerksen,  A. D. Dutoi,  R. G. Edgar,  J. Fosso-Tande,  
 L. Fusti-Molnar,  D. Ghosh,  A. Ghysels,  A. Golubeva-Zadorozhnaya,  
 J. Gonthier,  M. S. Gordon,  S. R. Gwaltney,  G. Hawkins,  J. E. Herr,  
 A. Heyden,  S. Hirata,  E. G. Hohenstein,  G. Kedziora,  F. J. Keil,  
 C. Kelley,  Jihan Kim,  R. A. King,  R. Z. Khaliullin,  P. P. Korambath,  
 W. Kurlancheek,  A. Laurent,  A. M. Lee,  M. S. Lee,  S. V. Levchenko,  
 Ching Yeh Lin,  D. Liotard,  E. Livshits,  R. C. Lochan,  I. Lotan,  
 L. A. Martinez-Martinez,  P. E. Maslen,  N. Nair,  D. P. O'Neill,  
 D. Neuhauser,  E. Neuscamman,  C. M. Oana,  R. Olivares-Amaya,  R. Olson,  
 T. M. Perrine,  B. Peters,  P. A. Pieniazek,  A. Prociuk,  Y. M. Rhee,  
 J. Ritchie,  M. A. Rohrdanz,  E. Rosta,  N. J. Russ,  H. F. Schaefer III,  
 M. W. Schmidt,  N. E. Schultz,  S. Sharma,  N. Shenvi,  C. D. Sherrill,  
 A. C. Simmonett,  A. Sodt,  T. Stein,  D. Stuck,  K. S. Thanthiriwatte,  
 V. Vanovschi,  L. Vogt,  Tao Wang,  A. Warshel,  M. A. Watson,  
 C. F. Williams,  Q. Wu,  X. Xu,  Jun Yang,  W. Zhang,  Yan Zhao

 Please cite Q-Chem as follows:
 Y. Shao et al., Mol. Phys. 113, 184-215 (2015)
 DOI: 10.1080/00268976.2014.952696

 Q-Chem 5.4.0 for Intel X86 EM64T Linux

 Parts of Q-Chem use Armadillo 9.800.1 (Horizon Scraper).
 http://arma.sourceforge.net/

 Q-Chem begins on Fri Dec 15 14:17:42 2023  

 Host: 
0

     Scratch files written to ./qchem2719168//
 May1621 |scratch|qcdevops|jenkins|workspace|build_RNUM    
 Parallel job on  1  processors
 Processing $rem in /cm/shared/apps/spack/cpu/opt/spack/linux-centos8-zen2/gcc-10.2.0/qchem-5.4-akfmr7b3t57bfs6qan3padb2wnb2i7cl/config/preferences:
 Processing $rem in /home/rramji/.qchemrc:
 Symmetry turned off for PCM/SM12/SMD calculation
 Core orbitals will be frozen

 Checking the input file for inconsistencies... 	...done.

 Q-Chem warning in module forms1/BasisType.C, line 2236:

 You are not using the predefined 5D/6D in this basis set.


--------------------------------------------------------------
User input:
--------------------------------------------------------------
$molecule
0 1
C	0.555670	-3.887800	-0.464838
C	-0.505790	-3.701456	0.425760
C	-0.831053	-2.345170	0.697866
H	-1.046496	-4.545233	0.879984
C	-0.000000	-1.450135	-0.000000
S	1.170382	-2.321334	-0.981588
C	-1.939074	-1.934439	1.627381
H	-2.448051	-2.819799	2.055015
H	-2.708853	-1.326210	1.107991
H	-1.561590	-1.325374	2.475210
C	0.000000	0.000000	0.000000
C	0.540541	0.648986	1.113020
C	1.431046	1.717546	0.820578
H	0.292104	0.350827	2.142881
C	1.590053	1.908061	-0.563588
S	0.621066	0.745901	-1.464748
C	2.112618	2.535384	1.882380
H	1.825779	2.191315	2.894974
H	1.847090	3.610676	1.808137
H	3.218159	2.467925	1.808230
H	2.203332	2.644073	-1.097114
H	0.235206	-4.420219	-1.367361
H	1.389159	-4.419395	0.007834
H	-0.694221	-1.450628	-0.827319
$end

$rem
JOBTYPE		SP
EXCHANGE	HF
CORRELATION	pRIMP2
BASIS		cc-pvtz
METHOD		rimp2
AUX_BASIS	rimp2-cc-pvtz
SOLVENT_METHOD	PCM
PURECART	11111
SYMMETRY	false
MEM_TOTAL	110000
SCF_CONVERGENCE = 6
THRESH=10
GUI = 2
$end



$solvent
dielectric 4.90
$end
--------------------------------------------------------------
 ----------------------------------------------------------------
             Standard Nuclear Orientation (Angstroms)
    I     Atom           X                Y                Z
 ----------------------------------------------------------------
    1      C       0.5556700000    -3.8878000000    -0.4648380000
    2      C      -0.5057900000    -3.7014560000     0.4257600000
    3      C      -0.8310530000    -2.3451700000     0.6978660000
    4      H      -1.0464960000    -4.5452330000     0.8799840000
    5      C       0.0000000000    -1.4501350000     0.0000000000
    6      S       1.1703820000    -2.3213340000    -0.9815880000
    7      C      -1.9390740000    -1.9344390000     1.6273810000
    8      H      -2.4480510000    -2.8197990000     2.0550150000
    9      H      -2.7088530000    -1.3262100000     1.1079910000
   10      H      -1.5615900000    -1.3253740000     2.4752100000
   11      C       0.0000000000     0.0000000000     0.0000000000
   12      C       0.5405410000     0.6489860000     1.1130200000
   13      C       1.4310460000     1.7175460000     0.8205780000
   14      H       0.2921040000     0.3508270000     2.1428810000
   15      C       1.5900530000     1.9080610000    -0.5635880000
   16      S       0.6210660000     0.7459010000    -1.4647480000
   17      C       2.1126180000     2.5353840000     1.8823800000
   18      H       1.8257790000     2.1913150000     2.8949740000
   19      H       1.8470900000     3.6106760000     1.8081370000
   20      H       3.2181590000     2.4679250000     1.8082300000
   21      H       2.2033320000     2.6440730000    -1.0971140000
   22      H       0.2352060000    -4.4202190000    -1.3673610000
   23      H       1.3891590000    -4.4193950000     0.0078340000
   24      H      -0.6942210000    -1.4506280000    -0.8273190000
 ----------------------------------------------------------------
 Nuclear Repulsion Energy =         884.83483395 hartrees
 There are       52 alpha and       52 beta electrons
 Requested basis set is cc-pVTZ
 There are 196 shells and 536 basis functions

 Total QAlloc Memory Limit 110000 MB
 Mega-Array Size       188 MB
 MEM_STATIC part       192 MB
 Discretize the solute cavity surface with Lebedev spheres
	Using 110 Lebedev grid points for each H atom
	Using 194 Lebedev grid points for other atoms
	Atomic van der Waals radii will be scaled by 1.20
 Remove points where switching function is < 1.0e-08
 Keep 1597 surface tesserae and discard 2051 interior tesserae
 Molecular Surface Area = 234.145 Angst**2
 Requested basis set is rimp2-cc-pVTZ
 There are 414 shells and 1414 basis functions
 A cutoff of  1.0D-10 yielded  14135 shell pairs
 There are    102347 function pairs (    131230 Cartesian)
 Smallest overlap matrix eigenvalue = 7.68E-05

 Scale SEOQF with 1.000000e-01/1.000000e-01/1.000000e-01

 Standard Electronic Orientation quadrupole field applied
 Nucleus-field energy     =     0.0000000276 hartrees
 Guess from superposition of atomic densities
 Warning:  Energy on first SCF cycle will be non-variational
 SAD guess density has 104.000000 electrons

 -----------------------------------------------------------------------
  General SCF calculation program by
  Eric Jon Sundstrom, Paul Horn, Yuezhi Mao, Dmitri Zuev, Alec White,
  David Stuck, Shaama M.S., Shane Yost, Joonho Lee, David Small,
  Daniel Levine, Susi Lehtola, Hugh Burton, Evgeny Epifanovsky,
  Bang C. Huynh
 -----------------------------------------------------------------------
 Hartree-Fock
 using 64 threads for integral computing
 -------------------------------------------------------
 OpenMP Integral computing Module                
 Release: version 1.0, May 2013, Q-Chem Inc. Pittsburgh 
 -------------------------------------------------------
 A restricted SCF calculation will be
 performed using DIIS
 SCF converges when DIIS error is below 1.0e-06
 ---------------------------------------
  Cycle       Energy         DIIS error
 ---------------------------------------
    1   -1186.0495639380      2.39e-02  
    2   -1180.5821425476      1.55e-03  
    3   -1180.7078030672      5.69e-04  
    4   -1180.7213865897      3.02e-04  
    5   -1180.7256432794      6.13e-05  
    6   -1180.7259000403      2.52e-05  
    7   -1180.7259678507      1.05e-05  
    8   -1180.7259857432      4.95e-06  
    9   -1180.7259903550      1.86e-06  
   10   -1180.7259911007      6.31e-07  Convergence criterion met
 ---------------------------------------
 SCF time:   CPU 1671.85s  wall 49.00s 

************** Final PCM Free Energy Summary **************
 G_electrostatic  =      -0.00960873 hartree =      -6.02956660 kcal/mol
 G_cavitation     =       0.00000000 hartree =       0.00000000 kcal/mol
 G_dispersion     =       0.00000000 hartree =       0.00000000 kcal/mol
 G_repulsion      =       0.00000000 hartree =       0.00000000 kcal/mol
 --------------------------------------------------
 Non-electrostatic Free Energy =       0.00000000 hartree =       0.00000000 kcal/mol
 Total                         =      -0.00960873 hartree =      -6.02956660 kcal/mol
 --------------------------------------------------
 SCF Energy (H0 + V/2)                       =   -1180.72599110 
 Solute Internal Energy (H0)                 =   -1180.71638237 
 Total Free Energy (H0 + V/2 + non-elec)     =   -1180.72599110 hartree
                                             = -740916.74207157 kcal/mol
***********************************************************

 SCF   energy in the final basis set =    -1180.7259911007
 Total energy in the final basis set =    -1180.7259911007


 --------------------------------------------------------------
  Generalized many-body perturbation theory program
  by Joonho Lee, Fazle Rob, Xintian Feng, Evgeny Epifanovsky

 No regularization used 
 (reg. param. = 0.0000e+00)
  (P|Q)^-1/2 Time:  CPU 20.80 s  wall 0.33 s

 In RI-MP2 calculation: 
 # of frozen core orbitals: 20

 Components of the RIMP2 correlation energy:
        aaaa    correlation energy =        -0.2524559499 a.u.
        abab    correlation energy =        -1.5076855232 a.u.
        bbbb    correlation energy =        -0.2524559499 a.u.
        non-Brillouin singles      =        -0.0000000000 a.u.
        total same-spin energy     =        -0.5049118998 a.u.
        total opposite-spin energy =        -1.5076855232 a.u.

 Total  RIMP2   correlation energy =        -2.0125974230 a.u.
        RIMP2         total energy =     -1182.7385885237 a.u.

 RI-MP2 Energy Time:  CPU 164.98 s  wall 2.68 s
 
 --------------------------------------------------------------
 
                    Orbital Energies (a.u.)
 --------------------------------------------------------------
 
 Alpha MOs
 -- Occupied --
-91.9838 -91.9391 -11.2740 -11.2673 -11.2603 -11.2515 -11.2513 -11.2450
-11.2382 -11.2311 -11.2293 -11.2156  -8.9839  -8.9437  -6.6648  -6.6642
 -6.6637  -6.6250  -6.6240  -6.6227  -1.1982  -1.1538  -1.0562  -1.0277
 -0.9992  -0.9645  -0.9102  -0.9012  -0.8124  -0.7559  -0.7436  -0.7035
 -0.6512  -0.6326  -0.6116  -0.5886  -0.5813  -0.5697  -0.5661  -0.5522
 -0.5423  -0.5316  -0.5117  -0.5063  -0.4890  -0.4725  -0.4635  -0.4455
 -0.3540  -0.3396  -0.3207  -0.2671
 -- Virtual --
  0.0743   0.1306   0.1410   0.1540   0.1609   0.1685   0.1782   0.1833
  0.1896   0.2045   0.2058   0.2181   0.2243   0.2345   0.2380   0.2425
  0.2474   0.2588   0.2789   0.2965   0.3149   0.3385   0.3470   0.3532
  0.3573   0.3727   0.3780   0.3894   0.3959   0.3990   0.4151   0.4243
  0.4365   0.4376   0.4464   0.4615   0.4689   0.4773   0.4833   0.4859
  0.5008   0.5098   0.5169   0.5274   0.5361   0.5423   0.5560   0.5617
  0.5717   0.5819   0.5868   0.5921   0.5969   0.6075   0.6111   0.6170
  0.6214   0.6315   0.6349   0.6370   0.6376   0.6402   0.6498   0.6614
  0.6631   0.6712   0.6880   0.6958   0.7034   0.7097   0.7153   0.7184
  0.7346   0.7448   0.7538   0.7675   0.7922   0.7937   0.7976   0.8150
  0.8257   0.8403   0.8621   0.8697   0.8852   0.8889   0.9004   0.9086
  0.9135   0.9452   0.9471   0.9608   0.9684   0.9861   1.0048   1.0098
  1.0277   1.0321   1.0414   1.0464   1.0479   1.0729   1.0779   1.0843
  1.0888   1.1021   1.1115   1.1250   1.1479   1.1586   1.1710   1.1735
  1.1790   1.1895   1.1934   1.2055   1.2209   1.2277   1.2306   1.2443
  1.2472   1.2593   1.2638   1.2757   1.2783   1.2875   1.3003   1.3200
  1.3208   1.3289   1.3452   1.3591   1.3733   1.3838   1.4035   1.4100
  1.4279   1.4306   1.4430   1.4499   1.4672   1.4787   1.4850   1.4940
  1.5136   1.5163   1.5169   1.5321   1.5344   1.5483   1.5538   1.5557
  1.5702   1.5770   1.5807   1.5931   1.6075   1.6248   1.6308   1.6406
  1.6581   1.6673   1.6772   1.6862   1.6983   1.7167   1.7251   1.7351
  1.7487   1.7554   1.7725   1.7749   1.8056   1.8168   1.8356   1.8472
  1.8803   1.8946   1.9024   1.9412   1.9443   1.9657   1.9914   1.9990
  2.0283   2.0367   2.0574   2.0748   2.0991   2.1053   2.1181   2.1620
  2.1746   2.2026   2.2088   2.2252   2.2364   2.2414   2.2572   2.2807
  2.2920   2.3170   2.3227   2.3720   2.4028   2.4220   2.4506   2.4692
  2.4859   2.5106   2.5335   2.5560   2.5668   2.5836   2.6030   2.6248
  2.6278   2.6322   2.6569   2.6679   2.6783   2.6884   2.7033   2.7338
  2.7405   2.7470   2.7655   2.7735   2.7883   2.7938   2.8172   2.8222
  2.8356   2.8425   2.8589   2.8948   2.8989   2.9105   2.9177   2.9287
  2.9357   2.9550   2.9800   2.9994   3.0028   3.0249   3.0261   3.0379
  3.0566   3.0735   3.0825   3.1072   3.1111   3.1150   3.1323   3.1389
  3.1504   3.1558   3.1573   3.1766   3.1825   3.1907   3.1966   3.2167
  3.2304   3.2477   3.2488   3.2502   3.2664   3.2756   3.2978   3.3047
  3.3236   3.3262   3.3320   3.3426   3.3471   3.3606   3.3628   3.3706
  3.3801   3.3843   3.3906   3.4016   3.4102   3.4155   3.4213   3.4240
  3.4400   3.4539   3.4624   3.4669   3.4789   3.4927   3.5069   3.5130
  3.5159   3.5246   3.5355   3.5393   3.5442   3.5656   3.5762   3.5873
  3.6017   3.6143   3.6231   3.6298   3.6305   3.6468   3.6521   3.6669
  3.6713   3.6911   3.6959   3.7131   3.7205   3.7252   3.7353   3.7413
  3.7493   3.7535   3.7679   3.7794   3.7886   3.7953   3.8022   3.8059
  3.8397   3.8421   3.8534   3.8756   3.8784   3.8883   3.9077   3.9174
  3.9377   3.9452   3.9517   3.9684   3.9841   3.9882   3.9983   4.0171
  4.0274   4.0532   4.0562   4.0592   4.0656   4.0840   4.0912   4.1072
  4.1186   4.1252   4.1479   4.1518   4.1553   4.1631   4.1839   4.1958
  4.2073   4.2181   4.2274   4.2548   4.2614   4.2687   4.2768   4.2854
  4.2976   4.3042   4.3134   4.3315   4.3440   4.3621   4.3670   4.3748
  4.3824   4.3973   4.4010   4.4033   4.4149   4.4229   4.4482   4.4511
  4.4547   4.4658   4.4745   4.4775   4.4864   4.5103   4.5317   4.5585
  4.5656   4.5941   4.5986   4.6123   4.6276   4.6561   4.6606   4.6681
  4.6983   4.7189   4.7290   4.7471   4.7637   4.8132   4.8356   4.8501
  4.8690   4.8830   4.8896   4.9098   4.9181   4.9405   4.9695   4.9836
  5.0098   5.0393   5.0696   5.0944   5.1130   5.1262   5.1505   5.1651
  5.1828   5.2003   5.2321   5.2678   5.2757   5.2990   5.3090   5.3249
  5.3389   5.3641   5.3793   5.4020   5.4065   5.4179   5.4407   5.4458
  5.4809   5.5126   5.5341   5.5353   5.5503   5.5603   5.5710   5.5910
  5.6143   5.6240   5.6270   5.6718   5.6784   5.6919   5.7136   5.7393
  5.7648   5.7859   5.8209   5.9725   6.0049   6.0468   6.1132   6.1530
  6.2177   6.2206   6.2274   6.2364   6.2477   6.2860   6.2888   6.3125
  6.3709   6.4094   9.3583  10.5082  12.3236  12.8860  13.1735  13.9797
 14.0388  14.2052  14.2724  14.5510
 --------------------------------------------------------------
 
          Ground-State Mulliken Net Atomic Charges

     Atom                 Charge (a.u.)
  ----------------------------------------
      1 C                    -0.079678
      2 C                    -0.329691
      3 C                    -0.046332
      4 H                     0.174730
      5 C                     0.063740
      6 S                    -0.172810
      7 C                    -0.276719
      8 H                     0.114212
      9 H                     0.104955
     10 H                     0.103158
     11 C                    -0.118640
     12 C                    -0.168867
     13 C                     0.002800
     14 H                     0.192968
     15 C                    -0.203521
     16 S                     0.005946
     17 C                    -0.270325
     18 H                     0.101654
     19 H                     0.107578
     20 H                     0.107504
     21 H                     0.200269
     22 H                     0.106782
     23 H                     0.110735
     24 H                     0.169552
  ----------------------------------------
  Sum of atomic charges =     0.000000

 -----------------------------------------------------------------
                    Cartesian Multipole Moments
 -----------------------------------------------------------------
    Charge (ESU x 10^10)
                -0.0000
    Dipole Moment (Debye)
         X      -0.7735      Y       0.8980      Z       2.4465
       Tot       2.7185
    Quadrupole Moments (Debye-Ang)
        XX     -87.3255     XY       9.4668     YY     -79.0321
        XZ       0.3985     YZ      -0.5717     ZZ     -85.2835
    Octopole Moments (Debye-Ang^2)
       XXX    -125.3187    XXY      75.2346    XYY     -30.1388
       YYY     161.9060    XXZ      -1.3722    XYZ       0.7283
       YYZ      -7.0739    XZZ     -40.8054    YZZ      68.4231
       ZZZ      -2.8431
    Hexadecapole Moments (Debye-Ang^3)
      XXXX    -870.2285   XXXY    -208.7716   XXYY    -563.8795
      XYYY    -209.1218   YYYY   -2482.1284   XXXZ      69.4780
      XXYZ     -45.8561   XYYZ       3.1728   YYYZ     -79.4900
      XXZZ    -268.4079   XYZZ     -57.5355   YYZZ    -570.4295
      XZZZ      73.1407   YZZZ     -81.1654   ZZZZ    -780.8986
 -----------------------------------------------------------------
 Total job time:  55.06s(wall), 1911.27s(cpu) 
 Fri Dec 15 14:18:37 2023

        *************************************************************
        *                                                           *
        *  Thank you very much for using Q-Chem.  Have a nice day.  *
        *                                                           *
        *************************************************************


0 sent ACK to 0 
now end server 0 ... 
cleanup process ... done
remove work dirs ./qchem2719168.0 -- ./qchem2719168.0
rm -rf ./qchem2719168.0
rm -rf ./qchem2719168
