You are running Q-Chem version: 5.4.0

#
# job setting
#
local host:  exp-6-40
current dir: /home/rramji/project-csd799/aromodel/ptb7fout-qchem/methylated-rotation-run
input file:  Dimethoxy_Benzodithiophene_Phi_15_Theta_70_Methylcarbonyl_3_Fluoro_Thienothiophene_Hydrogenated_Improper.qcin
output file: 
nprocs     : 1
nthreads   : 64
#
# qchem installation setting
#
QC:          /cm/shared/apps/spack/cpu/opt/spack/linux-centos8-zen2/gcc-10.2.0/qchem-5.4-akfmr7b3t57bfs6qan3padb2wnb2i7cl
QCAUX:       /cm/shared/apps/spack/cpu/opt/spack/linux-centos8-zen2/gcc-10.2.0/qchem-5.4-akfmr7b3t57bfs6qan3padb2wnb2i7cl/qcaux
QCPROG:      /cm/shared/apps/spack/cpu/opt/spack/linux-centos8-zen2/gcc-10.2.0/qchem-5.4-akfmr7b3t57bfs6qan3padb2wnb2i7cl/exe/qcprog.exe
QCPROG_S:    /cm/shared/apps/spack/cpu/opt/spack/linux-centos8-zen2/gcc-10.2.0/qchem-5.4-akfmr7b3t57bfs6qan3padb2wnb2i7cl/exe/qcprog.exe_s
PARALLEL:    -DPARALLEL
QCMPI:       mpich
#
# qchem directory setting
#
qcrun:       qchem3218971
QCSCRATCH:   .
QCLOCALSCR:  
QCTMPDIR:    .
QCFILEPREF:  ./qchem3218971
QCSAVEDIR:   
workdirs:    ./qchem3218971
workdir0:    ./qchem3218971
partmpdirs =  
#
# parallel setting
#
QCRSH:           ssh
QCMPI:           mpich
QCMPIRUN:        /cm/shared/apps/spack/cpu/opt/spack/linux-centos8-zen2/gcc-10.2.0/qchem-5.4-akfmr7b3t57bfs6qan3padb2wnb2i7cl/bin/mpi/mpirun_qchem
QCMACHINEFILE:   ./qchem3218971/hostfile
exp-6-40

#
# env setting
#
exported envs:   QC QCAUX QCSCRATCH QCRUNNAME QCFILEPREF QCPROG QCPROG_S GUIFILE

Running Job 1 of 1 Dimethoxy_Benzodithiophene_Phi_15_Theta_70_Methylcarbonyl_3_Fluoro_Thienothiophene_Hydrogenated_Improper.qcin
qchem Dimethoxy_Benzodithiophene_Phi_15_Theta_70_Methylcarbonyl_3_Fluoro_Thienothiophene_Hydrogenated_Improper.qcin_3218971.0 ./qchem3218971/ 1
/cm/shared/apps/spack/cpu/opt/spack/linux-centos8-zen2/gcc-10.2.0/qchem-5.4-akfmr7b3t57bfs6qan3padb2wnb2i7cl/bin/mpi/mpirun_qchem -machinefile ./qchem3218971/hostfile -np 1 /cm/shared/apps/spack/cpu/opt/spack/linux-centos8-zen2/gcc-10.2.0/qchem-5.4-akfmr7b3t57bfs6qan3padb2wnb2i7cl/exe/qcprog.exe Dimethoxy_Benzodithiophene_Phi_15_Theta_70_Methylcarbonyl_3_Fluoro_Thienothiophene_Hydrogenated_Improper.qcin_3218971.0 ./qchem3218971/

Process 0 of 1 is on exp-6-40 - thread support 0
initial socket setup ...start
initial socket setup ...done 
now start server 0 ... 
                  Welcome to Q-Chem
     A Quantum Leap Into The Future Of Chemistry


 Q-Chem 5.4, Q-Chem, Inc., Pleasanton, CA (2021)

 License issued to: University of California, San Diego (site)

 E. Epifanovsky,  A. T. B. Gilbert,  Xintian Feng,  Joonho Lee,  Yuezhi Mao,  
 N. Mardirossian,  P. Pokhilko,  A. White,  M. Wormit,  M. P. Coons,  
 A. L. Dempwolff,  Zhengting Gan,  D. Hait,  P. R. Horn,  L. D. Jacobson,  
 I. Kaliman,  J. Kussmann,  A. W. Lange,  Ka Un Lao,  D. S. Levine,  Jie Liu,  
 S. C. McKenzie,  A. F. Morrison,  K. Nanda,  F. Plasser,  D. R. Rehn,  
 M. L. Vidal,  Zhi-Qiang You,  Ying Zhu,  B. Alam,  B. Albrecht,  
 A. Aldossary,  E. Alguire,  J. H. Andersen,  D. Barton,  K. Begam,  A. Behn,  
 Y. A. Bernard,  E. J. Berquist,  H. Burton,  A. Carreras,  K. Carter-Fenk,  
 R. Chakraborty,  A. D. Chien,  K. D. Closser,  V. Cofer-Shabica,  
 S. Dasgupta,  Jia Deng,  M. de Wergifosse,  M. Diedenhofen,  Hainam Do,  
 S. Ehlert,  Po-Tung Fang,  S. Fatehi,  Qingguo Feng,  J. Gayvert,  
 Qinghui Ge,  G. Gidofalvi,  M. Goldey,  J. Gomes,  C. Gonzalez-Espinoza,  
 S. Gulania,  A. Gunina,  M. W. D. Hanson-Heine,  P. H. P. Harbach,  
 A. W. Hauser,  M. F. Herbst,  M. Hernandez Vera,  M. Hodecker,  
 Z. C. Holden,  S. Houck,  Xunkun Huang,  Kerwin Hui,  B. C. Huynh,  
 M. Ivanov,  Hyunjun Ji,  Hanjie Jiang,  B. Kaduk,  S. Kaehler,  
 K. Khistyaev,  Jaehoon Kim,  P. Klunzinger,  Z. Koczor-Benda,  
 Joong Hoon Koh,  D. Kosenkov,  L. Koulias,  T. Kowalczyk,  C. M. Krauter,  
 K. Kue,  A. Kunitsa,  T. Kus,  A. Landau,  K. V. Lawler,  D. Lefrancois,  
 S. Lehtola,  Rain Li,  Yi-Pei Li,  Jiashu Liang,  M. Liebenthal,  
 Hung-Hsuan Lin,  You-Sheng Lin,  Fenglai Liu,  Kuan-Yu Liu,  
 M. Loipersberger,  A. Luenser,  A. Manjanath,  P. Manohar,  E. Mansoor,  
 S. F. Manzer,  Shan-Ping Mao,  A. V. Marenich,  T. Markovich,  S. Mason,  
 S. A. Maurer,  P. F. McLaughlin,  M. F. S. J. Menger,  J.-M. Mewes,  
 S. A. Mewes,  P. Morgante,  J. W. Mullinax,  T. S. Nguyen-Beck,  
 K. J. Oosterbaan,  G. Paran,  Alexander C. Paul,  Suranjan K. Paul,  
 F. Pavosevic,  Zheng Pei,  S. Prager,  E. I. Proynov,  E. Ramos,  B. Rana,  
 A. E. Rask,  A. Rettig,  R. M. Richard,  F. Rob,  E. Rossomme,  T. Scheele,  
 M. Scheurer,  M. Schneider,  N. Sergueev,  S. M. Sharada,  W. Skomorowski,  
 D. W. Small,  C. J. Stein,  Yu-Chuan Su,  E. J. Sundstrom,  Zhen Tao,  
 J. Thirman,  T. Tsuchimochi,  N. M. Tubman,  S. P. Veccham,  O. Vydrov,  
 J. Wenzel,  J. Witte,  A. Yamada,  Kun Yao,  S. Yeganeh,  S. R. Yost,  
 A. Zech,  Igor Ying Zhang,  Xing Zhang,  Yu Zhang,  D. Zuev,  
 A. Aspuru-Guzik,  A. T. Bell,  N. A. Besley,  K. B. Bravaya,  B. R. Brooks,  
 D. Casanova,  Jeng-Da Chai,  S. Coriani,  C. J. Cramer,  
 A. E. DePrince, III,  R. A. DiStasio Jr.,  A. Dreuw,  B. D. Dunietz,  
 T. R. Furlani,  W. A. Goddard III,  S. Grimme,  S. Hammes-Schiffer,  
 T. Head-Gordon,  W. J. Hehre,  Chao-Ping Hsu,  T.-C. Jagau,  Yousung Jung,  
 A. Klamt,  Jing Kong,  D. S. Lambrecht,  WanZhen Liang,  N. J. Mayhall,  
 C. W. McCurdy,  J. B. Neaton,  C. Ochsenfeld,  J. A. Parkhill,  R. Peverati,  
 V. A. Rassolov,  Yihan Shao,  L. V. Slipchenko,  T. Stauch,  R. P. Steele,  
 J. E. Subotnik,  A. J. W. Thom,  A. Tkatchenko,  D. G. Truhlar,  
 T. Van Voorhis,  T. A. Wesolowski,  K. B. Whaley,  H. L. Woodcock III,  
 P. M. Zimmerman,  S. Faraji,  P. M. W. Gill,  M. Head-Gordon,  
 J. M. Herbert,  A. I. Krylov

 Contributors to earlier versions of Q-Chem not listed above: 
 R. D. Adamson,  B. Austin,  R. Baer,  J. Baker,  G. J. O. Beran,  
 K. Brandhorst,  S. T. Brown,  E. F. C. Byrd,  A. K. Chakraborty,  
 G. K. L. Chan,  Chun-Min Chang,  Yunqing Chen,  C.-L. Cheng,  
 Siu Hung Chien,  D. M. Chipman,  D. L. Crittenden,  H. Dachsel,  
 R. J. Doerksen,  A. D. Dutoi,  R. G. Edgar,  J. Fosso-Tande,  
 L. Fusti-Molnar,  D. Ghosh,  A. Ghysels,  A. Golubeva-Zadorozhnaya,  
 J. Gonthier,  M. S. Gordon,  S. R. Gwaltney,  G. Hawkins,  J. E. Herr,  
 A. Heyden,  S. Hirata,  E. G. Hohenstein,  G. Kedziora,  F. J. Keil,  
 C. Kelley,  Jihan Kim,  R. A. King,  R. Z. Khaliullin,  P. P. Korambath,  
 W. Kurlancheek,  A. Laurent,  A. M. Lee,  M. S. Lee,  S. V. Levchenko,  
 Ching Yeh Lin,  D. Liotard,  E. Livshits,  R. C. Lochan,  I. Lotan,  
 L. A. Martinez-Martinez,  P. E. Maslen,  N. Nair,  D. P. O'Neill,  
 D. Neuhauser,  E. Neuscamman,  C. M. Oana,  R. Olivares-Amaya,  R. Olson,  
 T. M. Perrine,  B. Peters,  P. A. Pieniazek,  A. Prociuk,  Y. M. Rhee,  
 J. Ritchie,  M. A. Rohrdanz,  E. Rosta,  N. J. Russ,  H. F. Schaefer III,  
 M. W. Schmidt,  N. E. Schultz,  S. Sharma,  N. Shenvi,  C. D. Sherrill,  
 A. C. Simmonett,  A. Sodt,  T. Stein,  D. Stuck,  K. S. Thanthiriwatte,  
 V. Vanovschi,  L. Vogt,  Tao Wang,  A. Warshel,  M. A. Watson,  
 C. F. Williams,  Q. Wu,  X. Xu,  Jun Yang,  W. Zhang,  Yan Zhao

 Please cite Q-Chem as follows:
 Y. Shao et al., Mol. Phys. 113, 184-215 (2015)
 DOI: 10.1080/00268976.2014.952696

 Q-Chem 5.4.0 for Intel X86 EM64T Linux

 Parts of Q-Chem use Armadillo 9.800.1 (Horizon Scraper).
 http://arma.sourceforge.net/

 Q-Chem begins on Tue Jan  9 09:55:39 2024  

 Host: 
0

     Scratch files written to ./qchem3218971//
 May1621 |scratch|qcdevops|jenkins|workspace|build_RNUM    
 Parallel job on  1  processors
 Processing $rem in /cm/shared/apps/spack/cpu/opt/spack/linux-centos8-zen2/gcc-10.2.0/qchem-5.4-akfmr7b3t57bfs6qan3padb2wnb2i7cl/config/preferences:
 Processing $rem in /home/rramji/.qchemrc:
 Symmetry turned off for PCM/SM12/SMD calculation
 Core orbitals will be frozen

 Checking the input file for inconsistencies... 	...done.

 Q-Chem warning in module forms1/BasisType.C, line 2236:

 You are not using the predefined 5D/6D in this basis set.


--------------------------------------------------------------
User input:
--------------------------------------------------------------
$molecule
0 1
C	-0.270046	-0.955820	0.973787
S	-0.035446	-0.082020	2.481287
C	0.370854	1.437180	1.692687
C	-0.035246	-0.082420	-0.094113
C	0.322354	1.260980	0.287387
S	-0.095546	-0.318420	-1.831713
C	0.352554	1.374980	-2.080713
C	0.533454	2.059780	-0.888813
F	0.874754	3.352180	-0.845313
C	0.470254	1.807280	-3.482313
O	0.278754	1.061580	-4.432713
O	0.812654	3.113680	-3.595413
C	0.945754	3.590580	-4.942413
H	1.224054	4.655880	-4.859313
H	-0.008346	3.480480	-5.496413
H	1.730054	3.025480	-5.485513
C	-0.270046	-2.391020	0.973787
H	0.106354	-2.399020	1.986087
H	-1.059946	-3.068920	1.261587
H	0.611354	-2.922120	0.645887
H	0.608654	2.330280	2.280287
$end

$rem
JOBTYPE		SP
EXCHANGE	HF
CORRELATION	pRIMP2
BASIS		cc-pvtz
METHOD		rimp2
AUX_BASIS	rimp2-cc-pvtz
SOLVENT_METHOD	PCM
PURECART	11111
SYMMETRY	false
MEM_TOTAL	110000
SCF_CONVERGENCE = 6
THRESH=10
GUI = 2
$end



$solvent
dielectric 4.90
$end
--------------------------------------------------------------
 ----------------------------------------------------------------
             Standard Nuclear Orientation (Angstroms)
    I     Atom           X                Y                Z
 ----------------------------------------------------------------
    1      C      -0.2700460000    -0.9558200000     0.9737870000
    2      S      -0.0354460000    -0.0820200000     2.4812870000
    3      C       0.3708540000     1.4371800000     1.6926870000
    4      C      -0.0352460000    -0.0824200000    -0.0941130000
    5      C       0.3223540000     1.2609800000     0.2873870000
    6      S      -0.0955460000    -0.3184200000    -1.8317130000
    7      C       0.3525540000     1.3749800000    -2.0807130000
    8      C       0.5334540000     2.0597800000    -0.8888130000
    9      F       0.8747540000     3.3521800000    -0.8453130000
   10      C       0.4702540000     1.8072800000    -3.4823130000
   11      O       0.2787540000     1.0615800000    -4.4327130000
   12      O       0.8126540000     3.1136800000    -3.5954130000
   13      C       0.9457540000     3.5905800000    -4.9424130000
   14      H       1.2240540000     4.6558800000    -4.8593130000
   15      H      -0.0083460000     3.4804800000    -5.4964130000
   16      H       1.7300540000     3.0254800000    -5.4855130000
   17      C      -0.2700460000    -2.3910200000     0.9737870000
   18      H       0.1063540000    -2.3990200000     1.9860870000
   19      H      -1.0599460000    -3.0689200000     1.2615870000
   20      H       0.6113540000    -2.9221200000     0.6458870000
   21      H       0.6086540000     2.3302800000     2.2802870000
 ----------------------------------------------------------------
 Nuclear Repulsion Energy =        1083.03874914 hartrees
 There are       59 alpha and       59 beta electrons
 Requested basis set is cc-pVTZ
 There are 186 shells and 526 basis functions

 Total QAlloc Memory Limit 110000 MB
 Mega-Array Size       188 MB
 MEM_STATIC part       192 MB
 Discretize the solute cavity surface with Lebedev spheres
	Using 110 Lebedev grid points for each H atom
	Using 194 Lebedev grid points for other atoms
	Atomic van der Waals radii will be scaled by 1.20
 Remove points where switching function is < 1.0e-08
 Keep 1561 surface tesserae and discard 1925 interior tesserae
 Molecular Surface Area = 242.260 Angst**2
 Requested basis set is rimp2-cc-pVTZ
 There are 410 shells and 1426 basis functions
 A cutoff of  1.0D-10 yielded  11489 shell pairs
 There are     90103 function pairs (    117924 Cartesian)
 Smallest overlap matrix eigenvalue = 6.13E-05

 Scale SEOQF with 1.000000e-01/1.000000e-01/1.000000e-02

 Standard Electronic Orientation quadrupole field applied
 Nucleus-field energy     =     0.0000000252 hartrees
 Guess from superposition of atomic densities
 Warning:  Energy on first SCF cycle will be non-variational
 SAD guess density has 118.000000 electrons

 -----------------------------------------------------------------------
  General SCF calculation program by
  Eric Jon Sundstrom, Paul Horn, Yuezhi Mao, Dmitri Zuev, Alec White,
  David Stuck, Shaama M.S., Shane Yost, Joonho Lee, David Small,
  Daniel Levine, Susi Lehtola, Hugh Burton, Evgeny Epifanovsky,
  Bang C. Huynh
 -----------------------------------------------------------------------
 Hartree-Fock
 using 64 threads for integral computing
 -------------------------------------------------------
 OpenMP Integral computing Module                
 Release: version 1.0, May 2013, Q-Chem Inc. Pittsburgh 
 -------------------------------------------------------
 A restricted SCF calculation will be
 performed using DIIS
 SCF converges when DIIS error is below 1.0e-06
 ---------------------------------------
  Cycle       Energy         DIIS error
 ---------------------------------------
    1   -1394.2557508440      2.47e-02  
    2   -1389.0297496816      2.47e-03  
    3   -1389.2001619901      1.53e-03  
    4   -1389.2594184902      3.54e-04  
    5   -1389.2652000682      1.12e-04  
    6   -1389.2658881020      3.66e-05  
    7   -1389.2660357668      1.82e-05  
    8   -1389.2660863127      7.02e-06  
    9   -1389.2660968068      3.01e-06  
   10   -1389.2660982579      1.11e-06  
   11   -1389.2660984737      4.91e-07  Convergence criterion met
 ---------------------------------------
 SCF time:   CPU 1725.97s  wall 52.00s 

************** Final PCM Free Energy Summary **************
 G_electrostatic  =      -0.01211840 hartree =      -7.60441170 kcal/mol
 G_cavitation     =       0.00000000 hartree =       0.00000000 kcal/mol
 G_dispersion     =       0.00000000 hartree =       0.00000000 kcal/mol
 G_repulsion      =       0.00000000 hartree =       0.00000000 kcal/mol
 --------------------------------------------------
 Non-electrostatic Free Energy =       0.00000000 hartree =       0.00000000 kcal/mol
 Total                         =      -0.01211840 hartree =      -7.60441170 kcal/mol
 --------------------------------------------------
 SCF Energy (H0 + V/2)                       =   -1389.26609847 
 Solute Internal Energy (H0)                 =   -1389.25398007 
 Total Free Energy (H0 + V/2 + non-elec)     =   -1389.26609847 hartree
                                             = -871777.63453149 kcal/mol
***********************************************************

 SCF   energy in the final basis set =    -1389.2660984737
 Total energy in the final basis set =    -1389.2660984737


 --------------------------------------------------------------
  Generalized many-body perturbation theory program
  by Joonho Lee, Fazle Rob, Xintian Feng, Evgeny Epifanovsky

 No regularization used 
 (reg. param. = 0.0000e+00)
  (P|Q)^-1/2 Time:  CPU 27.15 s  wall 0.43 s

 In RI-MP2 calculation: 
 # of frozen core orbitals: 22

 Components of the RIMP2 correlation energy:
        aaaa    correlation energy =        -0.3284622517 a.u.
        abab    correlation energy =        -1.8487650977 a.u.
        bbbb    correlation energy =        -0.3284622517 a.u.
        non-Brillouin singles      =        -0.0000000000 a.u.
        total same-spin energy     =        -0.6569245034 a.u.
        total opposite-spin energy =        -1.8487650977 a.u.

 Total  RIMP2   correlation energy =        -2.5056896011 a.u.
        RIMP2         total energy =     -1391.7717880748 a.u.

 RI-MP2 Energy Time:  CPU 181.24 s  wall 3.66 s
 
 --------------------------------------------------------------
 
                    Orbital Energies (a.u.)
 --------------------------------------------------------------
 
 Alpha MOs
 -- Occupied --
-92.0069 -91.9922 -26.3405 -20.6134 -20.5594 -11.4073 -11.3786 -11.3008
-11.2941 -11.2919 -11.2880 -11.2860 -11.2786 -11.2249  -9.0060  -8.9923
 -6.6867  -6.6861  -6.6856  -6.6733  -6.6726  -6.6715  -1.6577  -1.4657
 -1.3683  -1.2127  -1.1373  -1.0650  -1.0198  -0.9946  -0.9587  -0.9119
 -0.8639  -0.8068  -0.7884  -0.7580  -0.7314  -0.7226  -0.6915  -0.6831
 -0.6725  -0.6605  -0.6075  -0.6027  -0.5921  -0.5757  -0.5658  -0.5564
 -0.5395  -0.5298  -0.5079  -0.4826  -0.4739  -0.4711  -0.4691  -0.4557
 -0.3908  -0.3452  -0.2902
 -- Virtual --
  0.0392   0.1156   0.1330   0.1557   0.1586   0.1674   0.1808   0.1964
  0.2153   0.2169   0.2242   0.2286   0.2382   0.2472   0.2534   0.2689
  0.2810   0.3057   0.3140   0.3382   0.3472   0.3602   0.3792   0.3837
  0.3858   0.3927   0.4036   0.4126   0.4219   0.4341   0.4385   0.4425
  0.4608   0.4712   0.4735   0.4839   0.4997   0.5044   0.5091   0.5176
  0.5310   0.5359   0.5415   0.5449   0.5499   0.5612   0.5688   0.5824
  0.5879   0.5958   0.6042   0.6078   0.6158   0.6172   0.6236   0.6255
  0.6432   0.6452   0.6610   0.6640   0.6730   0.6860   0.6984   0.7101
  0.7124   0.7179   0.7237   0.7487   0.7511   0.7623   0.7770   0.8046
  0.8128   0.8157   0.8306   0.8405   0.8518   0.8629   0.8759   0.8819
  0.8862   0.8992   0.9121   0.9274   0.9391   0.9490   0.9586   0.9647
  0.9834   0.9941   1.0022   1.0119   1.0209   1.0294   1.0447   1.0468
  1.0609   1.0761   1.0941   1.0994   1.1030   1.1094   1.1190   1.1249
  1.1307   1.1473   1.1579   1.1666   1.1877   1.1956   1.2089   1.2151
  1.2202   1.2294   1.2449   1.2569   1.2643   1.2718   1.2801   1.2989
  1.3036   1.3266   1.3524   1.3596   1.3714   1.3790   1.3922   1.4057
  1.4212   1.4372   1.4444   1.4611   1.4658   1.4954   1.5034   1.5077
  1.5186   1.5403   1.5438   1.5602   1.5673   1.5775   1.5818   1.5915
  1.6112   1.6309   1.6556   1.6664   1.6768   1.6854   1.7050   1.7309
  1.7480   1.7652   1.7933   1.8091   1.8205   1.8209   1.8355   1.8576
  1.8791   1.8855   1.8973   1.9130   1.9267   1.9413   1.9497   1.9679
  1.9902   2.0049   2.0128   2.0341   2.0547   2.0816   2.0916   2.1086
  2.1255   2.1588   2.1715   2.1875   2.2014   2.2027   2.2129   2.2280
  2.2358   2.2436   2.2571   2.2857   2.2978   2.3130   2.3328   2.3463
  2.3705   2.3766   2.3862   2.4085   2.4308   2.4505   2.4814   2.4904
  2.5063   2.5360   2.5517   2.5614   2.5821   2.6031   2.6283   2.6382
  2.6446   2.6573   2.6719   2.6824   2.6880   2.7014   2.7037   2.7102
  2.7285   2.7578   2.7651   2.7771   2.7837   2.7948   2.8038   2.8118
  2.8240   2.8426   2.8649   2.8861   2.9000   2.9249   2.9282   2.9360
  2.9604   2.9779   2.9838   2.9908   3.0242   3.0328   3.0418   3.0679
  3.0832   3.0911   3.0989   3.1038   3.1103   3.1345   3.1437   3.1496
  3.1558   3.1742   3.1990   3.2100   3.2183   3.2224   3.2366   3.2465
  3.2595   3.2681   3.2720   3.2813   3.2903   3.3080   3.3255   3.3312
  3.3388   3.3529   3.3627   3.3783   3.3796   3.3928   3.4076   3.4181
  3.4253   3.4302   3.4434   3.4466   3.4554   3.4710   3.4781   3.4815
  3.4986   3.5084   3.5386   3.5458   3.5508   3.5624   3.5729   3.5765
  3.5928   3.5953   3.6078   3.6186   3.6384   3.6456   3.6590   3.6668
  3.6851   3.6861   3.6956   3.7067   3.7228   3.7333   3.7371   3.7534
  3.7541   3.7699   3.7768   3.8021   3.8097   3.8173   3.8218   3.8402
  3.8503   3.8559   3.8715   3.8801   3.8896   3.9136   3.9143   3.9301
  3.9410   3.9545   3.9581   3.9848   3.9973   4.0123   4.0180   4.0489
  4.0634   4.0689   4.0759   4.0931   4.1214   4.1221   4.1625   4.1668
  4.1682   4.1935   4.2142   4.2452   4.2642   4.2880   4.3066   4.3282
  4.3426   4.3546   4.3602   4.3740   4.3883   4.4160   4.4221   4.4348
  4.4440   4.4632   4.4963   4.5189   4.5412   4.5636   4.5787   4.5872
  4.5973   4.6228   4.6528   4.6556   4.6690   4.6956   4.7200   4.7441
  4.7651   4.7792   4.7878   4.8398   4.8503   4.8648   4.9090   4.9304
  4.9556   4.9883   5.0019   5.0097   5.0652   5.0747   5.1172   5.1272
  5.1338   5.1877   5.2030   5.2530   5.2559   5.2614   5.3106   5.3531
  5.3600   5.4025   5.4139   5.4270   5.4524   5.4672   5.4857   5.5250
  5.5404   5.5825   5.6184   5.6233   5.6627   5.7021   5.7285   5.7543
  5.8089   5.8178   5.8277   5.8943   5.9017   5.9142   5.9307   6.0285
  6.0459   6.0720   6.1515   6.1752   6.2097   6.2626   6.2847   6.3739
  6.4402   6.4517   6.5390   6.6036   6.6622   6.6729   6.7475   6.8313
  6.8612   6.9796   7.2054   7.2075   7.3115   7.3654   7.3656   7.4075
  7.4147   7.4881   7.5261   7.5519   7.6161   7.7755   7.7903   7.8973
  7.9596   8.1354   8.2492   8.9244   9.0137   9.3653   9.4644   9.6478
 10.0854  11.0478  11.5973  11.8089  12.4033  12.8556  13.0867  13.3857
 13.7698  14.0300  14.5068
 --------------------------------------------------------------
 
          Ground-State Mulliken Net Atomic Charges

     Atom                 Charge (a.u.)
  ----------------------------------------
      1 C                     0.034159
      2 S                     0.075786
      3 C                    -0.208542
      4 C                    -0.023662
      5 C                    -0.084821
      6 S                    -0.001681
      7 C                    -0.156652
      8 C                     0.388523
      9 F                    -0.208538
     10 C                     0.445789
     11 O                    -0.462316
     12 O                    -0.300934
     13 C                    -0.058486
     14 H                     0.120987
     15 H                     0.094769
     16 H                     0.094637
     17 C                    -0.372515
     18 H                     0.116915
     19 H                     0.149322
     20 H                     0.142824
     21 H                     0.214438
  ----------------------------------------
  Sum of atomic charges =     0.000000

 -----------------------------------------------------------------
                    Cartesian Multipole Moments
 -----------------------------------------------------------------
    Charge (ESU x 10^10)
                -0.0000
    Dipole Moment (Debye)
         X       0.8439      Y       0.6302      Z       3.8011
       Tot       3.9443
    Quadrupole Moments (Debye-Ang)
        XX     -95.7745     XY       2.2894     YY     -82.1989
        XZ      -2.2224     YZ     -11.0881     ZZ     -95.4573
    Octopole Moments (Debye-Ang^2)
       XXX     -67.6191    XXY     -78.0269    XYY     -17.9641
       YYY    -230.7578    XXZ      77.8089    XYZ      -7.7556
       YYZ      55.5489    XZZ      -3.0238    YZZ      -5.1722
       ZZZ     271.2614
    Hexadecapole Moments (Debye-Ang^3)
      XXXX    -239.5215   XXXY    -233.7768   XXYY    -376.7176
      XYYY    -208.6008   YYYY   -1957.4874   XXXZ     205.7402
      XXYZ     264.1244   XYYZ      27.6545   YYYZ     660.5448
      XXZZ    -635.7963   XYZZ       9.6873   YYZZ    -630.5657
      XZZZ     126.3013   YZZZ     509.1859   ZZZZ   -3712.4030
 -----------------------------------------------------------------
 Total job time:  59.05s(wall), 1996.07s(cpu) 
 Tue Jan  9 09:56:38 2024

        *************************************************************
        *                                                           *
        *  Thank you very much for using Q-Chem.  Have a nice day.  *
        *                                                           *
        *************************************************************


0 sent ACK to 0 
now end server 0 ... 
cleanup process ... done
remove work dirs ./qchem3218971.0 -- ./qchem3218971.0
rm -rf ./qchem3218971.0
rm -rf ./qchem3218971
