You are running Q-Chem version: 5.4.0

#
# job setting
#
local host:  exp-6-41
current dir: /home/rramji/project-csd799/aromodel/ptb7fout-qchem/methylated-rotation-run
input file:  Dimethoxy_Benzodithiophene_Phi_20_Theta_180_Methylcarbonyl_3_Fluoro_Thienothiophene_Hydrogenated_Improper.qcin
output file: 
nprocs     : 1
nthreads   : 64
#
# qchem installation setting
#
QC:          /cm/shared/apps/spack/cpu/opt/spack/linux-centos8-zen2/gcc-10.2.0/qchem-5.4-akfmr7b3t57bfs6qan3padb2wnb2i7cl
QCAUX:       /cm/shared/apps/spack/cpu/opt/spack/linux-centos8-zen2/gcc-10.2.0/qchem-5.4-akfmr7b3t57bfs6qan3padb2wnb2i7cl/qcaux
QCPROG:      /cm/shared/apps/spack/cpu/opt/spack/linux-centos8-zen2/gcc-10.2.0/qchem-5.4-akfmr7b3t57bfs6qan3padb2wnb2i7cl/exe/qcprog.exe
QCPROG_S:    /cm/shared/apps/spack/cpu/opt/spack/linux-centos8-zen2/gcc-10.2.0/qchem-5.4-akfmr7b3t57bfs6qan3padb2wnb2i7cl/exe/qcprog.exe_s
PARALLEL:    -DPARALLEL
QCMPI:       mpich
#
# qchem directory setting
#
qcrun:       qchem1605464
QCSCRATCH:   .
QCLOCALSCR:  
QCTMPDIR:    .
QCFILEPREF:  ./qchem1605464
QCSAVEDIR:   
workdirs:    ./qchem1605464
workdir0:    ./qchem1605464
partmpdirs =  
#
# parallel setting
#
QCRSH:           ssh
QCMPI:           mpich
QCMPIRUN:        /cm/shared/apps/spack/cpu/opt/spack/linux-centos8-zen2/gcc-10.2.0/qchem-5.4-akfmr7b3t57bfs6qan3padb2wnb2i7cl/bin/mpi/mpirun_qchem
QCMACHINEFILE:   ./qchem1605464/hostfile
exp-6-41

#
# env setting
#
exported envs:   QC QCAUX QCSCRATCH QCRUNNAME QCFILEPREF QCPROG QCPROG_S GUIFILE

Running Job 1 of 1 Dimethoxy_Benzodithiophene_Phi_20_Theta_180_Methylcarbonyl_3_Fluoro_Thienothiophene_Hydrogenated_Improper.qcin
qchem Dimethoxy_Benzodithiophene_Phi_20_Theta_180_Methylcarbonyl_3_Fluoro_Thienothiophene_Hydrogenated_Improper.qcin_1605464.0 ./qchem1605464/ 1
/cm/shared/apps/spack/cpu/opt/spack/linux-centos8-zen2/gcc-10.2.0/qchem-5.4-akfmr7b3t57bfs6qan3padb2wnb2i7cl/bin/mpi/mpirun_qchem -machinefile ./qchem1605464/hostfile -np 1 /cm/shared/apps/spack/cpu/opt/spack/linux-centos8-zen2/gcc-10.2.0/qchem-5.4-akfmr7b3t57bfs6qan3padb2wnb2i7cl/exe/qcprog.exe Dimethoxy_Benzodithiophene_Phi_20_Theta_180_Methylcarbonyl_3_Fluoro_Thienothiophene_Hydrogenated_Improper.qcin_1605464.0 ./qchem1605464/

Process 0 of 1 is on exp-6-41 - thread support 0
initial socket setup ...start
initial socket setup ...done 
now start server 0 ... 
                  Welcome to Q-Chem
     A Quantum Leap Into The Future Of Chemistry


 Q-Chem 5.4, Q-Chem, Inc., Pleasanton, CA (2021)

 License issued to: University of California, San Diego (site)

 E. Epifanovsky,  A. T. B. Gilbert,  Xintian Feng,  Joonho Lee,  Yuezhi Mao,  
 N. Mardirossian,  P. Pokhilko,  A. White,  M. Wormit,  M. P. Coons,  
 A. L. Dempwolff,  Zhengting Gan,  D. Hait,  P. R. Horn,  L. D. Jacobson,  
 I. Kaliman,  J. Kussmann,  A. W. Lange,  Ka Un Lao,  D. S. Levine,  Jie Liu,  
 S. C. McKenzie,  A. F. Morrison,  K. Nanda,  F. Plasser,  D. R. Rehn,  
 M. L. Vidal,  Zhi-Qiang You,  Ying Zhu,  B. Alam,  B. Albrecht,  
 A. Aldossary,  E. Alguire,  J. H. Andersen,  D. Barton,  K. Begam,  A. Behn,  
 Y. A. Bernard,  E. J. Berquist,  H. Burton,  A. Carreras,  K. Carter-Fenk,  
 R. Chakraborty,  A. D. Chien,  K. D. Closser,  V. Cofer-Shabica,  
 S. Dasgupta,  Jia Deng,  M. de Wergifosse,  M. Diedenhofen,  Hainam Do,  
 S. Ehlert,  Po-Tung Fang,  S. Fatehi,  Qingguo Feng,  J. Gayvert,  
 Qinghui Ge,  G. Gidofalvi,  M. Goldey,  J. Gomes,  C. Gonzalez-Espinoza,  
 S. Gulania,  A. Gunina,  M. W. D. Hanson-Heine,  P. H. P. Harbach,  
 A. W. Hauser,  M. F. Herbst,  M. Hernandez Vera,  M. Hodecker,  
 Z. C. Holden,  S. Houck,  Xunkun Huang,  Kerwin Hui,  B. C. Huynh,  
 M. Ivanov,  Hyunjun Ji,  Hanjie Jiang,  B. Kaduk,  S. Kaehler,  
 K. Khistyaev,  Jaehoon Kim,  P. Klunzinger,  Z. Koczor-Benda,  
 Joong Hoon Koh,  D. Kosenkov,  L. Koulias,  T. Kowalczyk,  C. M. Krauter,  
 K. Kue,  A. Kunitsa,  T. Kus,  A. Landau,  K. V. Lawler,  D. Lefrancois,  
 S. Lehtola,  Rain Li,  Yi-Pei Li,  Jiashu Liang,  M. Liebenthal,  
 Hung-Hsuan Lin,  You-Sheng Lin,  Fenglai Liu,  Kuan-Yu Liu,  
 M. Loipersberger,  A. Luenser,  A. Manjanath,  P. Manohar,  E. Mansoor,  
 S. F. Manzer,  Shan-Ping Mao,  A. V. Marenich,  T. Markovich,  S. Mason,  
 S. A. Maurer,  P. F. McLaughlin,  M. F. S. J. Menger,  J.-M. Mewes,  
 S. A. Mewes,  P. Morgante,  J. W. Mullinax,  T. S. Nguyen-Beck,  
 K. J. Oosterbaan,  G. Paran,  Alexander C. Paul,  Suranjan K. Paul,  
 F. Pavosevic,  Zheng Pei,  S. Prager,  E. I. Proynov,  E. Ramos,  B. Rana,  
 A. E. Rask,  A. Rettig,  R. M. Richard,  F. Rob,  E. Rossomme,  T. Scheele,  
 M. Scheurer,  M. Schneider,  N. Sergueev,  S. M. Sharada,  W. Skomorowski,  
 D. W. Small,  C. J. Stein,  Yu-Chuan Su,  E. J. Sundstrom,  Zhen Tao,  
 J. Thirman,  T. Tsuchimochi,  N. M. Tubman,  S. P. Veccham,  O. Vydrov,  
 J. Wenzel,  J. Witte,  A. Yamada,  Kun Yao,  S. Yeganeh,  S. R. Yost,  
 A. Zech,  Igor Ying Zhang,  Xing Zhang,  Yu Zhang,  D. Zuev,  
 A. Aspuru-Guzik,  A. T. Bell,  N. A. Besley,  K. B. Bravaya,  B. R. Brooks,  
 D. Casanova,  Jeng-Da Chai,  S. Coriani,  C. J. Cramer,  
 A. E. DePrince, III,  R. A. DiStasio Jr.,  A. Dreuw,  B. D. Dunietz,  
 T. R. Furlani,  W. A. Goddard III,  S. Grimme,  S. Hammes-Schiffer,  
 T. Head-Gordon,  W. J. Hehre,  Chao-Ping Hsu,  T.-C. Jagau,  Yousung Jung,  
 A. Klamt,  Jing Kong,  D. S. Lambrecht,  WanZhen Liang,  N. J. Mayhall,  
 C. W. McCurdy,  J. B. Neaton,  C. Ochsenfeld,  J. A. Parkhill,  R. Peverati,  
 V. A. Rassolov,  Yihan Shao,  L. V. Slipchenko,  T. Stauch,  R. P. Steele,  
 J. E. Subotnik,  A. J. W. Thom,  A. Tkatchenko,  D. G. Truhlar,  
 T. Van Voorhis,  T. A. Wesolowski,  K. B. Whaley,  H. L. Woodcock III,  
 P. M. Zimmerman,  S. Faraji,  P. M. W. Gill,  M. Head-Gordon,  
 J. M. Herbert,  A. I. Krylov

 Contributors to earlier versions of Q-Chem not listed above: 
 R. D. Adamson,  B. Austin,  R. Baer,  J. Baker,  G. J. O. Beran,  
 K. Brandhorst,  S. T. Brown,  E. F. C. Byrd,  A. K. Chakraborty,  
 G. K. L. Chan,  Chun-Min Chang,  Yunqing Chen,  C.-L. Cheng,  
 Siu Hung Chien,  D. M. Chipman,  D. L. Crittenden,  H. Dachsel,  
 R. J. Doerksen,  A. D. Dutoi,  R. G. Edgar,  J. Fosso-Tande,  
 L. Fusti-Molnar,  D. Ghosh,  A. Ghysels,  A. Golubeva-Zadorozhnaya,  
 J. Gonthier,  M. S. Gordon,  S. R. Gwaltney,  G. Hawkins,  J. E. Herr,  
 A. Heyden,  S. Hirata,  E. G. Hohenstein,  G. Kedziora,  F. J. Keil,  
 C. Kelley,  Jihan Kim,  R. A. King,  R. Z. Khaliullin,  P. P. Korambath,  
 W. Kurlancheek,  A. Laurent,  A. M. Lee,  M. S. Lee,  S. V. Levchenko,  
 Ching Yeh Lin,  D. Liotard,  E. Livshits,  R. C. Lochan,  I. Lotan,  
 L. A. Martinez-Martinez,  P. E. Maslen,  N. Nair,  D. P. O'Neill,  
 D. Neuhauser,  E. Neuscamman,  C. M. Oana,  R. Olivares-Amaya,  R. Olson,  
 T. M. Perrine,  B. Peters,  P. A. Pieniazek,  A. Prociuk,  Y. M. Rhee,  
 J. Ritchie,  M. A. Rohrdanz,  E. Rosta,  N. J. Russ,  H. F. Schaefer III,  
 M. W. Schmidt,  N. E. Schultz,  S. Sharma,  N. Shenvi,  C. D. Sherrill,  
 A. C. Simmonett,  A. Sodt,  T. Stein,  D. Stuck,  K. S. Thanthiriwatte,  
 V. Vanovschi,  L. Vogt,  Tao Wang,  A. Warshel,  M. A. Watson,  
 C. F. Williams,  Q. Wu,  X. Xu,  Jun Yang,  W. Zhang,  Yan Zhao

 Please cite Q-Chem as follows:
 Y. Shao et al., Mol. Phys. 113, 184-215 (2015)
 DOI: 10.1080/00268976.2014.952696

 Q-Chem 5.4.0 for Intel X86 EM64T Linux

 Parts of Q-Chem use Armadillo 9.800.1 (Horizon Scraper).
 http://arma.sourceforge.net/

 Q-Chem begins on Tue Jan  9 10:12:24 2024  

 Host: 
0

     Scratch files written to ./qchem1605464//
 May1621 |scratch|qcdevops|jenkins|workspace|build_RNUM    
 Parallel job on  1  processors
 Processing $rem in /cm/shared/apps/spack/cpu/opt/spack/linux-centos8-zen2/gcc-10.2.0/qchem-5.4-akfmr7b3t57bfs6qan3padb2wnb2i7cl/config/preferences:
 Processing $rem in /home/rramji/.qchemrc:
 Symmetry turned off for PCM/SM12/SMD calculation
 Core orbitals will be frozen

 Checking the input file for inconsistencies... 	...done.

 Q-Chem warning in module forms1/BasisType.C, line 2236:

 You are not using the predefined 5D/6D in this basis set.


--------------------------------------------------------------
User input:
--------------------------------------------------------------
$molecule
0 1
C	-0.353267	-0.928548	0.975680
S	-0.043367	-0.078548	2.483180
C	0.493733	1.399452	1.694580
C	-0.043267	-0.078948	-0.092220
C	0.430033	1.228152	0.289280
S	-0.123867	-0.308748	-1.829820
C	0.470033	1.339152	-2.078820
C	0.710033	2.005552	-0.886920
F	1.162633	3.263252	-0.843420
C	0.625033	1.759552	-3.480420
O	0.369233	1.033352	-4.430820
O	1.079933	3.031152	-3.593520
C	1.254233	3.494552	-4.940520
H	1.624233	4.531652	-4.857420
H	0.294133	3.468052	-5.494520
H	1.986233	2.863252	-5.483620
C	-0.353267	-2.363748	0.975680
H	-1.433167	-2.371748	0.983080
H	-0.353567	-3.041648	0.134980
H	-0.346567	-2.894848	1.916080
H	0.808533	2.268452	2.282180
$end

$rem
JOBTYPE		SP
EXCHANGE	HF
CORRELATION	pRIMP2
BASIS		cc-pvtz
METHOD		rimp2
AUX_BASIS	rimp2-cc-pvtz
SOLVENT_METHOD	PCM
PURECART	11111
SYMMETRY	false
MEM_TOTAL	110000
SCF_CONVERGENCE = 6
THRESH=10
GUI = 2
$end



$solvent
dielectric 4.90
$end
--------------------------------------------------------------
 ----------------------------------------------------------------
             Standard Nuclear Orientation (Angstroms)
    I     Atom           X                Y                Z
 ----------------------------------------------------------------
    1      C      -0.3532670000    -0.9285480000     0.9756800000
    2      S      -0.0433670000    -0.0785480000     2.4831800000
    3      C       0.4937330000     1.3994520000     1.6945800000
    4      C      -0.0432670000    -0.0789480000    -0.0922200000
    5      C       0.4300330000     1.2281520000     0.2892800000
    6      S      -0.1238670000    -0.3087480000    -1.8298200000
    7      C       0.4700330000     1.3391520000    -2.0788200000
    8      C       0.7100330000     2.0055520000    -0.8869200000
    9      F       1.1626330000     3.2632520000    -0.8434200000
   10      C       0.6250330000     1.7595520000    -3.4804200000
   11      O       0.3692330000     1.0333520000    -4.4308200000
   12      O       1.0799330000     3.0311520000    -3.5935200000
   13      C       1.2542330000     3.4945520000    -4.9405200000
   14      H       1.6242330000     4.5316520000    -4.8574200000
   15      H       0.2941330000     3.4680520000    -5.4945200000
   16      H       1.9862330000     2.8632520000    -5.4836200000
   17      C      -0.3532670000    -2.3637480000     0.9756800000
   18      H      -1.4331670000    -2.3717480000     0.9830800000
   19      H      -0.3535670000    -3.0416480000     0.1349800000
   20      H      -0.3465670000    -2.8948480000     1.9160800000
   21      H       0.8085330000     2.2684520000     2.2821800000
 ----------------------------------------------------------------
 Nuclear Repulsion Energy =        1083.31369705 hartrees
 There are       59 alpha and       59 beta electrons
 Requested basis set is cc-pVTZ
 There are 186 shells and 526 basis functions

 Total QAlloc Memory Limit 110000 MB
 Mega-Array Size       188 MB
 MEM_STATIC part       192 MB
 Discretize the solute cavity surface with Lebedev spheres
	Using 110 Lebedev grid points for each H atom
	Using 194 Lebedev grid points for other atoms
	Atomic van der Waals radii will be scaled by 1.20
 Remove points where switching function is < 1.0e-08
 Keep 1557 surface tesserae and discard 1929 interior tesserae
 Molecular Surface Area = 242.887 Angst**2
 Requested basis set is rimp2-cc-pVTZ
 There are 410 shells and 1426 basis functions
 A cutoff of  1.0D-10 yielded  11482 shell pairs
 There are     90166 function pairs (    118038 Cartesian)
 Smallest overlap matrix eigenvalue = 5.90E-05

 Scale SEOQF with 1.000000e-01/1.000000e-01/1.000000e-02

 Standard Electronic Orientation quadrupole field applied
 Nucleus-field energy     =     0.0000000245 hartrees
 Guess from superposition of atomic densities
 Warning:  Energy on first SCF cycle will be non-variational
 SAD guess density has 118.000000 electrons

 -----------------------------------------------------------------------
  General SCF calculation program by
  Eric Jon Sundstrom, Paul Horn, Yuezhi Mao, Dmitri Zuev, Alec White,
  David Stuck, Shaama M.S., Shane Yost, Joonho Lee, David Small,
  Daniel Levine, Susi Lehtola, Hugh Burton, Evgeny Epifanovsky,
  Bang C. Huynh
 -----------------------------------------------------------------------
 Hartree-Fock
 using 64 threads for integral computing
 -------------------------------------------------------
 OpenMP Integral computing Module                
 Release: version 1.0, May 2013, Q-Chem Inc. Pittsburgh 
 -------------------------------------------------------
 A restricted SCF calculation will be
 performed using DIIS
 SCF converges when DIIS error is below 1.0e-06
 ---------------------------------------
  Cycle       Energy         DIIS error
 ---------------------------------------
    1   -1394.2391179321      2.47e-02  
    2   -1389.0268271570      2.46e-03  
    3   -1389.1961949670      1.53e-03  
    4   -1389.2549364507      3.53e-04  
    5   -1389.2606952520      1.12e-04  
    6   -1389.2613809562      3.66e-05  
    7   -1389.2615302890      1.82e-05  
    8   -1389.2615817499      7.08e-06  
    9   -1389.2615925606      3.03e-06  
   10   -1389.2615940113      1.13e-06  
   11   -1389.2615942309      5.04e-07  Convergence criterion met
 ---------------------------------------
 SCF time:   CPU 1661.97s  wall 48.00s 

************** Final PCM Free Energy Summary **************
 G_electrostatic  =      -0.01261691 hartree =      -7.91722911 kcal/mol
 G_cavitation     =       0.00000000 hartree =       0.00000000 kcal/mol
 G_dispersion     =       0.00000000 hartree =       0.00000000 kcal/mol
 G_repulsion      =       0.00000000 hartree =       0.00000000 kcal/mol
 --------------------------------------------------
 Non-electrostatic Free Energy =       0.00000000 hartree =       0.00000000 kcal/mol
 Total                         =      -0.01261691 hartree =      -7.91722911 kcal/mol
 --------------------------------------------------
 SCF Energy (H0 + V/2)                       =   -1389.26159423 
 Solute Internal Energy (H0)                 =   -1389.24897732 
 Total Free Energy (H0 + V/2 + non-elec)     =   -1389.26159423 hartree
                                             = -871774.80807647 kcal/mol
***********************************************************

 SCF   energy in the final basis set =    -1389.2615942309
 Total energy in the final basis set =    -1389.2615942309


 --------------------------------------------------------------
  Generalized many-body perturbation theory program
  by Joonho Lee, Fazle Rob, Xintian Feng, Evgeny Epifanovsky

 No regularization used 
 (reg. param. = 0.0000e+00)
  (P|Q)^-1/2 Time:  CPU 31.04 s  wall 0.50 s

 In RI-MP2 calculation: 
 # of frozen core orbitals: 22

 Components of the RIMP2 correlation energy:
        aaaa    correlation energy =        -0.3285561725 a.u.
        abab    correlation energy =        -1.8492516643 a.u.
        bbbb    correlation energy =        -0.3285561725 a.u.
        non-Brillouin singles      =        -0.0000000000 a.u.
        total same-spin energy     =        -0.6571123450 a.u.
        total opposite-spin energy =        -1.8492516643 a.u.

 Total  RIMP2   correlation energy =        -2.5063640093 a.u.
        RIMP2         total energy =     -1391.7679582402 a.u.

 RI-MP2 Energy Time:  CPU 183.10 s  wall 3.18 s
 
 --------------------------------------------------------------
 
                    Orbital Energies (a.u.)
 --------------------------------------------------------------
 
 Alpha MOs
 -- Occupied --
-92.0057 -91.9910 -26.3398 -20.6133 -20.5594 -11.4072 -11.3776 -11.2982
-11.2941 -11.2941 -11.2880 -11.2815 -11.2782 -11.2279  -9.0046  -8.9911
 -6.6854  -6.6848  -6.6843  -6.6722  -6.6715  -6.6704  -1.6571  -1.4657
 -1.3682  -1.2115  -1.1362  -1.0660  -1.0182  -0.9952  -0.9578  -0.9131
 -0.8628  -0.8046  -0.7879  -0.7582  -0.7300  -0.7220  -0.6923  -0.6830
 -0.6724  -0.6597  -0.6125  -0.5942  -0.5872  -0.5823  -0.5609  -0.5595
 -0.5324  -0.5267  -0.5129  -0.5000  -0.4726  -0.4715  -0.4706  -0.4581
 -0.3821  -0.3448  -0.2804
 -- Virtual --
  0.0412   0.1193   0.1357   0.1537   0.1578   0.1737   0.1832   0.1966
  0.2078   0.2084   0.2158   0.2290   0.2327   0.2427   0.2527   0.2659
  0.2854   0.3072   0.3212   0.3399   0.3473   0.3536   0.3723   0.3823
  0.3853   0.4018   0.4067   0.4120   0.4214   0.4338   0.4419   0.4477
  0.4614   0.4630   0.4811   0.4894   0.5017   0.5089   0.5101   0.5160
  0.5301   0.5425   0.5436   0.5455   0.5515   0.5579   0.5649   0.5827
  0.5915   0.5970   0.6057   0.6155   0.6162   0.6183   0.6248   0.6266
  0.6310   0.6437   0.6551   0.6672   0.6706   0.6893   0.6950   0.7083
  0.7197   0.7227   0.7319   0.7445   0.7521   0.7671   0.7865   0.7980
  0.8126   0.8152   0.8307   0.8452   0.8552   0.8632   0.8781   0.8801
  0.8869   0.8919   0.9001   0.9268   0.9412   0.9544   0.9649   0.9804
  0.9906   0.9971   1.0030   1.0148   1.0331   1.0381   1.0436   1.0544
  1.0639   1.0744   1.0860   1.0923   1.0978   1.1077   1.1103   1.1170
  1.1231   1.1414   1.1544   1.1567   1.1768   1.1845   1.1917   1.2033
  1.2221   1.2381   1.2434   1.2536   1.2601   1.2845   1.2952   1.3074
  1.3229   1.3299   1.3524   1.3611   1.3732   1.3891   1.3977   1.4026
  1.4196   1.4313   1.4402   1.4693   1.4827   1.4891   1.5027   1.5072
  1.5180   1.5385   1.5404   1.5449   1.5518   1.5684   1.5778   1.6068
  1.6218   1.6298   1.6534   1.6706   1.6784   1.6824   1.7159   1.7204
  1.7538   1.7853   1.7960   1.8175   1.8230   1.8243   1.8329   1.8631
  1.8706   1.8879   1.9021   1.9223   1.9312   1.9415   1.9578   1.9756
  1.9919   2.0125   2.0188   2.0357   2.0585   2.0783   2.0904   2.1020
  2.1377   2.1499   2.1690   2.1929   2.2021   2.2061   2.2203   2.2259
  2.2407   2.2490   2.2617   2.2698   2.2983   2.3043   2.3325   2.3393
  2.3567   2.3704   2.3829   2.4091   2.4295   2.4327   2.4757   2.4879
  2.5054   2.5403   2.5493   2.5596   2.5779   2.6081   2.6260   2.6308
  2.6447   2.6530   2.6682   2.6799   2.6881   2.6941   2.7050   2.7069
  2.7296   2.7498   2.7779   2.7860   2.7955   2.8047   2.8129   2.8271
  2.8376   2.8487   2.8744   2.8802   2.8973   2.9148   2.9257   2.9482
  2.9626   2.9774   2.9867   3.0038   3.0241   3.0417   3.0437   3.0685
  3.0741   3.0890   3.0941   3.1037   3.1068   3.1250   3.1315   3.1483
  3.1495   3.1730   3.1914   3.2026   3.2138   3.2186   3.2345   3.2432
  3.2525   3.2690   3.2760   3.2877   3.2962   3.3057   3.3164   3.3284
  3.3417   3.3479   3.3629   3.3710   3.3765   3.3985   3.4054   3.4179
  3.4203   3.4323   3.4433   3.4484   3.4553   3.4676   3.4793   3.4841
  3.4908   3.5119   3.5124   3.5261   3.5350   3.5502   3.5573   3.5753
  3.5824   3.5968   3.6023   3.6190   3.6327   3.6365   3.6591   3.6680
  3.6778   3.6951   3.7072   3.7112   3.7195   3.7292   3.7368   3.7395
  3.7634   3.7815   3.7901   3.7937   3.8052   3.8214   3.8244   3.8297
  3.8518   3.8546   3.8783   3.8788   3.8956   3.9095   3.9340   3.9387
  3.9529   3.9605   3.9763   3.9893   4.0015   4.0200   4.0281   4.0437
  4.0675   4.0739   4.1061   4.1244   4.1300   4.1491   4.1569   4.1674
  4.1858   4.2014   4.2259   4.2481   4.2640   4.2848   4.3065   4.3341
  4.3427   4.3597   4.3644   4.3942   4.3980   4.4122   4.4190   4.4360
  4.4532   4.4785   4.5099   4.5249   4.5283   4.5521   4.5791   4.5859
  4.6098   4.6208   4.6358   4.6565   4.6794   4.6839   4.7225   4.7325
  4.7704   4.7809   4.7983   4.8391   4.8556   4.8892   4.9081   4.9260
  4.9584   4.9917   5.0095   5.0122   5.0512   5.0847   5.0979   5.1171
  5.1587   5.1769   5.2022   5.2527   5.2569   5.2644   5.2775   5.3537
  5.3557   5.3998   5.4235   5.4270   5.4298   5.4857   5.5179   5.5361
  5.5649   5.5830   5.5850   5.6233   5.6604   5.6642   5.7432   5.7533
  5.8089   5.8159   5.8216   5.8575   5.9141   5.9307   5.9698   6.0276
  6.0436   6.1111   6.1515   6.1780   6.2163   6.2627   6.3049   6.4058
  6.4517   6.4847   6.5399   6.6048   6.6623   6.6729   6.7479   6.8314
  6.8612   6.9796   7.2054   7.2073   7.3115   7.3660   7.3662   7.4075
  7.4148   7.4888   7.5260   7.5516   7.6163   7.7763   7.7905   7.8968
  7.9582   8.1358   8.2213   8.9251   9.0140   9.3660   9.4645   9.6471
 10.0772  11.0470  11.5862  11.8102  12.4076  12.9203  13.0920  13.3859
 13.7721  14.0307  14.4188
 --------------------------------------------------------------
 
          Ground-State Mulliken Net Atomic Charges

     Atom                 Charge (a.u.)
  ----------------------------------------
      1 C                     0.026774
      2 S                     0.083806
      3 C                    -0.226949
      4 C                    -0.030635
      5 C                    -0.088930
      6 S                    -0.010310
      7 C                    -0.157730
      8 C                     0.393141
      9 F                    -0.208957
     10 C                     0.446283
     11 O                    -0.462191
     12 O                    -0.300792
     13 C                    -0.058475
     14 H                     0.121002
     15 H                     0.094679
     16 H                     0.094690
     17 C                    -0.384855
     18 H                     0.143426
     19 H                     0.167453
     20 H                     0.145989
     21 H                     0.212581
  ----------------------------------------
  Sum of atomic charges =     0.000000

 -----------------------------------------------------------------
                    Cartesian Multipole Moments
 -----------------------------------------------------------------
    Charge (ESU x 10^10)
                -0.0000
    Dipole Moment (Debye)
         X      -0.0620      Y       0.0597      Z       3.2823
       Tot       3.2834
    Quadrupole Moments (Debye-Ang)
        XX     -95.3202     XY       5.6227     YY     -82.1101
        XZ      -3.6714     YZ      -9.9455     ZZ     -96.3050
    Octopole Moments (Debye-Ang^2)
       XXX     -87.8676    XXY     -74.3838    XYY     -29.9512
       YYY    -229.0511    XXZ      76.0763    XYZ      -9.3261
       YYZ      53.0650    XZZ      -3.7928    YZZ      -5.2253
       ZZZ     272.2618
    Hexadecapole Moments (Debye-Ang^3)
      XXXX    -332.1380   XXXY    -307.0044   XXYY    -376.7746
      XYYY    -263.4965   YYYY   -1864.6569   XXXZ     271.8760
      XXYZ     249.7532   XYYZ      39.8224   YYYZ     657.1155
      XXZZ    -634.3848   XYZZ      10.3810   YYZZ    -631.1932
      XZZZ     167.4094   YZZZ     487.4557   ZZZZ   -3707.2682
 -----------------------------------------------------------------
 Total job time:  54.23s(wall), 1925.53s(cpu) 
 Tue Jan  9 10:13:18 2024

        *************************************************************
        *                                                           *
        *  Thank you very much for using Q-Chem.  Have a nice day.  *
        *                                                           *
        *************************************************************


0 sent ACK to 0 
now end server 0 ... 
cleanup process ... done
remove work dirs ./qchem1605464.0 -- ./qchem1605464.0
rm -rf ./qchem1605464.0
rm -rf ./qchem1605464
