You are running Q-Chem version: 5.4.0

#
# job setting
#
local host:  exp-1-41
current dir: /home/rramji/project-csd799/aromodel/ptb7fout-qchem/methylated-rotation-run
input file:  Dimethoxy_Benzodithiophene_Phi_0_Theta_40_Methylcarbonyl_3_Fluoro_Thienothiophene_Hydrogenated_Improper.qcin
output file: 
nprocs     : 1
nthreads   : 64
#
# qchem installation setting
#
QC:          /cm/shared/apps/spack/cpu/opt/spack/linux-centos8-zen2/gcc-10.2.0/qchem-5.4-akfmr7b3t57bfs6qan3padb2wnb2i7cl
QCAUX:       /cm/shared/apps/spack/cpu/opt/spack/linux-centos8-zen2/gcc-10.2.0/qchem-5.4-akfmr7b3t57bfs6qan3padb2wnb2i7cl/qcaux
QCPROG:      /cm/shared/apps/spack/cpu/opt/spack/linux-centos8-zen2/gcc-10.2.0/qchem-5.4-akfmr7b3t57bfs6qan3padb2wnb2i7cl/exe/qcprog.exe
QCPROG_S:    /cm/shared/apps/spack/cpu/opt/spack/linux-centos8-zen2/gcc-10.2.0/qchem-5.4-akfmr7b3t57bfs6qan3padb2wnb2i7cl/exe/qcprog.exe_s
PARALLEL:    -DPARALLEL
QCMPI:       mpich
#
# qchem directory setting
#
qcrun:       qchem1389145
QCSCRATCH:   .
QCLOCALSCR:  
QCTMPDIR:    .
QCFILEPREF:  ./qchem1389145
QCSAVEDIR:   
workdirs:    ./qchem1389145
workdir0:    ./qchem1389145
partmpdirs =  
#
# parallel setting
#
QCRSH:           ssh
QCMPI:           mpich
QCMPIRUN:        /cm/shared/apps/spack/cpu/opt/spack/linux-centos8-zen2/gcc-10.2.0/qchem-5.4-akfmr7b3t57bfs6qan3padb2wnb2i7cl/bin/mpi/mpirun_qchem
QCMACHINEFILE:   ./qchem1389145/hostfile
exp-1-41

#
# env setting
#
exported envs:   QC QCAUX QCSCRATCH QCRUNNAME QCFILEPREF QCPROG QCPROG_S GUIFILE

Running Job 1 of 1 Dimethoxy_Benzodithiophene_Phi_0_Theta_40_Methylcarbonyl_3_Fluoro_Thienothiophene_Hydrogenated_Improper.qcin
qchem Dimethoxy_Benzodithiophene_Phi_0_Theta_40_Methylcarbonyl_3_Fluoro_Thienothiophene_Hydrogenated_Improper.qcin_1389145.0 ./qchem1389145/ 1
/cm/shared/apps/spack/cpu/opt/spack/linux-centos8-zen2/gcc-10.2.0/qchem-5.4-akfmr7b3t57bfs6qan3padb2wnb2i7cl/bin/mpi/mpirun_qchem -machinefile ./qchem1389145/hostfile -np 1 /cm/shared/apps/spack/cpu/opt/spack/linux-centos8-zen2/gcc-10.2.0/qchem-5.4-akfmr7b3t57bfs6qan3padb2wnb2i7cl/exe/qcprog.exe Dimethoxy_Benzodithiophene_Phi_0_Theta_40_Methylcarbonyl_3_Fluoro_Thienothiophene_Hydrogenated_Improper.qcin_1389145.0 ./qchem1389145/

Process 0 of 1 is on exp-1-41 - thread support 0
initial socket setup ...start
initial socket setup ...done 
now start server 0 ... 
                  Welcome to Q-Chem
     A Quantum Leap Into The Future Of Chemistry


 Q-Chem 5.4, Q-Chem, Inc., Pleasanton, CA (2021)

 License issued to: University of California, San Diego (site)

 E. Epifanovsky,  A. T. B. Gilbert,  Xintian Feng,  Joonho Lee,  Yuezhi Mao,  
 N. Mardirossian,  P. Pokhilko,  A. White,  M. Wormit,  M. P. Coons,  
 A. L. Dempwolff,  Zhengting Gan,  D. Hait,  P. R. Horn,  L. D. Jacobson,  
 I. Kaliman,  J. Kussmann,  A. W. Lange,  Ka Un Lao,  D. S. Levine,  Jie Liu,  
 S. C. McKenzie,  A. F. Morrison,  K. Nanda,  F. Plasser,  D. R. Rehn,  
 M. L. Vidal,  Zhi-Qiang You,  Ying Zhu,  B. Alam,  B. Albrecht,  
 A. Aldossary,  E. Alguire,  J. H. Andersen,  D. Barton,  K. Begam,  A. Behn,  
 Y. A. Bernard,  E. J. Berquist,  H. Burton,  A. Carreras,  K. Carter-Fenk,  
 R. Chakraborty,  A. D. Chien,  K. D. Closser,  V. Cofer-Shabica,  
 S. Dasgupta,  Jia Deng,  M. de Wergifosse,  M. Diedenhofen,  Hainam Do,  
 S. Ehlert,  Po-Tung Fang,  S. Fatehi,  Qingguo Feng,  J. Gayvert,  
 Qinghui Ge,  G. Gidofalvi,  M. Goldey,  J. Gomes,  C. Gonzalez-Espinoza,  
 S. Gulania,  A. Gunina,  M. W. D. Hanson-Heine,  P. H. P. Harbach,  
 A. W. Hauser,  M. F. Herbst,  M. Hernandez Vera,  M. Hodecker,  
 Z. C. Holden,  S. Houck,  Xunkun Huang,  Kerwin Hui,  B. C. Huynh,  
 M. Ivanov,  Hyunjun Ji,  Hanjie Jiang,  B. Kaduk,  S. Kaehler,  
 K. Khistyaev,  Jaehoon Kim,  P. Klunzinger,  Z. Koczor-Benda,  
 Joong Hoon Koh,  D. Kosenkov,  L. Koulias,  T. Kowalczyk,  C. M. Krauter,  
 K. Kue,  A. Kunitsa,  T. Kus,  A. Landau,  K. V. Lawler,  D. Lefrancois,  
 S. Lehtola,  Rain Li,  Yi-Pei Li,  Jiashu Liang,  M. Liebenthal,  
 Hung-Hsuan Lin,  You-Sheng Lin,  Fenglai Liu,  Kuan-Yu Liu,  
 M. Loipersberger,  A. Luenser,  A. Manjanath,  P. Manohar,  E. Mansoor,  
 S. F. Manzer,  Shan-Ping Mao,  A. V. Marenich,  T. Markovich,  S. Mason,  
 S. A. Maurer,  P. F. McLaughlin,  M. F. S. J. Menger,  J.-M. Mewes,  
 S. A. Mewes,  P. Morgante,  J. W. Mullinax,  T. S. Nguyen-Beck,  
 K. J. Oosterbaan,  G. Paran,  Alexander C. Paul,  Suranjan K. Paul,  
 F. Pavosevic,  Zheng Pei,  S. Prager,  E. I. Proynov,  E. Ramos,  B. Rana,  
 A. E. Rask,  A. Rettig,  R. M. Richard,  F. Rob,  E. Rossomme,  T. Scheele,  
 M. Scheurer,  M. Schneider,  N. Sergueev,  S. M. Sharada,  W. Skomorowski,  
 D. W. Small,  C. J. Stein,  Yu-Chuan Su,  E. J. Sundstrom,  Zhen Tao,  
 J. Thirman,  T. Tsuchimochi,  N. M. Tubman,  S. P. Veccham,  O. Vydrov,  
 J. Wenzel,  J. Witte,  A. Yamada,  Kun Yao,  S. Yeganeh,  S. R. Yost,  
 A. Zech,  Igor Ying Zhang,  Xing Zhang,  Yu Zhang,  D. Zuev,  
 A. Aspuru-Guzik,  A. T. Bell,  N. A. Besley,  K. B. Bravaya,  B. R. Brooks,  
 D. Casanova,  Jeng-Da Chai,  S. Coriani,  C. J. Cramer,  
 A. E. DePrince, III,  R. A. DiStasio Jr.,  A. Dreuw,  B. D. Dunietz,  
 T. R. Furlani,  W. A. Goddard III,  S. Grimme,  S. Hammes-Schiffer,  
 T. Head-Gordon,  W. J. Hehre,  Chao-Ping Hsu,  T.-C. Jagau,  Yousung Jung,  
 A. Klamt,  Jing Kong,  D. S. Lambrecht,  WanZhen Liang,  N. J. Mayhall,  
 C. W. McCurdy,  J. B. Neaton,  C. Ochsenfeld,  J. A. Parkhill,  R. Peverati,  
 V. A. Rassolov,  Yihan Shao,  L. V. Slipchenko,  T. Stauch,  R. P. Steele,  
 J. E. Subotnik,  A. J. W. Thom,  A. Tkatchenko,  D. G. Truhlar,  
 T. Van Voorhis,  T. A. Wesolowski,  K. B. Whaley,  H. L. Woodcock III,  
 P. M. Zimmerman,  S. Faraji,  P. M. W. Gill,  M. Head-Gordon,  
 J. M. Herbert,  A. I. Krylov

 Contributors to earlier versions of Q-Chem not listed above: 
 R. D. Adamson,  B. Austin,  R. Baer,  J. Baker,  G. J. O. Beran,  
 K. Brandhorst,  S. T. Brown,  E. F. C. Byrd,  A. K. Chakraborty,  
 G. K. L. Chan,  Chun-Min Chang,  Yunqing Chen,  C.-L. Cheng,  
 Siu Hung Chien,  D. M. Chipman,  D. L. Crittenden,  H. Dachsel,  
 R. J. Doerksen,  A. D. Dutoi,  R. G. Edgar,  J. Fosso-Tande,  
 L. Fusti-Molnar,  D. Ghosh,  A. Ghysels,  A. Golubeva-Zadorozhnaya,  
 J. Gonthier,  M. S. Gordon,  S. R. Gwaltney,  G. Hawkins,  J. E. Herr,  
 A. Heyden,  S. Hirata,  E. G. Hohenstein,  G. Kedziora,  F. J. Keil,  
 C. Kelley,  Jihan Kim,  R. A. King,  R. Z. Khaliullin,  P. P. Korambath,  
 W. Kurlancheek,  A. Laurent,  A. M. Lee,  M. S. Lee,  S. V. Levchenko,  
 Ching Yeh Lin,  D. Liotard,  E. Livshits,  R. C. Lochan,  I. Lotan,  
 L. A. Martinez-Martinez,  P. E. Maslen,  N. Nair,  D. P. O'Neill,  
 D. Neuhauser,  E. Neuscamman,  C. M. Oana,  R. Olivares-Amaya,  R. Olson,  
 T. M. Perrine,  B. Peters,  P. A. Pieniazek,  A. Prociuk,  Y. M. Rhee,  
 J. Ritchie,  M. A. Rohrdanz,  E. Rosta,  N. J. Russ,  H. F. Schaefer III,  
 M. W. Schmidt,  N. E. Schultz,  S. Sharma,  N. Shenvi,  C. D. Sherrill,  
 A. C. Simmonett,  A. Sodt,  T. Stein,  D. Stuck,  K. S. Thanthiriwatte,  
 V. Vanovschi,  L. Vogt,  Tao Wang,  A. Warshel,  M. A. Watson,  
 C. F. Williams,  Q. Wu,  X. Xu,  Jun Yang,  W. Zhang,  Yan Zhao

 Please cite Q-Chem as follows:
 Y. Shao et al., Mol. Phys. 113, 184-215 (2015)
 DOI: 10.1080/00268976.2014.952696

 Q-Chem 5.4.0 for Intel X86 EM64T Linux

 Parts of Q-Chem use Armadillo 9.800.1 (Horizon Scraper).
 http://arma.sourceforge.net/

 Q-Chem begins on Tue Jan  9 09:51:44 2024  

 Host: 
0

     Scratch files written to ./qchem1389145//
 May1621 |scratch|qcdevops|jenkins|workspace|build_RNUM    
 Parallel job on  1  processors
 Processing $rem in /cm/shared/apps/spack/cpu/opt/spack/linux-centos8-zen2/gcc-10.2.0/qchem-5.4-akfmr7b3t57bfs6qan3padb2wnb2i7cl/config/preferences:
 Processing $rem in /home/rramji/.qchemrc:
 Symmetry turned off for PCM/SM12/SMD calculation
 Core orbitals will be frozen

 Checking the input file for inconsistencies... 	...done.

 Q-Chem warning in module forms1/BasisType.C, line 2236:

 You are not using the predefined 5D/6D in this basis set.


--------------------------------------------------------------
User input:
--------------------------------------------------------------
$molecule
0 1
C	-0.001607	-0.991205	0.974584
S	-0.001107	-0.086405	2.482084
C	-0.001907	1.486095	1.693484
C	-0.000807	-0.086805	-0.093316
C	-0.003207	1.303395	0.288184
S	0.001993	-0.330305	-1.830916
C	-0.003507	1.421295	-2.079916
C	-0.006007	2.129695	-0.888016
F	-0.010807	3.466295	-0.844516
C	-0.001607	1.869395	-3.481516
O	0.006293	1.099495	-4.431916
O	-0.009107	3.219895	-3.594616
C	-0.003907	3.714995	-4.941616
H	-0.010907	4.815995	-4.858516
H	-0.897007	3.361695	-5.495616
H	0.899893	3.372095	-5.484716
C	-0.001607	-2.426405	0.974584
H	0.830493	-2.434405	1.663084
H	-0.541807	-3.104305	1.618784
H	0.597693	-2.957505	0.249984
H	-0.003307	2.410395	2.281084
$end

$rem
JOBTYPE		SP
EXCHANGE	HF
CORRELATION	pRIMP2
BASIS		cc-pvtz
METHOD		rimp2
AUX_BASIS	rimp2-cc-pvtz
SOLVENT_METHOD	PCM
PURECART	11111
SYMMETRY	false
MEM_TOTAL	110000
SCF_CONVERGENCE = 6
THRESH=10
GUI = 2
$end



$solvent
dielectric 4.90
$end
--------------------------------------------------------------
 ----------------------------------------------------------------
             Standard Nuclear Orientation (Angstroms)
    I     Atom           X                Y                Z
 ----------------------------------------------------------------
    1      C      -0.0016070000    -0.9912050000     0.9745840000
    2      S      -0.0011070000    -0.0864050000     2.4820840000
    3      C      -0.0019070000     1.4860950000     1.6934840000
    4      C      -0.0008070000    -0.0868050000    -0.0933160000
    5      C      -0.0032070000     1.3033950000     0.2881840000
    6      S       0.0019930000    -0.3303050000    -1.8309160000
    7      C      -0.0035070000     1.4212950000    -2.0799160000
    8      C      -0.0060070000     2.1296950000    -0.8880160000
    9      F      -0.0108070000     3.4662950000    -0.8445160000
   10      C      -0.0016070000     1.8693950000    -3.4815160000
   11      O       0.0062930000     1.0994950000    -4.4319160000
   12      O      -0.0091070000     3.2198950000    -3.5946160000
   13      C      -0.0039070000     3.7149950000    -4.9416160000
   14      H      -0.0109070000     4.8159950000    -4.8585160000
   15      H      -0.8970070000     3.3616950000    -5.4956160000
   16      H       0.8998930000     3.3720950000    -5.4847160000
   17      C      -0.0016070000    -2.4264050000     0.9745840000
   18      H       0.8304930000    -2.4344050000     1.6630840000
   19      H      -0.5418070000    -3.1043050000     1.6187840000
   20      H       0.5976930000    -2.9575050000     0.2499840000
   21      H      -0.0033070000     2.4103950000     2.2810840000
 ----------------------------------------------------------------
 Nuclear Repulsion Energy =        1082.46877310 hartrees
 There are       59 alpha and       59 beta electrons
 Requested basis set is cc-pVTZ
 There are 186 shells and 526 basis functions

 Total QAlloc Memory Limit 110000 MB
 Mega-Array Size       188 MB
 MEM_STATIC part       192 MB
 Discretize the solute cavity surface with Lebedev spheres
	Using 110 Lebedev grid points for each H atom
	Using 194 Lebedev grid points for other atoms
	Atomic van der Waals radii will be scaled by 1.20
 Remove points where switching function is < 1.0e-08
 Keep 1555 surface tesserae and discard 1931 interior tesserae
 Molecular Surface Area = 243.574 Angst**2
 Requested basis set is rimp2-cc-pVTZ
 There are 410 shells and 1426 basis functions
 A cutoff of  1.0D-10 yielded  11473 shell pairs
 There are     90069 function pairs (    117902 Cartesian)
 Smallest overlap matrix eigenvalue = 5.81E-05

 Scale SEOQF with 1.000000e+00/1.000000e-01/1.000000e-02

 Standard Electronic Orientation quadrupole field applied
 Nucleus-field energy     =     0.0000000273 hartrees
 Guess from superposition of atomic densities
 Warning:  Energy on first SCF cycle will be non-variational
 SAD guess density has 118.000000 electrons

 -----------------------------------------------------------------------
  General SCF calculation program by
  Eric Jon Sundstrom, Paul Horn, Yuezhi Mao, Dmitri Zuev, Alec White,
  David Stuck, Shaama M.S., Shane Yost, Joonho Lee, David Small,
  Daniel Levine, Susi Lehtola, Hugh Burton, Evgeny Epifanovsky,
  Bang C. Huynh
 -----------------------------------------------------------------------
 Hartree-Fock
 using 64 threads for integral computing
 -------------------------------------------------------
 OpenMP Integral computing Module                
 Release: version 1.0, May 2013, Q-Chem Inc. Pittsburgh 
 -------------------------------------------------------
 A restricted SCF calculation will be
 performed using DIIS
 SCF converges when DIIS error is below 1.0e-06
 ---------------------------------------
  Cycle       Energy         DIIS error
 ---------------------------------------
    1   -1394.2380934348      2.47e-02  
    2   -1389.0365471147      2.47e-03  
    3   -1389.2064324345      1.53e-03  
    4   -1389.2653794734      3.53e-04  
    5   -1389.2711525333      1.12e-04  
    6   -1389.2718446032      3.68e-05  
    7   -1389.2719961572      1.83e-05  
    8   -1389.2720484576      7.08e-06  
    9   -1389.2720592404      3.02e-06  
   10   -1389.2720606570      1.12e-06  
   11   -1389.2720608668      5.11e-07  Convergence criterion met
 ---------------------------------------
 SCF time:   CPU 1649.49s  wall 50.00s 

************** Final PCM Free Energy Summary **************
 G_electrostatic  =      -0.01262703 hartree =      -7.92358313 kcal/mol
 G_cavitation     =       0.00000000 hartree =       0.00000000 kcal/mol
 G_dispersion     =       0.00000000 hartree =       0.00000000 kcal/mol
 G_repulsion      =       0.00000000 hartree =       0.00000000 kcal/mol
 --------------------------------------------------
 Non-electrostatic Free Energy =       0.00000000 hartree =       0.00000000 kcal/mol
 Total                         =      -0.01262703 hartree =      -7.92358313 kcal/mol
 --------------------------------------------------
 SCF Energy (H0 + V/2)                       =   -1389.27206087 
 Solute Internal Energy (H0)                 =   -1389.25943383 
 Total Free Energy (H0 + V/2 + non-elec)     =   -1389.27206087 hartree
                                             = -871781.37598958 kcal/mol
***********************************************************

 SCF   energy in the final basis set =    -1389.2720608668
 Total energy in the final basis set =    -1389.2720608668


 --------------------------------------------------------------
  Generalized many-body perturbation theory program
  by Joonho Lee, Fazle Rob, Xintian Feng, Evgeny Epifanovsky

 No regularization used 
 (reg. param. = 0.0000e+00)
  (P|Q)^-1/2 Time:  CPU 25.67 s  wall 0.41 s

 In RI-MP2 calculation: 
 # of frozen core orbitals: 22

 Components of the RIMP2 correlation energy:
        aaaa    correlation energy =        -0.3280888642 a.u.
        abab    correlation energy =        -1.8476813016 a.u.
        bbbb    correlation energy =        -0.3280888642 a.u.
        non-Brillouin singles      =        -0.0000000000 a.u.
        total same-spin energy     =        -0.6561777284 a.u.
        total opposite-spin energy =        -1.8476813016 a.u.

 Total  RIMP2   correlation energy =        -2.5038590300 a.u.
        RIMP2         total energy =     -1391.7759198968 a.u.

 RI-MP2 Energy Time:  CPU 175.24 s  wall 2.89 s
 
 --------------------------------------------------------------
 
                    Orbital Energies (a.u.)
 --------------------------------------------------------------
 
 Alpha MOs
 -- Occupied --
-92.0058 -91.9903 -26.3399 -20.6133 -20.5594 -11.4072 -11.3777 -11.2988
-11.2958 -11.2941 -11.2879 -11.2824 -11.2782 -11.2285  -9.0048  -8.9905
 -6.6857  -6.6851  -6.6846  -6.6715  -6.6708  -6.6697  -1.6572  -1.4656
 -1.3682  -1.2114  -1.1364  -1.0657  -1.0186  -0.9955  -0.9580  -0.9130
 -0.8630  -0.8052  -0.7879  -0.7579  -0.7310  -0.7221  -0.6913  -0.6830
 -0.6724  -0.6600  -0.6103  -0.5986  -0.5917  -0.5797  -0.5639  -0.5564
 -0.5345  -0.5294  -0.5109  -0.4931  -0.4724  -0.4707  -0.4700  -0.4589
 -0.3869  -0.3455  -0.2842
 -- Virtual --
  0.0406   0.1267   0.1313   0.1548   0.1581   0.1733   0.1834   0.1981
  0.2103   0.2158   0.2200   0.2280   0.2313   0.2429   0.2512   0.2701
  0.2822   0.3059   0.3273   0.3350   0.3454   0.3517   0.3740   0.3808
  0.3854   0.4009   0.4063   0.4173   0.4213   0.4326   0.4376   0.4459
  0.4619   0.4663   0.4796   0.4947   0.4985   0.5049   0.5162   0.5164
  0.5282   0.5335   0.5401   0.5446   0.5551   0.5613   0.5777   0.5825
  0.5911   0.5940   0.6014   0.6093   0.6118   0.6164   0.6232   0.6267
  0.6362   0.6561   0.6579   0.6626   0.6720   0.6870   0.7058   0.7105
  0.7166   0.7207   0.7238   0.7473   0.7536   0.7660   0.7863   0.8097
  0.8135   0.8174   0.8341   0.8464   0.8516   0.8752   0.8777   0.8853
  0.8875   0.9031   0.9033   0.9174   0.9473   0.9571   0.9678   0.9749
  0.9811   0.9915   0.9963   1.0065   1.0295   1.0310   1.0390   1.0509
  1.0598   1.0752   1.0807   1.0974   1.1017   1.1111   1.1161   1.1208
  1.1257   1.1536   1.1646   1.1783   1.1811   1.1950   1.2065   1.2111
  1.2209   1.2327   1.2519   1.2573   1.2645   1.2728   1.2868   1.3024
  1.3136   1.3251   1.3562   1.3637   1.3797   1.3906   1.3980   1.4049
  1.4237   1.4297   1.4319   1.4755   1.4870   1.5023   1.5054   1.5139
  1.5218   1.5409   1.5426   1.5459   1.5626   1.5747   1.5822   1.5912
  1.6122   1.6294   1.6538   1.6705   1.6792   1.6971   1.7176   1.7296
  1.7483   1.7750   1.7975   1.8148   1.8203   1.8293   1.8511   1.8661
  1.8723   1.8853   1.8972   1.9146   1.9211   1.9385   1.9530   1.9760
  1.9984   2.0075   2.0226   2.0270   2.0526   2.0809   2.0895   2.1017
  2.1351   2.1606   2.1749   2.1957   2.2005   2.2038   2.2180   2.2348
  2.2353   2.2492   2.2557   2.2831   2.3035   2.3241   2.3345   2.3454
  2.3657   2.3725   2.3926   2.4090   2.4329   2.4561   2.4760   2.4936
  2.5025   2.5461   2.5517   2.5616   2.5829   2.6076   2.6256   2.6397
  2.6439   2.6552   2.6663   2.6836   2.6948   2.7035   2.7100   2.7269
  2.7324   2.7377   2.7508   2.7845   2.7918   2.7997   2.8148   2.8168
  2.8254   2.8471   2.8616   2.8726   2.8999   2.9177   2.9360   2.9611
  2.9717   2.9830   2.9877   3.0104   3.0243   3.0258   3.0296   3.0598
  3.0692   3.0894   3.0952   3.1017   3.1035   3.1221   3.1323   3.1401
  3.1489   3.1681   3.1883   3.2025   3.2185   3.2192   3.2476   3.2504
  3.2603   3.2642   3.2753   3.2936   3.2984   3.3033   3.3199   3.3302
  3.3413   3.3526   3.3642   3.3730   3.3819   3.3961   3.4018   3.4071
  3.4175   3.4386   3.4426   3.4531   3.4642   3.4750   3.4798   3.4856
  3.4944   3.5057   3.5255   3.5410   3.5493   3.5567   3.5707   3.5755
  3.5920   3.5933   3.6026   3.6199   3.6265   3.6372   3.6702   3.6709
  3.6779   3.6886   3.6955   3.7010   3.7070   3.7253   3.7413   3.7511
  3.7654   3.7727   3.7886   3.7942   3.8091   3.8141   3.8238   3.8291
  3.8389   3.8509   3.8693   3.8741   3.8961   3.8997   3.9183   3.9390
  3.9487   3.9627   3.9765   3.9919   3.9983   4.0035   4.0132   4.0441
  4.0678   4.0776   4.0973   4.1045   4.1260   4.1413   4.1503   4.1667
  4.1749   4.1895   4.2115   4.2563   4.2811   4.2962   4.3097   4.3159
  4.3427   4.3592   4.3639   4.3728   4.3900   4.4185   4.4219   4.4355
  4.4477   4.4761   4.4846   4.5213   4.5399   4.5569   4.5794   4.5897
  4.6093   4.6239   4.6331   4.6568   4.6703   4.6958   4.7126   4.7505
  4.7588   4.7838   4.7847   4.8494   4.8636   4.8853   4.9246   4.9304
  4.9652   4.9885   5.0044   5.0098   5.0632   5.0713   5.1073   5.1241
  5.1292   5.1859   5.2036   5.2536   5.2554   5.2605   5.3160   5.3531
  5.3627   5.4008   5.4105   5.4272   5.4604   5.4761   5.4858   5.5277
  5.5454   5.5830   5.6112   5.6233   5.6617   5.6663   5.7368   5.7578
  5.8089   5.8145   5.8382   5.8757   5.9155   5.9307   5.9616   6.0441
  6.0775   6.1024   6.1515   6.1788   6.2346   6.2627   6.2994   6.4236
  6.4517   6.4732   6.5397   6.6058   6.6624   6.6729   6.7484   6.8317
  6.8612   6.9798   7.2054   7.2090   7.3115   7.3661   7.3662   7.4079
  7.4148   7.4888   7.5284   7.5532   7.6166   7.7763   7.7907   7.9009
  7.9659   8.1367   8.3066   8.9250   9.0148   9.3660   9.4640   9.6439
 10.0713  11.0375  11.5831  11.8046  12.4084  12.9836  13.0922  13.3858
 13.7712  14.0305  14.5096
 --------------------------------------------------------------
 
          Ground-State Mulliken Net Atomic Charges

     Atom                 Charge (a.u.)
  ----------------------------------------
      1 C                     0.036943
      2 S                     0.070581
      3 C                    -0.213755
      4 C                    -0.006252
      5 C                    -0.099098
      6 S                    -0.011462
      7 C                    -0.157256
      8 C                     0.389695
      9 F                    -0.209107
     10 C                     0.445344
     11 O                    -0.462211
     12 O                    -0.300682
     13 C                    -0.058725
     14 H                     0.121060
     15 H                     0.094774
     16 H                     0.094636
     17 C                    -0.382889
     18 H                     0.130707
     19 H                     0.156197
     20 H                     0.147844
     21 H                     0.213657
  ----------------------------------------
  Sum of atomic charges =     0.000000

 -----------------------------------------------------------------
                    Cartesian Multipole Moments
 -----------------------------------------------------------------
    Charge (ESU x 10^10)
                -0.0000
    Dipole Moment (Debye)
         X       0.5483      Y       0.2612      Z       3.6980
       Tot       3.7476
    Quadrupole Moments (Debye-Ang)
        XX     -96.6953     XY      -1.3784     YY     -80.6984
        XZ       0.2505     YZ     -11.5940     ZZ     -95.7915
    Octopole Moments (Debye-Ang^2)
       XXX      -0.6131    XXY     -81.5611    XYY       3.1575
       YYY    -241.8982    XXZ      79.9893    XYZ       0.0958
       YYZ      52.9932    XZZ      -0.6783    YZZ      -6.8151
       ZZZ     271.8985
    Hexadecapole Moments (Debye-Ang^3)
      XXXX    -120.8026   XXXY       4.3192   XXYY    -388.9496
      XYYY      -2.6881   YYYY   -2058.3230   XXXZ      -1.2963
      XXYZ     283.9261   XYYZ      -2.6573   YYYZ     668.0659
      XXZZ    -638.6301   XYZZ       2.4050   YYZZ    -624.3199
      XZZZ       0.1363   YZZZ     520.0776   ZZZZ   -3712.7465
 -----------------------------------------------------------------
 Total job time:  56.30s(wall), 2009.89s(cpu) 
 Tue Jan  9 09:52:40 2024

        *************************************************************
        *                                                           *
        *  Thank you very much for using Q-Chem.  Have a nice day.  *
        *                                                           *
        *************************************************************


0 sent ACK to 0 
now end server 0 ... 
cleanup process ... done
remove work dirs ./qchem1389145.0 -- ./qchem1389145.0
rm -rf ./qchem1389145.0
rm -rf ./qchem1389145
