You are running Q-Chem version: 5.4.0

#
# job setting
#
local host:  exp-14-05
current dir: /home/rramji/project-csd799/aromodel/ptb7fout-qchem/methylated-rotation-run
input file:  Dimethoxy_Benzodithiophene_Phi_60_Theta_290_Methylcarbonyl_3_Fluoro_Thienothiophene_Hydrogenated_Improper.qcin
output file: 
nprocs     : 1
nthreads   : 64
#
# qchem installation setting
#
QC:          /cm/shared/apps/spack/cpu/opt/spack/linux-centos8-zen2/gcc-10.2.0/qchem-5.4-akfmr7b3t57bfs6qan3padb2wnb2i7cl
QCAUX:       /cm/shared/apps/spack/cpu/opt/spack/linux-centos8-zen2/gcc-10.2.0/qchem-5.4-akfmr7b3t57bfs6qan3padb2wnb2i7cl/qcaux
QCPROG:      /cm/shared/apps/spack/cpu/opt/spack/linux-centos8-zen2/gcc-10.2.0/qchem-5.4-akfmr7b3t57bfs6qan3padb2wnb2i7cl/exe/qcprog.exe
QCPROG_S:    /cm/shared/apps/spack/cpu/opt/spack/linux-centos8-zen2/gcc-10.2.0/qchem-5.4-akfmr7b3t57bfs6qan3padb2wnb2i7cl/exe/qcprog.exe_s
PARALLEL:    -DPARALLEL
QCMPI:       mpich
#
# qchem directory setting
#
qcrun:       qchem2534915
QCSCRATCH:   .
QCLOCALSCR:  
QCTMPDIR:    .
QCFILEPREF:  ./qchem2534915
QCSAVEDIR:   
workdirs:    ./qchem2534915
workdir0:    ./qchem2534915
partmpdirs =  
#
# parallel setting
#
QCRSH:           ssh
QCMPI:           mpich
QCMPIRUN:        /cm/shared/apps/spack/cpu/opt/spack/linux-centos8-zen2/gcc-10.2.0/qchem-5.4-akfmr7b3t57bfs6qan3padb2wnb2i7cl/bin/mpi/mpirun_qchem
QCMACHINEFILE:   ./qchem2534915/hostfile
exp-14-05

#
# env setting
#
exported envs:   QC QCAUX QCSCRATCH QCRUNNAME QCFILEPREF QCPROG QCPROG_S GUIFILE

Running Job 1 of 1 Dimethoxy_Benzodithiophene_Phi_60_Theta_290_Methylcarbonyl_3_Fluoro_Thienothiophene_Hydrogenated_Improper.qcin
qchem Dimethoxy_Benzodithiophene_Phi_60_Theta_290_Methylcarbonyl_3_Fluoro_Thienothiophene_Hydrogenated_Improper.qcin_2534915.0 ./qchem2534915/ 1
/cm/shared/apps/spack/cpu/opt/spack/linux-centos8-zen2/gcc-10.2.0/qchem-5.4-akfmr7b3t57bfs6qan3padb2wnb2i7cl/bin/mpi/mpirun_qchem -machinefile ./qchem2534915/hostfile -np 1 /cm/shared/apps/spack/cpu/opt/spack/linux-centos8-zen2/gcc-10.2.0/qchem-5.4-akfmr7b3t57bfs6qan3padb2wnb2i7cl/exe/qcprog.exe Dimethoxy_Benzodithiophene_Phi_60_Theta_290_Methylcarbonyl_3_Fluoro_Thienothiophene_Hydrogenated_Improper.qcin_2534915.0 ./qchem2534915/

Process 0 of 1 is on exp-14-05 - thread support 0
initial socket setup ...start
initial socket setup ...done 
now start server 0 ... 
                  Welcome to Q-Chem
     A Quantum Leap Into The Future Of Chemistry


 Q-Chem 5.4, Q-Chem, Inc., Pleasanton, CA (2021)

 License issued to: University of California, San Diego (site)

 E. Epifanovsky,  A. T. B. Gilbert,  Xintian Feng,  Joonho Lee,  Yuezhi Mao,  
 N. Mardirossian,  P. Pokhilko,  A. White,  M. Wormit,  M. P. Coons,  
 A. L. Dempwolff,  Zhengting Gan,  D. Hait,  P. R. Horn,  L. D. Jacobson,  
 I. Kaliman,  J. Kussmann,  A. W. Lange,  Ka Un Lao,  D. S. Levine,  Jie Liu,  
 S. C. McKenzie,  A. F. Morrison,  K. Nanda,  F. Plasser,  D. R. Rehn,  
 M. L. Vidal,  Zhi-Qiang You,  Ying Zhu,  B. Alam,  B. Albrecht,  
 A. Aldossary,  E. Alguire,  J. H. Andersen,  D. Barton,  K. Begam,  A. Behn,  
 Y. A. Bernard,  E. J. Berquist,  H. Burton,  A. Carreras,  K. Carter-Fenk,  
 R. Chakraborty,  A. D. Chien,  K. D. Closser,  V. Cofer-Shabica,  
 S. Dasgupta,  Jia Deng,  M. de Wergifosse,  M. Diedenhofen,  Hainam Do,  
 S. Ehlert,  Po-Tung Fang,  S. Fatehi,  Qingguo Feng,  J. Gayvert,  
 Qinghui Ge,  G. Gidofalvi,  M. Goldey,  J. Gomes,  C. Gonzalez-Espinoza,  
 S. Gulania,  A. Gunina,  M. W. D. Hanson-Heine,  P. H. P. Harbach,  
 A. W. Hauser,  M. F. Herbst,  M. Hernandez Vera,  M. Hodecker,  
 Z. C. Holden,  S. Houck,  Xunkun Huang,  Kerwin Hui,  B. C. Huynh,  
 M. Ivanov,  Hyunjun Ji,  Hanjie Jiang,  B. Kaduk,  S. Kaehler,  
 K. Khistyaev,  Jaehoon Kim,  P. Klunzinger,  Z. Koczor-Benda,  
 Joong Hoon Koh,  D. Kosenkov,  L. Koulias,  T. Kowalczyk,  C. M. Krauter,  
 K. Kue,  A. Kunitsa,  T. Kus,  A. Landau,  K. V. Lawler,  D. Lefrancois,  
 S. Lehtola,  Rain Li,  Yi-Pei Li,  Jiashu Liang,  M. Liebenthal,  
 Hung-Hsuan Lin,  You-Sheng Lin,  Fenglai Liu,  Kuan-Yu Liu,  
 M. Loipersberger,  A. Luenser,  A. Manjanath,  P. Manohar,  E. Mansoor,  
 S. F. Manzer,  Shan-Ping Mao,  A. V. Marenich,  T. Markovich,  S. Mason,  
 S. A. Maurer,  P. F. McLaughlin,  M. F. S. J. Menger,  J.-M. Mewes,  
 S. A. Mewes,  P. Morgante,  J. W. Mullinax,  T. S. Nguyen-Beck,  
 K. J. Oosterbaan,  G. Paran,  Alexander C. Paul,  Suranjan K. Paul,  
 F. Pavosevic,  Zheng Pei,  S. Prager,  E. I. Proynov,  E. Ramos,  B. Rana,  
 A. E. Rask,  A. Rettig,  R. M. Richard,  F. Rob,  E. Rossomme,  T. Scheele,  
 M. Scheurer,  M. Schneider,  N. Sergueev,  S. M. Sharada,  W. Skomorowski,  
 D. W. Small,  C. J. Stein,  Yu-Chuan Su,  E. J. Sundstrom,  Zhen Tao,  
 J. Thirman,  T. Tsuchimochi,  N. M. Tubman,  S. P. Veccham,  O. Vydrov,  
 J. Wenzel,  J. Witte,  A. Yamada,  Kun Yao,  S. Yeganeh,  S. R. Yost,  
 A. Zech,  Igor Ying Zhang,  Xing Zhang,  Yu Zhang,  D. Zuev,  
 A. Aspuru-Guzik,  A. T. Bell,  N. A. Besley,  K. B. Bravaya,  B. R. Brooks,  
 D. Casanova,  Jeng-Da Chai,  S. Coriani,  C. J. Cramer,  
 A. E. DePrince, III,  R. A. DiStasio Jr.,  A. Dreuw,  B. D. Dunietz,  
 T. R. Furlani,  W. A. Goddard III,  S. Grimme,  S. Hammes-Schiffer,  
 T. Head-Gordon,  W. J. Hehre,  Chao-Ping Hsu,  T.-C. Jagau,  Yousung Jung,  
 A. Klamt,  Jing Kong,  D. S. Lambrecht,  WanZhen Liang,  N. J. Mayhall,  
 C. W. McCurdy,  J. B. Neaton,  C. Ochsenfeld,  J. A. Parkhill,  R. Peverati,  
 V. A. Rassolov,  Yihan Shao,  L. V. Slipchenko,  T. Stauch,  R. P. Steele,  
 J. E. Subotnik,  A. J. W. Thom,  A. Tkatchenko,  D. G. Truhlar,  
 T. Van Voorhis,  T. A. Wesolowski,  K. B. Whaley,  H. L. Woodcock III,  
 P. M. Zimmerman,  S. Faraji,  P. M. W. Gill,  M. Head-Gordon,  
 J. M. Herbert,  A. I. Krylov

 Contributors to earlier versions of Q-Chem not listed above: 
 R. D. Adamson,  B. Austin,  R. Baer,  J. Baker,  G. J. O. Beran,  
 K. Brandhorst,  S. T. Brown,  E. F. C. Byrd,  A. K. Chakraborty,  
 G. K. L. Chan,  Chun-Min Chang,  Yunqing Chen,  C.-L. Cheng,  
 Siu Hung Chien,  D. M. Chipman,  D. L. Crittenden,  H. Dachsel,  
 R. J. Doerksen,  A. D. Dutoi,  R. G. Edgar,  J. Fosso-Tande,  
 L. Fusti-Molnar,  D. Ghosh,  A. Ghysels,  A. Golubeva-Zadorozhnaya,  
 J. Gonthier,  M. S. Gordon,  S. R. Gwaltney,  G. Hawkins,  J. E. Herr,  
 A. Heyden,  S. Hirata,  E. G. Hohenstein,  G. Kedziora,  F. J. Keil,  
 C. Kelley,  Jihan Kim,  R. A. King,  R. Z. Khaliullin,  P. P. Korambath,  
 W. Kurlancheek,  A. Laurent,  A. M. Lee,  M. S. Lee,  S. V. Levchenko,  
 Ching Yeh Lin,  D. Liotard,  E. Livshits,  R. C. Lochan,  I. Lotan,  
 L. A. Martinez-Martinez,  P. E. Maslen,  N. Nair,  D. P. O'Neill,  
 D. Neuhauser,  E. Neuscamman,  C. M. Oana,  R. Olivares-Amaya,  R. Olson,  
 T. M. Perrine,  B. Peters,  P. A. Pieniazek,  A. Prociuk,  Y. M. Rhee,  
 J. Ritchie,  M. A. Rohrdanz,  E. Rosta,  N. J. Russ,  H. F. Schaefer III,  
 M. W. Schmidt,  N. E. Schultz,  S. Sharma,  N. Shenvi,  C. D. Sherrill,  
 A. C. Simmonett,  A. Sodt,  T. Stein,  D. Stuck,  K. S. Thanthiriwatte,  
 V. Vanovschi,  L. Vogt,  Tao Wang,  A. Warshel,  M. A. Watson,  
 C. F. Williams,  Q. Wu,  X. Xu,  Jun Yang,  W. Zhang,  Yan Zhao

 Please cite Q-Chem as follows:
 Y. Shao et al., Mol. Phys. 113, 184-215 (2015)
 DOI: 10.1080/00268976.2014.952696

 Q-Chem 5.4.0 for Intel X86 EM64T Linux

 Parts of Q-Chem use Armadillo 9.800.1 (Horizon Scraper).
 http://arma.sourceforge.net/

 Q-Chem begins on Tue Jan  9 10:18:50 2024  

 Host: 
0

     Scratch files written to ./qchem2534915//
 May1621 |scratch|qcdevops|jenkins|workspace|build_RNUM    
 Parallel job on  1  processors
 Processing $rem in /cm/shared/apps/spack/cpu/opt/spack/linux-centos8-zen2/gcc-10.2.0/qchem-5.4-akfmr7b3t57bfs6qan3padb2wnb2i7cl/config/preferences:
 Processing $rem in /home/rramji/.qchemrc:
 Symmetry turned off for PCM/SM12/SMD calculation
 Core orbitals will be frozen

 Checking the input file for inconsistencies... 	...done.

 Q-Chem warning in module forms1/BasisType.C, line 2236:

 You are not using the predefined 5D/6D in this basis set.


--------------------------------------------------------------
User input:
--------------------------------------------------------------
$molecule
0 1
C	-0.901701	-0.471137	0.978203
S	-0.117901	-0.019137	2.485703
C	1.243599	0.767763	1.697103
C	-0.118001	-0.019537	-0.089697
C	1.084699	0.677463	0.291803
S	-0.327601	-0.143837	-1.827297
C	1.186699	0.736763	-2.076297
C	1.798799	1.093063	-0.884397
F	2.953999	1.765563	-0.840897
C	1.575599	0.959163	-3.477897
O	0.912899	0.567363	-4.428297
O	2.741499	1.640863	-3.590997
C	3.172799	1.883963	-4.937997
H	4.122899	2.440463	-4.854897
H	2.420299	2.480763	-5.491997
H	3.327799	0.929763	-5.481097
C	-0.901701	-1.906337	0.978203
H	-0.539301	-1.914337	-0.039197
H	-0.111601	-2.584237	1.265503
H	-1.787601	-2.437437	0.662803
H	2.043299	1.231163	2.284703
$end

$rem
JOBTYPE		SP
EXCHANGE	HF
CORRELATION	pRIMP2
BASIS		cc-pvtz
METHOD		rimp2
AUX_BASIS	rimp2-cc-pvtz
SOLVENT_METHOD	PCM
PURECART	11111
SYMMETRY	false
MEM_TOTAL	110000
SCF_CONVERGENCE = 6
THRESH=10
GUI = 2
$end



$solvent
dielectric 4.90
$end
--------------------------------------------------------------
 ----------------------------------------------------------------
             Standard Nuclear Orientation (Angstroms)
    I     Atom           X                Y                Z
 ----------------------------------------------------------------
    1      C      -0.9017010000    -0.4711370000     0.9782030000
    2      S      -0.1179010000    -0.0191370000     2.4857030000
    3      C       1.2435990000     0.7677630000     1.6971030000
    4      C      -0.1180010000    -0.0195370000    -0.0896970000
    5      C       1.0846990000     0.6774630000     0.2918030000
    6      S      -0.3276010000    -0.1438370000    -1.8272970000
    7      C       1.1866990000     0.7367630000    -2.0762970000
    8      C       1.7987990000     1.0930630000    -0.8843970000
    9      F       2.9539990000     1.7655630000    -0.8408970000
   10      C       1.5755990000     0.9591630000    -3.4778970000
   11      O       0.9128990000     0.5673630000    -4.4282970000
   12      O       2.7414990000     1.6408630000    -3.5909970000
   13      C       3.1727990000     1.8839630000    -4.9379970000
   14      H       4.1228990000     2.4404630000    -4.8548970000
   15      H       2.4202990000     2.4807630000    -5.4919970000
   16      H       3.3277990000     0.9297630000    -5.4810970000
   17      C      -0.9017010000    -1.9063370000     0.9782030000
   18      H      -0.5393010000    -1.9143370000    -0.0391970000
   19      H      -0.1116010000    -2.5842370000     1.2655030000
   20      H      -1.7876010000    -2.4374370000     0.6628030000
   21      H       2.0432990000     1.2311630000     2.2847030000
 ----------------------------------------------------------------
 Nuclear Repulsion Energy =        1093.73870105 hartrees
 There are       59 alpha and       59 beta electrons
 Requested basis set is cc-pVTZ
 There are 186 shells and 526 basis functions

 Total QAlloc Memory Limit 110000 MB
 Mega-Array Size       188 MB
 MEM_STATIC part       192 MB
 Discretize the solute cavity surface with Lebedev spheres
	Using 110 Lebedev grid points for each H atom
	Using 194 Lebedev grid points for other atoms
	Atomic van der Waals radii will be scaled by 1.20
 Remove points where switching function is < 1.0e-08
 Keep 1530 surface tesserae and discard 1956 interior tesserae
 Molecular Surface Area = 239.455 Angst**2
 Requested basis set is rimp2-cc-pVTZ
 There are 410 shells and 1426 basis functions
 A cutoff of  1.0D-10 yielded  11804 shell pairs
 There are     92476 function pairs (    120960 Cartesian)
 Smallest overlap matrix eigenvalue = 6.66E-05

 Scale SEOQF with 1.000000e-01/1.000000e-01/1.000000e-02

 Standard Electronic Orientation quadrupole field applied
 Nucleus-field energy     =     0.0000000136 hartrees
 Guess from superposition of atomic densities
 Warning:  Energy on first SCF cycle will be non-variational
 SAD guess density has 118.000000 electrons

 -----------------------------------------------------------------------
  General SCF calculation program by
  Eric Jon Sundstrom, Paul Horn, Yuezhi Mao, Dmitri Zuev, Alec White,
  David Stuck, Shaama M.S., Shane Yost, Joonho Lee, David Small,
  Daniel Levine, Susi Lehtola, Hugh Burton, Evgeny Epifanovsky,
  Bang C. Huynh
 -----------------------------------------------------------------------
 Hartree-Fock
 using 64 threads for integral computing
 -------------------------------------------------------
 OpenMP Integral computing Module                
 Release: version 1.0, May 2013, Q-Chem Inc. Pittsburgh 
 -------------------------------------------------------
 A restricted SCF calculation will be
 performed using DIIS
 SCF converges when DIIS error is below 1.0e-06
 ---------------------------------------
  Cycle       Energy         DIIS error
 ---------------------------------------
    1   -1394.3935387130      2.49e-02  
    2   -1388.9439405136      2.52e-03  
    3   -1389.1180193923      1.59e-03  
    4   -1389.1836671093      3.56e-04  
    5   -1389.1897147362      1.12e-04  
    6   -1389.1904296756      3.69e-05  
    7   -1389.1905834949      1.90e-05  
    8   -1389.1906378527      7.56e-06  
    9   -1389.1906509885      3.49e-06  
   10   -1389.1906532104      1.38e-06  
   11   -1389.1906536225      6.41e-07  Convergence criterion met
 ---------------------------------------
 SCF time:   CPU 1690.12s  wall 48.00s 

************** Final PCM Free Energy Summary **************
 G_electrostatic  =      -0.01192501 hartree =      -7.48305774 kcal/mol
 G_cavitation     =       0.00000000 hartree =       0.00000000 kcal/mol
 G_dispersion     =       0.00000000 hartree =       0.00000000 kcal/mol
 G_repulsion      =       0.00000000 hartree =       0.00000000 kcal/mol
 --------------------------------------------------
 Non-electrostatic Free Energy =       0.00000000 hartree =       0.00000000 kcal/mol
 Total                         =      -0.01192501 hartree =      -7.48305774 kcal/mol
 --------------------------------------------------
 SCF Energy (H0 + V/2)                       =   -1389.19065362 
 Solute Internal Energy (H0)                 =   -1389.17872861 
 Total Free Energy (H0 + V/2 + non-elec)     =   -1389.19065362 hartree
                                             = -871730.29217280 kcal/mol
***********************************************************

 SCF   energy in the final basis set =    -1389.1906536225
 Total energy in the final basis set =    -1389.1906536225


 --------------------------------------------------------------
  Generalized many-body perturbation theory program
  by Joonho Lee, Fazle Rob, Xintian Feng, Evgeny Epifanovsky

 No regularization used 
 (reg. param. = 0.0000e+00)
  (P|Q)^-1/2 Time:  CPU 20.51 s  wall 0.33 s

 In RI-MP2 calculation: 
 # of frozen core orbitals: 22

 Components of the RIMP2 correlation energy:
        aaaa    correlation energy =        -0.3312187155 a.u.
        abab    correlation energy =        -1.8568478344 a.u.
        bbbb    correlation energy =        -0.3312187155 a.u.
        non-Brillouin singles      =        -0.0000000000 a.u.
        total same-spin energy     =        -0.6624374310 a.u.
        total opposite-spin energy =        -1.8568478344 a.u.

 Total  RIMP2   correlation energy =        -2.5192852653 a.u.
        RIMP2         total energy =     -1391.7099388878 a.u.

 RI-MP2 Energy Time:  CPU 170.70 s  wall 3.13 s
 
 --------------------------------------------------------------
 
                    Orbital Energies (a.u.)
 --------------------------------------------------------------
 
 Alpha MOs
 -- Occupied --
-92.0060 -92.0031 -26.3447 -20.6145 -20.5604 -11.4090 -11.3851 -11.3249
-11.3080 -11.2951 -11.2890 -11.2814 -11.2572 -11.2116  -9.0058  -9.0027
 -6.6867  -6.6859  -6.6850  -6.6834  -6.6824  -6.6823  -1.6618  -1.4670
 -1.3697  -1.2252  -1.1437  -1.0742  -1.0227  -0.9906  -0.9607  -0.9055
 -0.8668  -0.8102  -0.7924  -0.7619  -0.7329  -0.7263  -0.7002  -0.6845
 -0.6739  -0.6626  -0.6110  -0.6034  -0.5933  -0.5826  -0.5658  -0.5619
 -0.5311  -0.5163  -0.5140  -0.4883  -0.4758  -0.4729  -0.4696  -0.4348
 -0.3822  -0.3369  -0.3028
 -- Virtual --
  0.0287   0.0804   0.1435   0.1482   0.1567   0.1753   0.1842   0.1904
  0.2017   0.2144   0.2159   0.2283   0.2345   0.2403   0.2481   0.2673
  0.2724   0.2968   0.3073   0.3303   0.3419   0.3539   0.3616   0.3812
  0.3845   0.3924   0.3976   0.4134   0.4221   0.4278   0.4377   0.4440
  0.4479   0.4559   0.4690   0.4878   0.4942   0.5015   0.5078   0.5123
  0.5230   0.5262   0.5356   0.5436   0.5448   0.5476   0.5675   0.5794
  0.5935   0.6005   0.6040   0.6113   0.6131   0.6208   0.6231   0.6323
  0.6413   0.6464   0.6502   0.6676   0.6705   0.6887   0.6940   0.7069
  0.7097   0.7162   0.7410   0.7469   0.7523   0.7648   0.7797   0.7923
  0.8045   0.8111   0.8256   0.8398   0.8479   0.8547   0.8628   0.8748
  0.8792   0.8968   0.9045   0.9283   0.9421   0.9504   0.9623   0.9676
  0.9823   0.9955   1.0097   1.0188   1.0282   1.0372   1.0542   1.0597
  1.0674   1.0827   1.0928   1.1003   1.1044   1.1115   1.1205   1.1222
  1.1380   1.1593   1.1625   1.1708   1.1863   1.1915   1.2093   1.2109
  1.2348   1.2401   1.2460   1.2640   1.2658   1.2695   1.2843   1.2957
  1.3243   1.3303   1.3450   1.3634   1.3742   1.3862   1.3985   1.4122
  1.4184   1.4230   1.4518   1.4562   1.4821   1.4920   1.5020   1.5107
  1.5131   1.5367   1.5446   1.5542   1.5595   1.5730   1.5805   1.5937
  1.6103   1.6233   1.6474   1.6626   1.6689   1.6839   1.6938   1.7387
  1.7513   1.7608   1.7649   1.7944   1.8150   1.8258   1.8315   1.8460
  1.8651   1.8805   1.8887   1.9223   1.9260   1.9530   1.9631   1.9752
  1.9810   2.0035   2.0123   2.0288   2.0570   2.0831   2.0844   2.0954
  2.1135   2.1479   2.1614   2.1747   2.1906   2.1964   2.2172   2.2229
  2.2395   2.2413   2.2532   2.2801   2.2905   2.2942   2.3345   2.3467
  2.3568   2.3710   2.3801   2.4120   2.4180   2.4327   2.4652   2.4831
  2.4987   2.5202   2.5278   2.5572   2.5654   2.5959   2.6182   2.6295
  2.6395   2.6445   2.6542   2.6703   2.6865   2.7001   2.7233   2.7259
  2.7449   2.7578   2.7686   2.7876   2.7927   2.8091   2.8169   2.8332
  2.8401   2.8551   2.8819   2.8836   2.9043   2.9375   2.9478   2.9550
  2.9767   2.9913   2.9963   3.0234   3.0275   3.0387   3.0584   3.0633
  3.0727   3.0887   3.1005   3.1116   3.1160   3.1316   3.1426   3.1496
  3.1721   3.1759   3.1875   3.2131   3.2184   3.2202   3.2247   3.2409
  3.2490   3.2564   3.2701   3.2790   3.2845   3.3033   3.3191   3.3330
  3.3480   3.3587   3.3612   3.3715   3.3751   3.3887   3.4117   3.4201
  3.4236   3.4275   3.4484   3.4551   3.4728   3.4771   3.4818   3.4959
  3.5088   3.5248   3.5337   3.5369   3.5499   3.5599   3.5614   3.5851
  3.5949   3.6031   3.6081   3.6166   3.6328   3.6577   3.6732   3.6761
  3.6890   3.6946   3.7057   3.7215   3.7288   3.7389   3.7524   3.7715
  3.7804   3.7974   3.7985   3.8042   3.8138   3.8338   3.8577   3.8592
  3.8673   3.8828   3.8887   3.8961   3.9130   3.9229   3.9322   3.9473
  3.9636   3.9720   3.9942   4.0055   4.0137   4.0271   4.0590   4.0654
  4.0694   4.0804   4.1153   4.1311   4.1483   4.1621   4.1649   4.1718
  4.1962   4.2146   4.2271   4.2382   4.2833   4.3003   4.3418   4.3472
  4.3585   4.3629   4.3728   4.3947   4.4128   4.4261   4.4371   4.4491
  4.4931   4.5057   4.5216   4.5394   4.5473   4.5664   4.5886   4.6172
  4.6241   4.6524   4.6546   4.6794   4.6878   4.7107   4.7504   4.7708
  4.7766   4.7837   4.7986   4.8271   4.8554   4.8762   4.8949   4.9339
  4.9487   4.9607   5.0088   5.0157   5.0251   5.0932   5.1175   5.1403
  5.1901   5.2005   5.2218   5.2421   5.2533   5.2571   5.2844   5.3505
  5.3538   5.3971   5.4082   5.4260   5.4404   5.4848   5.4912   5.5169
  5.5340   5.5811   5.6221   5.6275   5.6552   5.6839   5.7252   5.7542
  5.8077   5.8119   5.8557   5.8795   5.9083   5.9296   5.9412   5.9812
  6.0129   6.0426   6.1428   6.1505   6.1834   6.2461   6.2616   6.4055
  6.4504   6.4783   6.5375   6.5972   6.6617   6.6718   6.7448   6.8299
  6.8601   6.9786   7.2041   7.2044   7.3105   7.3619   7.3621   7.4052
  7.4136   7.4843   7.5174   7.5501   7.6147   7.7716   7.7890   7.8924
  7.9602   8.1319   8.2209   8.9207   9.0242   9.3619   9.4778   9.6618
 10.2081  11.2174  11.7538  11.9622  12.4246  12.8628  13.0802  13.3871
 13.7788  14.0291  14.3591
 --------------------------------------------------------------
 
          Ground-State Mulliken Net Atomic Charges

     Atom                 Charge (a.u.)
  ----------------------------------------
      1 C                    -0.145338
      2 S                     0.099361
      3 C                    -0.142213
      4 C                     0.090414
      5 C                    -0.122221
      6 S                     0.041870
      7 C                    -0.161864
      8 C                     0.396346
      9 F                    -0.205303
     10 C                     0.448819
     11 O                    -0.464751
     12 O                    -0.301659
     13 C                    -0.058196
     14 H                     0.121240
     15 H                     0.095047
     16 H                     0.094751
     17 C                    -0.358605
     18 H                     0.107656
     19 H                     0.137203
     20 H                     0.111457
     21 H                     0.215985
  ----------------------------------------
  Sum of atomic charges =     0.000000

 -----------------------------------------------------------------
                    Cartesian Multipole Moments
 -----------------------------------------------------------------
    Charge (ESU x 10^10)
                -0.0000
    Dipole Moment (Debye)
         X       3.4996      Y       0.6508      Z       2.2109
       Tot       4.1904
    Quadrupole Moments (Debye-Ang)
        XX     -90.0244     XY       4.3453     YY     -91.8717
        XZ      -4.3500     YZ      -3.3935     ZZ     -96.4393
    Octopole Moments (Debye-Ang^2)
       XXX    -208.3337    XXY     -28.6970    XYY     -68.8900
       YYY    -109.9484    XXZ      52.5923    XYZ     -16.7036
       YYZ      71.1220    XZZ      -4.3814    YZZ       4.8439
       ZZZ     267.6951
    Hexadecapole Moments (Debye-Ang^3)
      XXXX   -1416.1485   XXXY    -396.3480   XXYY    -353.9658
      XYYY    -426.1256   YYYY    -758.7139   XXXZ     606.5666
      XXYZ      93.0482   XYYZ     204.3011   YYYZ     427.8038
      XXZZ    -604.7135   XYZZ       4.3062   YYZZ    -656.7073
      XZZZ     421.4369   YZZZ     284.2099   ZZZZ   -3692.5727
 -----------------------------------------------------------------
 Total job time:  54.32s(wall), 1931.68s(cpu) 
 Tue Jan  9 10:19:44 2024

        *************************************************************
        *                                                           *
        *  Thank you very much for using Q-Chem.  Have a nice day.  *
        *                                                           *
        *************************************************************


0 sent ACK to 0 
now end server 0 ... 
cleanup process ... done
remove work dirs ./qchem2534915.0 -- ./qchem2534915.0
rm -rf ./qchem2534915.0
rm -rf ./qchem2534915
