You are running Q-Chem version: 5.4.0

#
# job setting
#
local host:  exp-14-38
current dir: /home/rramji/project-csd799/aromodel/ptb7fout-qchem/methylated-rotation-run
input file:  Dimethoxy_Benzodithiophene_Phi_50_Theta_280_Methylcarbonyl_3_Fluoro_Thienothiophene_Hydrogenated_Improper.qcin
output file: 
nprocs     : 1
nthreads   : 64
#
# qchem installation setting
#
QC:          /cm/shared/apps/spack/cpu/opt/spack/linux-centos8-zen2/gcc-10.2.0/qchem-5.4-akfmr7b3t57bfs6qan3padb2wnb2i7cl
QCAUX:       /cm/shared/apps/spack/cpu/opt/spack/linux-centos8-zen2/gcc-10.2.0/qchem-5.4-akfmr7b3t57bfs6qan3padb2wnb2i7cl/qcaux
QCPROG:      /cm/shared/apps/spack/cpu/opt/spack/linux-centos8-zen2/gcc-10.2.0/qchem-5.4-akfmr7b3t57bfs6qan3padb2wnb2i7cl/exe/qcprog.exe
QCPROG_S:    /cm/shared/apps/spack/cpu/opt/spack/linux-centos8-zen2/gcc-10.2.0/qchem-5.4-akfmr7b3t57bfs6qan3padb2wnb2i7cl/exe/qcprog.exe_s
PARALLEL:    -DPARALLEL
QCMPI:       mpich
#
# qchem directory setting
#
qcrun:       qchem2783451
QCSCRATCH:   .
QCLOCALSCR:  
QCTMPDIR:    .
QCFILEPREF:  ./qchem2783451
QCSAVEDIR:   
workdirs:    ./qchem2783451
workdir0:    ./qchem2783451
partmpdirs =  
#
# parallel setting
#
QCRSH:           ssh
QCMPI:           mpich
QCMPIRUN:        /cm/shared/apps/spack/cpu/opt/spack/linux-centos8-zen2/gcc-10.2.0/qchem-5.4-akfmr7b3t57bfs6qan3padb2wnb2i7cl/bin/mpi/mpirun_qchem
QCMACHINEFILE:   ./qchem2783451/hostfile
exp-14-38

#
# env setting
#
exported envs:   QC QCAUX QCSCRATCH QCRUNNAME QCFILEPREF QCPROG QCPROG_S GUIFILE

Running Job 1 of 1 Dimethoxy_Benzodithiophene_Phi_50_Theta_280_Methylcarbonyl_3_Fluoro_Thienothiophene_Hydrogenated_Improper.qcin
qchem Dimethoxy_Benzodithiophene_Phi_50_Theta_280_Methylcarbonyl_3_Fluoro_Thienothiophene_Hydrogenated_Improper.qcin_2783451.0 ./qchem2783451/ 1
/cm/shared/apps/spack/cpu/opt/spack/linux-centos8-zen2/gcc-10.2.0/qchem-5.4-akfmr7b3t57bfs6qan3padb2wnb2i7cl/bin/mpi/mpirun_qchem -machinefile ./qchem2783451/hostfile -np 1 /cm/shared/apps/spack/cpu/opt/spack/linux-centos8-zen2/gcc-10.2.0/qchem-5.4-akfmr7b3t57bfs6qan3padb2wnb2i7cl/exe/qcprog.exe Dimethoxy_Benzodithiophene_Phi_50_Theta_280_Methylcarbonyl_3_Fluoro_Thienothiophene_Hydrogenated_Improper.qcin_2783451.0 ./qchem2783451/

Process 0 of 1 is on exp-14-38 - thread support 0
initial socket setup ...start
initial socket setup ...done 
now start server 0 ... 
                  Welcome to Q-Chem
     A Quantum Leap Into The Future Of Chemistry


 Q-Chem 5.4, Q-Chem, Inc., Pleasanton, CA (2021)

 License issued to: University of California, San Diego (site)

 E. Epifanovsky,  A. T. B. Gilbert,  Xintian Feng,  Joonho Lee,  Yuezhi Mao,  
 N. Mardirossian,  P. Pokhilko,  A. White,  M. Wormit,  M. P. Coons,  
 A. L. Dempwolff,  Zhengting Gan,  D. Hait,  P. R. Horn,  L. D. Jacobson,  
 I. Kaliman,  J. Kussmann,  A. W. Lange,  Ka Un Lao,  D. S. Levine,  Jie Liu,  
 S. C. McKenzie,  A. F. Morrison,  K. Nanda,  F. Plasser,  D. R. Rehn,  
 M. L. Vidal,  Zhi-Qiang You,  Ying Zhu,  B. Alam,  B. Albrecht,  
 A. Aldossary,  E. Alguire,  J. H. Andersen,  D. Barton,  K. Begam,  A. Behn,  
 Y. A. Bernard,  E. J. Berquist,  H. Burton,  A. Carreras,  K. Carter-Fenk,  
 R. Chakraborty,  A. D. Chien,  K. D. Closser,  V. Cofer-Shabica,  
 S. Dasgupta,  Jia Deng,  M. de Wergifosse,  M. Diedenhofen,  Hainam Do,  
 S. Ehlert,  Po-Tung Fang,  S. Fatehi,  Qingguo Feng,  J. Gayvert,  
 Qinghui Ge,  G. Gidofalvi,  M. Goldey,  J. Gomes,  C. Gonzalez-Espinoza,  
 S. Gulania,  A. Gunina,  M. W. D. Hanson-Heine,  P. H. P. Harbach,  
 A. W. Hauser,  M. F. Herbst,  M. Hernandez Vera,  M. Hodecker,  
 Z. C. Holden,  S. Houck,  Xunkun Huang,  Kerwin Hui,  B. C. Huynh,  
 M. Ivanov,  Hyunjun Ji,  Hanjie Jiang,  B. Kaduk,  S. Kaehler,  
 K. Khistyaev,  Jaehoon Kim,  P. Klunzinger,  Z. Koczor-Benda,  
 Joong Hoon Koh,  D. Kosenkov,  L. Koulias,  T. Kowalczyk,  C. M. Krauter,  
 K. Kue,  A. Kunitsa,  T. Kus,  A. Landau,  K. V. Lawler,  D. Lefrancois,  
 S. Lehtola,  Rain Li,  Yi-Pei Li,  Jiashu Liang,  M. Liebenthal,  
 Hung-Hsuan Lin,  You-Sheng Lin,  Fenglai Liu,  Kuan-Yu Liu,  
 M. Loipersberger,  A. Luenser,  A. Manjanath,  P. Manohar,  E. Mansoor,  
 S. F. Manzer,  Shan-Ping Mao,  A. V. Marenich,  T. Markovich,  S. Mason,  
 S. A. Maurer,  P. F. McLaughlin,  M. F. S. J. Menger,  J.-M. Mewes,  
 S. A. Mewes,  P. Morgante,  J. W. Mullinax,  T. S. Nguyen-Beck,  
 K. J. Oosterbaan,  G. Paran,  Alexander C. Paul,  Suranjan K. Paul,  
 F. Pavosevic,  Zheng Pei,  S. Prager,  E. I. Proynov,  E. Ramos,  B. Rana,  
 A. E. Rask,  A. Rettig,  R. M. Richard,  F. Rob,  E. Rossomme,  T. Scheele,  
 M. Scheurer,  M. Schneider,  N. Sergueev,  S. M. Sharada,  W. Skomorowski,  
 D. W. Small,  C. J. Stein,  Yu-Chuan Su,  E. J. Sundstrom,  Zhen Tao,  
 J. Thirman,  T. Tsuchimochi,  N. M. Tubman,  S. P. Veccham,  O. Vydrov,  
 J. Wenzel,  J. Witte,  A. Yamada,  Kun Yao,  S. Yeganeh,  S. R. Yost,  
 A. Zech,  Igor Ying Zhang,  Xing Zhang,  Yu Zhang,  D. Zuev,  
 A. Aspuru-Guzik,  A. T. Bell,  N. A. Besley,  K. B. Bravaya,  B. R. Brooks,  
 D. Casanova,  Jeng-Da Chai,  S. Coriani,  C. J. Cramer,  
 A. E. DePrince, III,  R. A. DiStasio Jr.,  A. Dreuw,  B. D. Dunietz,  
 T. R. Furlani,  W. A. Goddard III,  S. Grimme,  S. Hammes-Schiffer,  
 T. Head-Gordon,  W. J. Hehre,  Chao-Ping Hsu,  T.-C. Jagau,  Yousung Jung,  
 A. Klamt,  Jing Kong,  D. S. Lambrecht,  WanZhen Liang,  N. J. Mayhall,  
 C. W. McCurdy,  J. B. Neaton,  C. Ochsenfeld,  J. A. Parkhill,  R. Peverati,  
 V. A. Rassolov,  Yihan Shao,  L. V. Slipchenko,  T. Stauch,  R. P. Steele,  
 J. E. Subotnik,  A. J. W. Thom,  A. Tkatchenko,  D. G. Truhlar,  
 T. Van Voorhis,  T. A. Wesolowski,  K. B. Whaley,  H. L. Woodcock III,  
 P. M. Zimmerman,  S. Faraji,  P. M. W. Gill,  M. Head-Gordon,  
 J. M. Herbert,  A. I. Krylov

 Contributors to earlier versions of Q-Chem not listed above: 
 R. D. Adamson,  B. Austin,  R. Baer,  J. Baker,  G. J. O. Beran,  
 K. Brandhorst,  S. T. Brown,  E. F. C. Byrd,  A. K. Chakraborty,  
 G. K. L. Chan,  Chun-Min Chang,  Yunqing Chen,  C.-L. Cheng,  
 Siu Hung Chien,  D. M. Chipman,  D. L. Crittenden,  H. Dachsel,  
 R. J. Doerksen,  A. D. Dutoi,  R. G. Edgar,  J. Fosso-Tande,  
 L. Fusti-Molnar,  D. Ghosh,  A. Ghysels,  A. Golubeva-Zadorozhnaya,  
 J. Gonthier,  M. S. Gordon,  S. R. Gwaltney,  G. Hawkins,  J. E. Herr,  
 A. Heyden,  S. Hirata,  E. G. Hohenstein,  G. Kedziora,  F. J. Keil,  
 C. Kelley,  Jihan Kim,  R. A. King,  R. Z. Khaliullin,  P. P. Korambath,  
 W. Kurlancheek,  A. Laurent,  A. M. Lee,  M. S. Lee,  S. V. Levchenko,  
 Ching Yeh Lin,  D. Liotard,  E. Livshits,  R. C. Lochan,  I. Lotan,  
 L. A. Martinez-Martinez,  P. E. Maslen,  N. Nair,  D. P. O'Neill,  
 D. Neuhauser,  E. Neuscamman,  C. M. Oana,  R. Olivares-Amaya,  R. Olson,  
 T. M. Perrine,  B. Peters,  P. A. Pieniazek,  A. Prociuk,  Y. M. Rhee,  
 J. Ritchie,  M. A. Rohrdanz,  E. Rosta,  N. J. Russ,  H. F. Schaefer III,  
 M. W. Schmidt,  N. E. Schultz,  S. Sharma,  N. Shenvi,  C. D. Sherrill,  
 A. C. Simmonett,  A. Sodt,  T. Stein,  D. Stuck,  K. S. Thanthiriwatte,  
 V. Vanovschi,  L. Vogt,  Tao Wang,  A. Warshel,  M. A. Watson,  
 C. F. Williams,  Q. Wu,  X. Xu,  Jun Yang,  W. Zhang,  Yan Zhao

 Please cite Q-Chem as follows:
 Y. Shao et al., Mol. Phys. 113, 184-215 (2015)
 DOI: 10.1080/00268976.2014.952696

 Q-Chem 5.4.0 for Intel X86 EM64T Linux

 Parts of Q-Chem use Armadillo 9.800.1 (Horizon Scraper).
 http://arma.sourceforge.net/

 Q-Chem begins on Tue Jan  9 10:19:08 2024  

 Host: 
0

     Scratch files written to ./qchem2783451//
 May1621 |scratch|qcdevops|jenkins|workspace|build_RNUM    
 Parallel job on  1  processors
 Processing $rem in /cm/shared/apps/spack/cpu/opt/spack/linux-centos8-zen2/gcc-10.2.0/qchem-5.4-akfmr7b3t57bfs6qan3padb2wnb2i7cl/config/preferences:
 Processing $rem in /home/rramji/.qchemrc:
 Symmetry turned off for PCM/SM12/SMD calculation
 Core orbitals will be frozen

 Checking the input file for inconsistencies... 	...done.

 Q-Chem warning in module forms1/BasisType.C, line 2236:

 You are not using the predefined 5D/6D in this basis set.


--------------------------------------------------------------
User input:
--------------------------------------------------------------
$molecule
0 1
C	-0.797195	-0.619704	0.978269
S	-0.103795	-0.038504	2.485769
C	1.100305	0.972896	1.697169
C	-0.103895	-0.038904	-0.089631
C	0.959605	0.856396	0.291869
S	-0.288595	-0.197704	-1.827231
C	1.049705	0.932496	-2.076231
C	1.590705	1.389696	-0.884331
F	2.611505	2.252596	-0.840831
C	1.394105	1.219096	-3.477831
O	0.809505	0.718096	-4.428231
O	2.423905	2.092896	-3.590931
C	2.806505	2.407096	-4.937931
H	3.645405	3.120196	-4.854831
H	1.961805	2.864196	-5.491931
H	3.124805	1.494396	-5.481031
C	-0.797195	-2.054904	0.978269
H	-0.616995	-2.062904	-0.086531
H	0.030805	-2.732804	1.123969
H	-1.724395	-2.586004	0.821569
H	1.807505	1.568096	2.284769
$end

$rem
JOBTYPE		SP
EXCHANGE	HF
CORRELATION	pRIMP2
BASIS		cc-pvtz
METHOD		rimp2
AUX_BASIS	rimp2-cc-pvtz
SOLVENT_METHOD	PCM
PURECART	11111
SYMMETRY	false
MEM_TOTAL	110000
SCF_CONVERGENCE = 6
THRESH=10
GUI = 2
$end



$solvent
dielectric 4.90
$end
--------------------------------------------------------------
 ----------------------------------------------------------------
             Standard Nuclear Orientation (Angstroms)
    I     Atom           X                Y                Z
 ----------------------------------------------------------------
    1      C      -0.7971950000    -0.6197040000     0.9782690000
    2      S      -0.1037950000    -0.0385040000     2.4857690000
    3      C       1.1003050000     0.9728960000     1.6971690000
    4      C      -0.1038950000    -0.0389040000    -0.0896310000
    5      C       0.9596050000     0.8563960000     0.2918690000
    6      S      -0.2885950000    -0.1977040000    -1.8272310000
    7      C       1.0497050000     0.9324960000    -2.0762310000
    8      C       1.5907050000     1.3896960000    -0.8843310000
    9      F       2.6115050000     2.2525960000    -0.8408310000
   10      C       1.3941050000     1.2190960000    -3.4778310000
   11      O       0.8095050000     0.7180960000    -4.4282310000
   12      O       2.4239050000     2.0928960000    -3.5909310000
   13      C       2.8065050000     2.4070960000    -4.9379310000
   14      H       3.6454050000     3.1201960000    -4.8548310000
   15      H       1.9618050000     2.8641960000    -5.4919310000
   16      H       3.1248050000     1.4943960000    -5.4810310000
   17      C      -0.7971950000    -2.0549040000     0.9782690000
   18      H      -0.6169950000    -2.0629040000    -0.0865310000
   19      H       0.0308050000    -2.7328040000     1.1239690000
   20      H      -1.7243950000    -2.5860040000     0.8215690000
   21      H       1.8075050000     1.5680960000     2.2847690000
 ----------------------------------------------------------------
 Nuclear Repulsion Energy =        1090.36386446 hartrees
 There are       59 alpha and       59 beta electrons
 Requested basis set is cc-pVTZ
 There are 186 shells and 526 basis functions

 Total QAlloc Memory Limit 110000 MB
 Mega-Array Size       188 MB
 MEM_STATIC part       192 MB
 Discretize the solute cavity surface with Lebedev spheres
	Using 110 Lebedev grid points for each H atom
	Using 194 Lebedev grid points for other atoms
	Atomic van der Waals radii will be scaled by 1.20
 Remove points where switching function is < 1.0e-08
 Keep 1521 surface tesserae and discard 1965 interior tesserae
 Molecular Surface Area = 240.100 Angst**2
 Requested basis set is rimp2-cc-pVTZ
 There are 410 shells and 1426 basis functions
 A cutoff of  1.0D-10 yielded  11723 shell pairs
 There are     91733 function pairs (    120000 Cartesian)
 Smallest overlap matrix eigenvalue = 6.56E-05

 Scale SEOQF with 1.000000e-01/1.000000e-01/1.000000e-02

 Standard Electronic Orientation quadrupole field applied
 Nucleus-field energy     =     0.0000000165 hartrees
 Guess from superposition of atomic densities
 Warning:  Energy on first SCF cycle will be non-variational
 SAD guess density has 118.000000 electrons

 -----------------------------------------------------------------------
  General SCF calculation program by
  Eric Jon Sundstrom, Paul Horn, Yuezhi Mao, Dmitri Zuev, Alec White,
  David Stuck, Shaama M.S., Shane Yost, Joonho Lee, David Small,
  Daniel Levine, Susi Lehtola, Hugh Burton, Evgeny Epifanovsky,
  Bang C. Huynh
 -----------------------------------------------------------------------
 Hartree-Fock
 using 64 threads for integral computing
 -------------------------------------------------------
 OpenMP Integral computing Module                
 Release: version 1.0, May 2013, Q-Chem Inc. Pittsburgh 
 -------------------------------------------------------
 A restricted SCF calculation will be
 performed using DIIS
 SCF converges when DIIS error is below 1.0e-06
 ---------------------------------------
  Cycle       Energy         DIIS error
 ---------------------------------------
    1   -1394.3340756370      2.48e-02  
    2   -1388.9769634339      2.50e-03  
    3   -1389.1492054533      1.57e-03  
    4   -1389.2125552767      3.55e-04  
    5   -1389.2184744529      1.12e-04  
    6   -1389.2191670739      3.63e-05  
    7   -1389.2193136573      1.84e-05  
    8   -1389.2193644530      7.23e-06  
    9   -1389.2193759786      3.20e-06  
   10   -1389.2193777647      1.22e-06  
   11   -1389.2193780598      5.26e-07  Convergence criterion met
 ---------------------------------------
 SCF time:   CPU 1748.94s  wall 55.00s 

************** Final PCM Free Energy Summary **************
 G_electrostatic  =      -0.01133385 hartree =      -7.11209571 kcal/mol
 G_cavitation     =       0.00000000 hartree =       0.00000000 kcal/mol
 G_dispersion     =       0.00000000 hartree =       0.00000000 kcal/mol
 G_repulsion      =       0.00000000 hartree =       0.00000000 kcal/mol
 --------------------------------------------------
 Non-electrostatic Free Energy =       0.00000000 hartree =       0.00000000 kcal/mol
 Total                         =      -0.01133385 hartree =      -7.11209571 kcal/mol
 --------------------------------------------------
 SCF Energy (H0 + V/2)                       =   -1389.21937806 
 Solute Internal Energy (H0)                 =   -1389.20804421 
 Total Free Energy (H0 + V/2 + non-elec)     =   -1389.21937806 hartree
                                             = -871748.31702923 kcal/mol
***********************************************************

 SCF   energy in the final basis set =    -1389.2193780598
 Total energy in the final basis set =    -1389.2193780598


 --------------------------------------------------------------
  Generalized many-body perturbation theory program
  by Joonho Lee, Fazle Rob, Xintian Feng, Evgeny Epifanovsky

 No regularization used 
 (reg. param. = 0.0000e+00)
  (P|Q)^-1/2 Time:  CPU 29.08 s  wall 0.46 s

 In RI-MP2 calculation: 
 # of frozen core orbitals: 22

 Components of the RIMP2 correlation energy:
        aaaa    correlation energy =        -0.3304333199 a.u.
        abab    correlation energy =        -1.8547228652 a.u.
        bbbb    correlation energy =        -0.3304333199 a.u.
        non-Brillouin singles      =        -0.0000000000 a.u.
        total same-spin energy     =        -0.6608666399 a.u.
        total opposite-spin energy =        -1.8547228652 a.u.

 Total  RIMP2   correlation energy =        -2.5155895051 a.u.
        RIMP2         total energy =     -1391.7349675649 a.u.

 RI-MP2 Energy Time:  CPU 219.51 s  wall 3.98 s
 
 --------------------------------------------------------------
 
                    Orbital Energies (a.u.)
 --------------------------------------------------------------
 
 Alpha MOs
 -- Occupied --
-92.0021 -92.0018 -26.3436 -20.6143 -20.5603 -11.4087 -11.3834 -11.3178
-11.3024 -11.2950 -11.2888 -11.2807 -11.2681 -11.2156  -9.0021  -9.0014
 -6.6830  -6.6823  -6.6821  -6.6813  -6.6812  -6.6810  -1.6608  -1.4667
 -1.3694  -1.2208  -1.1404  -1.0713  -1.0213  -0.9911  -0.9599  -0.9088
 -0.8657  -0.8086  -0.7913  -0.7609  -0.7314  -0.7254  -0.6979  -0.6842
 -0.6736  -0.6619  -0.6087  -0.6032  -0.5924  -0.5843  -0.5640  -0.5610
 -0.5308  -0.5213  -0.5115  -0.4880  -0.4750  -0.4727  -0.4682  -0.4365
 -0.3872  -0.3420  -0.3000
 -- Virtual --
  0.0324   0.0866   0.1416   0.1498   0.1569   0.1753   0.1853   0.1917
  0.2082   0.2148   0.2174   0.2283   0.2326   0.2427   0.2498   0.2710
  0.2761   0.3015   0.3142   0.3339   0.3420   0.3555   0.3674   0.3812
  0.3843   0.3929   0.4000   0.4125   0.4244   0.4303   0.4387   0.4455
  0.4497   0.4541   0.4681   0.4862   0.4903   0.5053   0.5109   0.5145
  0.5219   0.5288   0.5405   0.5429   0.5484   0.5522   0.5694   0.5807
  0.5908   0.5961   0.6082   0.6114   0.6140   0.6211   0.6234   0.6318
  0.6380   0.6462   0.6561   0.6644   0.6722   0.6868   0.6947   0.7054
  0.7109   0.7163   0.7342   0.7484   0.7564   0.7645   0.7740   0.7964
  0.8063   0.8117   0.8242   0.8394   0.8480   0.8533   0.8604   0.8760
  0.8820   0.8986   0.9043   0.9270   0.9422   0.9514   0.9599   0.9670
  0.9825   0.9876   1.0069   1.0141   1.0276   1.0360   1.0504   1.0554
  1.0609   1.0734   1.0890   1.1006   1.1083   1.1096   1.1192   1.1229
  1.1315   1.1543   1.1606   1.1699   1.1856   1.1944   1.2054   1.2152
  1.2291   1.2308   1.2474   1.2573   1.2593   1.2674   1.2843   1.2997
  1.3237   1.3344   1.3419   1.3612   1.3632   1.3828   1.3966   1.4017
  1.4159   1.4230   1.4373   1.4634   1.4704   1.4796   1.5016   1.5099
  1.5122   1.5375   1.5445   1.5529   1.5649   1.5730   1.5839   1.5880
  1.6156   1.6279   1.6478   1.6579   1.6657   1.6908   1.6979   1.7363
  1.7613   1.7699   1.7750   1.7950   1.8130   1.8238   1.8336   1.8510
  1.8685   1.8786   1.8956   1.9209   1.9363   1.9580   1.9639   1.9762
  1.9796   1.9996   2.0072   2.0291   2.0657   2.0747   2.0835   2.0974
  2.1133   2.1499   2.1626   2.1801   2.1959   2.1996   2.2149   2.2207
  2.2337   2.2391   2.2572   2.2716   2.2893   2.2964   2.3309   2.3366
  2.3574   2.3699   2.3836   2.4137   2.4205   2.4324   2.4711   2.4851
  2.5041   2.5328   2.5387   2.5570   2.5711   2.5919   2.6176   2.6310
  2.6390   2.6444   2.6513   2.6784   2.6946   2.7023   2.7126   2.7232
  2.7333   2.7534   2.7726   2.7797   2.7863   2.8080   2.8119   2.8196
  2.8430   2.8590   2.8761   2.8835   2.9105   2.9380   2.9399   2.9538
  2.9676   2.9772   2.9912   2.9972   3.0230   3.0238   3.0536   3.0583
  3.0712   3.0843   3.1000   3.1043   3.1187   3.1258   3.1324   3.1505
  3.1716   3.1795   3.1965   3.2008   3.2173   3.2210   3.2382   3.2490
  3.2528   3.2612   3.2725   3.2811   3.2920   3.3056   3.3190   3.3323
  3.3400   3.3474   3.3612   3.3701   3.3770   3.3859   3.4092   3.4152
  3.4238   3.4302   3.4443   3.4569   3.4716   3.4761   3.4764   3.4943
  3.4977   3.5177   3.5323   3.5405   3.5521   3.5597   3.5660   3.5916
  3.5931   3.5999   3.6112   3.6172   3.6240   3.6488   3.6607   3.6676
  3.6859   3.6927   3.7059   3.7174   3.7235   3.7330   3.7497   3.7596
  3.7785   3.7954   3.7975   3.8042   3.8199   3.8311   3.8421   3.8541
  3.8577   3.8743   3.8825   3.8858   3.8982   3.9106   3.9305   3.9387
  3.9456   3.9691   3.9722   3.9918   4.0080   4.0208   4.0422   4.0488
  4.0683   4.0709   4.1067   4.1224   4.1320   4.1605   4.1654   4.1735
  4.2013   4.2102   4.2217   4.2302   4.2630   4.2990   4.3419   4.3467
  4.3589   4.3604   4.3676   4.3793   4.3878   4.4283   4.4324   4.4431
  4.4838   4.4910   4.5220   4.5297   4.5506   4.5726   4.5832   4.6135
  4.6226   4.6459   4.6552   4.6745   4.6826   4.6930   4.7504   4.7574
  4.7706   4.7830   4.8065   4.8381   4.8491   4.8676   4.8805   4.8996
  4.9354   4.9553   5.0090   5.0194   5.0386   5.0943   5.1132   5.1280
  5.1581   5.1973   5.2064   5.2492   5.2521   5.2578   5.2918   5.3508
  5.3547   5.3991   5.4130   5.4263   5.4278   5.4789   5.4851   5.5114
  5.5334   5.5814   5.6223   5.6277   5.6565   5.6930   5.7260   5.7554
  5.8064   5.8079   5.8443   5.8794   5.8915   5.9297   5.9476   5.9745
  6.0284   6.0426   6.1345   6.1507   6.1834   6.2501   6.2618   6.3871
  6.4506   6.4674   6.5372   6.5981   6.6615   6.6720   6.7453   6.8301
  6.8603   6.9787   7.2044   7.2047   7.3106   7.3629   7.3630   7.4054
  7.4138   7.4854   7.5187   7.5502   7.6149   7.7727   7.7894   7.8926
  7.9593   8.1326   8.2158   8.9217   9.0224   9.3628   9.4763   9.6617
 10.1890  11.1952  11.7390  11.9068  12.4174  12.8439  13.0668  13.3858
 13.7724  14.0292  14.2976
 --------------------------------------------------------------
 
          Ground-State Mulliken Net Atomic Charges

     Atom                 Charge (a.u.)
  ----------------------------------------
      1 C                    -0.097506
      2 S                     0.089772
      3 C                    -0.160004
      4 C                     0.046508
      5 C                    -0.102072
      6 S                     0.026017
      7 C                    -0.159179
      8 C                     0.391942
      9 F                    -0.205911
     10 C                     0.448246
     11 O                    -0.464019
     12 O                    -0.301511
     13 C                    -0.058305
     14 H                     0.121201
     15 H                     0.094950
     16 H                     0.094785
     17 C                    -0.350433
     18 H                     0.107631
     19 H                     0.146472
     20 H                     0.117094
     21 H                     0.214321
  ----------------------------------------
  Sum of atomic charges =     0.000000

 -----------------------------------------------------------------
                    Cartesian Multipole Moments
 -----------------------------------------------------------------
    Charge (ESU x 10^10)
                -0.0000
    Dipole Moment (Debye)
         X       2.6835      Y       0.8155      Z       2.2869
       Tot       3.6189
    Quadrupole Moments (Debye-Ang)
        XX     -90.9864     XY       5.1212     YY     -89.5095
        XZ      -4.4688     YZ      -4.5337     ZZ     -97.1169
    Octopole Moments (Debye-Ang^2)
       XXX    -188.7664    XXY     -42.2529    XYY     -59.4143
       YYY    -147.3516    XXZ      59.0396    XYZ     -18.4209
       YYZ      65.4123    XZZ      -4.2645    YZZ       4.2254
       ZZZ     267.3351
    Hexadecapole Moments (Debye-Ang^3)
      XXXX   -1143.4782   XXXY    -448.1519   XXYY    -349.7154
      XYYY    -462.6048   YYYY   -1061.8181   XXXZ     552.9907
      XXYZ     129.6781   XYYZ     160.1428   YYYZ     519.8721
      XXZZ    -611.9327   XYZZ       8.1037   YYZZ    -655.5867
      XZZZ     372.7727   YZZZ     354.2802   ZZZZ   -3697.0921
 -----------------------------------------------------------------
 Total job time:  61.17s(wall), 2044.52s(cpu) 
 Tue Jan  9 10:20:09 2024

        *************************************************************
        *                                                           *
        *  Thank you very much for using Q-Chem.  Have a nice day.  *
        *                                                           *
        *************************************************************


0 sent ACK to 0 
now end server 0 ... 
cleanup process ... done
remove work dirs ./qchem2783451.0 -- ./qchem2783451.0
rm -rf ./qchem2783451.0
rm -rf ./qchem2783451
