You are running Q-Chem version: 5.4.0

#
# job setting
#
local host:  exp-14-05
current dir: /home/rramji/project-csd799/aromodel/ptb7fout-qchem/methylated-rotation-run
input file:  Dimethoxy_Benzodithiophene_Phi_5_Theta_250_Methylcarbonyl_3_Fluoro_Thienothiophene_Hydrogenated_Improper.qcin
output file: 
nprocs     : 1
nthreads   : 64
#
# qchem installation setting
#
QC:          /cm/shared/apps/spack/cpu/opt/spack/linux-centos8-zen2/gcc-10.2.0/qchem-5.4-akfmr7b3t57bfs6qan3padb2wnb2i7cl
QCAUX:       /cm/shared/apps/spack/cpu/opt/spack/linux-centos8-zen2/gcc-10.2.0/qchem-5.4-akfmr7b3t57bfs6qan3padb2wnb2i7cl/qcaux
QCPROG:      /cm/shared/apps/spack/cpu/opt/spack/linux-centos8-zen2/gcc-10.2.0/qchem-5.4-akfmr7b3t57bfs6qan3padb2wnb2i7cl/exe/qcprog.exe
QCPROG_S:    /cm/shared/apps/spack/cpu/opt/spack/linux-centos8-zen2/gcc-10.2.0/qchem-5.4-akfmr7b3t57bfs6qan3padb2wnb2i7cl/exe/qcprog.exe_s
PARALLEL:    -DPARALLEL
QCMPI:       mpich
#
# qchem directory setting
#
qcrun:       qchem2532752
QCSCRATCH:   .
QCLOCALSCR:  
QCTMPDIR:    .
QCFILEPREF:  ./qchem2532752
QCSAVEDIR:   
workdirs:    ./qchem2532752
workdir0:    ./qchem2532752
partmpdirs =  
#
# parallel setting
#
QCRSH:           ssh
QCMPI:           mpich
QCMPIRUN:        /cm/shared/apps/spack/cpu/opt/spack/linux-centos8-zen2/gcc-10.2.0/qchem-5.4-akfmr7b3t57bfs6qan3padb2wnb2i7cl/bin/mpi/mpirun_qchem
QCMACHINEFILE:   ./qchem2532752/hostfile
exp-14-05

#
# env setting
#
exported envs:   QC QCAUX QCSCRATCH QCRUNNAME QCFILEPREF QCPROG QCPROG_S GUIFILE

Running Job 1 of 1 Dimethoxy_Benzodithiophene_Phi_5_Theta_250_Methylcarbonyl_3_Fluoro_Thienothiophene_Hydrogenated_Improper.qcin
qchem Dimethoxy_Benzodithiophene_Phi_5_Theta_250_Methylcarbonyl_3_Fluoro_Thienothiophene_Hydrogenated_Improper.qcin_2532752.0 ./qchem2532752/ 1
/cm/shared/apps/spack/cpu/opt/spack/linux-centos8-zen2/gcc-10.2.0/qchem-5.4-akfmr7b3t57bfs6qan3padb2wnb2i7cl/bin/mpi/mpirun_qchem -machinefile ./qchem2532752/hostfile -np 1 /cm/shared/apps/spack/cpu/opt/spack/linux-centos8-zen2/gcc-10.2.0/qchem-5.4-akfmr7b3t57bfs6qan3padb2wnb2i7cl/exe/qcprog.exe Dimethoxy_Benzodithiophene_Phi_5_Theta_250_Methylcarbonyl_3_Fluoro_Thienothiophene_Hydrogenated_Improper.qcin_2532752.0 ./qchem2532752/

Process 0 of 1 is on exp-14-05 - thread support 0
initial socket setup ...start
initial socket setup ...done 
now start server 0 ... 
                  Welcome to Q-Chem
     A Quantum Leap Into The Future Of Chemistry


 Q-Chem 5.4, Q-Chem, Inc., Pleasanton, CA (2021)

 License issued to: University of California, San Diego (site)

 E. Epifanovsky,  A. T. B. Gilbert,  Xintian Feng,  Joonho Lee,  Yuezhi Mao,  
 N. Mardirossian,  P. Pokhilko,  A. White,  M. Wormit,  M. P. Coons,  
 A. L. Dempwolff,  Zhengting Gan,  D. Hait,  P. R. Horn,  L. D. Jacobson,  
 I. Kaliman,  J. Kussmann,  A. W. Lange,  Ka Un Lao,  D. S. Levine,  Jie Liu,  
 S. C. McKenzie,  A. F. Morrison,  K. Nanda,  F. Plasser,  D. R. Rehn,  
 M. L. Vidal,  Zhi-Qiang You,  Ying Zhu,  B. Alam,  B. Albrecht,  
 A. Aldossary,  E. Alguire,  J. H. Andersen,  D. Barton,  K. Begam,  A. Behn,  
 Y. A. Bernard,  E. J. Berquist,  H. Burton,  A. Carreras,  K. Carter-Fenk,  
 R. Chakraborty,  A. D. Chien,  K. D. Closser,  V. Cofer-Shabica,  
 S. Dasgupta,  Jia Deng,  M. de Wergifosse,  M. Diedenhofen,  Hainam Do,  
 S. Ehlert,  Po-Tung Fang,  S. Fatehi,  Qingguo Feng,  J. Gayvert,  
 Qinghui Ge,  G. Gidofalvi,  M. Goldey,  J. Gomes,  C. Gonzalez-Espinoza,  
 S. Gulania,  A. Gunina,  M. W. D. Hanson-Heine,  P. H. P. Harbach,  
 A. W. Hauser,  M. F. Herbst,  M. Hernandez Vera,  M. Hodecker,  
 Z. C. Holden,  S. Houck,  Xunkun Huang,  Kerwin Hui,  B. C. Huynh,  
 M. Ivanov,  Hyunjun Ji,  Hanjie Jiang,  B. Kaduk,  S. Kaehler,  
 K. Khistyaev,  Jaehoon Kim,  P. Klunzinger,  Z. Koczor-Benda,  
 Joong Hoon Koh,  D. Kosenkov,  L. Koulias,  T. Kowalczyk,  C. M. Krauter,  
 K. Kue,  A. Kunitsa,  T. Kus,  A. Landau,  K. V. Lawler,  D. Lefrancois,  
 S. Lehtola,  Rain Li,  Yi-Pei Li,  Jiashu Liang,  M. Liebenthal,  
 Hung-Hsuan Lin,  You-Sheng Lin,  Fenglai Liu,  Kuan-Yu Liu,  
 M. Loipersberger,  A. Luenser,  A. Manjanath,  P. Manohar,  E. Mansoor,  
 S. F. Manzer,  Shan-Ping Mao,  A. V. Marenich,  T. Markovich,  S. Mason,  
 S. A. Maurer,  P. F. McLaughlin,  M. F. S. J. Menger,  J.-M. Mewes,  
 S. A. Mewes,  P. Morgante,  J. W. Mullinax,  T. S. Nguyen-Beck,  
 K. J. Oosterbaan,  G. Paran,  Alexander C. Paul,  Suranjan K. Paul,  
 F. Pavosevic,  Zheng Pei,  S. Prager,  E. I. Proynov,  E. Ramos,  B. Rana,  
 A. E. Rask,  A. Rettig,  R. M. Richard,  F. Rob,  E. Rossomme,  T. Scheele,  
 M. Scheurer,  M. Schneider,  N. Sergueev,  S. M. Sharada,  W. Skomorowski,  
 D. W. Small,  C. J. Stein,  Yu-Chuan Su,  E. J. Sundstrom,  Zhen Tao,  
 J. Thirman,  T. Tsuchimochi,  N. M. Tubman,  S. P. Veccham,  O. Vydrov,  
 J. Wenzel,  J. Witte,  A. Yamada,  Kun Yao,  S. Yeganeh,  S. R. Yost,  
 A. Zech,  Igor Ying Zhang,  Xing Zhang,  Yu Zhang,  D. Zuev,  
 A. Aspuru-Guzik,  A. T. Bell,  N. A. Besley,  K. B. Bravaya,  B. R. Brooks,  
 D. Casanova,  Jeng-Da Chai,  S. Coriani,  C. J. Cramer,  
 A. E. DePrince, III,  R. A. DiStasio Jr.,  A. Dreuw,  B. D. Dunietz,  
 T. R. Furlani,  W. A. Goddard III,  S. Grimme,  S. Hammes-Schiffer,  
 T. Head-Gordon,  W. J. Hehre,  Chao-Ping Hsu,  T.-C. Jagau,  Yousung Jung,  
 A. Klamt,  Jing Kong,  D. S. Lambrecht,  WanZhen Liang,  N. J. Mayhall,  
 C. W. McCurdy,  J. B. Neaton,  C. Ochsenfeld,  J. A. Parkhill,  R. Peverati,  
 V. A. Rassolov,  Yihan Shao,  L. V. Slipchenko,  T. Stauch,  R. P. Steele,  
 J. E. Subotnik,  A. J. W. Thom,  A. Tkatchenko,  D. G. Truhlar,  
 T. Van Voorhis,  T. A. Wesolowski,  K. B. Whaley,  H. L. Woodcock III,  
 P. M. Zimmerman,  S. Faraji,  P. M. W. Gill,  M. Head-Gordon,  
 J. M. Herbert,  A. I. Krylov

 Contributors to earlier versions of Q-Chem not listed above: 
 R. D. Adamson,  B. Austin,  R. Baer,  J. Baker,  G. J. O. Beran,  
 K. Brandhorst,  S. T. Brown,  E. F. C. Byrd,  A. K. Chakraborty,  
 G. K. L. Chan,  Chun-Min Chang,  Yunqing Chen,  C.-L. Cheng,  
 Siu Hung Chien,  D. M. Chipman,  D. L. Crittenden,  H. Dachsel,  
 R. J. Doerksen,  A. D. Dutoi,  R. G. Edgar,  J. Fosso-Tande,  
 L. Fusti-Molnar,  D. Ghosh,  A. Ghysels,  A. Golubeva-Zadorozhnaya,  
 J. Gonthier,  M. S. Gordon,  S. R. Gwaltney,  G. Hawkins,  J. E. Herr,  
 A. Heyden,  S. Hirata,  E. G. Hohenstein,  G. Kedziora,  F. J. Keil,  
 C. Kelley,  Jihan Kim,  R. A. King,  R. Z. Khaliullin,  P. P. Korambath,  
 W. Kurlancheek,  A. Laurent,  A. M. Lee,  M. S. Lee,  S. V. Levchenko,  
 Ching Yeh Lin,  D. Liotard,  E. Livshits,  R. C. Lochan,  I. Lotan,  
 L. A. Martinez-Martinez,  P. E. Maslen,  N. Nair,  D. P. O'Neill,  
 D. Neuhauser,  E. Neuscamman,  C. M. Oana,  R. Olivares-Amaya,  R. Olson,  
 T. M. Perrine,  B. Peters,  P. A. Pieniazek,  A. Prociuk,  Y. M. Rhee,  
 J. Ritchie,  M. A. Rohrdanz,  E. Rosta,  N. J. Russ,  H. F. Schaefer III,  
 M. W. Schmidt,  N. E. Schultz,  S. Sharma,  N. Shenvi,  C. D. Sherrill,  
 A. C. Simmonett,  A. Sodt,  T. Stein,  D. Stuck,  K. S. Thanthiriwatte,  
 V. Vanovschi,  L. Vogt,  Tao Wang,  A. Warshel,  M. A. Watson,  
 C. F. Williams,  Q. Wu,  X. Xu,  Jun Yang,  W. Zhang,  Yan Zhao

 Please cite Q-Chem as follows:
 Y. Shao et al., Mol. Phys. 113, 184-215 (2015)
 DOI: 10.1080/00268976.2014.952696

 Q-Chem 5.4.0 for Intel X86 EM64T Linux

 Parts of Q-Chem use Armadillo 9.800.1 (Horizon Scraper).
 http://arma.sourceforge.net/

 Q-Chem begins on Tue Jan  9 10:13:58 2024  

 Host: 
0

     Scratch files written to ./qchem2532752//
 May1621 |scratch|qcdevops|jenkins|workspace|build_RNUM    
 Parallel job on  1  processors
 Processing $rem in /cm/shared/apps/spack/cpu/opt/spack/linux-centos8-zen2/gcc-10.2.0/qchem-5.4-akfmr7b3t57bfs6qan3padb2wnb2i7cl/config/preferences:
 Processing $rem in /home/rramji/.qchemrc:
 Symmetry turned off for PCM/SM12/SMD calculation
 Core orbitals will be frozen

 Checking the input file for inconsistencies... 	...done.

 Q-Chem warning in module forms1/BasisType.C, line 2236:

 You are not using the predefined 5D/6D in this basis set.


--------------------------------------------------------------
User input:
--------------------------------------------------------------
$molecule
0 1
C	-0.089330	-0.987267	0.978043
S	-0.010030	-0.085967	2.485543
C	0.126270	1.480633	1.696943
C	-0.009730	-0.086367	-0.089857
C	0.109070	1.298733	0.291643
S	-0.028130	-0.329267	-1.827457
C	0.118970	1.416233	-2.076457
C	0.178270	2.122133	-0.884557
F	0.289970	3.454033	-0.841057
C	0.159970	1.862433	-3.478057
O	0.100770	1.094833	-4.428457
O	0.270170	3.208433	-3.591157
C	0.318570	3.701233	-4.938157
H	0.407570	4.798633	-4.855057
H	-0.601930	3.427033	-5.492157
H	1.189070	3.280833	-5.481257
C	-0.089330	-2.422467	0.978043
H	-0.465730	-2.430467	-0.034257
H	0.700570	-3.100367	0.690243
H	-0.970730	-2.953567	1.305943
H	0.205470	2.401533	2.284543
$end

$rem
JOBTYPE		SP
EXCHANGE	HF
CORRELATION	pRIMP2
BASIS		cc-pvtz
METHOD		rimp2
AUX_BASIS	rimp2-cc-pvtz
SOLVENT_METHOD	PCM
PURECART	11111
SYMMETRY	false
MEM_TOTAL	110000
SCF_CONVERGENCE = 6
THRESH=10
GUI = 2
$end



$solvent
dielectric 4.90
$end
--------------------------------------------------------------
 ----------------------------------------------------------------
             Standard Nuclear Orientation (Angstroms)
    I     Atom           X                Y                Z
 ----------------------------------------------------------------
    1      C      -0.0893300000    -0.9872670000     0.9780430000
    2      S      -0.0100300000    -0.0859670000     2.4855430000
    3      C       0.1262700000     1.4806330000     1.6969430000
    4      C      -0.0097300000    -0.0863670000    -0.0898570000
    5      C       0.1090700000     1.2987330000     0.2916430000
    6      S      -0.0281300000    -0.3292670000    -1.8274570000
    7      C       0.1189700000     1.4162330000    -2.0764570000
    8      C       0.1782700000     2.1221330000    -0.8845570000
    9      F       0.2899700000     3.4540330000    -0.8410570000
   10      C       0.1599700000     1.8624330000    -3.4780570000
   11      O       0.1007700000     1.0948330000    -4.4284570000
   12      O       0.2701700000     3.2084330000    -3.5911570000
   13      C       0.3185700000     3.7012330000    -4.9381570000
   14      H       0.4075700000     4.7986330000    -4.8550570000
   15      H      -0.6019300000     3.4270330000    -5.4921570000
   16      H       1.1890700000     3.2808330000    -5.4812570000
   17      C      -0.0893300000    -2.4224670000     0.9780430000
   18      H      -0.4657300000    -2.4304670000    -0.0342570000
   19      H       0.7005700000    -3.1003670000     0.6902430000
   20      H      -0.9707300000    -2.9535670000     1.3059430000
   21      H       0.2054700000     2.4015330000     2.2845430000
 ----------------------------------------------------------------
 Nuclear Repulsion Energy =        1083.44463854 hartrees
 There are       59 alpha and       59 beta electrons
 Requested basis set is cc-pVTZ
 There are 186 shells and 526 basis functions

 Total QAlloc Memory Limit 110000 MB
 Mega-Array Size       188 MB
 MEM_STATIC part       192 MB
 Discretize the solute cavity surface with Lebedev spheres
	Using 110 Lebedev grid points for each H atom
	Using 194 Lebedev grid points for other atoms
	Atomic van der Waals radii will be scaled by 1.20
 Remove points where switching function is < 1.0e-08
 Keep 1551 surface tesserae and discard 1935 interior tesserae
 Molecular Surface Area = 242.276 Angst**2
 Requested basis set is rimp2-cc-pVTZ
 There are 410 shells and 1426 basis functions
 A cutoff of  1.0D-10 yielded  11561 shell pairs
 There are     90639 function pairs (    118600 Cartesian)
 Smallest overlap matrix eigenvalue = 5.91E-05

 Scale SEOQF with 1.000000e+00/1.000000e-01/1.000000e-02

 Standard Electronic Orientation quadrupole field applied
 Nucleus-field energy     =     0.0000000283 hartrees
 Guess from superposition of atomic densities
 Warning:  Energy on first SCF cycle will be non-variational
 SAD guess density has 118.000000 electrons

 -----------------------------------------------------------------------
  General SCF calculation program by
  Eric Jon Sundstrom, Paul Horn, Yuezhi Mao, Dmitri Zuev, Alec White,
  David Stuck, Shaama M.S., Shane Yost, Joonho Lee, David Small,
  Daniel Levine, Susi Lehtola, Hugh Burton, Evgeny Epifanovsky,
  Bang C. Huynh
 -----------------------------------------------------------------------
 Hartree-Fock
 using 64 threads for integral computing
 -------------------------------------------------------
 OpenMP Integral computing Module                
 Release: version 1.0, May 2013, Q-Chem Inc. Pittsburgh 
 -------------------------------------------------------
 A restricted SCF calculation will be
 performed using DIIS
 SCF converges when DIIS error is below 1.0e-06
 ---------------------------------------
  Cycle       Energy         DIIS error
 ---------------------------------------
    1   -1394.2442109073      2.47e-02  
    2   -1389.0369283705      2.47e-03  
    3   -1389.2065383373      1.54e-03  
    4   -1389.2663314181      3.53e-04  
    5   -1389.2720856070      1.12e-04  
    6   -1389.2727590556      3.61e-05  
    7   -1389.2729030042      1.81e-05  
    8   -1389.2729523988      6.98e-06  
    9   -1389.2729627631      2.96e-06  
   10   -1389.2729641414      1.10e-06  
   11   -1389.2729643392      4.61e-07  Convergence criterion met
 ---------------------------------------
 SCF time:   CPU 1702.85s  wall 49.00s 

************** Final PCM Free Energy Summary **************
 G_electrostatic  =      -0.01162478 hartree =      -7.29466120 kcal/mol
 G_cavitation     =       0.00000000 hartree =       0.00000000 kcal/mol
 G_dispersion     =       0.00000000 hartree =       0.00000000 kcal/mol
 G_repulsion      =       0.00000000 hartree =       0.00000000 kcal/mol
 --------------------------------------------------
 Non-electrostatic Free Energy =       0.00000000 hartree =       0.00000000 kcal/mol
 Total                         =      -0.01162478 hartree =      -7.29466120 kcal/mol
 --------------------------------------------------
 SCF Energy (H0 + V/2)                       =   -1389.27296434 
 Solute Internal Energy (H0)                 =   -1389.26133956 
 Total Free Energy (H0 + V/2 + non-elec)     =   -1389.27296434 hartree
                                             = -871781.94292710 kcal/mol
***********************************************************

 SCF   energy in the final basis set =    -1389.2729643392
 Total energy in the final basis set =    -1389.2729643392


 --------------------------------------------------------------
  Generalized many-body perturbation theory program
  by Joonho Lee, Fazle Rob, Xintian Feng, Evgeny Epifanovsky

 No regularization used 
 (reg. param. = 0.0000e+00)
  (P|Q)^-1/2 Time:  CPU 27.45 s  wall 0.44 s

 In RI-MP2 calculation: 
 # of frozen core orbitals: 22

 Components of the RIMP2 correlation energy:
        aaaa    correlation energy =        -0.3286048913 a.u.
        abab    correlation energy =        -1.8485819317 a.u.
        bbbb    correlation energy =        -0.3286048913 a.u.
        non-Brillouin singles      =        -0.0000000000 a.u.
        total same-spin energy     =        -0.6572097826 a.u.
        total opposite-spin energy =        -1.8485819317 a.u.

 Total  RIMP2   correlation energy =        -2.5057917144 a.u.
        RIMP2         total energy =     -1391.7787560536 a.u.

 RI-MP2 Energy Time:  CPU 180.99 s  wall 3.43 s
 
 --------------------------------------------------------------
 
                    Orbital Energies (a.u.)
 --------------------------------------------------------------
 
 Alpha MOs
 -- Occupied --
-92.0032 -91.9936 -26.3412 -20.6137 -20.5597 -11.4077 -11.3797 -11.2995
-11.2948 -11.2946 -11.2892 -11.2882 -11.2789 -11.2268  -9.0023  -8.9938
 -6.6831  -6.6824  -6.6820  -6.6749  -6.6742  -6.6731  -1.6584  -1.4661
 -1.3687  -1.2133  -1.1352  -1.0678  -1.0187  -0.9952  -0.9583  -0.9143
 -0.8634  -0.8052  -0.7890  -0.7592  -0.7301  -0.7232  -0.6945  -0.6835
 -0.6729  -0.6612  -0.6099  -0.6011  -0.5915  -0.5818  -0.5662  -0.5558
 -0.5403  -0.5301  -0.5071  -0.4877  -0.4735  -0.4717  -0.4651  -0.4540
 -0.3915  -0.3448  -0.2913
 -- Virtual --
  0.0405   0.1210   0.1317   0.1518   0.1575   0.1736   0.1864   0.1968
  0.2153   0.2167   0.2245   0.2257   0.2324   0.2418   0.2537   0.2683
  0.2966   0.3095   0.3177   0.3426   0.3448   0.3555   0.3773   0.3837
  0.3848   0.3909   0.4082   0.4104   0.4191   0.4312   0.4377   0.4422
  0.4598   0.4690   0.4790   0.4909   0.5007   0.5032   0.5087   0.5145
  0.5290   0.5408   0.5427   0.5448   0.5495   0.5576   0.5671   0.5810
  0.5897   0.6012   0.6060   0.6152   0.6172   0.6245   0.6252   0.6265
  0.6408   0.6534   0.6615   0.6636   0.6710   0.6907   0.7000   0.7052
  0.7106   0.7198   0.7234   0.7521   0.7609   0.7619   0.7693   0.8117
  0.8159   0.8178   0.8348   0.8419   0.8447   0.8749   0.8761   0.8814
  0.8831   0.8897   0.9071   0.9294   0.9375   0.9497   0.9671   0.9778
  0.9822   0.9861   1.0071   1.0095   1.0236   1.0308   1.0432   1.0518
  1.0598   1.0723   1.1000   1.1025   1.1050   1.1065   1.1189   1.1218
  1.1339   1.1473   1.1613   1.1651   1.1802   1.1870   1.2063   1.2087
  1.2238   1.2370   1.2407   1.2465   1.2629   1.2683   1.2782   1.2917
  1.3173   1.3389   1.3484   1.3546   1.3633   1.3845   1.3965   1.4077
  1.4241   1.4332   1.4417   1.4598   1.4866   1.4907   1.4979   1.5033
  1.5149   1.5396   1.5426   1.5530   1.5571   1.5810   1.5955   1.6039
  1.6119   1.6257   1.6519   1.6720   1.6799   1.6859   1.7135   1.7242
  1.7531   1.7711   1.7958   1.8149   1.8205   1.8274   1.8451   1.8610
  1.8639   1.8899   1.8967   1.9011   1.9196   1.9506   1.9572   1.9628
  1.9904   2.0067   2.0079   2.0281   2.0544   2.0878   2.0945   2.1059
  2.1189   2.1592   2.1750   2.1936   2.1985   2.2017   2.2151   2.2280
  2.2391   2.2473   2.2570   2.2839   2.3034   2.3101   2.3285   2.3429
  2.3696   2.3727   2.3929   2.4115   2.4324   2.4515   2.4858   2.4941
  2.5118   2.5413   2.5509   2.5608   2.5817   2.6065   2.6280   2.6352
  2.6432   2.6591   2.6773   2.6801   2.6854   2.7011   2.7057   2.7129
  2.7288   2.7353   2.7570   2.7824   2.7867   2.8004   2.8121   2.8251
  2.8363   2.8506   2.8658   2.8820   2.8944   2.8989   2.9277   2.9454
  2.9588   2.9759   2.9869   2.9933   3.0239   3.0252   3.0348   3.0471
  3.0791   3.0886   3.0938   3.1024   3.1077   3.1271   3.1339   3.1455
  3.1510   3.1583   3.2045   3.2121   3.2152   3.2188   3.2425   3.2473
  3.2631   3.2666   3.2765   3.2864   3.2921   3.2986   3.3203   3.3284
  3.3413   3.3537   3.3626   3.3721   3.3794   3.3878   3.4033   3.4090
  3.4253   3.4292   3.4399   3.4510   3.4586   3.4697   3.4800   3.4880
  3.4895   3.5014   3.5177   3.5409   3.5493   3.5543   3.5717   3.5824
  3.5924   3.5999   3.6016   3.6211   3.6315   3.6379   3.6492   3.6678
  3.6819   3.6893   3.6971   3.7062   3.7079   3.7237   3.7361   3.7645
  3.7751   3.7817   3.7951   3.8035   3.8138   3.8169   3.8239   3.8336
  3.8485   3.8581   3.8737   3.8846   3.8944   3.9060   3.9097   3.9249
  3.9339   3.9546   3.9608   3.9802   3.9971   4.0228   4.0262   4.0492
  4.0627   4.0648   4.0711   4.0780   4.1038   4.1337   4.1659   4.1698
  4.1744   4.2002   4.2095   4.2238   4.2603   4.2914   4.2986   4.3167
  4.3423   4.3594   4.3629   4.3798   4.4048   4.4109   4.4166   4.4303
  4.4449   4.4630   4.5127   4.5202   4.5390   4.5628   4.5847   4.5888
  4.5999   4.6489   4.6556   4.6619   4.6704   4.6905   4.7358   4.7445
  4.7741   4.7800   4.8298   4.8488   4.8758   4.8776   4.8943   4.9264
  4.9454   4.9755   5.0007   5.0094   5.0552   5.0716   5.1058   5.1200
  5.1491   5.1641   5.2023   5.2527   5.2554   5.2605   5.3179   5.3517
  5.3657   5.4000   5.4106   5.4269   5.4662   5.4854   5.4878   5.5255
  5.5413   5.5824   5.6144   5.6229   5.6630   5.7020   5.7403   5.7617
  5.8086   5.8226   5.8337   5.8811   5.9097   5.9304   5.9623   5.9898
  6.0430   6.1010   6.1512   6.1784   6.2201   6.2623   6.3109   6.3771
  6.4493   6.4515   6.5387   6.6033   6.6619   6.6726   6.7475   6.8311
  6.8608   6.9794   7.2050   7.2077   7.3111   7.3650   7.3651   7.4075
  7.4144   7.4876   7.5255   7.5525   7.6163   7.7751   7.7898   7.8941
  7.9613   8.1352   8.2153   8.9238   9.0124   9.3649   9.4611   9.6468
 10.0672  11.0683  11.6213  11.8090  12.4090  12.9944  13.0872  13.3868
 13.7742  14.0307  14.5545
 --------------------------------------------------------------
 
          Ground-State Mulliken Net Atomic Charges

     Atom                 Charge (a.u.)
  ----------------------------------------
      1 C                     0.044826
      2 S                     0.072940
      3 C                    -0.203102
      4 C                    -0.016136
      5 C                    -0.098799
      6 S                    -0.009117
      7 C                    -0.157948
      8 C                     0.389456
      9 F                    -0.207716
     10 C                     0.445030
     11 O                    -0.462892
     12 O                    -0.300920
     13 C                    -0.058679
     14 H                     0.121183
     15 H                     0.094798
     16 H                     0.094707
     17 C                    -0.368524
     18 H                     0.113339
     19 H                     0.148778
     20 H                     0.145821
     21 H                     0.212957
  ----------------------------------------
  Sum of atomic charges =     0.000000

 -----------------------------------------------------------------
                    Cartesian Multipole Moments
 -----------------------------------------------------------------
    Charge (ESU x 10^10)
                -0.0000
    Dipole Moment (Debye)
         X      -0.0540      Y       0.5831      Z       2.6136
       Tot       2.6784
    Quadrupole Moments (Debye-Ang)
        XX     -96.1740     XY       1.5990     YY     -81.1098
        XZ      -1.0991     YZ      -8.4934     ZZ     -98.0047
    Octopole Moments (Debye-Ang^2)
       XXX     -22.5199    XXY     -82.1634    XYY      -7.0943
       YYY    -238.2856    XXZ      80.6021    XYZ      -1.6243
       YYZ      45.6489    XZZ      -1.5294    YZZ       0.2396
       ZZZ     268.5758
    Hexadecapole Moments (Debye-Ang^3)
      XXXX    -134.2155   XXXY     -82.5757   XXYY    -383.1706
      XYYY     -70.9279   YYYY   -2049.8074   XXXZ      70.4566
      XXYZ     278.2308   XYYZ       5.4823   YYYZ     683.8565
      XXZZ    -635.7709   XYZZ       4.2530   YYZZ    -642.4191
      XZZZ      44.6509   YZZZ     524.1105   ZZZZ   -3705.0150
 -----------------------------------------------------------------
 Total job time:  54.25s(wall), 1949.03s(cpu) 
 Tue Jan  9 10:14:52 2024

        *************************************************************
        *                                                           *
        *  Thank you very much for using Q-Chem.  Have a nice day.  *
        *                                                           *
        *************************************************************


0 sent ACK to 0 
now end server 0 ... 
cleanup process ... done
remove work dirs ./qchem2532752.0 -- ./qchem2532752.0
rm -rf ./qchem2532752.0
rm -rf ./qchem2532752
