You are running Q-Chem version: 5.4.0

#
# job setting
#
local host:  exp-6-41
current dir: /home/rramji/project-csd799/aromodel/ptb7fout-qchem/methylated-rotation-run
input file:  Dimethoxy_Benzodithiophene_Phi_20_Theta_260_Methylcarbonyl_3_Fluoro_Thienothiophene_Hydrogenated_Improper.qcin
output file: 
nprocs     : 1
nthreads   : 64
#
# qchem installation setting
#
QC:          /cm/shared/apps/spack/cpu/opt/spack/linux-centos8-zen2/gcc-10.2.0/qchem-5.4-akfmr7b3t57bfs6qan3padb2wnb2i7cl
QCAUX:       /cm/shared/apps/spack/cpu/opt/spack/linux-centos8-zen2/gcc-10.2.0/qchem-5.4-akfmr7b3t57bfs6qan3padb2wnb2i7cl/qcaux
QCPROG:      /cm/shared/apps/spack/cpu/opt/spack/linux-centos8-zen2/gcc-10.2.0/qchem-5.4-akfmr7b3t57bfs6qan3padb2wnb2i7cl/exe/qcprog.exe
QCPROG_S:    /cm/shared/apps/spack/cpu/opt/spack/linux-centos8-zen2/gcc-10.2.0/qchem-5.4-akfmr7b3t57bfs6qan3padb2wnb2i7cl/exe/qcprog.exe_s
PARALLEL:    -DPARALLEL
QCMPI:       mpich
#
# qchem directory setting
#
qcrun:       qchem1607792
QCSCRATCH:   .
QCLOCALSCR:  
QCTMPDIR:    .
QCFILEPREF:  ./qchem1607792
QCSAVEDIR:   
workdirs:    ./qchem1607792
workdir0:    ./qchem1607792
partmpdirs =  
#
# parallel setting
#
QCRSH:           ssh
QCMPI:           mpich
QCMPIRUN:        /cm/shared/apps/spack/cpu/opt/spack/linux-centos8-zen2/gcc-10.2.0/qchem-5.4-akfmr7b3t57bfs6qan3padb2wnb2i7cl/bin/mpi/mpirun_qchem
QCMACHINEFILE:   ./qchem1607792/hostfile
exp-6-41

#
# env setting
#
exported envs:   QC QCAUX QCSCRATCH QCRUNNAME QCFILEPREF QCPROG QCPROG_S GUIFILE

Running Job 1 of 1 Dimethoxy_Benzodithiophene_Phi_20_Theta_260_Methylcarbonyl_3_Fluoro_Thienothiophene_Hydrogenated_Improper.qcin
qchem Dimethoxy_Benzodithiophene_Phi_20_Theta_260_Methylcarbonyl_3_Fluoro_Thienothiophene_Hydrogenated_Improper.qcin_1607792.0 ./qchem1607792/ 1
/cm/shared/apps/spack/cpu/opt/spack/linux-centos8-zen2/gcc-10.2.0/qchem-5.4-akfmr7b3t57bfs6qan3padb2wnb2i7cl/bin/mpi/mpirun_qchem -machinefile ./qchem1607792/hostfile -np 1 /cm/shared/apps/spack/cpu/opt/spack/linux-centos8-zen2/gcc-10.2.0/qchem-5.4-akfmr7b3t57bfs6qan3padb2wnb2i7cl/exe/qcprog.exe Dimethoxy_Benzodithiophene_Phi_20_Theta_260_Methylcarbonyl_3_Fluoro_Thienothiophene_Hydrogenated_Improper.qcin_1607792.0 ./qchem1607792/

Process 0 of 1 is on exp-6-41 - thread support 0
initial socket setup ...start
initial socket setup ...done 
now start server 0 ... 
                  Welcome to Q-Chem
     A Quantum Leap Into The Future Of Chemistry


 Q-Chem 5.4, Q-Chem, Inc., Pleasanton, CA (2021)

 License issued to: University of California, San Diego (site)

 E. Epifanovsky,  A. T. B. Gilbert,  Xintian Feng,  Joonho Lee,  Yuezhi Mao,  
 N. Mardirossian,  P. Pokhilko,  A. White,  M. Wormit,  M. P. Coons,  
 A. L. Dempwolff,  Zhengting Gan,  D. Hait,  P. R. Horn,  L. D. Jacobson,  
 I. Kaliman,  J. Kussmann,  A. W. Lange,  Ka Un Lao,  D. S. Levine,  Jie Liu,  
 S. C. McKenzie,  A. F. Morrison,  K. Nanda,  F. Plasser,  D. R. Rehn,  
 M. L. Vidal,  Zhi-Qiang You,  Ying Zhu,  B. Alam,  B. Albrecht,  
 A. Aldossary,  E. Alguire,  J. H. Andersen,  D. Barton,  K. Begam,  A. Behn,  
 Y. A. Bernard,  E. J. Berquist,  H. Burton,  A. Carreras,  K. Carter-Fenk,  
 R. Chakraborty,  A. D. Chien,  K. D. Closser,  V. Cofer-Shabica,  
 S. Dasgupta,  Jia Deng,  M. de Wergifosse,  M. Diedenhofen,  Hainam Do,  
 S. Ehlert,  Po-Tung Fang,  S. Fatehi,  Qingguo Feng,  J. Gayvert,  
 Qinghui Ge,  G. Gidofalvi,  M. Goldey,  J. Gomes,  C. Gonzalez-Espinoza,  
 S. Gulania,  A. Gunina,  M. W. D. Hanson-Heine,  P. H. P. Harbach,  
 A. W. Hauser,  M. F. Herbst,  M. Hernandez Vera,  M. Hodecker,  
 Z. C. Holden,  S. Houck,  Xunkun Huang,  Kerwin Hui,  B. C. Huynh,  
 M. Ivanov,  Hyunjun Ji,  Hanjie Jiang,  B. Kaduk,  S. Kaehler,  
 K. Khistyaev,  Jaehoon Kim,  P. Klunzinger,  Z. Koczor-Benda,  
 Joong Hoon Koh,  D. Kosenkov,  L. Koulias,  T. Kowalczyk,  C. M. Krauter,  
 K. Kue,  A. Kunitsa,  T. Kus,  A. Landau,  K. V. Lawler,  D. Lefrancois,  
 S. Lehtola,  Rain Li,  Yi-Pei Li,  Jiashu Liang,  M. Liebenthal,  
 Hung-Hsuan Lin,  You-Sheng Lin,  Fenglai Liu,  Kuan-Yu Liu,  
 M. Loipersberger,  A. Luenser,  A. Manjanath,  P. Manohar,  E. Mansoor,  
 S. F. Manzer,  Shan-Ping Mao,  A. V. Marenich,  T. Markovich,  S. Mason,  
 S. A. Maurer,  P. F. McLaughlin,  M. F. S. J. Menger,  J.-M. Mewes,  
 S. A. Mewes,  P. Morgante,  J. W. Mullinax,  T. S. Nguyen-Beck,  
 K. J. Oosterbaan,  G. Paran,  Alexander C. Paul,  Suranjan K. Paul,  
 F. Pavosevic,  Zheng Pei,  S. Prager,  E. I. Proynov,  E. Ramos,  B. Rana,  
 A. E. Rask,  A. Rettig,  R. M. Richard,  F. Rob,  E. Rossomme,  T. Scheele,  
 M. Scheurer,  M. Schneider,  N. Sergueev,  S. M. Sharada,  W. Skomorowski,  
 D. W. Small,  C. J. Stein,  Yu-Chuan Su,  E. J. Sundstrom,  Zhen Tao,  
 J. Thirman,  T. Tsuchimochi,  N. M. Tubman,  S. P. Veccham,  O. Vydrov,  
 J. Wenzel,  J. Witte,  A. Yamada,  Kun Yao,  S. Yeganeh,  S. R. Yost,  
 A. Zech,  Igor Ying Zhang,  Xing Zhang,  Yu Zhang,  D. Zuev,  
 A. Aspuru-Guzik,  A. T. Bell,  N. A. Besley,  K. B. Bravaya,  B. R. Brooks,  
 D. Casanova,  Jeng-Da Chai,  S. Coriani,  C. J. Cramer,  
 A. E. DePrince, III,  R. A. DiStasio Jr.,  A. Dreuw,  B. D. Dunietz,  
 T. R. Furlani,  W. A. Goddard III,  S. Grimme,  S. Hammes-Schiffer,  
 T. Head-Gordon,  W. J. Hehre,  Chao-Ping Hsu,  T.-C. Jagau,  Yousung Jung,  
 A. Klamt,  Jing Kong,  D. S. Lambrecht,  WanZhen Liang,  N. J. Mayhall,  
 C. W. McCurdy,  J. B. Neaton,  C. Ochsenfeld,  J. A. Parkhill,  R. Peverati,  
 V. A. Rassolov,  Yihan Shao,  L. V. Slipchenko,  T. Stauch,  R. P. Steele,  
 J. E. Subotnik,  A. J. W. Thom,  A. Tkatchenko,  D. G. Truhlar,  
 T. Van Voorhis,  T. A. Wesolowski,  K. B. Whaley,  H. L. Woodcock III,  
 P. M. Zimmerman,  S. Faraji,  P. M. W. Gill,  M. Head-Gordon,  
 J. M. Herbert,  A. I. Krylov

 Contributors to earlier versions of Q-Chem not listed above: 
 R. D. Adamson,  B. Austin,  R. Baer,  J. Baker,  G. J. O. Beran,  
 K. Brandhorst,  S. T. Brown,  E. F. C. Byrd,  A. K. Chakraborty,  
 G. K. L. Chan,  Chun-Min Chang,  Yunqing Chen,  C.-L. Cheng,  
 Siu Hung Chien,  D. M. Chipman,  D. L. Crittenden,  H. Dachsel,  
 R. J. Doerksen,  A. D. Dutoi,  R. G. Edgar,  J. Fosso-Tande,  
 L. Fusti-Molnar,  D. Ghosh,  A. Ghysels,  A. Golubeva-Zadorozhnaya,  
 J. Gonthier,  M. S. Gordon,  S. R. Gwaltney,  G. Hawkins,  J. E. Herr,  
 A. Heyden,  S. Hirata,  E. G. Hohenstein,  G. Kedziora,  F. J. Keil,  
 C. Kelley,  Jihan Kim,  R. A. King,  R. Z. Khaliullin,  P. P. Korambath,  
 W. Kurlancheek,  A. Laurent,  A. M. Lee,  M. S. Lee,  S. V. Levchenko,  
 Ching Yeh Lin,  D. Liotard,  E. Livshits,  R. C. Lochan,  I. Lotan,  
 L. A. Martinez-Martinez,  P. E. Maslen,  N. Nair,  D. P. O'Neill,  
 D. Neuhauser,  E. Neuscamman,  C. M. Oana,  R. Olivares-Amaya,  R. Olson,  
 T. M. Perrine,  B. Peters,  P. A. Pieniazek,  A. Prociuk,  Y. M. Rhee,  
 J. Ritchie,  M. A. Rohrdanz,  E. Rosta,  N. J. Russ,  H. F. Schaefer III,  
 M. W. Schmidt,  N. E. Schultz,  S. Sharma,  N. Shenvi,  C. D. Sherrill,  
 A. C. Simmonett,  A. Sodt,  T. Stein,  D. Stuck,  K. S. Thanthiriwatte,  
 V. Vanovschi,  L. Vogt,  Tao Wang,  A. Warshel,  M. A. Watson,  
 C. F. Williams,  Q. Wu,  X. Xu,  Jun Yang,  W. Zhang,  Yan Zhao

 Please cite Q-Chem as follows:
 Y. Shao et al., Mol. Phys. 113, 184-215 (2015)
 DOI: 10.1080/00268976.2014.952696

 Q-Chem 5.4.0 for Intel X86 EM64T Linux

 Parts of Q-Chem use Armadillo 9.800.1 (Horizon Scraper).
 http://arma.sourceforge.net/

 Q-Chem begins on Tue Jan  9 10:21:52 2024  

 Host: 
0

     Scratch files written to ./qchem1607792//
 May1621 |scratch|qcdevops|jenkins|workspace|build_RNUM    
 Parallel job on  1  processors
 Processing $rem in /cm/shared/apps/spack/cpu/opt/spack/linux-centos8-zen2/gcc-10.2.0/qchem-5.4-akfmr7b3t57bfs6qan3padb2wnb2i7cl/config/preferences:
 Processing $rem in /home/rramji/.qchemrc:
 Symmetry turned off for PCM/SM12/SMD calculation
 Core orbitals will be frozen

 Checking the input file for inconsistencies... 	...done.

 Q-Chem warning in module forms1/BasisType.C, line 2236:

 You are not using the predefined 5D/6D in this basis set.


--------------------------------------------------------------
User input:
--------------------------------------------------------------
$molecule
0 1
C	-0.354978	-0.928548	0.978188
S	-0.045078	-0.078548	2.485688
C	0.492022	1.399452	1.697088
C	-0.044978	-0.078948	-0.089712
C	0.428322	1.228152	0.291788
S	-0.125578	-0.308748	-1.827312
C	0.468322	1.339152	-2.076312
C	0.708322	2.005552	-0.884412
F	1.160922	3.263252	-0.840912
C	0.623322	1.759552	-3.477912
O	0.367522	1.033352	-4.428312
O	1.078222	3.031152	-3.591012
C	1.252522	3.494552	-4.938012
H	1.622522	4.531652	-4.854912
H	0.292422	3.468052	-5.492012
H	1.984522	2.863252	-5.481112
C	-0.354978	-2.363748	0.978188
H	-0.549878	-2.371748	-0.084012
H	0.472922	-3.041648	0.831888
H	-1.279878	-2.894848	1.147988
H	0.806822	2.268452	2.284688
$end

$rem
JOBTYPE		SP
EXCHANGE	HF
CORRELATION	pRIMP2
BASIS		cc-pvtz
METHOD		rimp2
AUX_BASIS	rimp2-cc-pvtz
SOLVENT_METHOD	PCM
PURECART	11111
SYMMETRY	false
MEM_TOTAL	110000
SCF_CONVERGENCE = 6
THRESH=10
GUI = 2
$end



$solvent
dielectric 4.90
$end
--------------------------------------------------------------
 ----------------------------------------------------------------
             Standard Nuclear Orientation (Angstroms)
    I     Atom           X                Y                Z
 ----------------------------------------------------------------
    1      C      -0.3549780000    -0.9285480000     0.9781880000
    2      S      -0.0450780000    -0.0785480000     2.4856880000
    3      C       0.4920220000     1.3994520000     1.6970880000
    4      C      -0.0449780000    -0.0789480000    -0.0897120000
    5      C       0.4283220000     1.2281520000     0.2917880000
    6      S      -0.1255780000    -0.3087480000    -1.8273120000
    7      C       0.4683220000     1.3391520000    -2.0763120000
    8      C       0.7083220000     2.0055520000    -0.8844120000
    9      F       1.1609220000     3.2632520000    -0.8409120000
   10      C       0.6233220000     1.7595520000    -3.4779120000
   11      O       0.3675220000     1.0333520000    -4.4283120000
   12      O       1.0782220000     3.0311520000    -3.5910120000
   13      C       1.2525220000     3.4945520000    -4.9380120000
   14      H       1.6225220000     4.5316520000    -4.8549120000
   15      H       0.2924220000     3.4680520000    -5.4920120000
   16      H       1.9845220000     2.8632520000    -5.4811120000
   17      C      -0.3549780000    -2.3637480000     0.9781880000
   18      H      -0.5498780000    -2.3717480000    -0.0840120000
   19      H       0.4729220000    -3.0416480000     0.8318880000
   20      H      -1.2798780000    -2.8948480000     1.1479880000
   21      H       0.8068220000     2.2684520000     2.2846880000
 ----------------------------------------------------------------
 Nuclear Repulsion Energy =        1084.40919366 hartrees
 There are       59 alpha and       59 beta electrons
 Requested basis set is cc-pVTZ
 There are 186 shells and 526 basis functions

 Total QAlloc Memory Limit 110000 MB
 Mega-Array Size       188 MB
 MEM_STATIC part       192 MB
 Discretize the solute cavity surface with Lebedev spheres
	Using 110 Lebedev grid points for each H atom
	Using 194 Lebedev grid points for other atoms
	Atomic van der Waals radii will be scaled by 1.20
 Remove points where switching function is < 1.0e-08
 Keep 1550 surface tesserae and discard 1936 interior tesserae
 Molecular Surface Area = 241.928 Angst**2
 Requested basis set is rimp2-cc-pVTZ
 There are 410 shells and 1426 basis functions
 A cutoff of  1.0D-10 yielded  11583 shell pairs
 There are     90799 function pairs (    118807 Cartesian)
 Smallest overlap matrix eigenvalue = 6.16E-05

 Scale SEOQF with 1.000000e-01/1.000000e-01/1.000000e-02

 Standard Electronic Orientation quadrupole field applied
 Nucleus-field energy     =     0.0000000245 hartrees
 Guess from superposition of atomic densities
 Warning:  Energy on first SCF cycle will be non-variational
 SAD guess density has 118.000000 electrons

 -----------------------------------------------------------------------
  General SCF calculation program by
  Eric Jon Sundstrom, Paul Horn, Yuezhi Mao, Dmitri Zuev, Alec White,
  David Stuck, Shaama M.S., Shane Yost, Joonho Lee, David Small,
  Daniel Levine, Susi Lehtola, Hugh Burton, Evgeny Epifanovsky,
  Bang C. Huynh
 -----------------------------------------------------------------------
 Hartree-Fock
 using 64 threads for integral computing
 -------------------------------------------------------
 OpenMP Integral computing Module                
 Release: version 1.0, May 2013, Q-Chem Inc. Pittsburgh 
 -------------------------------------------------------
 A restricted SCF calculation will be
 performed using DIIS
 SCF converges when DIIS error is below 1.0e-06
 ---------------------------------------
  Cycle       Energy         DIIS error
 ---------------------------------------
    1   -1394.2549083458      2.47e-02  
    2   -1389.0285362359      2.47e-03  
    3   -1389.1984177660      1.54e-03  
    4   -1389.2587081574      3.53e-04  
    5   -1389.2644834705      1.12e-04  
    6   -1389.2651578637      3.60e-05  
    7   -1389.2653012345      1.81e-05  
    8   -1389.2653503843      6.99e-06  
    9   -1389.2653608069      2.98e-06  
   10   -1389.2653622270      1.11e-06  
   11   -1389.2653624327      4.57e-07  Convergence criterion met
 ---------------------------------------
 SCF time:   CPU 1706.74s  wall 51.00s 

************** Final PCM Free Energy Summary **************
 G_electrostatic  =      -0.01138190 hartree =      -7.14224993 kcal/mol
 G_cavitation     =       0.00000000 hartree =       0.00000000 kcal/mol
 G_dispersion     =       0.00000000 hartree =       0.00000000 kcal/mol
 G_repulsion      =       0.00000000 hartree =       0.00000000 kcal/mol
 --------------------------------------------------
 Non-electrostatic Free Energy =       0.00000000 hartree =       0.00000000 kcal/mol
 Total                         =      -0.01138190 hartree =      -7.14224993 kcal/mol
 --------------------------------------------------
 SCF Energy (H0 + V/2)                       =   -1389.26536243 
 Solute Internal Energy (H0)                 =   -1389.25398053 
 Total Free Energy (H0 + V/2 + non-elec)     =   -1389.26536243 hartree
                                             = -871777.17265875 kcal/mol
***********************************************************

 SCF   energy in the final basis set =    -1389.2653624327
 Total energy in the final basis set =    -1389.2653624327


 --------------------------------------------------------------
  Generalized many-body perturbation theory program
  by Joonho Lee, Fazle Rob, Xintian Feng, Evgeny Epifanovsky

 No regularization used 
 (reg. param. = 0.0000e+00)
  (P|Q)^-1/2 Time:  CPU 30.46 s  wall 0.49 s

 In RI-MP2 calculation: 
 # of frozen core orbitals: 22

 Components of the RIMP2 correlation energy:
        aaaa    correlation energy =        -0.3288970690 a.u.
        abab    correlation energy =        -1.8497104576 a.u.
        bbbb    correlation energy =        -0.3288970690 a.u.
        non-Brillouin singles      =        -0.0000000000 a.u.
        total same-spin energy     =        -0.6577941380 a.u.
        total opposite-spin energy =        -1.8497104576 a.u.

 Total  RIMP2   correlation energy =        -2.5075045956 a.u.
        RIMP2         total energy =     -1391.7728670283 a.u.

 RI-MP2 Energy Time:  CPU 209.09 s  wall 3.47 s
 
 --------------------------------------------------------------
 
                    Orbital Energies (a.u.)
 --------------------------------------------------------------
 
 Alpha MOs
 -- Occupied --
-92.0021 -91.9950 -26.3416 -20.6138 -20.5598 -11.4079 -11.3803 -11.3033
-11.2947 -11.2927 -11.2896 -11.2883 -11.2792 -11.2248  -9.0014  -8.9952
 -6.6821  -6.6815  -6.6811  -6.6762  -6.6755  -6.6744  -1.6588  -1.4662
 -1.3688  -1.2145  -1.1357  -1.0681  -1.0191  -0.9944  -0.9585  -0.9139
 -0.8638  -0.8058  -0.7894  -0.7595  -0.7301  -0.7236  -0.6950  -0.6836
 -0.6730  -0.6613  -0.6084  -0.6027  -0.5918  -0.5827  -0.5653  -0.5563
 -0.5376  -0.5302  -0.5075  -0.4875  -0.4737  -0.4719  -0.4658  -0.4481
 -0.3929  -0.3449  -0.2932
 -- Virtual --
  0.0392   0.1114   0.1336   0.1516   0.1574   0.1731   0.1866   0.1956
  0.2153   0.2185   0.2218   0.2287   0.2320   0.2431   0.2580   0.2649
  0.2973   0.3065   0.3211   0.3432   0.3445   0.3598   0.3780   0.3837
  0.3843   0.3908   0.4052   0.4123   0.4214   0.4291   0.4388   0.4420
  0.4586   0.4699   0.4748   0.4786   0.4997   0.5072   0.5091   0.5149
  0.5225   0.5358   0.5418   0.5441   0.5487   0.5600   0.5672   0.5820
  0.5892   0.6026   0.6042   0.6151   0.6178   0.6224   0.6255   0.6297
  0.6379   0.6496   0.6577   0.6651   0.6774   0.6919   0.6922   0.7006
  0.7125   0.7181   0.7254   0.7513   0.7596   0.7626   0.7661   0.8085
  0.8156   0.8175   0.8334   0.8408   0.8518   0.8690   0.8761   0.8796
  0.8854   0.8925   0.9070   0.9298   0.9367   0.9459   0.9610   0.9663
  0.9814   0.9887   1.0036   1.0135   1.0237   1.0316   1.0426   1.0562
  1.0646   1.0653   1.0928   1.0982   1.1016   1.1077   1.1189   1.1245
  1.1329   1.1508   1.1568   1.1631   1.1788   1.1901   1.2047   1.2104
  1.2281   1.2337   1.2358   1.2476   1.2604   1.2781   1.2824   1.2933
  1.3185   1.3197   1.3422   1.3494   1.3598   1.3821   1.3936   1.4074
  1.4104   1.4235   1.4351   1.4553   1.4781   1.4881   1.5018   1.5046
  1.5140   1.5341   1.5415   1.5520   1.5557   1.5776   1.5925   1.6043
  1.6203   1.6321   1.6528   1.6601   1.6814   1.6943   1.7109   1.7282
  1.7504   1.7705   1.7930   1.8036   1.8192   1.8218   1.8265   1.8612
  1.8755   1.8832   1.8978   1.9096   1.9369   1.9397   1.9550   1.9690
  1.9895   1.9974   2.0101   2.0328   2.0420   2.0868   2.0931   2.1060
  2.1076   2.1576   2.1711   2.1878   2.1984   2.2039   2.2138   2.2239
  2.2388   2.2404   2.2565   2.2844   2.2927   2.3034   2.3278   2.3371
  2.3649   2.3726   2.3892   2.4139   2.4325   2.4516   2.4879   2.4900
  2.5129   2.5388   2.5518   2.5573   2.5844   2.6034   2.6271   2.6335
  2.6422   2.6548   2.6587   2.6727   2.6822   2.6903   2.7029   2.7084
  2.7325   2.7526   2.7579   2.7856   2.7895   2.8026   2.8121   2.8244
  2.8451   2.8556   2.8667   2.8746   2.9041   2.9099   2.9244   2.9462
  2.9567   2.9728   2.9834   2.9929   3.0239   3.0356   3.0448   3.0495
  3.0676   3.0898   3.0920   3.1059   3.1087   3.1218   3.1313   3.1448
  3.1555   3.1563   3.1934   3.2116   3.2184   3.2258   3.2421   3.2517
  3.2636   3.2682   3.2807   3.2866   3.2877   3.3084   3.3229   3.3361
  3.3401   3.3506   3.3614   3.3684   3.3775   3.3825   3.4064   3.4143
  3.4198   3.4230   3.4415   3.4487   3.4594   3.4704   3.4736   3.4875
  3.4952   3.5216   3.5242   3.5426   3.5439   3.5543   3.5708   3.5844
  3.5971   3.6016   3.6086   3.6152   3.6395   3.6434   3.6561   3.6716
  3.6792   3.6935   3.6997   3.7052   3.7064   3.7343   3.7423   3.7587
  3.7679   3.7772   3.7805   3.7925   3.8022   3.8141   3.8232   3.8280
  3.8449   3.8647   3.8807   3.8830   3.8880   3.9032   3.9070   3.9194
  3.9383   3.9559   3.9582   3.9929   3.9993   4.0107   4.0328   4.0520
  4.0655   4.0683   4.0763   4.0917   4.1129   4.1345   4.1652   4.1668
  4.1773   4.1878   4.2141   4.2218   4.2507   4.2932   4.3153   4.3372
  4.3423   4.3598   4.3631   4.3845   4.4018   4.4162   4.4220   4.4297
  4.4584   4.4698   4.5037   4.5195   4.5407   4.5681   4.5829   4.5876
  4.6089   4.6461   4.6525   4.6607   4.6704   4.6897   4.7311   4.7455
  4.7716   4.7810   4.8313   4.8439   4.8731   4.8760   4.8931   4.9162
  4.9222   4.9887   4.9957   5.0094   5.0404   5.0599   5.1051   5.1198
  5.1380   5.1674   5.1993   5.2522   5.2559   5.2612   5.3098   5.3523
  5.3636   5.3993   5.4103   5.4266   5.4644   5.4727   5.4854   5.5228
  5.5386   5.5820   5.6228   5.6267   5.6635   5.7038   5.7361   5.7598
  5.8085   5.8106   5.8281   5.8843   5.9084   5.9303   5.9468   5.9736
  6.0425   6.0909   6.1511   6.1732   6.1980   6.2623   6.2939   6.3791
  6.4390   6.4513   6.5381   6.6016   6.6618   6.6724   6.7469   6.8309
  6.8607   6.9792   7.2049   7.2063   7.3110   7.3646   7.3647   7.4070
  7.4143   7.4872   7.5236   7.5515   7.6162   7.7746   7.7895   7.8910
  7.9564   8.1342   8.1871   8.9234   9.0126   9.3644   9.4649   9.6505
 10.0932  11.0863  11.6385  11.8190  12.4110  12.8970  13.0825  13.3867
 13.7723  14.0298  14.4798
 --------------------------------------------------------------
 
          Ground-State Mulliken Net Atomic Charges

     Atom                 Charge (a.u.)
  ----------------------------------------
      1 C                     0.015378
      2 S                     0.076876
      3 C                    -0.197491
      4 C                    -0.023130
      5 C                    -0.090421
      6 S                    -0.003762
      7 C                    -0.157565
      8 C                     0.391001
      9 F                    -0.207296
     10 C                     0.445559
     11 O                    -0.462933
     12 O                    -0.301148
     13 C                    -0.058442
     14 H                     0.121099
     15 H                     0.094807
     16 H                     0.094738
     17 C                    -0.350673
     18 H                     0.109863
     19 H                     0.151862
     20 H                     0.138712
     21 H                     0.212967
  ----------------------------------------
  Sum of atomic charges =     0.000000

 -----------------------------------------------------------------
                    Cartesian Multipole Moments
 -----------------------------------------------------------------
    Charge (ESU x 10^10)
                -0.0000
    Dipole Moment (Debye)
         X       0.7131      Y       0.7112      Z       2.5258
       Tot       2.7192
    Quadrupole Moments (Debye-Ang)
        XX     -94.9593     XY       3.9151     YY     -82.7248
        XZ      -2.7633     YZ      -7.6643     ZZ     -98.0020
    Octopole Moments (Debye-Ang^2)
       XXX     -88.5480    XXY     -75.3388    XYY     -25.1379
       YYY    -223.9258    XXZ      76.7617    XYZ     -10.8188
       YYZ      49.3421    XZZ      -2.8717    YZZ       1.3993
       ZZZ     267.9358
    Hexadecapole Moments (Debye-Ang^3)
      XXXX    -329.9066   XXXY    -301.2843   XXYY    -370.0133
      XYYY    -273.3703   YYYY   -1872.8609   XXXZ     269.4772
      XXYZ     247.2869   XYYZ      43.0013   YYYZ     665.4263
      XXZZ    -631.2994   XYZZ       8.8035   YYZZ    -646.1616
      XZZZ     167.4609   YZZZ     497.6205   ZZZZ   -3703.8299
 -----------------------------------------------------------------
 Total job time:  59.45s(wall), 2114.29s(cpu) 
 Tue Jan  9 10:22:51 2024

        *************************************************************
        *                                                           *
        *  Thank you very much for using Q-Chem.  Have a nice day.  *
        *                                                           *
        *************************************************************


0 sent ACK to 0 
now end server 0 ... 
cleanup process ... done
remove work dirs ./qchem1607792.0 -- ./qchem1607792.0
rm -rf ./qchem1607792.0
rm -rf ./qchem1607792
