You are running Q-Chem version: 5.4.0

#
# job setting
#
local host:  exp-14-05
current dir: /home/rramji/project-csd799/aromodel/ptb7fout-qchem/methylated-rotation-run
input file:  Dimethoxy_Benzodithiophene_Phi_5_Theta_130_Methylcarbonyl_3_Fluoro_Thienothiophene_Hydrogenated_Improper.qcin
output file: 
nprocs     : 1
nthreads   : 64
#
# qchem installation setting
#
QC:          /cm/shared/apps/spack/cpu/opt/spack/linux-centos8-zen2/gcc-10.2.0/qchem-5.4-akfmr7b3t57bfs6qan3padb2wnb2i7cl
QCAUX:       /cm/shared/apps/spack/cpu/opt/spack/linux-centos8-zen2/gcc-10.2.0/qchem-5.4-akfmr7b3t57bfs6qan3padb2wnb2i7cl/qcaux
QCPROG:      /cm/shared/apps/spack/cpu/opt/spack/linux-centos8-zen2/gcc-10.2.0/qchem-5.4-akfmr7b3t57bfs6qan3padb2wnb2i7cl/exe/qcprog.exe
QCPROG_S:    /cm/shared/apps/spack/cpu/opt/spack/linux-centos8-zen2/gcc-10.2.0/qchem-5.4-akfmr7b3t57bfs6qan3padb2wnb2i7cl/exe/qcprog.exe_s
PARALLEL:    -DPARALLEL
QCMPI:       mpich
#
# qchem directory setting
#
qcrun:       qchem2527787
QCSCRATCH:   .
QCLOCALSCR:  
QCTMPDIR:    .
QCFILEPREF:  ./qchem2527787
QCSAVEDIR:   
workdirs:    ./qchem2527787
workdir0:    ./qchem2527787
partmpdirs =  
#
# parallel setting
#
QCRSH:           ssh
QCMPI:           mpich
QCMPIRUN:        /cm/shared/apps/spack/cpu/opt/spack/linux-centos8-zen2/gcc-10.2.0/qchem-5.4-akfmr7b3t57bfs6qan3padb2wnb2i7cl/bin/mpi/mpirun_qchem
QCMACHINEFILE:   ./qchem2527787/hostfile
exp-14-05

#
# env setting
#
exported envs:   QC QCAUX QCSCRATCH QCRUNNAME QCFILEPREF QCPROG QCPROG_S GUIFILE

Running Job 1 of 1 Dimethoxy_Benzodithiophene_Phi_5_Theta_130_Methylcarbonyl_3_Fluoro_Thienothiophene_Hydrogenated_Improper.qcin
qchem Dimethoxy_Benzodithiophene_Phi_5_Theta_130_Methylcarbonyl_3_Fluoro_Thienothiophene_Hydrogenated_Improper.qcin_2527787.0 ./qchem2527787/ 1
/cm/shared/apps/spack/cpu/opt/spack/linux-centos8-zen2/gcc-10.2.0/qchem-5.4-akfmr7b3t57bfs6qan3padb2wnb2i7cl/bin/mpi/mpirun_qchem -machinefile ./qchem2527787/hostfile -np 1 /cm/shared/apps/spack/cpu/opt/spack/linux-centos8-zen2/gcc-10.2.0/qchem-5.4-akfmr7b3t57bfs6qan3padb2wnb2i7cl/exe/qcprog.exe Dimethoxy_Benzodithiophene_Phi_5_Theta_130_Methylcarbonyl_3_Fluoro_Thienothiophene_Hydrogenated_Improper.qcin_2527787.0 ./qchem2527787/

Process 0 of 1 is on exp-14-05 - thread support 0
initial socket setup ...start
initial socket setup ...done 
now start server 0 ... 
                  Welcome to Q-Chem
     A Quantum Leap Into The Future Of Chemistry


 Q-Chem 5.4, Q-Chem, Inc., Pleasanton, CA (2021)

 License issued to: University of California, San Diego (site)

 E. Epifanovsky,  A. T. B. Gilbert,  Xintian Feng,  Joonho Lee,  Yuezhi Mao,  
 N. Mardirossian,  P. Pokhilko,  A. White,  M. Wormit,  M. P. Coons,  
 A. L. Dempwolff,  Zhengting Gan,  D. Hait,  P. R. Horn,  L. D. Jacobson,  
 I. Kaliman,  J. Kussmann,  A. W. Lange,  Ka Un Lao,  D. S. Levine,  Jie Liu,  
 S. C. McKenzie,  A. F. Morrison,  K. Nanda,  F. Plasser,  D. R. Rehn,  
 M. L. Vidal,  Zhi-Qiang You,  Ying Zhu,  B. Alam,  B. Albrecht,  
 A. Aldossary,  E. Alguire,  J. H. Andersen,  D. Barton,  K. Begam,  A. Behn,  
 Y. A. Bernard,  E. J. Berquist,  H. Burton,  A. Carreras,  K. Carter-Fenk,  
 R. Chakraborty,  A. D. Chien,  K. D. Closser,  V. Cofer-Shabica,  
 S. Dasgupta,  Jia Deng,  M. de Wergifosse,  M. Diedenhofen,  Hainam Do,  
 S. Ehlert,  Po-Tung Fang,  S. Fatehi,  Qingguo Feng,  J. Gayvert,  
 Qinghui Ge,  G. Gidofalvi,  M. Goldey,  J. Gomes,  C. Gonzalez-Espinoza,  
 S. Gulania,  A. Gunina,  M. W. D. Hanson-Heine,  P. H. P. Harbach,  
 A. W. Hauser,  M. F. Herbst,  M. Hernandez Vera,  M. Hodecker,  
 Z. C. Holden,  S. Houck,  Xunkun Huang,  Kerwin Hui,  B. C. Huynh,  
 M. Ivanov,  Hyunjun Ji,  Hanjie Jiang,  B. Kaduk,  S. Kaehler,  
 K. Khistyaev,  Jaehoon Kim,  P. Klunzinger,  Z. Koczor-Benda,  
 Joong Hoon Koh,  D. Kosenkov,  L. Koulias,  T. Kowalczyk,  C. M. Krauter,  
 K. Kue,  A. Kunitsa,  T. Kus,  A. Landau,  K. V. Lawler,  D. Lefrancois,  
 S. Lehtola,  Rain Li,  Yi-Pei Li,  Jiashu Liang,  M. Liebenthal,  
 Hung-Hsuan Lin,  You-Sheng Lin,  Fenglai Liu,  Kuan-Yu Liu,  
 M. Loipersberger,  A. Luenser,  A. Manjanath,  P. Manohar,  E. Mansoor,  
 S. F. Manzer,  Shan-Ping Mao,  A. V. Marenich,  T. Markovich,  S. Mason,  
 S. A. Maurer,  P. F. McLaughlin,  M. F. S. J. Menger,  J.-M. Mewes,  
 S. A. Mewes,  P. Morgante,  J. W. Mullinax,  T. S. Nguyen-Beck,  
 K. J. Oosterbaan,  G. Paran,  Alexander C. Paul,  Suranjan K. Paul,  
 F. Pavosevic,  Zheng Pei,  S. Prager,  E. I. Proynov,  E. Ramos,  B. Rana,  
 A. E. Rask,  A. Rettig,  R. M. Richard,  F. Rob,  E. Rossomme,  T. Scheele,  
 M. Scheurer,  M. Schneider,  N. Sergueev,  S. M. Sharada,  W. Skomorowski,  
 D. W. Small,  C. J. Stein,  Yu-Chuan Su,  E. J. Sundstrom,  Zhen Tao,  
 J. Thirman,  T. Tsuchimochi,  N. M. Tubman,  S. P. Veccham,  O. Vydrov,  
 J. Wenzel,  J. Witte,  A. Yamada,  Kun Yao,  S. Yeganeh,  S. R. Yost,  
 A. Zech,  Igor Ying Zhang,  Xing Zhang,  Yu Zhang,  D. Zuev,  
 A. Aspuru-Guzik,  A. T. Bell,  N. A. Besley,  K. B. Bravaya,  B. R. Brooks,  
 D. Casanova,  Jeng-Da Chai,  S. Coriani,  C. J. Cramer,  
 A. E. DePrince, III,  R. A. DiStasio Jr.,  A. Dreuw,  B. D. Dunietz,  
 T. R. Furlani,  W. A. Goddard III,  S. Grimme,  S. Hammes-Schiffer,  
 T. Head-Gordon,  W. J. Hehre,  Chao-Ping Hsu,  T.-C. Jagau,  Yousung Jung,  
 A. Klamt,  Jing Kong,  D. S. Lambrecht,  WanZhen Liang,  N. J. Mayhall,  
 C. W. McCurdy,  J. B. Neaton,  C. Ochsenfeld,  J. A. Parkhill,  R. Peverati,  
 V. A. Rassolov,  Yihan Shao,  L. V. Slipchenko,  T. Stauch,  R. P. Steele,  
 J. E. Subotnik,  A. J. W. Thom,  A. Tkatchenko,  D. G. Truhlar,  
 T. Van Voorhis,  T. A. Wesolowski,  K. B. Whaley,  H. L. Woodcock III,  
 P. M. Zimmerman,  S. Faraji,  P. M. W. Gill,  M. Head-Gordon,  
 J. M. Herbert,  A. I. Krylov

 Contributors to earlier versions of Q-Chem not listed above: 
 R. D. Adamson,  B. Austin,  R. Baer,  J. Baker,  G. J. O. Beran,  
 K. Brandhorst,  S. T. Brown,  E. F. C. Byrd,  A. K. Chakraborty,  
 G. K. L. Chan,  Chun-Min Chang,  Yunqing Chen,  C.-L. Cheng,  
 Siu Hung Chien,  D. M. Chipman,  D. L. Crittenden,  H. Dachsel,  
 R. J. Doerksen,  A. D. Dutoi,  R. G. Edgar,  J. Fosso-Tande,  
 L. Fusti-Molnar,  D. Ghosh,  A. Ghysels,  A. Golubeva-Zadorozhnaya,  
 J. Gonthier,  M. S. Gordon,  S. R. Gwaltney,  G. Hawkins,  J. E. Herr,  
 A. Heyden,  S. Hirata,  E. G. Hohenstein,  G. Kedziora,  F. J. Keil,  
 C. Kelley,  Jihan Kim,  R. A. King,  R. Z. Khaliullin,  P. P. Korambath,  
 W. Kurlancheek,  A. Laurent,  A. M. Lee,  M. S. Lee,  S. V. Levchenko,  
 Ching Yeh Lin,  D. Liotard,  E. Livshits,  R. C. Lochan,  I. Lotan,  
 L. A. Martinez-Martinez,  P. E. Maslen,  N. Nair,  D. P. O'Neill,  
 D. Neuhauser,  E. Neuscamman,  C. M. Oana,  R. Olivares-Amaya,  R. Olson,  
 T. M. Perrine,  B. Peters,  P. A. Pieniazek,  A. Prociuk,  Y. M. Rhee,  
 J. Ritchie,  M. A. Rohrdanz,  E. Rosta,  N. J. Russ,  H. F. Schaefer III,  
 M. W. Schmidt,  N. E. Schultz,  S. Sharma,  N. Shenvi,  C. D. Sherrill,  
 A. C. Simmonett,  A. Sodt,  T. Stein,  D. Stuck,  K. S. Thanthiriwatte,  
 V. Vanovschi,  L. Vogt,  Tao Wang,  A. Warshel,  M. A. Watson,  
 C. F. Williams,  Q. Wu,  X. Xu,  Jun Yang,  W. Zhang,  Yan Zhao

 Please cite Q-Chem as follows:
 Y. Shao et al., Mol. Phys. 113, 184-215 (2015)
 DOI: 10.1080/00268976.2014.952696

 Q-Chem 5.4.0 for Intel X86 EM64T Linux

 Parts of Q-Chem use Armadillo 9.800.1 (Horizon Scraper).
 http://arma.sourceforge.net/

 Q-Chem begins on Tue Jan  9 10:02:25 2024  

 Host: 
0

     Scratch files written to ./qchem2527787//
 May1621 |scratch|qcdevops|jenkins|workspace|build_RNUM    
 Parallel job on  1  processors
 Processing $rem in /cm/shared/apps/spack/cpu/opt/spack/linux-centos8-zen2/gcc-10.2.0/qchem-5.4-akfmr7b3t57bfs6qan3padb2wnb2i7cl/config/preferences:
 Processing $rem in /home/rramji/.qchemrc:
 Symmetry turned off for PCM/SM12/SMD calculation
 Core orbitals will be frozen

 Checking the input file for inconsistencies... 	...done.

 Q-Chem warning in module forms1/BasisType.C, line 2236:

 You are not using the predefined 5D/6D in this basis set.


--------------------------------------------------------------
User input:
--------------------------------------------------------------
$molecule
0 1
C	-0.089023	-0.987267	0.973964
S	-0.009723	-0.085967	2.481464
C	0.126577	1.480633	1.692864
C	-0.009423	-0.086367	-0.093936
C	0.109377	1.298733	0.287564
S	-0.027823	-0.329267	-1.831536
C	0.119277	1.416233	-2.080536
C	0.178577	2.122133	-0.888636
F	0.290277	3.454033	-0.845136
C	0.160277	1.862433	-3.482136
O	0.101077	1.094833	-4.432536
O	0.270477	3.208433	-3.595236
C	0.318877	3.701233	-4.942236
H	0.407877	4.798633	-4.859136
H	-0.601623	3.427033	-5.496236
H	1.189377	3.280833	-5.485336
C	-0.089023	-2.422467	0.973964
H	-0.777523	-2.430467	1.806064
H	-0.733223	-3.100367	0.433764
H	0.635577	-2.953567	1.573264
H	0.205777	2.401533	2.280464
$end

$rem
JOBTYPE		SP
EXCHANGE	HF
CORRELATION	pRIMP2
BASIS		cc-pvtz
METHOD		rimp2
AUX_BASIS	rimp2-cc-pvtz
SOLVENT_METHOD	PCM
PURECART	11111
SYMMETRY	false
MEM_TOTAL	110000
SCF_CONVERGENCE = 6
THRESH=10
GUI = 2
$end



$solvent
dielectric 4.90
$end
--------------------------------------------------------------
 ----------------------------------------------------------------
             Standard Nuclear Orientation (Angstroms)
    I     Atom           X                Y                Z
 ----------------------------------------------------------------
    1      C      -0.0890230000    -0.9872670000     0.9739640000
    2      S      -0.0097230000    -0.0859670000     2.4814640000
    3      C       0.1265770000     1.4806330000     1.6928640000
    4      C      -0.0094230000    -0.0863670000    -0.0939360000
    5      C       0.1093770000     1.2987330000     0.2875640000
    6      S      -0.0278230000    -0.3292670000    -1.8315360000
    7      C       0.1192770000     1.4162330000    -2.0805360000
    8      C       0.1785770000     2.1221330000    -0.8886360000
    9      F       0.2902770000     3.4540330000    -0.8451360000
   10      C       0.1602770000     1.8624330000    -3.4821360000
   11      O       0.1010770000     1.0948330000    -4.4325360000
   12      O       0.2704770000     3.2084330000    -3.5952360000
   13      C       0.3188770000     3.7012330000    -4.9422360000
   14      H       0.4078770000     4.7986330000    -4.8591360000
   15      H      -0.6016230000     3.4270330000    -5.4962360000
   16      H       1.1893770000     3.2808330000    -5.4853360000
   17      C      -0.0890230000    -2.4224670000     0.9739640000
   18      H      -0.7775230000    -2.4304670000     1.8060640000
   19      H      -0.7332230000    -3.1003670000     0.4337640000
   20      H       0.6355770000    -2.9535670000     1.5732640000
   21      H       0.2057770000     2.4015330000     2.2804640000
 ----------------------------------------------------------------
 Nuclear Repulsion Energy =        1082.30693170 hartrees
 There are       59 alpha and       59 beta electrons
 Requested basis set is cc-pVTZ
 There are 186 shells and 526 basis functions

 Total QAlloc Memory Limit 110000 MB
 Mega-Array Size       188 MB
 MEM_STATIC part       192 MB
 Discretize the solute cavity surface with Lebedev spheres
	Using 110 Lebedev grid points for each H atom
	Using 194 Lebedev grid points for other atoms
	Atomic van der Waals radii will be scaled by 1.20
 Remove points where switching function is < 1.0e-08
 Keep 1561 surface tesserae and discard 1925 interior tesserae
 Molecular Surface Area = 242.976 Angst**2
 Requested basis set is rimp2-cc-pVTZ
 There are 410 shells and 1426 basis functions
 A cutoff of  1.0D-10 yielded  11478 shell pairs
 There are     90032 function pairs (    117829 Cartesian)
 Smallest overlap matrix eigenvalue = 5.72E-05

 Scale SEOQF with 1.000000e+00/1.000000e-01/1.000000e-02

 Standard Electronic Orientation quadrupole field applied
 Nucleus-field energy     =     0.0000000282 hartrees
 Guess from superposition of atomic densities
 Warning:  Energy on first SCF cycle will be non-variational
 SAD guess density has 118.000000 electrons

 -----------------------------------------------------------------------
  General SCF calculation program by
  Eric Jon Sundstrom, Paul Horn, Yuezhi Mao, Dmitri Zuev, Alec White,
  David Stuck, Shaama M.S., Shane Yost, Joonho Lee, David Small,
  Daniel Levine, Susi Lehtola, Hugh Burton, Evgeny Epifanovsky,
  Bang C. Huynh
 -----------------------------------------------------------------------
 Hartree-Fock
 using 64 threads for integral computing
 -------------------------------------------------------
 OpenMP Integral computing Module                
 Release: version 1.0, May 2013, Q-Chem Inc. Pittsburgh 
 -------------------------------------------------------
 A restricted SCF calculation will be
 performed using DIIS
 SCF converges when DIIS error is below 1.0e-06
 ---------------------------------------
  Cycle       Energy         DIIS error
 ---------------------------------------
    1   -1394.2405943042      2.47e-02  
    2   -1389.0350427048      2.47e-03  
    3   -1389.2050744429      1.53e-03  
    4   -1389.2639239871      3.54e-04  
    5   -1389.2696926396      1.13e-04  
    6   -1389.2703842610      3.67e-05  
    7   -1389.2705348104      1.83e-05  
    8   -1389.2705866493      7.06e-06  
    9   -1389.2705973476      3.02e-06  
   10   -1389.2705987728      1.11e-06  
   11   -1389.2705989788      5.02e-07  Convergence criterion met
 ---------------------------------------
 SCF time:   CPU 1705.82s  wall 52.00s 

************** Final PCM Free Energy Summary **************
 G_electrostatic  =      -0.01248128 hartree =      -7.83212191 kcal/mol
 G_cavitation     =       0.00000000 hartree =       0.00000000 kcal/mol
 G_dispersion     =       0.00000000 hartree =       0.00000000 kcal/mol
 G_repulsion      =       0.00000000 hartree =       0.00000000 kcal/mol
 --------------------------------------------------
 Non-electrostatic Free Energy =       0.00000000 hartree =       0.00000000 kcal/mol
 Total                         =      -0.01248128 hartree =      -7.83212191 kcal/mol
 --------------------------------------------------
 SCF Energy (H0 + V/2)                       =   -1389.27059898 
 Solute Internal Energy (H0)                 =   -1389.25811770 
 Total Free Energy (H0 + V/2 + non-elec)     =   -1389.27059898 hartree
                                             = -871780.45864104 kcal/mol
***********************************************************

 SCF   energy in the final basis set =    -1389.2705989788
 Total energy in the final basis set =    -1389.2705989788


 --------------------------------------------------------------
  Generalized many-body perturbation theory program
  by Joonho Lee, Fazle Rob, Xintian Feng, Evgeny Epifanovsky

 No regularization used 
 (reg. param. = 0.0000e+00)
  (P|Q)^-1/2 Time:  CPU 21.33 s  wall 0.34 s

 In RI-MP2 calculation: 
 # of frozen core orbitals: 22

 Components of the RIMP2 correlation energy:
        aaaa    correlation energy =        -0.3281612419 a.u.
        abab    correlation energy =        -1.8479490429 a.u.
        bbbb    correlation energy =        -0.3281612419 a.u.
        non-Brillouin singles      =        -0.0000000000 a.u.
        total same-spin energy     =        -0.6563224838 a.u.
        total opposite-spin energy =        -1.8479490429 a.u.

 Total  RIMP2   correlation energy =        -2.5042715267 a.u.
        RIMP2         total energy =     -1391.7748705055 a.u.

 RI-MP2 Energy Time:  CPU 174.19 s  wall 2.96 s
 
 --------------------------------------------------------------
 
                    Orbital Energies (a.u.)
 --------------------------------------------------------------
 
 Alpha MOs
 -- Occupied --
-92.0073 -91.9907 -26.3400 -20.6133 -20.5594 -11.4072 -11.3778 -11.2974
-11.2963 -11.2941 -11.2879 -11.2827 -11.2782 -11.2271  -9.0062  -8.9908
 -6.6870  -6.6864  -6.6859  -6.6719  -6.6712  -6.6701  -1.6573  -1.4656
 -1.3682  -1.2116  -1.1366  -1.0651  -1.0191  -0.9954  -0.9582  -0.9128
 -0.8632  -0.8057  -0.7879  -0.7579  -0.7310  -0.7222  -0.6913  -0.6830
 -0.6724  -0.6603  -0.6106  -0.5980  -0.5913  -0.5783  -0.5648  -0.5561
 -0.5374  -0.5296  -0.5092  -0.4878  -0.4728  -0.4708  -0.4699  -0.4596
 -0.3880  -0.3455  -0.2862
 -- Virtual --
  0.0401   0.1258   0.1285   0.1554   0.1584   0.1723   0.1803   0.1979
  0.2113   0.2158   0.2251   0.2292   0.2340   0.2433   0.2499   0.2701
  0.2809   0.3048   0.3204   0.3377   0.3472   0.3522   0.3730   0.3833
  0.3853   0.3977   0.4063   0.4145   0.4202   0.4319   0.4378   0.4440
  0.4604   0.4675   0.4775   0.4895   0.5000   0.5043   0.5130   0.5165
  0.5326   0.5361   0.5395   0.5446   0.5530   0.5621   0.5760   0.5851
  0.5916   0.5957   0.6054   0.6088   0.6129   0.6162   0.6238   0.6262
  0.6367   0.6547   0.6606   0.6617   0.6726   0.6857   0.7029   0.7081
  0.7167   0.7212   0.7254   0.7475   0.7541   0.7625   0.7848   0.8070
  0.8133   0.8188   0.8342   0.8467   0.8494   0.8699   0.8765   0.8780
  0.8875   0.8980   0.9143   0.9199   0.9430   0.9492   0.9610   0.9713
  0.9874   0.9881   0.9926   1.0065   1.0234   1.0385   1.0423   1.0567
  1.0621   1.0778   1.0881   1.0992   1.1016   1.1098   1.1136   1.1204
  1.1364   1.1520   1.1664   1.1751   1.1800   1.2037   1.2056   1.2104
  1.2271   1.2354   1.2462   1.2556   1.2639   1.2743   1.2846   1.2991
  1.3070   1.3254   1.3601   1.3681   1.3757   1.3771   1.3928   1.4091
  1.4208   1.4310   1.4375   1.4703   1.4879   1.5015   1.5029   1.5135
  1.5160   1.5378   1.5422   1.5463   1.5664   1.5740   1.5879   1.6051
  1.6104   1.6348   1.6511   1.6664   1.6763   1.6939   1.7111   1.7351
  1.7457   1.7787   1.7990   1.8150   1.8195   1.8274   1.8452   1.8661
  1.8726   1.8802   1.8972   1.9111   1.9222   1.9385   1.9534   1.9779
  1.9978   2.0064   2.0218   2.0332   2.0498   2.0789   2.0886   2.1012
  2.1256   2.1603   2.1756   2.1980   2.2012   2.2024   2.2178   2.2317
  2.2345   2.2504   2.2560   2.2829   2.3040   2.3243   2.3263   2.3433
  2.3661   2.3729   2.3929   2.4062   2.4332   2.4521   2.4769   2.4943
  2.5095   2.5426   2.5511   2.5570   2.5840   2.6074   2.6285   2.6398
  2.6438   2.6555   2.6798   2.6853   2.6892   2.7038   2.7147   2.7159
  2.7279   2.7355   2.7716   2.7830   2.7906   2.8007   2.8141   2.8199
  2.8299   2.8445   2.8558   2.8713   2.8998   2.9197   2.9465   2.9575
  2.9616   2.9821   2.9937   3.0017   3.0243   3.0268   3.0331   3.0566
  3.0763   3.0891   3.0955   3.1004   3.1047   3.1125   3.1367   3.1392
  3.1484   3.1646   3.1943   3.2009   3.2183   3.2191   3.2461   3.2522
  3.2566   3.2645   3.2761   3.2901   3.3055   3.3063   3.3217   3.3323
  3.3426   3.3479   3.3569   3.3690   3.3814   3.3916   3.4002   3.4062
  3.4272   3.4417   3.4458   3.4486   3.4684   3.4760   3.4818   3.4879
  3.4935   3.5036   3.5298   3.5477   3.5525   3.5564   3.5710   3.5741
  3.5904   3.5999   3.6047   3.6168   3.6269   3.6384   3.6465   3.6700
  3.6729   3.6852   3.6951   3.7068   3.7088   3.7241   3.7377   3.7506
  3.7647   3.7812   3.7897   3.7983   3.8014   3.8135   3.8207   3.8313
  3.8394   3.8502   3.8751   3.8809   3.8988   3.9058   3.9136   3.9399
  3.9464   3.9626   3.9695   3.9854   3.9953   4.0208   4.0296   4.0370
  4.0624   4.0700   4.0743   4.0932   4.1263   4.1529   4.1599   4.1677
  4.1803   4.1955   4.2127   4.2330   4.2606   4.2905   4.3117   4.3138
  4.3427   4.3597   4.3598   4.3722   4.3956   4.4160   4.4307   4.4395
  4.4553   4.4573   4.5001   4.5203   4.5264   4.5499   4.5822   4.5875
  4.6020   4.6193   4.6467   4.6615   4.6700   4.6927   4.7226   4.7451
  4.7589   4.7820   4.7965   4.8457   4.8517   4.8900   4.9186   4.9261
  4.9514   4.9761   4.9990   5.0097   5.0646   5.0799   5.1021   5.1204
  5.1485   5.1918   5.2058   5.2534   5.2552   5.2602   5.3215   5.3533
  5.3640   5.4061   5.4155   5.4272   5.4758   5.4858   5.5055   5.5279
  5.5443   5.5828   5.6067   5.6233   5.6642   5.6883   5.7431   5.7583
  5.8090   5.8211   5.8402   5.8747   5.9086   5.9308   5.9577   6.0217
  6.0439   6.1053   6.1515   6.1800   6.2414   6.2627   6.2857   6.3927
  6.4518   6.4719   6.5399   6.6054   6.6623   6.6730   6.7482   6.8315
  6.8612   6.9798   7.2054   7.2086   7.3115   7.3659   7.3661   7.4080
  7.4148   7.4887   7.5273   7.5529   7.6166   7.7763   7.7905   7.8985
  7.9625   8.1363   8.2548   8.9250   9.0130   9.3659   9.4620   9.6446
 10.0657  11.0604  11.5981  11.8065  12.4076  13.0319  13.0918  13.3855
 13.7702  14.0306  14.5328
 --------------------------------------------------------------
 
          Ground-State Mulliken Net Atomic Charges

     Atom                 Charge (a.u.)
  ----------------------------------------
      1 C                     0.023553
      2 S                     0.073949
      3 C                    -0.209699
      4 C                     0.000947
      5 C                    -0.099612
      6 S                    -0.009794
      7 C                    -0.158084
      8 C                     0.390729
      9 F                    -0.209115
     10 C                     0.445259
     11 O                    -0.462181
     12 O                    -0.300709
     13 C                    -0.058724
     14 H                     0.121046
     15 H                     0.094737
     16 H                     0.094686
     17 C                    -0.378766
     18 H                     0.123336
     19 H                     0.165123
     20 H                     0.139132
     21 H                     0.214188
  ----------------------------------------
  Sum of atomic charges =     0.000000

 -----------------------------------------------------------------
                    Cartesian Multipole Moments
 -----------------------------------------------------------------
    Charge (ESU x 10^10)
                -0.0000
    Dipole Moment (Debye)
         X      -0.2615      Y       0.4104      Z       3.7691
       Tot       3.8004
    Quadrupole Moments (Debye-Ang)
        XX     -96.3924     XY       2.2885     YY     -80.9995
        XZ      -0.8082     YZ     -11.3873     ZZ     -95.6194
    Octopole Moments (Debye-Ang^2)
       XXX     -22.3083    XXY     -81.7087    XYY      -9.7376
       YYY    -240.0253    XXZ      79.8411    XYZ      -3.1146
       YYZ      52.5826    XZZ      -0.6614    YZZ      -5.9383
       ZZZ     271.6175
    Hexadecapole Moments (Debye-Ang^3)
      XXXX    -134.7024   XXXY     -83.7555   XXYY    -385.4688
      XYYY     -62.3613   YYYY   -2048.3159   XXXZ      71.4091
      XXYZ     281.4626   XYYZ      11.0655   YYYZ     672.8703
      XXZZ    -638.3045   XYZZ       0.5063   YYZZ    -628.1232
      XZZZ      45.1778   YZZZ     521.4965   ZZZZ   -3713.7821
 -----------------------------------------------------------------
 Total job time:  57.24s(wall), 1957.88s(cpu) 
 Tue Jan  9 10:03:22 2024

        *************************************************************
        *                                                           *
        *  Thank you very much for using Q-Chem.  Have a nice day.  *
        *                                                           *
        *************************************************************


0 sent ACK to 0 
now end server 0 ... 
cleanup process ... done
remove work dirs ./qchem2527787.0 -- ./qchem2527787.0
rm -rf ./qchem2527787.0
rm -rf ./qchem2527787
