You are running Q-Chem version: 5.4.0

#
# job setting
#
local host:  exp-14-37
current dir: /home/rramji/project-csd799/aromodel/ptb7fout-qchem/methylated-rotation-run
input file:  Dimethoxy_Benzodithiophene_Phi_40_Theta_240_Methylcarbonyl_3_Fluoro_Thienothiophene_Hydrogenated_Improper.qcin
output file: 
nprocs     : 1
nthreads   : 64
#
# qchem installation setting
#
QC:          /cm/shared/apps/spack/cpu/opt/spack/linux-centos8-zen2/gcc-10.2.0/qchem-5.4-akfmr7b3t57bfs6qan3padb2wnb2i7cl
QCAUX:       /cm/shared/apps/spack/cpu/opt/spack/linux-centos8-zen2/gcc-10.2.0/qchem-5.4-akfmr7b3t57bfs6qan3padb2wnb2i7cl/qcaux
QCPROG:      /cm/shared/apps/spack/cpu/opt/spack/linux-centos8-zen2/gcc-10.2.0/qchem-5.4-akfmr7b3t57bfs6qan3padb2wnb2i7cl/exe/qcprog.exe
QCPROG_S:    /cm/shared/apps/spack/cpu/opt/spack/linux-centos8-zen2/gcc-10.2.0/qchem-5.4-akfmr7b3t57bfs6qan3padb2wnb2i7cl/exe/qcprog.exe_s
PARALLEL:    -DPARALLEL
QCMPI:       mpich
#
# qchem directory setting
#
qcrun:       qchem4065288
QCSCRATCH:   .
QCLOCALSCR:  
QCTMPDIR:    .
QCFILEPREF:  ./qchem4065288
QCSAVEDIR:   
workdirs:    ./qchem4065288
workdir0:    ./qchem4065288
partmpdirs =  
#
# parallel setting
#
QCRSH:           ssh
QCMPI:           mpich
QCMPIRUN:        /cm/shared/apps/spack/cpu/opt/spack/linux-centos8-zen2/gcc-10.2.0/qchem-5.4-akfmr7b3t57bfs6qan3padb2wnb2i7cl/bin/mpi/mpirun_qchem
QCMACHINEFILE:   ./qchem4065288/hostfile
exp-14-37

#
# env setting
#
exported envs:   QC QCAUX QCSCRATCH QCRUNNAME QCFILEPREF QCPROG QCPROG_S GUIFILE

Running Job 1 of 1 Dimethoxy_Benzodithiophene_Phi_40_Theta_240_Methylcarbonyl_3_Fluoro_Thienothiophene_Hydrogenated_Improper.qcin
qchem Dimethoxy_Benzodithiophene_Phi_40_Theta_240_Methylcarbonyl_3_Fluoro_Thienothiophene_Hydrogenated_Improper.qcin_4065288.0 ./qchem4065288/ 1
/cm/shared/apps/spack/cpu/opt/spack/linux-centos8-zen2/gcc-10.2.0/qchem-5.4-akfmr7b3t57bfs6qan3padb2wnb2i7cl/bin/mpi/mpirun_qchem -machinefile ./qchem4065288/hostfile -np 1 /cm/shared/apps/spack/cpu/opt/spack/linux-centos8-zen2/gcc-10.2.0/qchem-5.4-akfmr7b3t57bfs6qan3padb2wnb2i7cl/exe/qcprog.exe Dimethoxy_Benzodithiophene_Phi_40_Theta_240_Methylcarbonyl_3_Fluoro_Thienothiophene_Hydrogenated_Improper.qcin_4065288.0 ./qchem4065288/

Process 0 of 1 is on exp-14-37 - thread support 0
initial socket setup ...start
initial socket setup ...done 
now start server 0 ... 
                  Welcome to Q-Chem
     A Quantum Leap Into The Future Of Chemistry


 Q-Chem 5.4, Q-Chem, Inc., Pleasanton, CA (2021)

 License issued to: University of California, San Diego (site)

 E. Epifanovsky,  A. T. B. Gilbert,  Xintian Feng,  Joonho Lee,  Yuezhi Mao,  
 N. Mardirossian,  P. Pokhilko,  A. White,  M. Wormit,  M. P. Coons,  
 A. L. Dempwolff,  Zhengting Gan,  D. Hait,  P. R. Horn,  L. D. Jacobson,  
 I. Kaliman,  J. Kussmann,  A. W. Lange,  Ka Un Lao,  D. S. Levine,  Jie Liu,  
 S. C. McKenzie,  A. F. Morrison,  K. Nanda,  F. Plasser,  D. R. Rehn,  
 M. L. Vidal,  Zhi-Qiang You,  Ying Zhu,  B. Alam,  B. Albrecht,  
 A. Aldossary,  E. Alguire,  J. H. Andersen,  D. Barton,  K. Begam,  A. Behn,  
 Y. A. Bernard,  E. J. Berquist,  H. Burton,  A. Carreras,  K. Carter-Fenk,  
 R. Chakraborty,  A. D. Chien,  K. D. Closser,  V. Cofer-Shabica,  
 S. Dasgupta,  Jia Deng,  M. de Wergifosse,  M. Diedenhofen,  Hainam Do,  
 S. Ehlert,  Po-Tung Fang,  S. Fatehi,  Qingguo Feng,  J. Gayvert,  
 Qinghui Ge,  G. Gidofalvi,  M. Goldey,  J. Gomes,  C. Gonzalez-Espinoza,  
 S. Gulania,  A. Gunina,  M. W. D. Hanson-Heine,  P. H. P. Harbach,  
 A. W. Hauser,  M. F. Herbst,  M. Hernandez Vera,  M. Hodecker,  
 Z. C. Holden,  S. Houck,  Xunkun Huang,  Kerwin Hui,  B. C. Huynh,  
 M. Ivanov,  Hyunjun Ji,  Hanjie Jiang,  B. Kaduk,  S. Kaehler,  
 K. Khistyaev,  Jaehoon Kim,  P. Klunzinger,  Z. Koczor-Benda,  
 Joong Hoon Koh,  D. Kosenkov,  L. Koulias,  T. Kowalczyk,  C. M. Krauter,  
 K. Kue,  A. Kunitsa,  T. Kus,  A. Landau,  K. V. Lawler,  D. Lefrancois,  
 S. Lehtola,  Rain Li,  Yi-Pei Li,  Jiashu Liang,  M. Liebenthal,  
 Hung-Hsuan Lin,  You-Sheng Lin,  Fenglai Liu,  Kuan-Yu Liu,  
 M. Loipersberger,  A. Luenser,  A. Manjanath,  P. Manohar,  E. Mansoor,  
 S. F. Manzer,  Shan-Ping Mao,  A. V. Marenich,  T. Markovich,  S. Mason,  
 S. A. Maurer,  P. F. McLaughlin,  M. F. S. J. Menger,  J.-M. Mewes,  
 S. A. Mewes,  P. Morgante,  J. W. Mullinax,  T. S. Nguyen-Beck,  
 K. J. Oosterbaan,  G. Paran,  Alexander C. Paul,  Suranjan K. Paul,  
 F. Pavosevic,  Zheng Pei,  S. Prager,  E. I. Proynov,  E. Ramos,  B. Rana,  
 A. E. Rask,  A. Rettig,  R. M. Richard,  F. Rob,  E. Rossomme,  T. Scheele,  
 M. Scheurer,  M. Schneider,  N. Sergueev,  S. M. Sharada,  W. Skomorowski,  
 D. W. Small,  C. J. Stein,  Yu-Chuan Su,  E. J. Sundstrom,  Zhen Tao,  
 J. Thirman,  T. Tsuchimochi,  N. M. Tubman,  S. P. Veccham,  O. Vydrov,  
 J. Wenzel,  J. Witte,  A. Yamada,  Kun Yao,  S. Yeganeh,  S. R. Yost,  
 A. Zech,  Igor Ying Zhang,  Xing Zhang,  Yu Zhang,  D. Zuev,  
 A. Aspuru-Guzik,  A. T. Bell,  N. A. Besley,  K. B. Bravaya,  B. R. Brooks,  
 D. Casanova,  Jeng-Da Chai,  S. Coriani,  C. J. Cramer,  
 A. E. DePrince, III,  R. A. DiStasio Jr.,  A. Dreuw,  B. D. Dunietz,  
 T. R. Furlani,  W. A. Goddard III,  S. Grimme,  S. Hammes-Schiffer,  
 T. Head-Gordon,  W. J. Hehre,  Chao-Ping Hsu,  T.-C. Jagau,  Yousung Jung,  
 A. Klamt,  Jing Kong,  D. S. Lambrecht,  WanZhen Liang,  N. J. Mayhall,  
 C. W. McCurdy,  J. B. Neaton,  C. Ochsenfeld,  J. A. Parkhill,  R. Peverati,  
 V. A. Rassolov,  Yihan Shao,  L. V. Slipchenko,  T. Stauch,  R. P. Steele,  
 J. E. Subotnik,  A. J. W. Thom,  A. Tkatchenko,  D. G. Truhlar,  
 T. Van Voorhis,  T. A. Wesolowski,  K. B. Whaley,  H. L. Woodcock III,  
 P. M. Zimmerman,  S. Faraji,  P. M. W. Gill,  M. Head-Gordon,  
 J. M. Herbert,  A. I. Krylov

 Contributors to earlier versions of Q-Chem not listed above: 
 R. D. Adamson,  B. Austin,  R. Baer,  J. Baker,  G. J. O. Beran,  
 K. Brandhorst,  S. T. Brown,  E. F. C. Byrd,  A. K. Chakraborty,  
 G. K. L. Chan,  Chun-Min Chang,  Yunqing Chen,  C.-L. Cheng,  
 Siu Hung Chien,  D. M. Chipman,  D. L. Crittenden,  H. Dachsel,  
 R. J. Doerksen,  A. D. Dutoi,  R. G. Edgar,  J. Fosso-Tande,  
 L. Fusti-Molnar,  D. Ghosh,  A. Ghysels,  A. Golubeva-Zadorozhnaya,  
 J. Gonthier,  M. S. Gordon,  S. R. Gwaltney,  G. Hawkins,  J. E. Herr,  
 A. Heyden,  S. Hirata,  E. G. Hohenstein,  G. Kedziora,  F. J. Keil,  
 C. Kelley,  Jihan Kim,  R. A. King,  R. Z. Khaliullin,  P. P. Korambath,  
 W. Kurlancheek,  A. Laurent,  A. M. Lee,  M. S. Lee,  S. V. Levchenko,  
 Ching Yeh Lin,  D. Liotard,  E. Livshits,  R. C. Lochan,  I. Lotan,  
 L. A. Martinez-Martinez,  P. E. Maslen,  N. Nair,  D. P. O'Neill,  
 D. Neuhauser,  E. Neuscamman,  C. M. Oana,  R. Olivares-Amaya,  R. Olson,  
 T. M. Perrine,  B. Peters,  P. A. Pieniazek,  A. Prociuk,  Y. M. Rhee,  
 J. Ritchie,  M. A. Rohrdanz,  E. Rosta,  N. J. Russ,  H. F. Schaefer III,  
 M. W. Schmidt,  N. E. Schultz,  S. Sharma,  N. Shenvi,  C. D. Sherrill,  
 A. C. Simmonett,  A. Sodt,  T. Stein,  D. Stuck,  K. S. Thanthiriwatte,  
 V. Vanovschi,  L. Vogt,  Tao Wang,  A. Warshel,  M. A. Watson,  
 C. F. Williams,  Q. Wu,  X. Xu,  Jun Yang,  W. Zhang,  Yan Zhao

 Please cite Q-Chem as follows:
 Y. Shao et al., Mol. Phys. 113, 184-215 (2015)
 DOI: 10.1080/00268976.2014.952696

 Q-Chem 5.4.0 for Intel X86 EM64T Linux

 Parts of Q-Chem use Armadillo 9.800.1 (Horizon Scraper).
 http://arma.sourceforge.net/

 Q-Chem begins on Tue Jan  9 10:14:33 2024  

 Host: 
0

     Scratch files written to ./qchem4065288//
 May1621 |scratch|qcdevops|jenkins|workspace|build_RNUM    
 Parallel job on  1  processors
 Processing $rem in /cm/shared/apps/spack/cpu/opt/spack/linux-centos8-zen2/gcc-10.2.0/qchem-5.4-akfmr7b3t57bfs6qan3padb2wnb2i7cl/config/preferences:
 Processing $rem in /home/rramji/.qchemrc:
 Symmetry turned off for PCM/SM12/SMD calculation
 Core orbitals will be frozen

 Checking the input file for inconsistencies... 	...done.

 Q-Chem warning in module forms1/BasisType.C, line 2236:

 You are not using the predefined 5D/6D in this basis set.


--------------------------------------------------------------
User input:
--------------------------------------------------------------
$molecule
0 1
C	-0.667320	-0.747937	0.977832
S	-0.085420	-0.055137	2.485332
C	0.924880	1.149963	1.696732
C	-0.085420	-0.055537	-0.090068
C	0.806380	1.010863	0.291432
S	-0.239720	-0.244037	-1.827668
C	0.881980	1.101463	-2.076668
C	1.335380	1.645563	-0.884768
F	2.190880	2.672563	-0.841268
C	1.171380	1.443363	-3.478268
O	0.682680	0.848563	-4.428668
O	2.033780	2.482763	-3.591368
C	2.355980	2.858663	-4.938368
H	3.058380	3.706563	-4.855268
H	1.444780	3.162063	-5.492368
H	2.827980	2.015063	-5.481468
C	-0.667320	-2.183137	0.977832
H	-1.213720	-2.191137	0.046332
H	0.060580	-2.861037	0.557232
H	-1.478320	-2.714237	1.453732
H	1.517880	1.858863	2.284332
$end

$rem
JOBTYPE		SP
EXCHANGE	HF
CORRELATION	pRIMP2
BASIS		cc-pvtz
METHOD		rimp2
AUX_BASIS	rimp2-cc-pvtz
SOLVENT_METHOD	PCM
PURECART	11111
SYMMETRY	false
MEM_TOTAL	110000
SCF_CONVERGENCE = 6
THRESH=10
GUI = 2
$end



$solvent
dielectric 4.90
$end
--------------------------------------------------------------
 ----------------------------------------------------------------
             Standard Nuclear Orientation (Angstroms)
    I     Atom           X                Y                Z
 ----------------------------------------------------------------
    1      C      -0.6673200000    -0.7479370000     0.9778320000
    2      S      -0.0854200000    -0.0551370000     2.4853320000
    3      C       0.9248800000     1.1499630000     1.6967320000
    4      C      -0.0854200000    -0.0555370000    -0.0900680000
    5      C       0.8063800000     1.0108630000     0.2914320000
    6      S      -0.2397200000    -0.2440370000    -1.8276680000
    7      C       0.8819800000     1.1014630000    -2.0766680000
    8      C       1.3353800000     1.6455630000    -0.8847680000
    9      F       2.1908800000     2.6725630000    -0.8412680000
   10      C       1.1713800000     1.4433630000    -3.4782680000
   11      O       0.6826800000     0.8485630000    -4.4286680000
   12      O       2.0337800000     2.4827630000    -3.5913680000
   13      C       2.3559800000     2.8586630000    -4.9383680000
   14      H       3.0583800000     3.7065630000    -4.8552680000
   15      H       1.4447800000     3.1620630000    -5.4923680000
   16      H       2.8279800000     2.0150630000    -5.4814680000
   17      C      -0.6673200000    -2.1831370000     0.9778320000
   18      H      -1.2137200000    -2.1911370000     0.0463320000
   19      H       0.0605800000    -2.8610370000     0.5572320000
   20      H      -1.4783200000    -2.7142370000     1.4537320000
   21      H       1.5178800000     1.8588630000     2.2843320000
 ----------------------------------------------------------------
 Nuclear Repulsion Energy =        1087.02146852 hartrees
 There are       59 alpha and       59 beta electrons
 Requested basis set is cc-pVTZ
 There are 186 shells and 526 basis functions

 Total QAlloc Memory Limit 110000 MB
 Mega-Array Size       188 MB
 MEM_STATIC part       192 MB
 Discretize the solute cavity surface with Lebedev spheres
	Using 110 Lebedev grid points for each H atom
	Using 194 Lebedev grid points for other atoms
	Atomic van der Waals radii will be scaled by 1.20
 Remove points where switching function is < 1.0e-08
 Keep 1532 surface tesserae and discard 1954 interior tesserae
 Molecular Surface Area = 241.484 Angst**2
 Requested basis set is rimp2-cc-pVTZ
 There are 410 shells and 1426 basis functions
 A cutoff of  1.0D-10 yielded  11639 shell pairs
 There are     91257 function pairs (    119403 Cartesian)
 Smallest overlap matrix eigenvalue = 6.51E-05

 Scale SEOQF with 1.000000e-01/1.000000e-01/1.000000e-02

 Standard Electronic Orientation quadrupole field applied
 Nucleus-field energy     =     0.0000000195 hartrees
 Guess from superposition of atomic densities
 Warning:  Energy on first SCF cycle will be non-variational
 SAD guess density has 118.000000 electrons

 -----------------------------------------------------------------------
  General SCF calculation program by
  Eric Jon Sundstrom, Paul Horn, Yuezhi Mao, Dmitri Zuev, Alec White,
  David Stuck, Shaama M.S., Shane Yost, Joonho Lee, David Small,
  Daniel Levine, Susi Lehtola, Hugh Burton, Evgeny Epifanovsky,
  Bang C. Huynh
 -----------------------------------------------------------------------
 Hartree-Fock
 using 64 threads for integral computing
 -------------------------------------------------------
 OpenMP Integral computing Module                
 Release: version 1.0, May 2013, Q-Chem Inc. Pittsburgh 
 -------------------------------------------------------
 A restricted SCF calculation will be
 performed using DIIS
 SCF converges when DIIS error is below 1.0e-06
 ---------------------------------------
  Cycle       Energy         DIIS error
 ---------------------------------------
    1   -1394.2765968978      2.47e-02  
    2   -1389.0035449483      2.48e-03  
    3   -1389.1738081165      1.56e-03  
    4   -1389.2355002289      3.53e-04  
    5   -1389.2413145373      1.11e-04  
    6   -1389.2419894363      3.59e-05  
    7   -1389.2421310570      1.81e-05  
    8   -1389.2421794437      7.01e-06  
    9   -1389.2421900074      3.03e-06  
   10   -1389.2421915678      1.15e-06  
   11   -1389.2421918114      4.76e-07  Convergence criterion met
 ---------------------------------------
 SCF time:   CPU 1652.12s  wall 51.00s 

************** Final PCM Free Energy Summary **************
 G_electrostatic  =      -0.01126615 hartree =      -7.06961651 kcal/mol
 G_cavitation     =       0.00000000 hartree =       0.00000000 kcal/mol
 G_dispersion     =       0.00000000 hartree =       0.00000000 kcal/mol
 G_repulsion      =       0.00000000 hartree =       0.00000000 kcal/mol
 --------------------------------------------------
 Non-electrostatic Free Energy =       0.00000000 hartree =       0.00000000 kcal/mol
 Total                         =      -0.01126615 hartree =      -7.06961651 kcal/mol
 --------------------------------------------------
 SCF Energy (H0 + V/2)                       =   -1389.24219181 
 Solute Internal Energy (H0)                 =   -1389.23092566 
 Total Free Energy (H0 + V/2 + non-elec)     =   -1389.24219181 hartree
                                             = -871762.63287448 kcal/mol
***********************************************************

 SCF   energy in the final basis set =    -1389.2421918114
 Total energy in the final basis set =    -1389.2421918114


 --------------------------------------------------------------
  Generalized many-body perturbation theory program
  by Joonho Lee, Fazle Rob, Xintian Feng, Evgeny Epifanovsky

 No regularization used 
 (reg. param. = 0.0000e+00)
  (P|Q)^-1/2 Time:  CPU 49.13 s  wall 0.84 s

 In RI-MP2 calculation: 
 # of frozen core orbitals: 22

 Components of the RIMP2 correlation energy:
        aaaa    correlation energy =        -0.3296632976 a.u.
        abab    correlation energy =        -1.8525143919 a.u.
        bbbb    correlation energy =        -0.3296632976 a.u.
        non-Brillouin singles      =        -0.0000000000 a.u.
        total same-spin energy     =        -0.6593265952 a.u.
        total opposite-spin energy =        -1.8525143919 a.u.

 Total  RIMP2   correlation energy =        -2.5118409871 a.u.
        RIMP2         total energy =     -1391.7540327986 a.u.

 RI-MP2 Energy Time:  CPU 205.60 s  wall 3.85 s
 
 --------------------------------------------------------------
 
                    Orbital Energies (a.u.)
 --------------------------------------------------------------
 
 Alpha MOs
 -- Occupied --
-92.0002 -91.9986 -26.3425 -20.6140 -20.5601 -11.4083 -11.3816 -11.3111
-11.2983 -11.2948 -11.2885 -11.2803 -11.2771 -11.2202  -8.9998  -8.9985
 -6.6806  -6.6797  -6.6795  -6.6794  -6.6788  -6.6778  -1.6596  -1.4664
 -1.3691  -1.2171  -1.1376  -1.0681  -1.0200  -0.9928  -0.9591  -0.9119
 -0.8647  -0.8071  -0.7902  -0.7600  -0.7306  -0.7244  -0.6958  -0.6839
 -0.6733  -0.6615  -0.6103  -0.6000  -0.5924  -0.5800  -0.5632  -0.5576
 -0.5324  -0.5295  -0.5085  -0.4904  -0.4751  -0.4723  -0.4689  -0.4418
 -0.3874  -0.3450  -0.2934
 -- Virtual --
  0.0358   0.0943   0.1369   0.1508   0.1572   0.1742   0.1863   0.1925
  0.2136   0.2152   0.2199   0.2286   0.2354   0.2407   0.2557   0.2640
  0.2869   0.3008   0.3114   0.3381   0.3438   0.3547   0.3808   0.3850
  0.3880   0.3981   0.4028   0.4150   0.4247   0.4289   0.4368   0.4388
  0.4567   0.4653   0.4684   0.4777   0.4874   0.4985   0.5092   0.5171
  0.5252   0.5303   0.5356   0.5427   0.5437   0.5598   0.5685   0.5845
  0.5863   0.5942   0.5995   0.6097   0.6149   0.6181   0.6239   0.6251
  0.6385   0.6546   0.6584   0.6659   0.6722   0.6808   0.6961   0.7041
  0.7148   0.7166   0.7270   0.7363   0.7512   0.7633   0.7773   0.7998
  0.8109   0.8171   0.8327   0.8437   0.8516   0.8656   0.8681   0.8785
  0.8873   0.9019   0.9131   0.9193   0.9433   0.9505   0.9592   0.9674
  0.9812   0.9914   0.9992   1.0110   1.0177   1.0250   1.0387   1.0574
  1.0597   1.0654   1.0941   1.0966   1.1046   1.1054   1.1167   1.1224
  1.1348   1.1525   1.1647   1.1710   1.1785   1.1874   1.1962   1.2102
  1.2262   1.2337   1.2474   1.2585   1.2650   1.2705   1.2989   1.3040
  1.3113   1.3191   1.3417   1.3584   1.3599   1.3853   1.3954   1.4080
  1.4101   1.4325   1.4451   1.4585   1.4743   1.4871   1.4894   1.5034
  1.5158   1.5265   1.5403   1.5513   1.5699   1.5813   1.5841   1.5993
  1.6176   1.6422   1.6532   1.6681   1.6786   1.6994   1.7033   1.7244
  1.7526   1.7708   1.7878   1.7940   1.8152   1.8220   1.8277   1.8597
  1.8722   1.8819   1.8950   1.9252   1.9351   1.9424   1.9571   1.9603
  1.9785   1.9947   2.0151   2.0339   2.0508   2.0826   2.0884   2.1010
  2.1074   2.1494   2.1629   2.1768   2.1963   2.1974   2.2127   2.2204
  2.2295   2.2376   2.2564   2.2679   2.2881   2.2965   2.3314   2.3383
  2.3549   2.3707   2.3797   2.4160   2.4307   2.4381   2.4659   2.4838
  2.4996   2.5366   2.5462   2.5572   2.5827   2.5961   2.6251   2.6357
  2.6433   2.6552   2.6577   2.6750   2.6878   2.6942   2.7063   2.7111
  2.7296   2.7463   2.7593   2.7625   2.7857   2.8001   2.8110   2.8268
  2.8451   2.8469   2.8709   2.8836   2.9142   2.9221   2.9372   2.9519
  2.9702   2.9836   2.9919   2.9997   3.0234   3.0263   3.0392   3.0694
  3.0775   3.0843   3.0917   3.0951   3.1027   3.1220   3.1283   3.1483
  3.1578   3.1847   3.1870   3.2059   3.2126   3.2189   3.2351   3.2420
  3.2563   3.2656   3.2704   3.2764   3.2870   3.3168   3.3197   3.3356
  3.3457   3.3524   3.3585   3.3693   3.3813   3.3970   3.4055   3.4198
  3.4245   3.4303   3.4405   3.4411   3.4684   3.4727   3.4752   3.4836
  3.5070   3.5147   3.5327   3.5432   3.5545   3.5582   3.5673   3.5752
  3.5890   3.5988   3.6024   3.6131   3.6297   3.6388   3.6532   3.6730
  3.6851   3.6934   3.6951   3.7060   3.7213   3.7301   3.7395   3.7471
  3.7830   3.7861   3.7908   3.8032   3.8102   3.8203   3.8314   3.8431
  3.8559   3.8634   3.8725   3.8852   3.8893   3.9012   3.9228   3.9281
  3.9513   3.9665   3.9848   3.9928   4.0024   4.0080   4.0329   4.0593
  4.0682   4.0755   4.0939   4.1218   4.1435   4.1625   4.1657   4.1675
  4.1830   4.2049   4.2166   4.2247   4.2478   4.2998   4.3383   4.3421
  4.3575   4.3596   4.3667   4.3892   4.4031   4.4179   4.4242   4.4365
  4.4539   4.4673   4.5154   4.5358   4.5459   4.5761   4.5831   4.6039
  4.6079   4.6414   4.6522   4.6597   4.6737   4.6921   4.7352   4.7433
  4.7647   4.7721   4.8074   4.8233   4.8458   4.8654   4.8966   4.9231
  4.9246   4.9582   5.0048   5.0093   5.0306   5.0739   5.1061   5.1177
  5.1401   5.1679   5.1946   5.2358   5.2528   5.2560   5.2610   5.3507
  5.3573   5.4032   5.4222   5.4266   5.4639   5.4853   5.5133   5.5296
  5.5404   5.5810   5.6087   5.6226   5.6611   5.6910   5.7259   5.7527
  5.8045   5.8082   5.8311   5.8917   5.9242   5.9303   5.9520   5.9892
  6.0421   6.0839   6.1394   6.1509   6.1836   6.2597   6.2621   6.4056
  6.4509   6.4566   6.5382   6.6005   6.6616   6.6723   6.7460   6.8303
  6.8605   6.9790   7.2047   7.2055   7.3108   7.3638   7.3639   7.4060
  7.4141   7.4864   7.5215   7.5505   7.6156   7.7738   7.7897   7.8947
  7.9584   8.1341   8.2227   8.9227   9.0185   9.3637   9.4733   9.6592
 10.1657  11.1464  11.6874  11.8500  12.4124  12.7431  13.0595  13.3857
 13.7685  14.0285  14.4421
 --------------------------------------------------------------
 
          Ground-State Mulliken Net Atomic Charges

     Atom                 Charge (a.u.)
  ----------------------------------------
      1 C                    -0.041056
      2 S                     0.083072
      3 C                    -0.176775
      4 C                     0.004539
      5 C                    -0.098897
      6 S                     0.016024
      7 C                    -0.157890
      8 C                     0.391982
      9 F                    -0.206717
     10 C                     0.447216
     11 O                    -0.463252
     12 O                    -0.301333
     13 C                    -0.058418
     14 H                     0.121170
     15 H                     0.094929
     16 H                     0.094706
     17 C                    -0.364617
     18 H                     0.112125
     19 H                     0.153834
     20 H                     0.136173
     21 H                     0.213183
  ----------------------------------------
  Sum of atomic charges =     0.000000

 -----------------------------------------------------------------
                    Cartesian Multipole Moments
 -----------------------------------------------------------------
    Charge (ESU x 10^10)
                -0.0000
    Dipole Moment (Debye)
         X       1.5492      Y       0.7646      Z       2.4312
       Tot       2.9825
    Quadrupole Moments (Debye-Ang)
        XX     -91.9774     XY       6.3648     YY     -86.8453
        XZ      -4.9894     YZ      -5.9367     ZZ     -97.4293
    Octopole Moments (Debye-Ang^2)
       XXX    -161.4108    XXY     -55.9014    XYY     -51.2002
       YYY    -180.2967    XXZ      66.5024    XYZ     -15.6493
       YYZ      59.7265    XZZ      -5.1113    YZZ       2.3819
       ZZZ     267.6189
    Hexadecapole Moments (Debye-Ang^3)
      XXXX    -851.3994   XXXY    -452.8397   XXYY    -350.6246
      XYYY    -440.1298   YYYY   -1368.9583   XXXZ     479.5497
      XXYZ     168.1188   XYYZ     109.3462   YYYZ     588.7457
      XXZZ    -618.0123   XYZZ      13.4884   YYZZ    -650.6923
      XZZZ     313.1863   YZZZ     412.4476   ZZZZ   -3703.4105
 -----------------------------------------------------------------
 Total job time:  57.28s(wall), 1947.16s(cpu) 
 Tue Jan  9 10:15:30 2024

        *************************************************************
        *                                                           *
        *  Thank you very much for using Q-Chem.  Have a nice day.  *
        *                                                           *
        *************************************************************


0 sent ACK to 0 
now end server 0 ... 
cleanup process ... done
remove work dirs ./qchem4065288.0 -- ./qchem4065288.0
rm -rf ./qchem4065288.0
rm -rf ./qchem4065288
