You are running Q-Chem version: 5.4.0

#
# job setting
#
local host:  exp-7-25
current dir: /home/rramji/project-csd799/aromodel/ptb7fout-qchem/methylated-rotation-run
input file:  Dimethoxy_Benzodithiophene_Phi_30_Theta_160_Methylcarbonyl_3_Fluoro_Thienothiophene_Hydrogenated_Improper.qcin
output file: 
nprocs     : 1
nthreads   : 64
#
# qchem installation setting
#
QC:          /cm/shared/apps/spack/cpu/opt/spack/linux-centos8-zen2/gcc-10.2.0/qchem-5.4-akfmr7b3t57bfs6qan3padb2wnb2i7cl
QCAUX:       /cm/shared/apps/spack/cpu/opt/spack/linux-centos8-zen2/gcc-10.2.0/qchem-5.4-akfmr7b3t57bfs6qan3padb2wnb2i7cl/qcaux
QCPROG:      /cm/shared/apps/spack/cpu/opt/spack/linux-centos8-zen2/gcc-10.2.0/qchem-5.4-akfmr7b3t57bfs6qan3padb2wnb2i7cl/exe/qcprog.exe
QCPROG_S:    /cm/shared/apps/spack/cpu/opt/spack/linux-centos8-zen2/gcc-10.2.0/qchem-5.4-akfmr7b3t57bfs6qan3padb2wnb2i7cl/exe/qcprog.exe_s
PARALLEL:    -DPARALLEL
QCMPI:       mpich
#
# qchem directory setting
#
qcrun:       qchem962408
QCSCRATCH:   .
QCLOCALSCR:  
QCTMPDIR:    .
QCFILEPREF:  ./qchem962408
QCSAVEDIR:   
workdirs:    ./qchem962408
workdir0:    ./qchem962408
partmpdirs =  
#
# parallel setting
#
QCRSH:           ssh
QCMPI:           mpich
QCMPIRUN:        /cm/shared/apps/spack/cpu/opt/spack/linux-centos8-zen2/gcc-10.2.0/qchem-5.4-akfmr7b3t57bfs6qan3padb2wnb2i7cl/bin/mpi/mpirun_qchem
QCMACHINEFILE:   ./qchem962408/hostfile
exp-7-25

#
# env setting
#
exported envs:   QC QCAUX QCSCRATCH QCRUNNAME QCFILEPREF QCPROG QCPROG_S GUIFILE

Running Job 1 of 1 Dimethoxy_Benzodithiophene_Phi_30_Theta_160_Methylcarbonyl_3_Fluoro_Thienothiophene_Hydrogenated_Improper.qcin
qchem Dimethoxy_Benzodithiophene_Phi_30_Theta_160_Methylcarbonyl_3_Fluoro_Thienothiophene_Hydrogenated_Improper.qcin_962408.0 ./qchem962408/ 1
/cm/shared/apps/spack/cpu/opt/spack/linux-centos8-zen2/gcc-10.2.0/qchem-5.4-akfmr7b3t57bfs6qan3padb2wnb2i7cl/bin/mpi/mpirun_qchem -machinefile ./qchem962408/hostfile -np 1 /cm/shared/apps/spack/cpu/opt/spack/linux-centos8-zen2/gcc-10.2.0/qchem-5.4-akfmr7b3t57bfs6qan3padb2wnb2i7cl/exe/qcprog.exe Dimethoxy_Benzodithiophene_Phi_30_Theta_160_Methylcarbonyl_3_Fluoro_Thienothiophene_Hydrogenated_Improper.qcin_962408.0 ./qchem962408/

Process 0 of 1 is on exp-7-25 - thread support 0
initial socket setup ...start
initial socket setup ...done 
now start server 0 ... 
                  Welcome to Q-Chem
     A Quantum Leap Into The Future Of Chemistry


 Q-Chem 5.4, Q-Chem, Inc., Pleasanton, CA (2021)

 License issued to: University of California, San Diego (site)

 E. Epifanovsky,  A. T. B. Gilbert,  Xintian Feng,  Joonho Lee,  Yuezhi Mao,  
 N. Mardirossian,  P. Pokhilko,  A. White,  M. Wormit,  M. P. Coons,  
 A. L. Dempwolff,  Zhengting Gan,  D. Hait,  P. R. Horn,  L. D. Jacobson,  
 I. Kaliman,  J. Kussmann,  A. W. Lange,  Ka Un Lao,  D. S. Levine,  Jie Liu,  
 S. C. McKenzie,  A. F. Morrison,  K. Nanda,  F. Plasser,  D. R. Rehn,  
 M. L. Vidal,  Zhi-Qiang You,  Ying Zhu,  B. Alam,  B. Albrecht,  
 A. Aldossary,  E. Alguire,  J. H. Andersen,  D. Barton,  K. Begam,  A. Behn,  
 Y. A. Bernard,  E. J. Berquist,  H. Burton,  A. Carreras,  K. Carter-Fenk,  
 R. Chakraborty,  A. D. Chien,  K. D. Closser,  V. Cofer-Shabica,  
 S. Dasgupta,  Jia Deng,  M. de Wergifosse,  M. Diedenhofen,  Hainam Do,  
 S. Ehlert,  Po-Tung Fang,  S. Fatehi,  Qingguo Feng,  J. Gayvert,  
 Qinghui Ge,  G. Gidofalvi,  M. Goldey,  J. Gomes,  C. Gonzalez-Espinoza,  
 S. Gulania,  A. Gunina,  M. W. D. Hanson-Heine,  P. H. P. Harbach,  
 A. W. Hauser,  M. F. Herbst,  M. Hernandez Vera,  M. Hodecker,  
 Z. C. Holden,  S. Houck,  Xunkun Huang,  Kerwin Hui,  B. C. Huynh,  
 M. Ivanov,  Hyunjun Ji,  Hanjie Jiang,  B. Kaduk,  S. Kaehler,  
 K. Khistyaev,  Jaehoon Kim,  P. Klunzinger,  Z. Koczor-Benda,  
 Joong Hoon Koh,  D. Kosenkov,  L. Koulias,  T. Kowalczyk,  C. M. Krauter,  
 K. Kue,  A. Kunitsa,  T. Kus,  A. Landau,  K. V. Lawler,  D. Lefrancois,  
 S. Lehtola,  Rain Li,  Yi-Pei Li,  Jiashu Liang,  M. Liebenthal,  
 Hung-Hsuan Lin,  You-Sheng Lin,  Fenglai Liu,  Kuan-Yu Liu,  
 M. Loipersberger,  A. Luenser,  A. Manjanath,  P. Manohar,  E. Mansoor,  
 S. F. Manzer,  Shan-Ping Mao,  A. V. Marenich,  T. Markovich,  S. Mason,  
 S. A. Maurer,  P. F. McLaughlin,  M. F. S. J. Menger,  J.-M. Mewes,  
 S. A. Mewes,  P. Morgante,  J. W. Mullinax,  T. S. Nguyen-Beck,  
 K. J. Oosterbaan,  G. Paran,  Alexander C. Paul,  Suranjan K. Paul,  
 F. Pavosevic,  Zheng Pei,  S. Prager,  E. I. Proynov,  E. Ramos,  B. Rana,  
 A. E. Rask,  A. Rettig,  R. M. Richard,  F. Rob,  E. Rossomme,  T. Scheele,  
 M. Scheurer,  M. Schneider,  N. Sergueev,  S. M. Sharada,  W. Skomorowski,  
 D. W. Small,  C. J. Stein,  Yu-Chuan Su,  E. J. Sundstrom,  Zhen Tao,  
 J. Thirman,  T. Tsuchimochi,  N. M. Tubman,  S. P. Veccham,  O. Vydrov,  
 J. Wenzel,  J. Witte,  A. Yamada,  Kun Yao,  S. Yeganeh,  S. R. Yost,  
 A. Zech,  Igor Ying Zhang,  Xing Zhang,  Yu Zhang,  D. Zuev,  
 A. Aspuru-Guzik,  A. T. Bell,  N. A. Besley,  K. B. Bravaya,  B. R. Brooks,  
 D. Casanova,  Jeng-Da Chai,  S. Coriani,  C. J. Cramer,  
 A. E. DePrince, III,  R. A. DiStasio Jr.,  A. Dreuw,  B. D. Dunietz,  
 T. R. Furlani,  W. A. Goddard III,  S. Grimme,  S. Hammes-Schiffer,  
 T. Head-Gordon,  W. J. Hehre,  Chao-Ping Hsu,  T.-C. Jagau,  Yousung Jung,  
 A. Klamt,  Jing Kong,  D. S. Lambrecht,  WanZhen Liang,  N. J. Mayhall,  
 C. W. McCurdy,  J. B. Neaton,  C. Ochsenfeld,  J. A. Parkhill,  R. Peverati,  
 V. A. Rassolov,  Yihan Shao,  L. V. Slipchenko,  T. Stauch,  R. P. Steele,  
 J. E. Subotnik,  A. J. W. Thom,  A. Tkatchenko,  D. G. Truhlar,  
 T. Van Voorhis,  T. A. Wesolowski,  K. B. Whaley,  H. L. Woodcock III,  
 P. M. Zimmerman,  S. Faraji,  P. M. W. Gill,  M. Head-Gordon,  
 J. M. Herbert,  A. I. Krylov

 Contributors to earlier versions of Q-Chem not listed above: 
 R. D. Adamson,  B. Austin,  R. Baer,  J. Baker,  G. J. O. Beran,  
 K. Brandhorst,  S. T. Brown,  E. F. C. Byrd,  A. K. Chakraborty,  
 G. K. L. Chan,  Chun-Min Chang,  Yunqing Chen,  C.-L. Cheng,  
 Siu Hung Chien,  D. M. Chipman,  D. L. Crittenden,  H. Dachsel,  
 R. J. Doerksen,  A. D. Dutoi,  R. G. Edgar,  J. Fosso-Tande,  
 L. Fusti-Molnar,  D. Ghosh,  A. Ghysels,  A. Golubeva-Zadorozhnaya,  
 J. Gonthier,  M. S. Gordon,  S. R. Gwaltney,  G. Hawkins,  J. E. Herr,  
 A. Heyden,  S. Hirata,  E. G. Hohenstein,  G. Kedziora,  F. J. Keil,  
 C. Kelley,  Jihan Kim,  R. A. King,  R. Z. Khaliullin,  P. P. Korambath,  
 W. Kurlancheek,  A. Laurent,  A. M. Lee,  M. S. Lee,  S. V. Levchenko,  
 Ching Yeh Lin,  D. Liotard,  E. Livshits,  R. C. Lochan,  I. Lotan,  
 L. A. Martinez-Martinez,  P. E. Maslen,  N. Nair,  D. P. O'Neill,  
 D. Neuhauser,  E. Neuscamman,  C. M. Oana,  R. Olivares-Amaya,  R. Olson,  
 T. M. Perrine,  B. Peters,  P. A. Pieniazek,  A. Prociuk,  Y. M. Rhee,  
 J. Ritchie,  M. A. Rohrdanz,  E. Rosta,  N. J. Russ,  H. F. Schaefer III,  
 M. W. Schmidt,  N. E. Schultz,  S. Sharma,  N. Shenvi,  C. D. Sherrill,  
 A. C. Simmonett,  A. Sodt,  T. Stein,  D. Stuck,  K. S. Thanthiriwatte,  
 V. Vanovschi,  L. Vogt,  Tao Wang,  A. Warshel,  M. A. Watson,  
 C. F. Williams,  Q. Wu,  X. Xu,  Jun Yang,  W. Zhang,  Yan Zhao

 Please cite Q-Chem as follows:
 Y. Shao et al., Mol. Phys. 113, 184-215 (2015)
 DOI: 10.1080/00268976.2014.952696

 Q-Chem 5.4.0 for Intel X86 EM64T Linux

 Parts of Q-Chem use Armadillo 9.800.1 (Horizon Scraper).
 http://arma.sourceforge.net/

 Q-Chem begins on Tue Jan  9 10:05:27 2024  

 Host: 
0

     Scratch files written to ./qchem962408//
 May1621 |scratch|qcdevops|jenkins|workspace|build_RNUM    
 Parallel job on  1  processors
 Processing $rem in /cm/shared/apps/spack/cpu/opt/spack/linux-centos8-zen2/gcc-10.2.0/qchem-5.4-akfmr7b3t57bfs6qan3padb2wnb2i7cl/config/preferences:
 Processing $rem in /home/rramji/.qchemrc:
 Symmetry turned off for PCM/SM12/SMD calculation
 Core orbitals will be frozen

 Checking the input file for inconsistencies... 	...done.

 Q-Chem warning in module forms1/BasisType.C, line 2236:

 You are not using the predefined 5D/6D in this basis set.


--------------------------------------------------------------
User input:
--------------------------------------------------------------
$molecule
0 1
C	-0.517933	-0.851940	0.974891
S	-0.065133	-0.068640	2.482391
C	0.720467	1.293660	1.693791
C	-0.065033	-0.069040	-0.093009
C	0.627967	1.136060	0.288491
S	-0.184333	-0.281440	-1.830609
C	0.686667	1.238360	-2.079609
C	1.038667	1.852960	-0.887709
F	1.702867	3.012960	-0.844209
C	0.912367	1.625360	-3.481209
O	0.534267	0.954660	-4.431609
O	1.581067	2.798760	-3.594309
C	1.833167	3.224860	-4.941309
H	2.377667	4.181860	-4.858209
H	0.883067	3.365460	-5.495309
H	2.444467	2.476060	-5.484409
C	-0.517933	-2.287140	0.974891
H	-1.530233	-2.295140	1.351291
H	-0.805733	-2.965040	0.184991
H	-0.190033	-2.818240	1.856291
H	1.181367	2.094760	2.281391
$end

$rem
JOBTYPE		SP
EXCHANGE	HF
CORRELATION	pRIMP2
BASIS		cc-pvtz
METHOD		rimp2
AUX_BASIS	rimp2-cc-pvtz
SOLVENT_METHOD	PCM
PURECART	11111
SYMMETRY	false
MEM_TOTAL	110000
SCF_CONVERGENCE = 6
THRESH=10
GUI = 2
$end



$solvent
dielectric 4.90
$end
--------------------------------------------------------------
 ----------------------------------------------------------------
             Standard Nuclear Orientation (Angstroms)
    I     Atom           X                Y                Z
 ----------------------------------------------------------------
    1      C      -0.5179330000    -0.8519400000     0.9748910000
    2      S      -0.0651330000    -0.0686400000     2.4823910000
    3      C       0.7204670000     1.2936600000     1.6937910000
    4      C      -0.0650330000    -0.0690400000    -0.0930090000
    5      C       0.6279670000     1.1360600000     0.2884910000
    6      S      -0.1843330000    -0.2814400000    -1.8306090000
    7      C       0.6866670000     1.2383600000    -2.0796090000
    8      C       1.0386670000     1.8529600000    -0.8877090000
    9      F       1.7028670000     3.0129600000    -0.8442090000
   10      C       0.9123670000     1.6253600000    -3.4812090000
   11      O       0.5342670000     0.9546600000    -4.4316090000
   12      O       1.5810670000     2.7987600000    -3.5943090000
   13      C       1.8331670000     3.2248600000    -4.9413090000
   14      H       2.3776670000     4.1818600000    -4.8582090000
   15      H       0.8830670000     3.3654600000    -5.4953090000
   16      H       2.4444670000     2.4760600000    -5.4844090000
   17      C      -0.5179330000    -2.2871400000     0.9748910000
   18      H      -1.5302330000    -2.2951400000     1.3512910000
   19      H      -0.8057330000    -2.9650400000     0.1849910000
   20      H      -0.1900330000    -2.8182400000     1.8562910000
   21      H       1.1813670000     2.0947600000     2.2813910000
 ----------------------------------------------------------------
 Nuclear Repulsion Energy =        1084.26203276 hartrees
 There are       59 alpha and       59 beta electrons
 Requested basis set is cc-pVTZ
 There are 186 shells and 526 basis functions

 Total QAlloc Memory Limit 110000 MB
 Mega-Array Size       188 MB
 MEM_STATIC part       192 MB
 Discretize the solute cavity surface with Lebedev spheres
	Using 110 Lebedev grid points for each H atom
	Using 194 Lebedev grid points for other atoms
	Atomic van der Waals radii will be scaled by 1.20
 Remove points where switching function is < 1.0e-08
 Keep 1551 surface tesserae and discard 1935 interior tesserae
 Molecular Surface Area = 242.320 Angst**2
 Requested basis set is rimp2-cc-pVTZ
 There are 410 shells and 1426 basis functions
 A cutoff of  1.0D-10 yielded  11516 shell pairs
 There are     90350 function pairs (    118262 Cartesian)
 Smallest overlap matrix eigenvalue = 6.30E-05

 Scale SEOQF with 1.000000e-01/1.000000e-01/1.000000e-02

 Standard Electronic Orientation quadrupole field applied
 Nucleus-field energy     =     0.0000000223 hartrees
 Guess from superposition of atomic densities
 Warning:  Energy on first SCF cycle will be non-variational
 SAD guess density has 118.000000 electrons

 -----------------------------------------------------------------------
  General SCF calculation program by
  Eric Jon Sundstrom, Paul Horn, Yuezhi Mao, Dmitri Zuev, Alec White,
  David Stuck, Shaama M.S., Shane Yost, Joonho Lee, David Small,
  Daniel Levine, Susi Lehtola, Hugh Burton, Evgeny Epifanovsky,
  Bang C. Huynh
 -----------------------------------------------------------------------
 Hartree-Fock
 using 64 threads for integral computing
 -------------------------------------------------------
 OpenMP Integral computing Module                
 Release: version 1.0, May 2013, Q-Chem Inc. Pittsburgh 
 -------------------------------------------------------
 A restricted SCF calculation will be
 performed using DIIS
 SCF converges when DIIS error is below 1.0e-06
 ---------------------------------------
  Cycle       Energy         DIIS error
 ---------------------------------------
    1   -1394.2515405723      2.47e-02  
    2   -1389.0142616749      2.47e-03  
    3   -1389.1840606404      1.53e-03  
    4   -1389.2429681104      3.53e-04  
    5   -1389.2487484301      1.12e-04  
    6   -1389.2494387751      3.66e-05  
    7   -1389.2495880778      1.82e-05  
    8   -1389.2496395168      7.08e-06  
    9   -1389.2496503664      3.00e-06  
   10   -1389.2496518476      1.12e-06  
   11   -1389.2496520644      4.75e-07  Convergence criterion met
 ---------------------------------------
 SCF time:   CPU 1722.26s  wall 52.00s 

************** Final PCM Free Energy Summary **************
 G_electrostatic  =      -0.01228524 hartree =      -7.70910237 kcal/mol
 G_cavitation     =       0.00000000 hartree =       0.00000000 kcal/mol
 G_dispersion     =       0.00000000 hartree =       0.00000000 kcal/mol
 G_repulsion      =       0.00000000 hartree =       0.00000000 kcal/mol
 --------------------------------------------------
 Non-electrostatic Free Energy =       0.00000000 hartree =       0.00000000 kcal/mol
 Total                         =      -0.01228524 hartree =      -7.70910237 kcal/mol
 --------------------------------------------------
 SCF Energy (H0 + V/2)                       =   -1389.24965206 
 Solute Internal Energy (H0)                 =   -1389.23736683 
 Total Free Energy (H0 + V/2 + non-elec)     =   -1389.24965206 hartree
                                             = -871767.31425389 kcal/mol
***********************************************************

 SCF   energy in the final basis set =    -1389.2496520644
 Total energy in the final basis set =    -1389.2496520644


 --------------------------------------------------------------
  Generalized many-body perturbation theory program
  by Joonho Lee, Fazle Rob, Xintian Feng, Evgeny Epifanovsky

 No regularization used 
 (reg. param. = 0.0000e+00)
  (P|Q)^-1/2 Time:  CPU 43.46 s  wall 0.72 s

 In RI-MP2 calculation: 
 # of frozen core orbitals: 22

 Components of the RIMP2 correlation energy:
        aaaa    correlation energy =        -0.3289243849 a.u.
        abab    correlation energy =        -1.8509685838 a.u.
        bbbb    correlation energy =        -0.3289243849 a.u.
        non-Brillouin singles      =        -0.0000000000 a.u.
        total same-spin energy     =        -0.6578487698 a.u.
        total opposite-spin energy =        -1.8509685838 a.u.

 Total  RIMP2   correlation energy =        -2.5088173536 a.u.
        RIMP2         total energy =     -1391.7584694180 a.u.

 RI-MP2 Energy Time:  CPU 202.58 s  wall 3.52 s
 
 --------------------------------------------------------------
 
                    Orbital Energies (a.u.)
 --------------------------------------------------------------
 
 Alpha MOs
 -- Occupied --
-92.0055 -91.9924 -26.3402 -20.6134 -20.5594 -11.4073 -11.3783 -11.3002
-11.2940 -11.2904 -11.2880 -11.2850 -11.2784 -11.2237  -9.0046  -8.9925
 -6.6854  -6.6848  -6.6843  -6.6736  -6.6729  -6.6718  -1.6575  -1.4657
 -1.3683  -1.2127  -1.1370  -1.0651  -1.0190  -0.9941  -0.9582  -0.9122
 -0.8634  -0.8057  -0.7882  -0.7582  -0.7303  -0.7224  -0.6921  -0.6831
 -0.6725  -0.6597  -0.6119  -0.5949  -0.5878  -0.5812  -0.5626  -0.5591
 -0.5313  -0.5256  -0.5105  -0.4964  -0.4724  -0.4717  -0.4709  -0.4573
 -0.3816  -0.3448  -0.2824
 -- Virtual --
  0.0387   0.1092   0.1370   0.1542   0.1580   0.1726   0.1844   0.1951
  0.2082   0.2125   0.2158   0.2262   0.2302   0.2432   0.2537   0.2653
  0.2861   0.3104   0.3145   0.3346   0.3413   0.3514   0.3758   0.3847
  0.3862   0.4016   0.4076   0.4120   0.4225   0.4368   0.4378   0.4399
  0.4596   0.4670   0.4758   0.4844   0.4968   0.5060   0.5082   0.5238
  0.5250   0.5391   0.5408   0.5443   0.5486   0.5608   0.5688   0.5829
  0.5885   0.5994   0.6053   0.6121   0.6145   0.6167   0.6205   0.6249
  0.6363   0.6484   0.6587   0.6633   0.6743   0.6825   0.6973   0.7052
  0.7176   0.7230   0.7252   0.7371   0.7521   0.7644   0.7858   0.8033
  0.8061   0.8186   0.8262   0.8452   0.8489   0.8646   0.8715   0.8787
  0.8871   0.8916   0.9139   0.9237   0.9287   0.9466   0.9633   0.9771
  0.9879   0.9994   0.9999   1.0178   1.0268   1.0397   1.0443   1.0577
  1.0708   1.0729   1.0807   1.0968   1.1015   1.1090   1.1120   1.1174
  1.1249   1.1512   1.1570   1.1672   1.1752   1.1846   1.1901   1.2052
  1.2304   1.2321   1.2438   1.2584   1.2611   1.2799   1.2931   1.3120
  1.3156   1.3363   1.3498   1.3601   1.3699   1.3886   1.3945   1.4101
  1.4184   1.4303   1.4393   1.4460   1.4813   1.4940   1.5033   1.5114
  1.5172   1.5259   1.5410   1.5480   1.5526   1.5760   1.5850   1.6016
  1.6181   1.6299   1.6433   1.6571   1.6682   1.6836   1.7049   1.7258
  1.7540   1.7867   1.7951   1.8080   1.8214   1.8246   1.8347   1.8597
  1.8624   1.8926   1.9009   1.9245   1.9286   1.9338   1.9506   1.9756
  1.9844   2.0044   2.0143   2.0433   2.0630   2.0740   2.0951   2.1003
  2.1271   2.1517   2.1697   2.1877   2.1988   2.2021   2.2217   2.2314
  2.2367   2.2499   2.2682   2.2725   2.2957   2.3121   2.3217   2.3371
  2.3559   2.3705   2.3892   2.4064   2.4248   2.4337   2.4755   2.4854
  2.5021   2.5420   2.5482   2.5643   2.5792   2.5967   2.6306   2.6331
  2.6443   2.6561   2.6610   2.6748   2.6860   2.7028   2.7053   2.7114
  2.7261   2.7464   2.7535   2.7741   2.7864   2.8003   2.8135   2.8351
  2.8454   2.8525   2.8775   2.8877   2.8966   2.9193   2.9479   2.9637
  2.9740   2.9832   2.9903   3.0069   3.0239   3.0276   3.0440   3.0593
  3.0686   3.0904   3.0963   3.1039   3.1094   3.1304   3.1305   3.1394
  3.1494   3.1826   3.1906   3.2068   3.2188   3.2331   3.2360   3.2469
  3.2503   3.2659   3.2736   3.2852   3.2958   3.3131   3.3223   3.3300
  3.3382   3.3433   3.3590   3.3683   3.3735   3.3972   3.4059   3.4202
  3.4294   3.4404   3.4419   3.4437   3.4507   3.4612   3.4761   3.4841
  3.4876   3.5091   3.5252   3.5429   3.5476   3.5579   3.5698   3.5751
  3.5845   3.5969   3.6034   3.6141   3.6219   3.6408   3.6585   3.6705
  3.6721   3.6973   3.7057   3.7078   3.7203   3.7316   3.7354   3.7472
  3.7738   3.7869   3.7918   3.8026   3.8081   3.8203   3.8231   3.8311
  3.8476   3.8561   3.8686   3.8811   3.8815   3.9073   3.9369   3.9540
  3.9579   3.9767   3.9781   3.9849   4.0074   4.0196   4.0373   4.0566
  4.0691   4.0808   4.0986   4.1168   4.1297   4.1526   4.1665   4.1675
  4.1785   4.2033   4.2238   4.2453   4.2617   4.2907   4.3080   4.3416
  4.3430   4.3548   4.3612   4.3775   4.3996   4.4112   4.4259   4.4302
  4.4467   4.4742   4.5048   4.5215   4.5361   4.5457   4.5788   4.5897
  4.5957   4.6113   4.6462   4.6607   4.6751   4.6874   4.7244   4.7400
  4.7543   4.7854   4.7935   4.8438   4.8559   4.8830   4.9023   4.9165
  4.9319   4.9935   5.0084   5.0099   5.0570   5.0767   5.0877   5.1198
  5.1580   5.1870   5.2000   5.2536   5.2565   5.2625   5.3037   5.3536
  5.3592   5.3995   5.4259   5.4270   5.4572   5.4857   5.4946   5.5266
  5.5412   5.5821   5.5964   5.6233   5.6631   5.6725   5.7539   5.7580
  5.8059   5.8089   5.8352   5.8832   5.9167   5.9307   5.9623   5.9946
  6.0433   6.0839   6.1515   6.1700   6.1923   6.2626   6.2898   6.3917
  6.4463   6.4516   6.5393   6.6033   6.6622   6.6729   6.7472   6.8312
  6.8612   6.9795   7.2053   7.2065   7.3115   7.3656   7.3658   7.4070
  7.4147   7.4884   7.5249   7.5511   7.6160   7.7758   7.7900   7.8941
  7.9546   8.1350   8.2009   8.9247   9.0144   9.3657   9.4672   9.6518
 10.0978  11.0891  11.5949  11.8080  12.4082  12.8735  13.0778  13.3856
 13.7729  14.0313  14.3252
 --------------------------------------------------------------
 
          Ground-State Mulliken Net Atomic Charges

     Atom                 Charge (a.u.)
  ----------------------------------------
      1 C                    -0.018993
      2 S                     0.079935
      3 C                    -0.208004
      4 C                     0.001885
      5 C                    -0.091429
      6 S                    -0.001671
      7 C                    -0.157320
      8 C                     0.391243
      9 F                    -0.208756
     10 C                     0.446781
     11 O                    -0.462451
     12 O                    -0.300979
     13 C                    -0.058505
     14 H                     0.121049
     15 H                     0.094712
     16 H                     0.094672
     17 C                    -0.383924
     18 H                     0.137419
     19 H                     0.163427
     20 H                     0.146934
     21 H                     0.213973
  ----------------------------------------
  Sum of atomic charges =     0.000000

 -----------------------------------------------------------------
                    Cartesian Multipole Moments
 -----------------------------------------------------------------
    Charge (ESU x 10^10)
                -0.0000
    Dipole Moment (Debye)
         X       0.4986      Y       0.3067      Z       3.4257
       Tot       3.4754
    Quadrupole Moments (Debye-Ang)
        XX     -93.7670     XY       6.6572     YY     -84.2148
        XZ      -4.5649     YZ      -9.2407     ZZ     -95.7838
    Octopole Moments (Debye-Ang^2)
       XXX    -127.3525    XXY     -66.4402    XYY     -42.1302
       YYY    -209.0179    XXZ      71.2562    XYZ     -13.9514
       YYZ      58.4754    XZZ      -4.5190    YZZ      -4.4716
       ZZZ     272.0266
    Hexadecapole Moments (Debye-Ang^3)
      XXXX    -569.0017   XXXY    -407.1473   XXYY    -363.0922
      XYYY    -367.9991   YYYY   -1644.9133   XXXZ     387.0212
      XXYZ     214.7176   XYYZ      74.1850   YYYZ     628.8125
      XXZZ    -629.0701   XYZZ      11.5654   YYZZ    -634.6399
      XZZZ     245.0862   YZZZ     454.6538   ZZZZ   -3709.6625
 -----------------------------------------------------------------
 Total job time:  58.15s(wall), 1998.67s(cpu) 
 Tue Jan  9 10:06:25 2024

        *************************************************************
        *                                                           *
        *  Thank you very much for using Q-Chem.  Have a nice day.  *
        *                                                           *
        *************************************************************


0 sent ACK to 0 
now end server 0 ... 
cleanup process ... done
remove work dirs ./qchem962408.0 -- ./qchem962408.0
rm -rf ./qchem962408.0
rm -rf ./qchem962408
