You are running Q-Chem version: 5.4.0

#
# job setting
#
local host:  exp-14-05
current dir: /home/rramji/project-csd799/aromodel/ptb7fout-qchem/methylated-rotation-run
input file:  Dimethoxy_Benzodithiophene_Phi_60_Theta_60_Methylcarbonyl_3_Fluoro_Thienothiophene_Hydrogenated_Improper.qcin
output file: 
nprocs     : 1
nthreads   : 64
#
# qchem installation setting
#
QC:          /cm/shared/apps/spack/cpu/opt/spack/linux-centos8-zen2/gcc-10.2.0/qchem-5.4-akfmr7b3t57bfs6qan3padb2wnb2i7cl
QCAUX:       /cm/shared/apps/spack/cpu/opt/spack/linux-centos8-zen2/gcc-10.2.0/qchem-5.4-akfmr7b3t57bfs6qan3padb2wnb2i7cl/qcaux
QCPROG:      /cm/shared/apps/spack/cpu/opt/spack/linux-centos8-zen2/gcc-10.2.0/qchem-5.4-akfmr7b3t57bfs6qan3padb2wnb2i7cl/exe/qcprog.exe
QCPROG_S:    /cm/shared/apps/spack/cpu/opt/spack/linux-centos8-zen2/gcc-10.2.0/qchem-5.4-akfmr7b3t57bfs6qan3padb2wnb2i7cl/exe/qcprog.exe_s
PARALLEL:    -DPARALLEL
QCMPI:       mpich
#
# qchem directory setting
#
qcrun:       qchem2524174
QCSCRATCH:   .
QCLOCALSCR:  
QCTMPDIR:    .
QCFILEPREF:  ./qchem2524174
QCSAVEDIR:   
workdirs:    ./qchem2524174
workdir0:    ./qchem2524174
partmpdirs =  
#
# parallel setting
#
QCRSH:           ssh
QCMPI:           mpich
QCMPIRUN:        /cm/shared/apps/spack/cpu/opt/spack/linux-centos8-zen2/gcc-10.2.0/qchem-5.4-akfmr7b3t57bfs6qan3padb2wnb2i7cl/bin/mpi/mpirun_qchem
QCMACHINEFILE:   ./qchem2524174/hostfile
exp-14-05

#
# env setting
#
exported envs:   QC QCAUX QCSCRATCH QCRUNNAME QCFILEPREF QCPROG QCPROG_S GUIFILE

Running Job 1 of 1 Dimethoxy_Benzodithiophene_Phi_60_Theta_60_Methylcarbonyl_3_Fluoro_Thienothiophene_Hydrogenated_Improper.qcin
qchem Dimethoxy_Benzodithiophene_Phi_60_Theta_60_Methylcarbonyl_3_Fluoro_Thienothiophene_Hydrogenated_Improper.qcin_2524174.0 ./qchem2524174/ 1
/cm/shared/apps/spack/cpu/opt/spack/linux-centos8-zen2/gcc-10.2.0/qchem-5.4-akfmr7b3t57bfs6qan3padb2wnb2i7cl/bin/mpi/mpirun_qchem -machinefile ./qchem2524174/hostfile -np 1 /cm/shared/apps/spack/cpu/opt/spack/linux-centos8-zen2/gcc-10.2.0/qchem-5.4-akfmr7b3t57bfs6qan3padb2wnb2i7cl/exe/qcprog.exe Dimethoxy_Benzodithiophene_Phi_60_Theta_60_Methylcarbonyl_3_Fluoro_Thienothiophene_Hydrogenated_Improper.qcin_2524174.0 ./qchem2524174/

Process 0 of 1 is on exp-14-05 - thread support 0
initial socket setup ...start
initial socket setup ...done 
now start server 0 ... 
                  Welcome to Q-Chem
     A Quantum Leap Into The Future Of Chemistry


 Q-Chem 5.4, Q-Chem, Inc., Pleasanton, CA (2021)

 License issued to: University of California, San Diego (site)

 E. Epifanovsky,  A. T. B. Gilbert,  Xintian Feng,  Joonho Lee,  Yuezhi Mao,  
 N. Mardirossian,  P. Pokhilko,  A. White,  M. Wormit,  M. P. Coons,  
 A. L. Dempwolff,  Zhengting Gan,  D. Hait,  P. R. Horn,  L. D. Jacobson,  
 I. Kaliman,  J. Kussmann,  A. W. Lange,  Ka Un Lao,  D. S. Levine,  Jie Liu,  
 S. C. McKenzie,  A. F. Morrison,  K. Nanda,  F. Plasser,  D. R. Rehn,  
 M. L. Vidal,  Zhi-Qiang You,  Ying Zhu,  B. Alam,  B. Albrecht,  
 A. Aldossary,  E. Alguire,  J. H. Andersen,  D. Barton,  K. Begam,  A. Behn,  
 Y. A. Bernard,  E. J. Berquist,  H. Burton,  A. Carreras,  K. Carter-Fenk,  
 R. Chakraborty,  A. D. Chien,  K. D. Closser,  V. Cofer-Shabica,  
 S. Dasgupta,  Jia Deng,  M. de Wergifosse,  M. Diedenhofen,  Hainam Do,  
 S. Ehlert,  Po-Tung Fang,  S. Fatehi,  Qingguo Feng,  J. Gayvert,  
 Qinghui Ge,  G. Gidofalvi,  M. Goldey,  J. Gomes,  C. Gonzalez-Espinoza,  
 S. Gulania,  A. Gunina,  M. W. D. Hanson-Heine,  P. H. P. Harbach,  
 A. W. Hauser,  M. F. Herbst,  M. Hernandez Vera,  M. Hodecker,  
 Z. C. Holden,  S. Houck,  Xunkun Huang,  Kerwin Hui,  B. C. Huynh,  
 M. Ivanov,  Hyunjun Ji,  Hanjie Jiang,  B. Kaduk,  S. Kaehler,  
 K. Khistyaev,  Jaehoon Kim,  P. Klunzinger,  Z. Koczor-Benda,  
 Joong Hoon Koh,  D. Kosenkov,  L. Koulias,  T. Kowalczyk,  C. M. Krauter,  
 K. Kue,  A. Kunitsa,  T. Kus,  A. Landau,  K. V. Lawler,  D. Lefrancois,  
 S. Lehtola,  Rain Li,  Yi-Pei Li,  Jiashu Liang,  M. Liebenthal,  
 Hung-Hsuan Lin,  You-Sheng Lin,  Fenglai Liu,  Kuan-Yu Liu,  
 M. Loipersberger,  A. Luenser,  A. Manjanath,  P. Manohar,  E. Mansoor,  
 S. F. Manzer,  Shan-Ping Mao,  A. V. Marenich,  T. Markovich,  S. Mason,  
 S. A. Maurer,  P. F. McLaughlin,  M. F. S. J. Menger,  J.-M. Mewes,  
 S. A. Mewes,  P. Morgante,  J. W. Mullinax,  T. S. Nguyen-Beck,  
 K. J. Oosterbaan,  G. Paran,  Alexander C. Paul,  Suranjan K. Paul,  
 F. Pavosevic,  Zheng Pei,  S. Prager,  E. I. Proynov,  E. Ramos,  B. Rana,  
 A. E. Rask,  A. Rettig,  R. M. Richard,  F. Rob,  E. Rossomme,  T. Scheele,  
 M. Scheurer,  M. Schneider,  N. Sergueev,  S. M. Sharada,  W. Skomorowski,  
 D. W. Small,  C. J. Stein,  Yu-Chuan Su,  E. J. Sundstrom,  Zhen Tao,  
 J. Thirman,  T. Tsuchimochi,  N. M. Tubman,  S. P. Veccham,  O. Vydrov,  
 J. Wenzel,  J. Witte,  A. Yamada,  Kun Yao,  S. Yeganeh,  S. R. Yost,  
 A. Zech,  Igor Ying Zhang,  Xing Zhang,  Yu Zhang,  D. Zuev,  
 A. Aspuru-Guzik,  A. T. Bell,  N. A. Besley,  K. B. Bravaya,  B. R. Brooks,  
 D. Casanova,  Jeng-Da Chai,  S. Coriani,  C. J. Cramer,  
 A. E. DePrince, III,  R. A. DiStasio Jr.,  A. Dreuw,  B. D. Dunietz,  
 T. R. Furlani,  W. A. Goddard III,  S. Grimme,  S. Hammes-Schiffer,  
 T. Head-Gordon,  W. J. Hehre,  Chao-Ping Hsu,  T.-C. Jagau,  Yousung Jung,  
 A. Klamt,  Jing Kong,  D. S. Lambrecht,  WanZhen Liang,  N. J. Mayhall,  
 C. W. McCurdy,  J. B. Neaton,  C. Ochsenfeld,  J. A. Parkhill,  R. Peverati,  
 V. A. Rassolov,  Yihan Shao,  L. V. Slipchenko,  T. Stauch,  R. P. Steele,  
 J. E. Subotnik,  A. J. W. Thom,  A. Tkatchenko,  D. G. Truhlar,  
 T. Van Voorhis,  T. A. Wesolowski,  K. B. Whaley,  H. L. Woodcock III,  
 P. M. Zimmerman,  S. Faraji,  P. M. W. Gill,  M. Head-Gordon,  
 J. M. Herbert,  A. I. Krylov

 Contributors to earlier versions of Q-Chem not listed above: 
 R. D. Adamson,  B. Austin,  R. Baer,  J. Baker,  G. J. O. Beran,  
 K. Brandhorst,  S. T. Brown,  E. F. C. Byrd,  A. K. Chakraborty,  
 G. K. L. Chan,  Chun-Min Chang,  Yunqing Chen,  C.-L. Cheng,  
 Siu Hung Chien,  D. M. Chipman,  D. L. Crittenden,  H. Dachsel,  
 R. J. Doerksen,  A. D. Dutoi,  R. G. Edgar,  J. Fosso-Tande,  
 L. Fusti-Molnar,  D. Ghosh,  A. Ghysels,  A. Golubeva-Zadorozhnaya,  
 J. Gonthier,  M. S. Gordon,  S. R. Gwaltney,  G. Hawkins,  J. E. Herr,  
 A. Heyden,  S. Hirata,  E. G. Hohenstein,  G. Kedziora,  F. J. Keil,  
 C. Kelley,  Jihan Kim,  R. A. King,  R. Z. Khaliullin,  P. P. Korambath,  
 W. Kurlancheek,  A. Laurent,  A. M. Lee,  M. S. Lee,  S. V. Levchenko,  
 Ching Yeh Lin,  D. Liotard,  E. Livshits,  R. C. Lochan,  I. Lotan,  
 L. A. Martinez-Martinez,  P. E. Maslen,  N. Nair,  D. P. O'Neill,  
 D. Neuhauser,  E. Neuscamman,  C. M. Oana,  R. Olivares-Amaya,  R. Olson,  
 T. M. Perrine,  B. Peters,  P. A. Pieniazek,  A. Prociuk,  Y. M. Rhee,  
 J. Ritchie,  M. A. Rohrdanz,  E. Rosta,  N. J. Russ,  H. F. Schaefer III,  
 M. W. Schmidt,  N. E. Schultz,  S. Sharma,  N. Shenvi,  C. D. Sherrill,  
 A. C. Simmonett,  A. Sodt,  T. Stein,  D. Stuck,  K. S. Thanthiriwatte,  
 V. Vanovschi,  L. Vogt,  Tao Wang,  A. Warshel,  M. A. Watson,  
 C. F. Williams,  Q. Wu,  X. Xu,  Jun Yang,  W. Zhang,  Yan Zhao

 Please cite Q-Chem as follows:
 Y. Shao et al., Mol. Phys. 113, 184-215 (2015)
 DOI: 10.1080/00268976.2014.952696

 Q-Chem 5.4.0 for Intel X86 EM64T Linux

 Parts of Q-Chem use Armadillo 9.800.1 (Horizon Scraper).
 http://arma.sourceforge.net/

 Q-Chem begins on Tue Jan  9 09:54:23 2024  

 Host: 
0

     Scratch files written to ./qchem2524174//
 May1621 |scratch|qcdevops|jenkins|workspace|build_RNUM    
 Parallel job on  1  processors
 Processing $rem in /cm/shared/apps/spack/cpu/opt/spack/linux-centos8-zen2/gcc-10.2.0/qchem-5.4-akfmr7b3t57bfs6qan3padb2wnb2i7cl/config/preferences:
 Processing $rem in /home/rramji/.qchemrc:
 Symmetry turned off for PCM/SM12/SMD calculation
 Core orbitals will be frozen

 Checking the input file for inconsistencies... 	...done.

 Q-Chem warning in module forms1/BasisType.C, line 2236:

 You are not using the predefined 5D/6D in this basis set.


--------------------------------------------------------------
User input:
--------------------------------------------------------------
$molecule
0 1
C	-0.902495	-0.471137	0.973997
S	-0.118695	-0.019137	2.481497
C	1.242805	0.767763	1.692897
C	-0.118795	-0.019537	-0.093903
C	1.083905	0.677463	0.287597
S	-0.328395	-0.143837	-1.831503
C	1.185905	0.736763	-2.080503
C	1.798005	1.093063	-0.888603
F	2.953205	1.765563	-0.845103
C	1.574805	0.959163	-3.482103
O	0.912105	0.567363	-4.432503
O	2.740705	1.640863	-3.595203
C	3.172005	1.883963	-4.942203
H	4.122105	2.440463	-4.859103
H	2.419505	2.480763	-5.496203
H	3.327005	0.929763	-5.485303
C	-0.902495	-1.906337	0.973997
H	-0.356095	-1.914337	1.905497
H	-1.630395	-2.584237	1.394597
H	-0.091495	-2.437437	0.498097
H	2.042505	1.231163	2.280497
$end

$rem
JOBTYPE		SP
EXCHANGE	HF
CORRELATION	pRIMP2
BASIS		cc-pvtz
METHOD		rimp2
AUX_BASIS	rimp2-cc-pvtz
SOLVENT_METHOD	PCM
PURECART	11111
SYMMETRY	false
MEM_TOTAL	110000
SCF_CONVERGENCE = 6
THRESH=10
GUI = 2
$end



$solvent
dielectric 4.90
$end
--------------------------------------------------------------
 ----------------------------------------------------------------
             Standard Nuclear Orientation (Angstroms)
    I     Atom           X                Y                Z
 ----------------------------------------------------------------
    1      C      -0.9024950000    -0.4711370000     0.9739970000
    2      S      -0.1186950000    -0.0191370000     2.4814970000
    3      C       1.2428050000     0.7677630000     1.6928970000
    4      C      -0.1187950000    -0.0195370000    -0.0939030000
    5      C       1.0839050000     0.6774630000     0.2875970000
    6      S      -0.3283950000    -0.1438370000    -1.8315030000
    7      C       1.1859050000     0.7367630000    -2.0805030000
    8      C       1.7980050000     1.0930630000    -0.8886030000
    9      F       2.9532050000     1.7655630000    -0.8451030000
   10      C       1.5748050000     0.9591630000    -3.4821030000
   11      O       0.9121050000     0.5673630000    -4.4325030000
   12      O       2.7407050000     1.6408630000    -3.5952030000
   13      C       3.1720050000     1.8839630000    -4.9422030000
   14      H       4.1221050000     2.4404630000    -4.8591030000
   15      H       2.4195050000     2.4807630000    -5.4962030000
   16      H       3.3270050000     0.9297630000    -5.4853030000
   17      C      -0.9024950000    -1.9063370000     0.9739970000
   18      H      -0.3560950000    -1.9143370000     1.9054970000
   19      H      -1.6303950000    -2.5842370000     1.3945970000
   20      H      -0.0914950000    -2.4374370000     0.4980970000
   21      H       2.0425050000     1.2311630000     2.2804970000
 ----------------------------------------------------------------
 Nuclear Repulsion Energy =        1093.06084459 hartrees
 There are       59 alpha and       59 beta electrons
 Requested basis set is cc-pVTZ
 There are 186 shells and 526 basis functions

 Total QAlloc Memory Limit 110000 MB
 Mega-Array Size       188 MB
 MEM_STATIC part       192 MB
 Discretize the solute cavity surface with Lebedev spheres
	Using 110 Lebedev grid points for each H atom
	Using 194 Lebedev grid points for other atoms
	Atomic van der Waals radii will be scaled by 1.20
 Remove points where switching function is < 1.0e-08
 Keep 1531 surface tesserae and discard 1955 interior tesserae
 Molecular Surface Area = 239.591 Angst**2
 Requested basis set is rimp2-cc-pVTZ
 There are 410 shells and 1426 basis functions
 A cutoff of  1.0D-10 yielded  11758 shell pairs
 There are     92150 function pairs (    120529 Cartesian)
 Smallest overlap matrix eigenvalue = 6.73E-05

 Scale SEOQF with 1.000000e-01/1.000000e-01/1.000000e-02

 Standard Electronic Orientation quadrupole field applied
 Nucleus-field energy     =     0.0000000135 hartrees
 Guess from superposition of atomic densities
 Warning:  Energy on first SCF cycle will be non-variational
 SAD guess density has 118.000000 electrons

 -----------------------------------------------------------------------
  General SCF calculation program by
  Eric Jon Sundstrom, Paul Horn, Yuezhi Mao, Dmitri Zuev, Alec White,
  David Stuck, Shaama M.S., Shane Yost, Joonho Lee, David Small,
  Daniel Levine, Susi Lehtola, Hugh Burton, Evgeny Epifanovsky,
  Bang C. Huynh
 -----------------------------------------------------------------------
 Hartree-Fock
 using 64 threads for integral computing
 -------------------------------------------------------
 OpenMP Integral computing Module                
 Release: version 1.0, May 2013, Q-Chem Inc. Pittsburgh 
 -------------------------------------------------------
 A restricted SCF calculation will be
 performed using DIIS
 SCF converges when DIIS error is below 1.0e-06
 ---------------------------------------
  Cycle       Energy         DIIS error
 ---------------------------------------
    1   -1394.4142067029      2.49e-02  
    2   -1388.9379057849      2.52e-03  
    3   -1389.1134860554      1.59e-03  
    4   -1389.1788849623      3.58e-04  
    5   -1389.1850302623      1.15e-04  
    6   -1389.1857777614      3.75e-05  
    7   -1389.1859390459      1.88e-05  
    8   -1389.1859941537      7.43e-06  
    9   -1389.1860065226      3.32e-06  
   10   -1389.1860086043      1.30e-06  
   11   -1389.1860089768      5.94e-07  Convergence criterion met
 ---------------------------------------
 SCF time:   CPU 1682.71s  wall 48.00s 

************** Final PCM Free Energy Summary **************
 G_electrostatic  =      -0.01275917 hartree =      -8.00649883 kcal/mol
 G_cavitation     =       0.00000000 hartree =       0.00000000 kcal/mol
 G_dispersion     =       0.00000000 hartree =       0.00000000 kcal/mol
 G_repulsion      =       0.00000000 hartree =       0.00000000 kcal/mol
 --------------------------------------------------
 Non-electrostatic Free Energy =       0.00000000 hartree =       0.00000000 kcal/mol
 Total                         =      -0.01275917 hartree =      -8.00649883 kcal/mol
 --------------------------------------------------
 SCF Energy (H0 + V/2)                       =   -1389.18600898 
 Solute Internal Energy (H0)                 =   -1389.17324981 
 Total Free Energy (H0 + V/2 + non-elec)     =   -1389.18600898 hartree
                                             = -871727.37761366 kcal/mol
***********************************************************

 SCF   energy in the final basis set =    -1389.1860089768
 Total energy in the final basis set =    -1389.1860089768


 --------------------------------------------------------------
  Generalized many-body perturbation theory program
  by Joonho Lee, Fazle Rob, Xintian Feng, Evgeny Epifanovsky

 No regularization used 
 (reg. param. = 0.0000e+00)
  (P|Q)^-1/2 Time:  CPU 20.41 s  wall 0.33 s

 In RI-MP2 calculation: 
 # of frozen core orbitals: 22

 Components of the RIMP2 correlation energy:
        aaaa    correlation energy =        -0.3306068395 a.u.
        abab    correlation energy =        -1.8557796511 a.u.
        bbbb    correlation energy =        -0.3306068395 a.u.
        non-Brillouin singles      =        -0.0000000000 a.u.
        total same-spin energy     =        -0.6612136791 a.u.
        total opposite-spin energy =        -1.8557796511 a.u.

 Total  RIMP2   correlation energy =        -2.5169933301 a.u.
        RIMP2         total energy =     -1391.7030023070 a.u.

 RI-MP2 Energy Time:  CPU 173.15 s  wall 3.60 s
 
 --------------------------------------------------------------
 
                    Orbital Energies (a.u.)
 --------------------------------------------------------------
 
 Alpha MOs
 -- Occupied --
-92.0019 -91.9997 -26.3441 -20.6139 -20.5598 -11.4081 -11.3841 -11.3274
-11.3083 -11.2939 -11.2886 -11.2808 -11.2603 -11.2110  -9.0018  -9.0007
 -6.6828  -6.6820  -6.6813  -6.6810  -6.6801  -6.6801  -1.6612  -1.4663
 -1.3690  -1.2245  -1.1471  -1.0700  -1.0248  -0.9898  -0.9620  -0.9023
 -0.8680  -0.8136  -0.7917  -0.7601  -0.7357  -0.7258  -0.6970  -0.6838
 -0.6733  -0.6623  -0.6112  -0.6065  -0.5941  -0.5714  -0.5641  -0.5584
 -0.5307  -0.5220  -0.5146  -0.4946  -0.4789  -0.4727  -0.4715  -0.4321
 -0.3825  -0.3409  -0.2936
 -- Virtual --
  0.0267   0.0847   0.1401   0.1528   0.1573   0.1680   0.1802   0.1908
  0.2082   0.2149   0.2208   0.2286   0.2317   0.2423   0.2482   0.2656
  0.2788   0.2891   0.3051   0.3352   0.3402   0.3631   0.3652   0.3793
  0.3850   0.3901   0.3990   0.4103   0.4257   0.4289   0.4327   0.4378
  0.4464   0.4622   0.4657   0.4849   0.4924   0.4956   0.5033   0.5110
  0.5207   0.5267   0.5300   0.5429   0.5442   0.5586   0.5741   0.5803
  0.5880   0.5938   0.6032   0.6091   0.6121   0.6177   0.6218   0.6251
  0.6414   0.6535   0.6557   0.6661   0.6760   0.6895   0.7036   0.7093
  0.7107   0.7125   0.7284   0.7374   0.7503   0.7605   0.7783   0.7928
  0.7976   0.8156   0.8210   0.8394   0.8459   0.8655   0.8669   0.8746
  0.8884   0.9039   0.9148   0.9302   0.9462   0.9527   0.9705   0.9751
  0.9872   0.9923   1.0117   1.0187   1.0256   1.0399   1.0489   1.0601
  1.0622   1.0842   1.0873   1.1000   1.1023   1.1094   1.1231   1.1300
  1.1492   1.1567   1.1684   1.1689   1.1816   1.1881   1.1921   1.2164
  1.2273   1.2376   1.2484   1.2568   1.2698   1.2722   1.2834   1.3011
  1.3139   1.3350   1.3504   1.3671   1.3782   1.3894   1.4023   1.4107
  1.4244   1.4384   1.4536   1.4604   1.4813   1.4819   1.5001   1.5037
  1.5121   1.5285   1.5378   1.5457   1.5559   1.5747   1.5922   1.6020
  1.6089   1.6445   1.6536   1.6734   1.6843   1.7002   1.7038   1.7191
  1.7503   1.7576   1.7909   1.8002   1.8143   1.8211   1.8317   1.8561
  1.8700   1.8829   1.8976   1.9207   1.9242   1.9337   1.9505   1.9558
  1.9649   1.9913   2.0221   2.0241   2.0567   2.0795   2.0926   2.1030
  2.1106   2.1477   2.1628   2.1669   2.1821   2.1954   2.2213   2.2280
  2.2337   2.2426   2.2569   2.2807   2.2832   2.2962   2.3351   2.3474
  2.3641   2.3723   2.3905   2.4125   2.4160   2.4305   2.4736   2.4819
  2.5038   2.5369   2.5496   2.5680   2.5772   2.5894   2.6153   2.6281
  2.6364   2.6441   2.6715   2.6768   2.6895   2.6976   2.7041   2.7292
  2.7339   2.7512   2.7747   2.7931   2.8031   2.8096   2.8125   2.8436
  2.8546   2.8777   2.8796   2.8868   2.9099   2.9217   2.9357   2.9544
  2.9755   2.9810   3.0010   3.0147   3.0236   3.0294   3.0572   3.0665
  3.0883   3.0953   3.1016   3.1097   3.1254   3.1261   3.1428   3.1474
  3.1497   3.1730   3.1945   3.2053   3.2121   3.2216   3.2230   3.2424
  3.2632   3.2672   3.2727   3.2904   3.2956   3.3055   3.3123   3.3285
  3.3442   3.3653   3.3668   3.3793   3.3848   3.3994   3.4024   3.4165
  3.4209   3.4284   3.4448   3.4660   3.4690   3.4821   3.4926   3.5017
  3.5141   3.5297   3.5405   3.5409   3.5504   3.5579   3.5702   3.5833
  3.5923   3.5992   3.6038   3.6183   3.6335   3.6543   3.6606   3.6849
  3.6900   3.6960   3.7059   3.7079   3.7265   3.7345   3.7488   3.7645
  3.7829   3.7955   3.7996   3.8055   3.8199   3.8316   3.8479   3.8595
  3.8678   3.8732   3.8810   3.8984   3.9027   3.9268   3.9298   3.9449
  3.9574   3.9609   3.9938   4.0115   4.0156   4.0399   4.0454   4.0684
  4.0686   4.0948   4.1190   4.1380   4.1435   4.1607   4.1615   4.1673
  4.2001   4.2180   4.2360   4.2471   4.2804   4.3097   4.3377   4.3426
  4.3532   4.3598   4.3721   4.3988   4.4186   4.4303   4.4418   4.4513
  4.4953   4.5019   4.5198   4.5326   4.5483   4.5624   4.5824   4.6031
  4.6162   4.6377   4.6548   4.6750   4.6788   4.7301   4.7432   4.7512
  4.7623   4.7816   4.7963   4.8207   4.8558   4.8570   4.9138   4.9459
  4.9492   4.9802   5.0092   5.0128   5.0209   5.0750   5.1186   5.1213
  5.1632   5.1811   5.2084   5.2311   5.2465   5.2540   5.2578   5.3499
  5.3576   5.4026   5.4264   5.4406   5.4535   5.4852   5.5110   5.5148
  5.5346   5.5814   5.5974   5.6227   5.6601   5.6805   5.7247   5.7455
  5.8083   5.8153   5.8431   5.8737   5.9159   5.9303   5.9513   5.9895
  6.0422   6.0599   6.1390   6.1509   6.1835   6.2340   6.2621   6.4174
  6.4510   6.4855   6.5386   6.5981   6.6618   6.6725   6.7455   6.8301
  6.8607   6.9794   7.2047   7.2050   7.3111   7.3624   7.3627   7.4054
  7.4142   7.4849   7.5177   7.5506   7.6151   7.7722   7.7895   7.8928
  7.9593   8.1323   8.2256   8.9213   9.0249   9.3623   9.4805   9.6627
 10.2244  11.2069  11.7407  11.8936  12.4107  12.6688  13.0407  13.3868
 13.7737  14.0263  14.4528
 --------------------------------------------------------------
 
          Ground-State Mulliken Net Atomic Charges

     Atom                 Charge (a.u.)
  ----------------------------------------
      1 C                    -0.121476
      2 S                     0.086931
      3 C                    -0.134081
      4 C                     0.072447
      5 C                    -0.120345
      6 S                     0.039686
      7 C                    -0.157422
      8 C                     0.393098
      9 F                    -0.206037
     10 C                     0.447883
     11 O                    -0.464556
     12 O                    -0.301772
     13 C                    -0.058326
     14 H                     0.121027
     15 H                     0.094964
     16 H                     0.094652
     17 C                    -0.381328
     18 H                     0.122446
     19 H                     0.127527
     20 H                     0.127474
     21 H                     0.217209
  ----------------------------------------
  Sum of atomic charges =     0.000000

 -----------------------------------------------------------------
                    Cartesian Multipole Moments
 -----------------------------------------------------------------
    Charge (ESU x 10^10)
                -0.0000
    Dipole Moment (Debye)
         X       3.5923      Y       0.5433      Z       3.3951
       Tot       4.9726
    Quadrupole Moments (Debye-Ang)
        XX     -90.2712     XY       4.3995     YY     -91.9209
        XZ      -5.4958     YZ      -5.7388     ZZ     -94.4711
    Octopole Moments (Debye-Ang^2)
       XXX    -208.5868    XXY     -28.7516    XYY     -69.6865
       YYY    -110.0484    XXZ      54.1392    XYZ     -12.7539
       YYZ      75.4860    XZZ      -6.8149    YZZ      -0.4719
       ZZZ     270.8802
    Hexadecapole Moments (Debye-Ang^3)
      XXXX   -1415.2107   XXXY    -396.7069   XXYY    -353.6493
      XYYY    -422.0826   YYYY    -759.9165   XXXZ     608.8322
      XXYZ      90.9269   XYYZ     196.1905   YYYZ     423.9318
      XXZZ    -603.9663   XYZZ      12.1391   YYZZ    -649.2654
      XZZZ     423.5834   YZZZ     281.5030   ZZZZ   -3706.0631
 -----------------------------------------------------------------
 Total job time:  55.28s(wall), 1930.06s(cpu) 
 Tue Jan  9 09:55:18 2024

        *************************************************************
        *                                                           *
        *  Thank you very much for using Q-Chem.  Have a nice day.  *
        *                                                           *
        *************************************************************


0 sent ACK to 0 
now end server 0 ... 
cleanup process ... done
remove work dirs ./qchem2524174.0 -- ./qchem2524174.0
rm -rf ./qchem2524174.0
rm -rf ./qchem2524174
