You are running Q-Chem version: 5.4.0

#
# job setting
#
local host:  exp-14-38
current dir: /home/rramji/project-csd799/aromodel/ptb7fout-qchem/methylated-rotation-run
input file:  Dimethoxy_Benzodithiophene_Phi_50_Theta_90_Methylcarbonyl_3_Fluoro_Thienothiophene_Hydrogenated_Improper.qcin
output file: 
nprocs     : 1
nthreads   : 64
#
# qchem installation setting
#
QC:          /cm/shared/apps/spack/cpu/opt/spack/linux-centos8-zen2/gcc-10.2.0/qchem-5.4-akfmr7b3t57bfs6qan3padb2wnb2i7cl
QCAUX:       /cm/shared/apps/spack/cpu/opt/spack/linux-centos8-zen2/gcc-10.2.0/qchem-5.4-akfmr7b3t57bfs6qan3padb2wnb2i7cl/qcaux
QCPROG:      /cm/shared/apps/spack/cpu/opt/spack/linux-centos8-zen2/gcc-10.2.0/qchem-5.4-akfmr7b3t57bfs6qan3padb2wnb2i7cl/exe/qcprog.exe
QCPROG_S:    /cm/shared/apps/spack/cpu/opt/spack/linux-centos8-zen2/gcc-10.2.0/qchem-5.4-akfmr7b3t57bfs6qan3padb2wnb2i7cl/exe/qcprog.exe_s
PARALLEL:    -DPARALLEL
QCMPI:       mpich
#
# qchem directory setting
#
qcrun:       qchem2777418
QCSCRATCH:   .
QCLOCALSCR:  
QCTMPDIR:    .
QCFILEPREF:  ./qchem2777418
QCSAVEDIR:   
workdirs:    ./qchem2777418
workdir0:    ./qchem2777418
partmpdirs =  
#
# parallel setting
#
QCRSH:           ssh
QCMPI:           mpich
QCMPIRUN:        /cm/shared/apps/spack/cpu/opt/spack/linux-centos8-zen2/gcc-10.2.0/qchem-5.4-akfmr7b3t57bfs6qan3padb2wnb2i7cl/bin/mpi/mpirun_qchem
QCMACHINEFILE:   ./qchem2777418/hostfile
exp-14-38

#
# env setting
#
exported envs:   QC QCAUX QCSCRATCH QCRUNNAME QCFILEPREF QCPROG QCPROG_S GUIFILE

Running Job 1 of 1 Dimethoxy_Benzodithiophene_Phi_50_Theta_90_Methylcarbonyl_3_Fluoro_Thienothiophene_Hydrogenated_Improper.qcin
qchem Dimethoxy_Benzodithiophene_Phi_50_Theta_90_Methylcarbonyl_3_Fluoro_Thienothiophene_Hydrogenated_Improper.qcin_2777418.0 ./qchem2777418/ 1
/cm/shared/apps/spack/cpu/opt/spack/linux-centos8-zen2/gcc-10.2.0/qchem-5.4-akfmr7b3t57bfs6qan3padb2wnb2i7cl/bin/mpi/mpirun_qchem -machinefile ./qchem2777418/hostfile -np 1 /cm/shared/apps/spack/cpu/opt/spack/linux-centos8-zen2/gcc-10.2.0/qchem-5.4-akfmr7b3t57bfs6qan3padb2wnb2i7cl/exe/qcprog.exe Dimethoxy_Benzodithiophene_Phi_50_Theta_90_Methylcarbonyl_3_Fluoro_Thienothiophene_Hydrogenated_Improper.qcin_2777418.0 ./qchem2777418/

Process 0 of 1 is on exp-14-38 - thread support 0
initial socket setup ...start
initial socket setup ...done 
now start server 0 ... 
                  Welcome to Q-Chem
     A Quantum Leap Into The Future Of Chemistry


 Q-Chem 5.4, Q-Chem, Inc., Pleasanton, CA (2021)

 License issued to: University of California, San Diego (site)

 E. Epifanovsky,  A. T. B. Gilbert,  Xintian Feng,  Joonho Lee,  Yuezhi Mao,  
 N. Mardirossian,  P. Pokhilko,  A. White,  M. Wormit,  M. P. Coons,  
 A. L. Dempwolff,  Zhengting Gan,  D. Hait,  P. R. Horn,  L. D. Jacobson,  
 I. Kaliman,  J. Kussmann,  A. W. Lange,  Ka Un Lao,  D. S. Levine,  Jie Liu,  
 S. C. McKenzie,  A. F. Morrison,  K. Nanda,  F. Plasser,  D. R. Rehn,  
 M. L. Vidal,  Zhi-Qiang You,  Ying Zhu,  B. Alam,  B. Albrecht,  
 A. Aldossary,  E. Alguire,  J. H. Andersen,  D. Barton,  K. Begam,  A. Behn,  
 Y. A. Bernard,  E. J. Berquist,  H. Burton,  A. Carreras,  K. Carter-Fenk,  
 R. Chakraborty,  A. D. Chien,  K. D. Closser,  V. Cofer-Shabica,  
 S. Dasgupta,  Jia Deng,  M. de Wergifosse,  M. Diedenhofen,  Hainam Do,  
 S. Ehlert,  Po-Tung Fang,  S. Fatehi,  Qingguo Feng,  J. Gayvert,  
 Qinghui Ge,  G. Gidofalvi,  M. Goldey,  J. Gomes,  C. Gonzalez-Espinoza,  
 S. Gulania,  A. Gunina,  M. W. D. Hanson-Heine,  P. H. P. Harbach,  
 A. W. Hauser,  M. F. Herbst,  M. Hernandez Vera,  M. Hodecker,  
 Z. C. Holden,  S. Houck,  Xunkun Huang,  Kerwin Hui,  B. C. Huynh,  
 M. Ivanov,  Hyunjun Ji,  Hanjie Jiang,  B. Kaduk,  S. Kaehler,  
 K. Khistyaev,  Jaehoon Kim,  P. Klunzinger,  Z. Koczor-Benda,  
 Joong Hoon Koh,  D. Kosenkov,  L. Koulias,  T. Kowalczyk,  C. M. Krauter,  
 K. Kue,  A. Kunitsa,  T. Kus,  A. Landau,  K. V. Lawler,  D. Lefrancois,  
 S. Lehtola,  Rain Li,  Yi-Pei Li,  Jiashu Liang,  M. Liebenthal,  
 Hung-Hsuan Lin,  You-Sheng Lin,  Fenglai Liu,  Kuan-Yu Liu,  
 M. Loipersberger,  A. Luenser,  A. Manjanath,  P. Manohar,  E. Mansoor,  
 S. F. Manzer,  Shan-Ping Mao,  A. V. Marenich,  T. Markovich,  S. Mason,  
 S. A. Maurer,  P. F. McLaughlin,  M. F. S. J. Menger,  J.-M. Mewes,  
 S. A. Mewes,  P. Morgante,  J. W. Mullinax,  T. S. Nguyen-Beck,  
 K. J. Oosterbaan,  G. Paran,  Alexander C. Paul,  Suranjan K. Paul,  
 F. Pavosevic,  Zheng Pei,  S. Prager,  E. I. Proynov,  E. Ramos,  B. Rana,  
 A. E. Rask,  A. Rettig,  R. M. Richard,  F. Rob,  E. Rossomme,  T. Scheele,  
 M. Scheurer,  M. Schneider,  N. Sergueev,  S. M. Sharada,  W. Skomorowski,  
 D. W. Small,  C. J. Stein,  Yu-Chuan Su,  E. J. Sundstrom,  Zhen Tao,  
 J. Thirman,  T. Tsuchimochi,  N. M. Tubman,  S. P. Veccham,  O. Vydrov,  
 J. Wenzel,  J. Witte,  A. Yamada,  Kun Yao,  S. Yeganeh,  S. R. Yost,  
 A. Zech,  Igor Ying Zhang,  Xing Zhang,  Yu Zhang,  D. Zuev,  
 A. Aspuru-Guzik,  A. T. Bell,  N. A. Besley,  K. B. Bravaya,  B. R. Brooks,  
 D. Casanova,  Jeng-Da Chai,  S. Coriani,  C. J. Cramer,  
 A. E. DePrince, III,  R. A. DiStasio Jr.,  A. Dreuw,  B. D. Dunietz,  
 T. R. Furlani,  W. A. Goddard III,  S. Grimme,  S. Hammes-Schiffer,  
 T. Head-Gordon,  W. J. Hehre,  Chao-Ping Hsu,  T.-C. Jagau,  Yousung Jung,  
 A. Klamt,  Jing Kong,  D. S. Lambrecht,  WanZhen Liang,  N. J. Mayhall,  
 C. W. McCurdy,  J. B. Neaton,  C. Ochsenfeld,  J. A. Parkhill,  R. Peverati,  
 V. A. Rassolov,  Yihan Shao,  L. V. Slipchenko,  T. Stauch,  R. P. Steele,  
 J. E. Subotnik,  A. J. W. Thom,  A. Tkatchenko,  D. G. Truhlar,  
 T. Van Voorhis,  T. A. Wesolowski,  K. B. Whaley,  H. L. Woodcock III,  
 P. M. Zimmerman,  S. Faraji,  P. M. W. Gill,  M. Head-Gordon,  
 J. M. Herbert,  A. I. Krylov

 Contributors to earlier versions of Q-Chem not listed above: 
 R. D. Adamson,  B. Austin,  R. Baer,  J. Baker,  G. J. O. Beran,  
 K. Brandhorst,  S. T. Brown,  E. F. C. Byrd,  A. K. Chakraborty,  
 G. K. L. Chan,  Chun-Min Chang,  Yunqing Chen,  C.-L. Cheng,  
 Siu Hung Chien,  D. M. Chipman,  D. L. Crittenden,  H. Dachsel,  
 R. J. Doerksen,  A. D. Dutoi,  R. G. Edgar,  J. Fosso-Tande,  
 L. Fusti-Molnar,  D. Ghosh,  A. Ghysels,  A. Golubeva-Zadorozhnaya,  
 J. Gonthier,  M. S. Gordon,  S. R. Gwaltney,  G. Hawkins,  J. E. Herr,  
 A. Heyden,  S. Hirata,  E. G. Hohenstein,  G. Kedziora,  F. J. Keil,  
 C. Kelley,  Jihan Kim,  R. A. King,  R. Z. Khaliullin,  P. P. Korambath,  
 W. Kurlancheek,  A. Laurent,  A. M. Lee,  M. S. Lee,  S. V. Levchenko,  
 Ching Yeh Lin,  D. Liotard,  E. Livshits,  R. C. Lochan,  I. Lotan,  
 L. A. Martinez-Martinez,  P. E. Maslen,  N. Nair,  D. P. O'Neill,  
 D. Neuhauser,  E. Neuscamman,  C. M. Oana,  R. Olivares-Amaya,  R. Olson,  
 T. M. Perrine,  B. Peters,  P. A. Pieniazek,  A. Prociuk,  Y. M. Rhee,  
 J. Ritchie,  M. A. Rohrdanz,  E. Rosta,  N. J. Russ,  H. F. Schaefer III,  
 M. W. Schmidt,  N. E. Schultz,  S. Sharma,  N. Shenvi,  C. D. Sherrill,  
 A. C. Simmonett,  A. Sodt,  T. Stein,  D. Stuck,  K. S. Thanthiriwatte,  
 V. Vanovschi,  L. Vogt,  Tao Wang,  A. Warshel,  M. A. Watson,  
 C. F. Williams,  Q. Wu,  X. Xu,  Jun Yang,  W. Zhang,  Yan Zhao

 Please cite Q-Chem as follows:
 Y. Shao et al., Mol. Phys. 113, 184-215 (2015)
 DOI: 10.1080/00268976.2014.952696

 Q-Chem 5.4.0 for Intel X86 EM64T Linux

 Parts of Q-Chem use Armadillo 9.800.1 (Horizon Scraper).
 http://arma.sourceforge.net/

 Q-Chem begins on Tue Jan  9 09:58:25 2024  

 Host: 
0

     Scratch files written to ./qchem2777418//
 May1621 |scratch|qcdevops|jenkins|workspace|build_RNUM    
 Parallel job on  1  processors
 Processing $rem in /cm/shared/apps/spack/cpu/opt/spack/linux-centos8-zen2/gcc-10.2.0/qchem-5.4-akfmr7b3t57bfs6qan3padb2wnb2i7cl/config/preferences:
 Processing $rem in /home/rramji/.qchemrc:
 Symmetry turned off for PCM/SM12/SMD calculation
 Core orbitals will be frozen

 Checking the input file for inconsistencies... 	...done.

 Q-Chem warning in module forms1/BasisType.C, line 2236:

 You are not using the predefined 5D/6D in this basis set.


--------------------------------------------------------------
User input:
--------------------------------------------------------------
$molecule
0 1
C	-0.797253	-0.619704	0.973565
S	-0.103853	-0.038504	2.481065
C	1.100247	0.972896	1.692465
C	-0.103953	-0.038904	-0.094335
C	0.959547	0.856396	0.287165
S	-0.288653	-0.197704	-1.831935
C	1.049647	0.932496	-2.080935
C	1.590647	1.389696	-0.889035
F	2.611447	2.252596	-0.845535
C	1.394047	1.219096	-3.482535
O	0.809447	0.718096	-4.432935
O	2.423847	2.092896	-3.595635
C	2.806447	2.407096	-4.942635
H	3.645347	3.120196	-4.859535
H	1.961747	2.864196	-5.496635
H	3.124747	1.494396	-5.485735
C	-0.797253	-2.054904	0.973565
H	-0.789853	-2.062904	2.053465
H	-1.637953	-2.732804	0.973865
H	0.143147	-2.586004	0.966865
H	1.807447	1.568096	2.280065
$end

$rem
JOBTYPE		SP
EXCHANGE	HF
CORRELATION	pRIMP2
BASIS		cc-pvtz
METHOD		rimp2
AUX_BASIS	rimp2-cc-pvtz
SOLVENT_METHOD	PCM
PURECART	11111
SYMMETRY	false
MEM_TOTAL	110000
SCF_CONVERGENCE = 6
THRESH=10
GUI = 2
$end



$solvent
dielectric 4.90
$end
--------------------------------------------------------------
 ----------------------------------------------------------------
             Standard Nuclear Orientation (Angstroms)
    I     Atom           X                Y                Z
 ----------------------------------------------------------------
    1      C      -0.7972530000    -0.6197040000     0.9735650000
    2      S      -0.1038530000    -0.0385040000     2.4810650000
    3      C       1.1002470000     0.9728960000     1.6924650000
    4      C      -0.1039530000    -0.0389040000    -0.0943350000
    5      C       0.9595470000     0.8563960000     0.2871650000
    6      S      -0.2886530000    -0.1977040000    -1.8319350000
    7      C       1.0496470000     0.9324960000    -2.0809350000
    8      C       1.5906470000     1.3896960000    -0.8890350000
    9      F       2.6114470000     2.2525960000    -0.8455350000
   10      C       1.3940470000     1.2190960000    -3.4825350000
   11      O       0.8094470000     0.7180960000    -4.4329350000
   12      O       2.4238470000     2.0928960000    -3.5956350000
   13      C       2.8064470000     2.4070960000    -4.9426350000
   14      H       3.6453470000     3.1201960000    -4.8595350000
   15      H       1.9617470000     2.8641960000    -5.4966350000
   16      H       3.1247470000     1.4943960000    -5.4857350000
   17      C      -0.7972530000    -2.0549040000     0.9735650000
   18      H      -0.7898530000    -2.0629040000     2.0534650000
   19      H      -1.6379530000    -2.7328040000     0.9738650000
   20      H       0.1431470000    -2.5860040000     0.9668650000
   21      H       1.8074470000     1.5680960000     2.2800650000
 ----------------------------------------------------------------
 Nuclear Repulsion Energy =        1089.03013019 hartrees
 There are       59 alpha and       59 beta electrons
 Requested basis set is cc-pVTZ
 There are 186 shells and 526 basis functions

 Total QAlloc Memory Limit 110000 MB
 Mega-Array Size       188 MB
 MEM_STATIC part       192 MB
 Discretize the solute cavity surface with Lebedev spheres
	Using 110 Lebedev grid points for each H atom
	Using 194 Lebedev grid points for other atoms
	Atomic van der Waals radii will be scaled by 1.20
 Remove points where switching function is < 1.0e-08
 Keep 1523 surface tesserae and discard 1963 interior tesserae
 Molecular Surface Area = 240.597 Angst**2
 Requested basis set is rimp2-cc-pVTZ
 There are 410 shells and 1426 basis functions
 A cutoff of  1.0D-10 yielded  11649 shell pairs
 There are     91391 function pairs (    119610 Cartesian)
 Smallest overlap matrix eigenvalue = 6.60E-05

 Scale SEOQF with 1.000000e-01/1.000000e-01/1.000000e-02

 Standard Electronic Orientation quadrupole field applied
 Nucleus-field energy     =     0.0000000165 hartrees
 Guess from superposition of atomic densities
 Warning:  Energy on first SCF cycle will be non-variational
 SAD guess density has 118.000000 electrons

 -----------------------------------------------------------------------
  General SCF calculation program by
  Eric Jon Sundstrom, Paul Horn, Yuezhi Mao, Dmitri Zuev, Alec White,
  David Stuck, Shaama M.S., Shane Yost, Joonho Lee, David Small,
  Daniel Levine, Susi Lehtola, Hugh Burton, Evgeny Epifanovsky,
  Bang C. Huynh
 -----------------------------------------------------------------------
 Hartree-Fock
 using 64 threads for integral computing
 -------------------------------------------------------
 OpenMP Integral computing Module                
 Release: version 1.0, May 2013, Q-Chem Inc. Pittsburgh 
 -------------------------------------------------------
 A restricted SCF calculation will be
 performed using DIIS
 SCF converges when DIIS error is below 1.0e-06
 ---------------------------------------
  Cycle       Energy         DIIS error
 ---------------------------------------
    1   -1394.3361443044      2.48e-02  
    2   -1388.9777339317      2.49e-03  
    3   -1389.1503030717      1.56e-03  
    4   -1389.2125214216      3.56e-04  
    5   -1389.2184701532      1.13e-04  
    6   -1389.2191785053      3.69e-05  
    7   -1389.2193299874      1.84e-05  
    8   -1389.2193820314      7.24e-06  
    9   -1389.2193934499      3.16e-06  
   10   -1389.2193952305      1.20e-06  
   11   -1389.2193955125      5.18e-07  Convergence criterion met
 ---------------------------------------
 SCF time:   CPU 1738.84s  wall 52.00s 

************** Final PCM Free Energy Summary **************
 G_electrostatic  =      -0.01197696 hartree =      -7.51565697 kcal/mol
 G_cavitation     =       0.00000000 hartree =       0.00000000 kcal/mol
 G_dispersion     =       0.00000000 hartree =       0.00000000 kcal/mol
 G_repulsion      =       0.00000000 hartree =       0.00000000 kcal/mol
 --------------------------------------------------
 Non-electrostatic Free Energy =       0.00000000 hartree =       0.00000000 kcal/mol
 Total                         =      -0.01197696 hartree =      -7.51565697 kcal/mol
 --------------------------------------------------
 SCF Energy (H0 + V/2)                       =   -1389.21939551 
 Solute Internal Energy (H0)                 =   -1389.20741855 
 Total Free Energy (H0 + V/2 + non-elec)     =   -1389.21939551 hartree
                                             = -871748.32798097 kcal/mol
***********************************************************

 SCF   energy in the final basis set =    -1389.2193955125
 Total energy in the final basis set =    -1389.2193955125


 --------------------------------------------------------------
  Generalized many-body perturbation theory program
  by Joonho Lee, Fazle Rob, Xintian Feng, Evgeny Epifanovsky

 No regularization used 
 (reg. param. = 0.0000e+00)
  (P|Q)^-1/2 Time:  CPU 31.02 s  wall 0.50 s

 In RI-MP2 calculation: 
 # of frozen core orbitals: 22

 Components of the RIMP2 correlation energy:
        aaaa    correlation energy =        -0.3299563338 a.u.
        abab    correlation energy =        -1.8537566927 a.u.
        bbbb    correlation energy =        -0.3299563338 a.u.
        non-Brillouin singles      =        -0.0000000000 a.u.
        total same-spin energy     =        -0.6599126676 a.u.
        total opposite-spin energy =        -1.8537566927 a.u.

 Total  RIMP2   correlation energy =        -2.5136693604 a.u.
        RIMP2         total energy =     -1391.7330648728 a.u.

 RI-MP2 Energy Time:  CPU 210.55 s  wall 3.42 s
 
 --------------------------------------------------------------
 
                    Orbital Energies (a.u.)
 --------------------------------------------------------------
 
 Alpha MOs
 -- Occupied --
-92.0045 -91.9995 -26.3427 -20.6137 -20.5595 -11.4078 -11.3819 -11.3186
-11.3000 -11.2938 -11.2884 -11.2798 -11.2670 -11.2168  -9.0043  -8.9994
 -6.6850  -6.6841  -6.6838  -6.6803  -6.6796  -6.6786  -1.6599  -1.4661
 -1.3687  -1.2192  -1.1425  -1.0670  -1.0229  -0.9911  -0.9607  -0.9065
 -0.8664  -0.8110  -0.7904  -0.7591  -0.7333  -0.7246  -0.6942  -0.6835
 -0.6730  -0.6614  -0.6073  -0.6060  -0.5924  -0.5755  -0.5649  -0.5605
 -0.5302  -0.5245  -0.5103  -0.4793  -0.4767  -0.4720  -0.4698  -0.4440
 -0.3889  -0.3414  -0.2981
 -- Virtual --
  0.0318   0.0890   0.1342   0.1545   0.1579   0.1701   0.1816   0.1925
  0.2112   0.2153   0.2196   0.2288   0.2357   0.2475   0.2569   0.2679
  0.2826   0.2843   0.3074   0.3376   0.3427   0.3625   0.3641   0.3737
  0.3847   0.3941   0.4009   0.4120   0.4265   0.4276   0.4378   0.4453
  0.4511   0.4555   0.4696   0.4780   0.4916   0.5057   0.5146   0.5195
  0.5230   0.5262   0.5354   0.5406   0.5442   0.5522   0.5696   0.5772
  0.5869   0.5934   0.6002   0.6064   0.6143   0.6218   0.6227   0.6310
  0.6478   0.6521   0.6584   0.6653   0.6755   0.6880   0.6923   0.7089
  0.7123   0.7184   0.7325   0.7407   0.7544   0.7649   0.7756   0.7941
  0.8050   0.8150   0.8271   0.8428   0.8460   0.8614   0.8696   0.8755
  0.8840   0.9033   0.9041   0.9133   0.9430   0.9516   0.9612   0.9623
  0.9832   0.9871   1.0005   1.0167   1.0231   1.0388   1.0487   1.0580
  1.0617   1.0778   1.0869   1.1006   1.1029   1.1109   1.1191   1.1296
  1.1389   1.1505   1.1572   1.1736   1.1865   1.1952   1.2033   1.2214
  1.2270   1.2354   1.2578   1.2609   1.2683   1.2722   1.2849   1.3034
  1.3304   1.3370   1.3435   1.3568   1.3599   1.3724   1.3906   1.4058
  1.4153   1.4282   1.4413   1.4529   1.4771   1.4837   1.4986   1.5047
  1.5132   1.5365   1.5427   1.5504   1.5592   1.5748   1.5857   1.5973
  1.6069   1.6339   1.6524   1.6629   1.6695   1.6909   1.7011   1.7181
  1.7524   1.7676   1.7716   1.7948   1.8175   1.8219   1.8261   1.8511
  1.8754   1.8919   1.9007   1.9242   1.9363   1.9390   1.9514   1.9686
  1.9790   1.9910   2.0030   2.0313   2.0615   2.0831   2.0866   2.0987
  2.1226   2.1466   2.1616   2.1801   2.1958   2.2012   2.2147   2.2241
  2.2307   2.2350   2.2522   2.2712   2.2891   2.3010   2.3339   2.3430
  2.3571   2.3694   2.3772   2.4141   2.4204   2.4317   2.4684   2.4831
  2.5033   2.5365   2.5488   2.5669   2.5803   2.5942   2.6253   2.6363
  2.6395   2.6466   2.6682   2.6802   2.6884   2.7011   2.7056   2.7245
  2.7384   2.7630   2.7672   2.7808   2.7939   2.8018   2.8118   2.8282
  2.8367   2.8668   2.8834   2.8862   2.9160   2.9180   2.9480   2.9550
  2.9729   2.9856   2.9951   3.0159   3.0230   3.0240   3.0533   3.0620
  3.0726   3.0869   3.0921   3.1001   3.1097   3.1298   3.1379   3.1504
  3.1546   3.1899   3.1919   3.2096   3.2133   3.2196   3.2286   3.2432
  3.2566   3.2600   3.2685   3.2797   3.2878   3.3006   3.3151   3.3173
  3.3466   3.3530   3.3566   3.3809   3.3896   3.3970   3.4082   3.4151
  3.4195   3.4253   3.4364   3.4580   3.4687   3.4764   3.4791   3.4889
  3.4993   3.5217   3.5325   3.5473   3.5535   3.5623   3.5676   3.5785
  3.5957   3.5982   3.6079   3.6245   3.6345   3.6414   3.6657   3.6702
  3.6858   3.6883   3.7061   3.7175   3.7287   3.7411   3.7531   3.7621
  3.7809   3.7898   3.7995   3.8018   3.8109   3.8300   3.8326   3.8474
  3.8566   3.8747   3.8861   3.8937   3.9023   3.9136   3.9193   3.9292
  3.9560   3.9630   3.9782   4.0084   4.0171   4.0242   4.0395   4.0570
  4.0697   4.0773   4.0838   4.1150   4.1471   4.1502   4.1612   4.1667
  4.1933   4.2009   4.2277   4.2347   4.2782   4.2809   4.2998   4.3423
  4.3518   4.3587   4.3621   4.3777   4.3865   4.4268   4.4327   4.4457
  4.4763   4.4943   4.5198   4.5411   4.5467   4.5618   4.5865   4.6085
  4.6234   4.6360   4.6574   4.6735   4.6757   4.7087   4.7339   4.7469
  4.7648   4.7743   4.8124   4.8177   4.8357   4.8541   4.8862   4.9006
  4.9616   4.9734   5.0095   5.0271   5.0387   5.0715   5.1148   5.1181
  5.1595   5.1952   5.2364   5.2391   5.2530   5.2550   5.2589   5.3521
  5.3566   5.4026   5.4142   5.4267   5.4424   5.4855   5.4978   5.5134
  5.5345   5.5816   5.6191   5.6230   5.6565   5.6772   5.7264   5.7507
  5.7999   5.8085   5.8342   5.8655   5.8974   5.9304   5.9565   6.0067
  6.0426   6.0465   6.1354   6.1512   6.1836   6.2464   6.2623   6.3854
  6.4513   6.4694   6.5387   6.5990   6.6620   6.6727   6.7459   6.8305
  6.8609   6.9795   7.2048   7.2051   7.3113   7.3635   7.3636   7.4059
  7.4144   7.4861   7.5189   7.5505   7.6154   7.7736   7.7895   7.8894
  7.9558   8.1330   8.1927   8.9225   9.0212   9.3635   9.4763   9.6608
 10.1830  11.1809  11.7269  11.8865  12.4097  12.7499  13.0545  13.3858
 13.7707  14.0293  14.2865
 --------------------------------------------------------------
 
          Ground-State Mulliken Net Atomic Charges

     Atom                 Charge (a.u.)
  ----------------------------------------
      1 C                    -0.085165
      2 S                     0.088149
      3 C                    -0.163556
      4 C                     0.039003
      5 C                    -0.096444
      6 S                     0.026037
      7 C                    -0.157725
      8 C                     0.391178
      9 F                    -0.206980
     10 C                     0.447311
     11 O                    -0.464085
     12 O                    -0.301569
     13 C                    -0.058396
     14 H                     0.120992
     15 H                     0.094853
     16 H                     0.094711
     17 C                    -0.355097
     18 H                     0.108361
     19 H                     0.133933
     20 H                     0.128203
     21 H                     0.216286
  ----------------------------------------
  Sum of atomic charges =     0.000000

 -----------------------------------------------------------------
                    Cartesian Multipole Moments
 -----------------------------------------------------------------
    Charge (ESU x 10^10)
                -0.0000
    Dipole Moment (Debye)
         X       2.5641      Y       0.7834      Z       3.5386
       Tot       4.4396
    Quadrupole Moments (Debye-Ang)
        XX     -90.9125     XY       5.6632     YY     -89.4926
        XZ      -5.4772     YZ      -6.9456     ZZ     -94.8017
    Octopole Moments (Debye-Ang^2)
       XXX    -189.1253    XXY     -43.4035    XYY     -61.7943
       YYY    -147.6981    XXZ      59.7553    XYZ     -15.2101
       YYZ      70.9178    XZZ      -6.3205    YZZ      -0.6353
       ZZZ     270.5829
    Hexadecapole Moments (Debye-Ang^3)
      XXXX   -1144.2578   XXXY    -447.4824   XXYY    -346.4595
      XYYY    -455.2366   YYYY   -1062.0096   XXXZ     556.0258
      XXYZ     129.1506   XYYZ     153.8259   YYYZ     514.6465
      XXZZ    -613.5423   XYZZ      13.1176   YYZZ    -647.4304
      XZZZ     374.9116   YZZZ     356.5205   ZZZZ   -3709.3186
 -----------------------------------------------------------------
 Total job time:  59.05s(wall), 2053.07s(cpu) 
 Tue Jan  9 09:59:24 2024

        *************************************************************
        *                                                           *
        *  Thank you very much for using Q-Chem.  Have a nice day.  *
        *                                                           *
        *************************************************************


0 sent ACK to 0 
now end server 0 ... 
cleanup process ... done
remove work dirs ./qchem2777418.0 -- ./qchem2777418.0
rm -rf ./qchem2777418.0
rm -rf ./qchem2777418
