You are running Q-Chem version: 5.4.0

#
# job setting
#
local host:  exp-3-18
current dir: /home/rramji/project-csd799/aromodel/ptb7fout-qchem/methylated-rotation-run
input file:  Dimethoxy_Benzodithiophene_Phi_10_Theta_50_Methylcarbonyl_3_Fluoro_Thienothiophene_Hydrogenated_Improper.qcin
output file: 
nprocs     : 1
nthreads   : 64
#
# qchem installation setting
#
QC:          /cm/shared/apps/spack/cpu/opt/spack/linux-centos8-zen2/gcc-10.2.0/qchem-5.4-akfmr7b3t57bfs6qan3padb2wnb2i7cl
QCAUX:       /cm/shared/apps/spack/cpu/opt/spack/linux-centos8-zen2/gcc-10.2.0/qchem-5.4-akfmr7b3t57bfs6qan3padb2wnb2i7cl/qcaux
QCPROG:      /cm/shared/apps/spack/cpu/opt/spack/linux-centos8-zen2/gcc-10.2.0/qchem-5.4-akfmr7b3t57bfs6qan3padb2wnb2i7cl/exe/qcprog.exe
QCPROG_S:    /cm/shared/apps/spack/cpu/opt/spack/linux-centos8-zen2/gcc-10.2.0/qchem-5.4-akfmr7b3t57bfs6qan3padb2wnb2i7cl/exe/qcprog.exe_s
PARALLEL:    -DPARALLEL
QCMPI:       mpich
#
# qchem directory setting
#
qcrun:       qchem791365
QCSCRATCH:   .
QCLOCALSCR:  
QCTMPDIR:    .
QCFILEPREF:  ./qchem791365
QCSAVEDIR:   
workdirs:    ./qchem791365
workdir0:    ./qchem791365
partmpdirs =  
#
# parallel setting
#
QCRSH:           ssh
QCMPI:           mpich
QCMPIRUN:        /cm/shared/apps/spack/cpu/opt/spack/linux-centos8-zen2/gcc-10.2.0/qchem-5.4-akfmr7b3t57bfs6qan3padb2wnb2i7cl/bin/mpi/mpirun_qchem
QCMACHINEFILE:   ./qchem791365/hostfile
exp-3-18

#
# env setting
#
exported envs:   QC QCAUX QCSCRATCH QCRUNNAME QCFILEPREF QCPROG QCPROG_S GUIFILE

Running Job 1 of 1 Dimethoxy_Benzodithiophene_Phi_10_Theta_50_Methylcarbonyl_3_Fluoro_Thienothiophene_Hydrogenated_Improper.qcin
qchem Dimethoxy_Benzodithiophene_Phi_10_Theta_50_Methylcarbonyl_3_Fluoro_Thienothiophene_Hydrogenated_Improper.qcin_791365.0 ./qchem791365/ 1
/cm/shared/apps/spack/cpu/opt/spack/linux-centos8-zen2/gcc-10.2.0/qchem-5.4-akfmr7b3t57bfs6qan3padb2wnb2i7cl/bin/mpi/mpirun_qchem -machinefile ./qchem791365/hostfile -np 1 /cm/shared/apps/spack/cpu/opt/spack/linux-centos8-zen2/gcc-10.2.0/qchem-5.4-akfmr7b3t57bfs6qan3padb2wnb2i7cl/exe/qcprog.exe Dimethoxy_Benzodithiophene_Phi_10_Theta_50_Methylcarbonyl_3_Fluoro_Thienothiophene_Hydrogenated_Improper.qcin_791365.0 ./qchem791365/

Process 0 of 1 is on exp-3-18 - thread support 0
initial socket setup ...start
initial socket setup ...done 
now start server 0 ... 
                  Welcome to Q-Chem
     A Quantum Leap Into The Future Of Chemistry


 Q-Chem 5.4, Q-Chem, Inc., Pleasanton, CA (2021)

 License issued to: University of California, San Diego (site)

 E. Epifanovsky,  A. T. B. Gilbert,  Xintian Feng,  Joonho Lee,  Yuezhi Mao,  
 N. Mardirossian,  P. Pokhilko,  A. White,  M. Wormit,  M. P. Coons,  
 A. L. Dempwolff,  Zhengting Gan,  D. Hait,  P. R. Horn,  L. D. Jacobson,  
 I. Kaliman,  J. Kussmann,  A. W. Lange,  Ka Un Lao,  D. S. Levine,  Jie Liu,  
 S. C. McKenzie,  A. F. Morrison,  K. Nanda,  F. Plasser,  D. R. Rehn,  
 M. L. Vidal,  Zhi-Qiang You,  Ying Zhu,  B. Alam,  B. Albrecht,  
 A. Aldossary,  E. Alguire,  J. H. Andersen,  D. Barton,  K. Begam,  A. Behn,  
 Y. A. Bernard,  E. J. Berquist,  H. Burton,  A. Carreras,  K. Carter-Fenk,  
 R. Chakraborty,  A. D. Chien,  K. D. Closser,  V. Cofer-Shabica,  
 S. Dasgupta,  Jia Deng,  M. de Wergifosse,  M. Diedenhofen,  Hainam Do,  
 S. Ehlert,  Po-Tung Fang,  S. Fatehi,  Qingguo Feng,  J. Gayvert,  
 Qinghui Ge,  G. Gidofalvi,  M. Goldey,  J. Gomes,  C. Gonzalez-Espinoza,  
 S. Gulania,  A. Gunina,  M. W. D. Hanson-Heine,  P. H. P. Harbach,  
 A. W. Hauser,  M. F. Herbst,  M. Hernandez Vera,  M. Hodecker,  
 Z. C. Holden,  S. Houck,  Xunkun Huang,  Kerwin Hui,  B. C. Huynh,  
 M. Ivanov,  Hyunjun Ji,  Hanjie Jiang,  B. Kaduk,  S. Kaehler,  
 K. Khistyaev,  Jaehoon Kim,  P. Klunzinger,  Z. Koczor-Benda,  
 Joong Hoon Koh,  D. Kosenkov,  L. Koulias,  T. Kowalczyk,  C. M. Krauter,  
 K. Kue,  A. Kunitsa,  T. Kus,  A. Landau,  K. V. Lawler,  D. Lefrancois,  
 S. Lehtola,  Rain Li,  Yi-Pei Li,  Jiashu Liang,  M. Liebenthal,  
 Hung-Hsuan Lin,  You-Sheng Lin,  Fenglai Liu,  Kuan-Yu Liu,  
 M. Loipersberger,  A. Luenser,  A. Manjanath,  P. Manohar,  E. Mansoor,  
 S. F. Manzer,  Shan-Ping Mao,  A. V. Marenich,  T. Markovich,  S. Mason,  
 S. A. Maurer,  P. F. McLaughlin,  M. F. S. J. Menger,  J.-M. Mewes,  
 S. A. Mewes,  P. Morgante,  J. W. Mullinax,  T. S. Nguyen-Beck,  
 K. J. Oosterbaan,  G. Paran,  Alexander C. Paul,  Suranjan K. Paul,  
 F. Pavosevic,  Zheng Pei,  S. Prager,  E. I. Proynov,  E. Ramos,  B. Rana,  
 A. E. Rask,  A. Rettig,  R. M. Richard,  F. Rob,  E. Rossomme,  T. Scheele,  
 M. Scheurer,  M. Schneider,  N. Sergueev,  S. M. Sharada,  W. Skomorowski,  
 D. W. Small,  C. J. Stein,  Yu-Chuan Su,  E. J. Sundstrom,  Zhen Tao,  
 J. Thirman,  T. Tsuchimochi,  N. M. Tubman,  S. P. Veccham,  O. Vydrov,  
 J. Wenzel,  J. Witte,  A. Yamada,  Kun Yao,  S. Yeganeh,  S. R. Yost,  
 A. Zech,  Igor Ying Zhang,  Xing Zhang,  Yu Zhang,  D. Zuev,  
 A. Aspuru-Guzik,  A. T. Bell,  N. A. Besley,  K. B. Bravaya,  B. R. Brooks,  
 D. Casanova,  Jeng-Da Chai,  S. Coriani,  C. J. Cramer,  
 A. E. DePrince, III,  R. A. DiStasio Jr.,  A. Dreuw,  B. D. Dunietz,  
 T. R. Furlani,  W. A. Goddard III,  S. Grimme,  S. Hammes-Schiffer,  
 T. Head-Gordon,  W. J. Hehre,  Chao-Ping Hsu,  T.-C. Jagau,  Yousung Jung,  
 A. Klamt,  Jing Kong,  D. S. Lambrecht,  WanZhen Liang,  N. J. Mayhall,  
 C. W. McCurdy,  J. B. Neaton,  C. Ochsenfeld,  J. A. Parkhill,  R. Peverati,  
 V. A. Rassolov,  Yihan Shao,  L. V. Slipchenko,  T. Stauch,  R. P. Steele,  
 J. E. Subotnik,  A. J. W. Thom,  A. Tkatchenko,  D. G. Truhlar,  
 T. Van Voorhis,  T. A. Wesolowski,  K. B. Whaley,  H. L. Woodcock III,  
 P. M. Zimmerman,  S. Faraji,  P. M. W. Gill,  M. Head-Gordon,  
 J. M. Herbert,  A. I. Krylov

 Contributors to earlier versions of Q-Chem not listed above: 
 R. D. Adamson,  B. Austin,  R. Baer,  J. Baker,  G. J. O. Beran,  
 K. Brandhorst,  S. T. Brown,  E. F. C. Byrd,  A. K. Chakraborty,  
 G. K. L. Chan,  Chun-Min Chang,  Yunqing Chen,  C.-L. Cheng,  
 Siu Hung Chien,  D. M. Chipman,  D. L. Crittenden,  H. Dachsel,  
 R. J. Doerksen,  A. D. Dutoi,  R. G. Edgar,  J. Fosso-Tande,  
 L. Fusti-Molnar,  D. Ghosh,  A. Ghysels,  A. Golubeva-Zadorozhnaya,  
 J. Gonthier,  M. S. Gordon,  S. R. Gwaltney,  G. Hawkins,  J. E. Herr,  
 A. Heyden,  S. Hirata,  E. G. Hohenstein,  G. Kedziora,  F. J. Keil,  
 C. Kelley,  Jihan Kim,  R. A. King,  R. Z. Khaliullin,  P. P. Korambath,  
 W. Kurlancheek,  A. Laurent,  A. M. Lee,  M. S. Lee,  S. V. Levchenko,  
 Ching Yeh Lin,  D. Liotard,  E. Livshits,  R. C. Lochan,  I. Lotan,  
 L. A. Martinez-Martinez,  P. E. Maslen,  N. Nair,  D. P. O'Neill,  
 D. Neuhauser,  E. Neuscamman,  C. M. Oana,  R. Olivares-Amaya,  R. Olson,  
 T. M. Perrine,  B. Peters,  P. A. Pieniazek,  A. Prociuk,  Y. M. Rhee,  
 J. Ritchie,  M. A. Rohrdanz,  E. Rosta,  N. J. Russ,  H. F. Schaefer III,  
 M. W. Schmidt,  N. E. Schultz,  S. Sharma,  N. Shenvi,  C. D. Sherrill,  
 A. C. Simmonett,  A. Sodt,  T. Stein,  D. Stuck,  K. S. Thanthiriwatte,  
 V. Vanovschi,  L. Vogt,  Tao Wang,  A. Warshel,  M. A. Watson,  
 C. F. Williams,  Q. Wu,  X. Xu,  Jun Yang,  W. Zhang,  Yan Zhao

 Please cite Q-Chem as follows:
 Y. Shao et al., Mol. Phys. 113, 184-215 (2015)
 DOI: 10.1080/00268976.2014.952696

 Q-Chem 5.4.0 for Intel X86 EM64T Linux

 Parts of Q-Chem use Armadillo 9.800.1 (Horizon Scraper).
 http://arma.sourceforge.net/

 Q-Chem begins on Tue Jan  9 09:53:30 2024  

 Host: 
0

     Scratch files written to ./qchem791365//
 May1621 |scratch|qcdevops|jenkins|workspace|build_RNUM    
 Parallel job on  1  processors
 Processing $rem in /cm/shared/apps/spack/cpu/opt/spack/linux-centos8-zen2/gcc-10.2.0/qchem-5.4-akfmr7b3t57bfs6qan3padb2wnb2i7cl/config/preferences:
 Processing $rem in /home/rramji/.qchemrc:
 Symmetry turned off for PCM/SM12/SMD calculation
 Core orbitals will be frozen

 Checking the input file for inconsistencies... 	...done.

 Q-Chem warning in module forms1/BasisType.C, line 2236:

 You are not using the predefined 5D/6D in this basis set.


--------------------------------------------------------------
User input:
--------------------------------------------------------------
$molecule
0 1
C	-0.182073	-0.975447	0.974266
S	-0.024473	-0.084547	2.481766
C	0.247827	1.464253	1.693166
C	-0.024273	-0.084847	-0.093634
C	0.214827	1.284553	0.287866
S	-0.063773	-0.325247	-1.831234
C	0.234927	1.400753	-2.080234
C	0.355527	2.098753	-0.888334
F	0.582927	3.415953	-0.844834
C	0.314627	1.841653	-3.481834
O	0.188827	1.082153	-4.432234
O	0.541827	3.172953	-3.594934
C	0.632927	3.659653	-4.941934
H	0.817227	4.745153	-4.858834
H	-0.307973	3.466753	-5.495934
H	1.463427	3.165053	-5.485034
C	-0.182073	-2.410647	0.974266
H	0.517827	-2.418647	1.796766
H	-0.825973	-3.088547	1.514866
H	0.534027	-2.941747	0.364666
H	0.406927	2.374753	2.280766
$end

$rem
JOBTYPE		SP
EXCHANGE	HF
CORRELATION	pRIMP2
BASIS		cc-pvtz
METHOD		rimp2
AUX_BASIS	rimp2-cc-pvtz
SOLVENT_METHOD	PCM
PURECART	11111
SYMMETRY	false
MEM_TOTAL	110000
SCF_CONVERGENCE = 6
THRESH=10
GUI = 2
$end



$solvent
dielectric 4.90
$end
--------------------------------------------------------------
 ----------------------------------------------------------------
             Standard Nuclear Orientation (Angstroms)
    I     Atom           X                Y                Z
 ----------------------------------------------------------------
    1      C      -0.1820730000    -0.9754470000     0.9742660000
    2      S      -0.0244730000    -0.0845470000     2.4817660000
    3      C       0.2478270000     1.4642530000     1.6931660000
    4      C      -0.0242730000    -0.0848470000    -0.0936340000
    5      C       0.2148270000     1.2845530000     0.2878660000
    6      S      -0.0637730000    -0.3252470000    -1.8312340000
    7      C       0.2349270000     1.4007530000    -2.0802340000
    8      C       0.3555270000     2.0987530000    -0.8883340000
    9      F       0.5829270000     3.4159530000    -0.8448340000
   10      C       0.3146270000     1.8416530000    -3.4818340000
   11      O       0.1888270000     1.0821530000    -4.4322340000
   12      O       0.5418270000     3.1729530000    -3.5949340000
   13      C       0.6329270000     3.6596530000    -4.9419340000
   14      H       0.8172270000     4.7451530000    -4.8588340000
   15      H      -0.3079730000     3.4667530000    -5.4959340000
   16      H       1.4634270000     3.1650530000    -5.4850340000
   17      C      -0.1820730000    -2.4106470000     0.9742660000
   18      H       0.5178270000    -2.4186470000     1.7967660000
   19      H      -0.8259730000    -3.0885470000     1.5148660000
   20      H       0.5340270000    -2.9417470000     0.3646660000
   21      H       0.4069270000     2.3747530000     2.2807660000
 ----------------------------------------------------------------
 Nuclear Repulsion Energy =        1082.82758482 hartrees
 There are       59 alpha and       59 beta electrons
 Requested basis set is cc-pVTZ
 There are 186 shells and 526 basis functions

 Total QAlloc Memory Limit 110000 MB
 Mega-Array Size       188 MB
 MEM_STATIC part       192 MB
 Discretize the solute cavity surface with Lebedev spheres
	Using 110 Lebedev grid points for each H atom
	Using 194 Lebedev grid points for other atoms
	Atomic van der Waals radii will be scaled by 1.20
 Remove points where switching function is < 1.0e-08
 Keep 1565 surface tesserae and discard 1921 interior tesserae
 Molecular Surface Area = 242.768 Angst**2
 Requested basis set is rimp2-cc-pVTZ
 There are 410 shells and 1426 basis functions
 A cutoff of  1.0D-10 yielded  11486 shell pairs
 There are     90116 function pairs (    117948 Cartesian)
 Smallest overlap matrix eigenvalue = 6.01E-05

 Scale SEOQF with 1.000000e-01/1.000000e-01/1.000000e-02

 Standard Electronic Orientation quadrupole field applied
 Nucleus-field energy     =     0.0000000258 hartrees
 Guess from superposition of atomic densities
 Warning:  Energy on first SCF cycle will be non-variational
 SAD guess density has 118.000000 electrons

 -----------------------------------------------------------------------
  General SCF calculation program by
  Eric Jon Sundstrom, Paul Horn, Yuezhi Mao, Dmitri Zuev, Alec White,
  David Stuck, Shaama M.S., Shane Yost, Joonho Lee, David Small,
  Daniel Levine, Susi Lehtola, Hugh Burton, Evgeny Epifanovsky,
  Bang C. Huynh
 -----------------------------------------------------------------------
 Hartree-Fock
 using 64 threads for integral computing
 -------------------------------------------------------
 OpenMP Integral computing Module                
 Release: version 1.0, May 2013, Q-Chem Inc. Pittsburgh 
 -------------------------------------------------------
 A restricted SCF calculation will be
 performed using DIIS
 SCF converges when DIIS error is below 1.0e-06
 ---------------------------------------
  Cycle       Energy         DIIS error
 ---------------------------------------
    1   -1394.2463261856      2.47e-02  
    2   -1389.0338737001      2.47e-03  
    3   -1389.2040346759      1.53e-03  
    4   -1389.2631423452      3.54e-04  
    5   -1389.2689208989      1.13e-04  
    6   -1389.2696123792      3.67e-05  
    7   -1389.2697626659      1.83e-05  
    8   -1389.2698144260      7.06e-06  
    9   -1389.2698251291      3.02e-06  
   10   -1389.2698265657      1.12e-06  
   11   -1389.2698267812      5.13e-07  Convergence criterion met
 ---------------------------------------
 SCF time:   CPU 1676.53s  wall 50.00s 

************** Final PCM Free Energy Summary **************
 G_electrostatic  =      -0.01240737 hartree =      -7.78574364 kcal/mol
 G_cavitation     =       0.00000000 hartree =       0.00000000 kcal/mol
 G_dispersion     =       0.00000000 hartree =       0.00000000 kcal/mol
 G_repulsion      =       0.00000000 hartree =       0.00000000 kcal/mol
 --------------------------------------------------
 Non-electrostatic Free Energy =       0.00000000 hartree =       0.00000000 kcal/mol
 Total                         =      -0.01240737 hartree =      -7.78574364 kcal/mol
 --------------------------------------------------
 SCF Energy (H0 + V/2)                       =   -1389.26982678 
 Solute Internal Energy (H0)                 =   -1389.25741941 
 Total Free Energy (H0 + V/2 + non-elec)     =   -1389.26982678 hartree
                                             = -871779.97407974 kcal/mol
***********************************************************

 SCF   energy in the final basis set =    -1389.2698267812
 Total energy in the final basis set =    -1389.2698267812


 --------------------------------------------------------------
  Generalized many-body perturbation theory program
  by Joonho Lee, Fazle Rob, Xintian Feng, Evgeny Epifanovsky

 No regularization used 
 (reg. param. = 0.0000e+00)
  (P|Q)^-1/2 Time:  CPU 35.86 s  wall 0.58 s

 In RI-MP2 calculation: 
 # of frozen core orbitals: 22

 Components of the RIMP2 correlation energy:
        aaaa    correlation energy =        -0.3281920402 a.u.
        abab    correlation energy =        -1.8480284970 a.u.
        bbbb    correlation energy =        -0.3281920402 a.u.
        non-Brillouin singles      =        -0.0000000000 a.u.
        total same-spin energy     =        -0.6563840804 a.u.
        total opposite-spin energy =        -1.8480284970 a.u.

 Total  RIMP2   correlation energy =        -2.5044125775 a.u.
        RIMP2         total energy =     -1391.7742393587 a.u.

 RI-MP2 Energy Time:  CPU 193.77 s  wall 3.96 s
 
 --------------------------------------------------------------
 
                    Orbital Energies (a.u.)
 --------------------------------------------------------------
 
 Alpha MOs
 -- Occupied --
-92.0057 -91.9909 -26.3402 -20.6133 -20.5594 -11.4072 -11.3781 -11.2978
-11.2965 -11.2941 -11.2879 -11.2840 -11.2783 -11.2272  -9.0048  -8.9911
 -6.6856  -6.6850  -6.6845  -6.6721  -6.6714  -6.6703  -1.6574  -1.4657
 -1.3683  -1.2121  -1.1369  -1.0655  -1.0191  -0.9950  -0.9583  -0.9124
 -0.8633  -0.8059  -0.7881  -0.7579  -0.7312  -0.7223  -0.6914  -0.6830
 -0.6725  -0.6602  -0.6096  -0.6004  -0.5922  -0.5767  -0.5649  -0.5557
 -0.5379  -0.5297  -0.5094  -0.4899  -0.4730  -0.4708  -0.4700  -0.4569
 -0.3883  -0.3456  -0.2862
 -- Virtual --
  0.0398   0.1210   0.1350   0.1553   0.1583   0.1712   0.1807   0.1973
  0.2126   0.2157   0.2236   0.2288   0.2332   0.2435   0.2499   0.2701
  0.2814   0.3058   0.3222   0.3372   0.3470   0.3557   0.3756   0.3817
  0.3856   0.3998   0.4055   0.4156   0.4228   0.4322   0.4381   0.4427
  0.4617   0.4679   0.4774   0.4890   0.4979   0.5069   0.5099   0.5192
  0.5285   0.5342   0.5375   0.5446   0.5571   0.5591   0.5734   0.5806
  0.5865   0.5932   0.6030   0.6081   0.6120   0.6164   0.6231   0.6266
  0.6402   0.6512   0.6576   0.6651   0.6715   0.6861   0.7059   0.7091
  0.7130   0.7209   0.7226   0.7465   0.7551   0.7647   0.7837   0.8096
  0.8108   0.8166   0.8328   0.8421   0.8534   0.8691   0.8768   0.8844
  0.8871   0.9031   0.9080   0.9202   0.9435   0.9565   0.9616   0.9642
  0.9811   0.9941   0.9965   1.0048   1.0230   1.0287   1.0409   1.0462
  1.0604   1.0773   1.0878   1.0956   1.1005   1.1103   1.1192   1.1192
  1.1263   1.1530   1.1631   1.1771   1.1845   1.1953   1.2073   1.2177
  1.2233   1.2336   1.2458   1.2548   1.2651   1.2796   1.2824   1.2993
  1.3058   1.3262   1.3568   1.3667   1.3744   1.3837   1.3897   1.4044
  1.4216   1.4308   1.4352   1.4688   1.4799   1.4986   1.5043   1.5062
  1.5172   1.5413   1.5425   1.5448   1.5636   1.5746   1.5871   1.5909
  1.6125   1.6282   1.6581   1.6719   1.6835   1.6860   1.7110   1.7258
  1.7443   1.7648   1.7959   1.8141   1.8206   1.8285   1.8458   1.8625
  1.8842   1.8849   1.9000   1.9119   1.9284   1.9421   1.9548   1.9713
  1.9951   2.0043   2.0155   2.0332   2.0569   2.0815   2.0903   2.1048
  2.1320   2.1610   2.1726   2.1893   2.2000   2.2030   2.2127   2.2280
  2.2336   2.2442   2.2568   2.2862   2.2999   2.3119   2.3330   2.3449
  2.3694   2.3736   2.3857   2.4097   2.4324   2.4503   2.4769   2.4910
  2.4986   2.5387   2.5507   2.5662   2.5825   2.6070   2.6270   2.6384
  2.6437   2.6557   2.6747   2.6769   2.6920   2.7000   2.7075   2.7132
  2.7331   2.7491   2.7688   2.7777   2.7861   2.7990   2.8060   2.8100
  2.8229   2.8457   2.8670   2.8751   2.8985   2.9217   2.9335   2.9584
  2.9633   2.9843   2.9892   2.9972   3.0236   3.0251   3.0534   3.0695
  3.0756   3.0917   3.0945   3.1021   3.1048   3.1193   3.1328   3.1380
  3.1494   3.1688   3.1877   3.2098   3.2187   3.2209   3.2415   3.2505
  3.2600   3.2607   3.2747   3.2830   3.2997   3.3021   3.3098   3.3297
  3.3408   3.3556   3.3648   3.3767   3.3883   3.3947   3.4032   3.4141
  3.4150   3.4317   3.4452   3.4464   3.4678   3.4737   3.4778   3.4862
  3.4955   3.5062   3.5297   3.5494   3.5578   3.5614   3.5698   3.5805
  3.5906   3.5950   3.6028   3.6188   3.6279   3.6553   3.6603   3.6651
  3.6768   3.6886   3.6925   3.7066   3.7179   3.7259   3.7423   3.7498
  3.7594   3.7738   3.7796   3.7949   3.8031   3.8130   3.8224   3.8353
  3.8424   3.8489   3.8670   3.8758   3.8931   3.9054   3.9232   3.9324
  3.9440   3.9561   3.9632   3.9898   3.9981   4.0110   4.0161   4.0469
  4.0683   4.0748   4.0874   4.0975   4.1231   4.1296   4.1578   4.1674
  4.1696   4.1932   4.2105   4.2536   4.2787   4.2916   4.3065   4.3167
  4.3427   4.3591   4.3639   4.3767   4.3949   4.4133   4.4198   4.4352
  4.4497   4.4700   4.4951   4.5214   4.5383   4.5543   4.5806   4.5946
  4.6053   4.6258   4.6361   4.6561   4.6690   4.7007   4.7177   4.7423
  4.7633   4.7817   4.7851   4.8480   4.8519   4.8761   4.9219   4.9402
  4.9510   4.9855   5.0008   5.0097   5.0613   5.0802   5.1109   5.1259
  5.1366   5.1790   5.2011   5.2532   5.2553   5.2601   5.3074   5.3532
  5.3610   5.4002   5.4128   5.4271   5.4638   5.4701   5.4858   5.5268
  5.5432   5.5826   5.6085   5.6233   5.6638   5.6707   5.7300   5.7562
  5.8089   5.8241   5.8352   5.8534   5.9124   5.9308   5.9389   6.0433
  6.0634   6.0973   6.1515   6.1780   6.2276   6.2627   6.2962   6.4156
  6.4517   6.4522   6.5393   6.6047   6.6623   6.6730   6.7480   6.8316
  6.8612   6.9798   7.2054   7.2082   7.3115   7.3658   7.3659   7.4077
  7.4148   7.4885   7.5272   7.5526   7.6163   7.7759   7.7905   7.8996
  7.9626   8.1361   8.2811   8.9248   9.0146   9.3657   9.4643   9.6458
 10.0802  11.0384  11.5861  11.8059  12.4055  12.8802  13.0823  13.3863
 13.7705  14.0301  14.5050
 --------------------------------------------------------------
 
          Ground-State Mulliken Net Atomic Charges

     Atom                 Charge (a.u.)
  ----------------------------------------
      1 C                     0.044962
      2 S                     0.074234
      3 C                    -0.212996
      4 C                    -0.027062
      5 C                    -0.088994
      6 S                    -0.006474
      7 C                    -0.157169
      8 C                     0.389078
      9 F                    -0.208794
     10 C                     0.445692
     11 O                    -0.462153
     12 O                    -0.300841
     13 C                    -0.058642
     14 H                     0.121020
     15 H                     0.094778
     16 H                     0.094648
     17 C                    -0.381692
     18 H                     0.126793
     19 H                     0.153686
     20 H                     0.146169
     21 H                     0.213758
  ----------------------------------------
  Sum of atomic charges =     0.000000

 -----------------------------------------------------------------
                    Cartesian Multipole Moments
 -----------------------------------------------------------------
    Charge (ESU x 10^10)
                -0.0000
    Dipole Moment (Debye)
         X       0.8272      Y       0.3948      Z       3.7482
       Tot       3.8586
    Quadrupole Moments (Debye-Ang)
        XX     -96.4065     XY       0.8460     YY     -81.3349
        XZ      -1.4039     YZ     -11.4220     ZZ     -95.6602
    Octopole Moments (Debye-Ang^2)
       XXX     -45.8077    XXY     -79.6568    XYY     -10.2741
       YYY    -237.1069    XXZ      78.9650    XYZ      -5.2843
       YYZ      54.2377    XZZ      -2.3418    YZZ      -6.2380
       ZZZ     271.6447
    Hexadecapole Moments (Debye-Ang^3)
      XXXX    -173.6762   XXXY    -158.8186   XXYY    -384.0968
      XYYY    -143.9865   YYYY   -2013.3311   XXXZ     138.2958
      XXYZ     274.9826   XYYZ      16.1566   YYYZ     664.6345
      XXZZ    -637.0907   XYZZ       7.9455   YYZZ    -626.7042
      XZZZ      84.2866   YZZZ     514.5041   ZZZZ   -3712.9693
 -----------------------------------------------------------------
 Total job time:  56.38s(wall), 1952.10s(cpu) 
 Tue Jan  9 09:54:26 2024

        *************************************************************
        *                                                           *
        *  Thank you very much for using Q-Chem.  Have a nice day.  *
        *                                                           *
        *************************************************************


0 sent ACK to 0 
now end server 0 ... 
cleanup process ... done
remove work dirs ./qchem791365.0 -- ./qchem791365.0
rm -rf ./qchem791365.0
rm -rf ./qchem791365
