You are running Q-Chem version: 5.4.0

#
# job setting
#
local host:  exp-7-25
current dir: /home/rramji/project-csd799/aromodel/ptb7fout-qchem/methylated-rotation-run
input file:  Dimethoxy_Benzodithiophene_Phi_30_Theta_10_Methylcarbonyl_3_Fluoro_Thienothiophene_Hydrogenated_Improper.qcin
output file: 
nprocs     : 1
nthreads   : 64
#
# qchem installation setting
#
QC:          /cm/shared/apps/spack/cpu/opt/spack/linux-centos8-zen2/gcc-10.2.0/qchem-5.4-akfmr7b3t57bfs6qan3padb2wnb2i7cl
QCAUX:       /cm/shared/apps/spack/cpu/opt/spack/linux-centos8-zen2/gcc-10.2.0/qchem-5.4-akfmr7b3t57bfs6qan3padb2wnb2i7cl/qcaux
QCPROG:      /cm/shared/apps/spack/cpu/opt/spack/linux-centos8-zen2/gcc-10.2.0/qchem-5.4-akfmr7b3t57bfs6qan3padb2wnb2i7cl/exe/qcprog.exe
QCPROG_S:    /cm/shared/apps/spack/cpu/opt/spack/linux-centos8-zen2/gcc-10.2.0/qchem-5.4-akfmr7b3t57bfs6qan3padb2wnb2i7cl/exe/qcprog.exe_s
PARALLEL:    -DPARALLEL
QCMPI:       mpich
#
# qchem directory setting
#
qcrun:       qchem957296
QCSCRATCH:   .
QCLOCALSCR:  
QCTMPDIR:    .
QCFILEPREF:  ./qchem957296
QCSAVEDIR:   
workdirs:    ./qchem957296
workdir0:    ./qchem957296
partmpdirs =  
#
# parallel setting
#
QCRSH:           ssh
QCMPI:           mpich
QCMPIRUN:        /cm/shared/apps/spack/cpu/opt/spack/linux-centos8-zen2/gcc-10.2.0/qchem-5.4-akfmr7b3t57bfs6qan3padb2wnb2i7cl/bin/mpi/mpirun_qchem
QCMACHINEFILE:   ./qchem957296/hostfile
exp-7-25

#
# env setting
#
exported envs:   QC QCAUX QCSCRATCH QCRUNNAME QCFILEPREF QCPROG QCPROG_S GUIFILE

Running Job 1 of 1 Dimethoxy_Benzodithiophene_Phi_30_Theta_10_Methylcarbonyl_3_Fluoro_Thienothiophene_Hydrogenated_Improper.qcin
qchem Dimethoxy_Benzodithiophene_Phi_30_Theta_10_Methylcarbonyl_3_Fluoro_Thienothiophene_Hydrogenated_Improper.qcin_957296.0 ./qchem957296/ 1
/cm/shared/apps/spack/cpu/opt/spack/linux-centos8-zen2/gcc-10.2.0/qchem-5.4-akfmr7b3t57bfs6qan3padb2wnb2i7cl/bin/mpi/mpirun_qchem -machinefile ./qchem957296/hostfile -np 1 /cm/shared/apps/spack/cpu/opt/spack/linux-centos8-zen2/gcc-10.2.0/qchem-5.4-akfmr7b3t57bfs6qan3padb2wnb2i7cl/exe/qcprog.exe Dimethoxy_Benzodithiophene_Phi_30_Theta_10_Methylcarbonyl_3_Fluoro_Thienothiophene_Hydrogenated_Improper.qcin_957296.0 ./qchem957296/

Process 0 of 1 is on exp-7-25 - thread support 0
initial socket setup ...start
initial socket setup ...done 
now start server 0 ... 
                  Welcome to Q-Chem
     A Quantum Leap Into The Future Of Chemistry


 Q-Chem 5.4, Q-Chem, Inc., Pleasanton, CA (2021)

 License issued to: University of California, San Diego (site)

 E. Epifanovsky,  A. T. B. Gilbert,  Xintian Feng,  Joonho Lee,  Yuezhi Mao,  
 N. Mardirossian,  P. Pokhilko,  A. White,  M. Wormit,  M. P. Coons,  
 A. L. Dempwolff,  Zhengting Gan,  D. Hait,  P. R. Horn,  L. D. Jacobson,  
 I. Kaliman,  J. Kussmann,  A. W. Lange,  Ka Un Lao,  D. S. Levine,  Jie Liu,  
 S. C. McKenzie,  A. F. Morrison,  K. Nanda,  F. Plasser,  D. R. Rehn,  
 M. L. Vidal,  Zhi-Qiang You,  Ying Zhu,  B. Alam,  B. Albrecht,  
 A. Aldossary,  E. Alguire,  J. H. Andersen,  D. Barton,  K. Begam,  A. Behn,  
 Y. A. Bernard,  E. J. Berquist,  H. Burton,  A. Carreras,  K. Carter-Fenk,  
 R. Chakraborty,  A. D. Chien,  K. D. Closser,  V. Cofer-Shabica,  
 S. Dasgupta,  Jia Deng,  M. de Wergifosse,  M. Diedenhofen,  Hainam Do,  
 S. Ehlert,  Po-Tung Fang,  S. Fatehi,  Qingguo Feng,  J. Gayvert,  
 Qinghui Ge,  G. Gidofalvi,  M. Goldey,  J. Gomes,  C. Gonzalez-Espinoza,  
 S. Gulania,  A. Gunina,  M. W. D. Hanson-Heine,  P. H. P. Harbach,  
 A. W. Hauser,  M. F. Herbst,  M. Hernandez Vera,  M. Hodecker,  
 Z. C. Holden,  S. Houck,  Xunkun Huang,  Kerwin Hui,  B. C. Huynh,  
 M. Ivanov,  Hyunjun Ji,  Hanjie Jiang,  B. Kaduk,  S. Kaehler,  
 K. Khistyaev,  Jaehoon Kim,  P. Klunzinger,  Z. Koczor-Benda,  
 Joong Hoon Koh,  D. Kosenkov,  L. Koulias,  T. Kowalczyk,  C. M. Krauter,  
 K. Kue,  A. Kunitsa,  T. Kus,  A. Landau,  K. V. Lawler,  D. Lefrancois,  
 S. Lehtola,  Rain Li,  Yi-Pei Li,  Jiashu Liang,  M. Liebenthal,  
 Hung-Hsuan Lin,  You-Sheng Lin,  Fenglai Liu,  Kuan-Yu Liu,  
 M. Loipersberger,  A. Luenser,  A. Manjanath,  P. Manohar,  E. Mansoor,  
 S. F. Manzer,  Shan-Ping Mao,  A. V. Marenich,  T. Markovich,  S. Mason,  
 S. A. Maurer,  P. F. McLaughlin,  M. F. S. J. Menger,  J.-M. Mewes,  
 S. A. Mewes,  P. Morgante,  J. W. Mullinax,  T. S. Nguyen-Beck,  
 K. J. Oosterbaan,  G. Paran,  Alexander C. Paul,  Suranjan K. Paul,  
 F. Pavosevic,  Zheng Pei,  S. Prager,  E. I. Proynov,  E. Ramos,  B. Rana,  
 A. E. Rask,  A. Rettig,  R. M. Richard,  F. Rob,  E. Rossomme,  T. Scheele,  
 M. Scheurer,  M. Schneider,  N. Sergueev,  S. M. Sharada,  W. Skomorowski,  
 D. W. Small,  C. J. Stein,  Yu-Chuan Su,  E. J. Sundstrom,  Zhen Tao,  
 J. Thirman,  T. Tsuchimochi,  N. M. Tubman,  S. P. Veccham,  O. Vydrov,  
 J. Wenzel,  J. Witte,  A. Yamada,  Kun Yao,  S. Yeganeh,  S. R. Yost,  
 A. Zech,  Igor Ying Zhang,  Xing Zhang,  Yu Zhang,  D. Zuev,  
 A. Aspuru-Guzik,  A. T. Bell,  N. A. Besley,  K. B. Bravaya,  B. R. Brooks,  
 D. Casanova,  Jeng-Da Chai,  S. Coriani,  C. J. Cramer,  
 A. E. DePrince, III,  R. A. DiStasio Jr.,  A. Dreuw,  B. D. Dunietz,  
 T. R. Furlani,  W. A. Goddard III,  S. Grimme,  S. Hammes-Schiffer,  
 T. Head-Gordon,  W. J. Hehre,  Chao-Ping Hsu,  T.-C. Jagau,  Yousung Jung,  
 A. Klamt,  Jing Kong,  D. S. Lambrecht,  WanZhen Liang,  N. J. Mayhall,  
 C. W. McCurdy,  J. B. Neaton,  C. Ochsenfeld,  J. A. Parkhill,  R. Peverati,  
 V. A. Rassolov,  Yihan Shao,  L. V. Slipchenko,  T. Stauch,  R. P. Steele,  
 J. E. Subotnik,  A. J. W. Thom,  A. Tkatchenko,  D. G. Truhlar,  
 T. Van Voorhis,  T. A. Wesolowski,  K. B. Whaley,  H. L. Woodcock III,  
 P. M. Zimmerman,  S. Faraji,  P. M. W. Gill,  M. Head-Gordon,  
 J. M. Herbert,  A. I. Krylov

 Contributors to earlier versions of Q-Chem not listed above: 
 R. D. Adamson,  B. Austin,  R. Baer,  J. Baker,  G. J. O. Beran,  
 K. Brandhorst,  S. T. Brown,  E. F. C. Byrd,  A. K. Chakraborty,  
 G. K. L. Chan,  Chun-Min Chang,  Yunqing Chen,  C.-L. Cheng,  
 Siu Hung Chien,  D. M. Chipman,  D. L. Crittenden,  H. Dachsel,  
 R. J. Doerksen,  A. D. Dutoi,  R. G. Edgar,  J. Fosso-Tande,  
 L. Fusti-Molnar,  D. Ghosh,  A. Ghysels,  A. Golubeva-Zadorozhnaya,  
 J. Gonthier,  M. S. Gordon,  S. R. Gwaltney,  G. Hawkins,  J. E. Herr,  
 A. Heyden,  S. Hirata,  E. G. Hohenstein,  G. Kedziora,  F. J. Keil,  
 C. Kelley,  Jihan Kim,  R. A. King,  R. Z. Khaliullin,  P. P. Korambath,  
 W. Kurlancheek,  A. Laurent,  A. M. Lee,  M. S. Lee,  S. V. Levchenko,  
 Ching Yeh Lin,  D. Liotard,  E. Livshits,  R. C. Lochan,  I. Lotan,  
 L. A. Martinez-Martinez,  P. E. Maslen,  N. Nair,  D. P. O'Neill,  
 D. Neuhauser,  E. Neuscamman,  C. M. Oana,  R. Olivares-Amaya,  R. Olson,  
 T. M. Perrine,  B. Peters,  P. A. Pieniazek,  A. Prociuk,  Y. M. Rhee,  
 J. Ritchie,  M. A. Rohrdanz,  E. Rosta,  N. J. Russ,  H. F. Schaefer III,  
 M. W. Schmidt,  N. E. Schultz,  S. Sharma,  N. Shenvi,  C. D. Sherrill,  
 A. C. Simmonett,  A. Sodt,  T. Stein,  D. Stuck,  K. S. Thanthiriwatte,  
 V. Vanovschi,  L. Vogt,  Tao Wang,  A. Warshel,  M. A. Watson,  
 C. F. Williams,  Q. Wu,  X. Xu,  Jun Yang,  W. Zhang,  Yan Zhao

 Please cite Q-Chem as follows:
 Y. Shao et al., Mol. Phys. 113, 184-215 (2015)
 DOI: 10.1080/00268976.2014.952696

 Q-Chem 5.4.0 for Intel X86 EM64T Linux

 Parts of Q-Chem use Armadillo 9.800.1 (Horizon Scraper).
 http://arma.sourceforge.net/

 Q-Chem begins on Tue Jan  9 09:48:50 2024  

 Host: 
0

     Scratch files written to ./qchem957296//
 May1621 |scratch|qcdevops|jenkins|workspace|build_RNUM    
 Parallel job on  1  processors
 Processing $rem in /cm/shared/apps/spack/cpu/opt/spack/linux-centos8-zen2/gcc-10.2.0/qchem-5.4-akfmr7b3t57bfs6qan3padb2wnb2i7cl/config/preferences:
 Processing $rem in /home/rramji/.qchemrc:
 Symmetry turned off for PCM/SM12/SMD calculation
 Core orbitals will be frozen

 Checking the input file for inconsistencies... 	...done.

 Q-Chem warning in module forms1/BasisType.C, line 2236:

 You are not using the predefined 5D/6D in this basis set.


--------------------------------------------------------------
User input:
--------------------------------------------------------------
$molecule
0 1
C	-0.522416	-0.851940	0.975737
S	-0.069616	-0.068640	2.483237
C	0.715984	1.293660	1.694637
C	-0.069516	-0.069040	-0.092163
C	0.623484	1.136060	0.289337
S	-0.188816	-0.281440	-1.829763
C	0.682184	1.238360	-2.078763
C	1.034184	1.852960	-0.886863
F	1.698384	3.012960	-0.843363
C	0.907884	1.625360	-3.480363
O	0.529784	0.954660	-4.430763
O	1.576584	2.798760	-3.593463
C	1.828684	3.224860	-4.940463
H	2.373184	4.181860	-4.857363
H	0.878584	3.365460	-5.494463
H	2.439984	2.476060	-5.483563
C	-0.522416	-2.287140	0.975737
H	0.542384	-2.295140	1.155937
H	-0.668116	-2.965040	1.803737
H	-0.365716	-2.818240	0.048537
H	1.176884	2.094760	2.282237
$end

$rem
JOBTYPE		SP
EXCHANGE	HF
CORRELATION	pRIMP2
BASIS		cc-pvtz
METHOD		rimp2
AUX_BASIS	rimp2-cc-pvtz
SOLVENT_METHOD	PCM
PURECART	11111
SYMMETRY	false
MEM_TOTAL	110000
SCF_CONVERGENCE = 6
THRESH=10
GUI = 2
$end



$solvent
dielectric 4.90
$end
--------------------------------------------------------------
 ----------------------------------------------------------------
             Standard Nuclear Orientation (Angstroms)
    I     Atom           X                Y                Z
 ----------------------------------------------------------------
    1      C      -0.5224160000    -0.8519400000     0.9757370000
    2      S      -0.0696160000    -0.0686400000     2.4832370000
    3      C       0.7159840000     1.2936600000     1.6946370000
    4      C      -0.0695160000    -0.0690400000    -0.0921630000
    5      C       0.6234840000     1.1360600000     0.2893370000
    6      S      -0.1888160000    -0.2814400000    -1.8297630000
    7      C       0.6821840000     1.2383600000    -2.0787630000
    8      C       1.0341840000     1.8529600000    -0.8868630000
    9      F       1.6983840000     3.0129600000    -0.8433630000
   10      C       0.9078840000     1.6253600000    -3.4803630000
   11      O       0.5297840000     0.9546600000    -4.4307630000
   12      O       1.5765840000     2.7987600000    -3.5934630000
   13      C       1.8286840000     3.2248600000    -4.9404630000
   14      H       2.3731840000     4.1818600000    -4.8573630000
   15      H       0.8785840000     3.3654600000    -5.4944630000
   16      H       2.4399840000     2.4760600000    -5.4835630000
   17      C      -0.5224160000    -2.2871400000     0.9757370000
   18      H       0.5423840000    -2.2951400000     1.1559370000
   19      H      -0.6681160000    -2.9650400000     1.8037370000
   20      H      -0.3657160000    -2.8182400000     0.0485370000
   21      H       1.1768840000     2.0947600000     2.2822370000
 ----------------------------------------------------------------
 Nuclear Repulsion Energy =        1085.78507648 hartrees
 There are       59 alpha and       59 beta electrons
 Requested basis set is cc-pVTZ
 There are 186 shells and 526 basis functions

 Total QAlloc Memory Limit 110000 MB
 Mega-Array Size       188 MB
 MEM_STATIC part       192 MB
 Discretize the solute cavity surface with Lebedev spheres
	Using 110 Lebedev grid points for each H atom
	Using 194 Lebedev grid points for other atoms
	Atomic van der Waals radii will be scaled by 1.20
 Remove points where switching function is < 1.0e-08
 Keep 1546 surface tesserae and discard 1940 interior tesserae
 Molecular Surface Area = 241.871 Angst**2
 Requested basis set is rimp2-cc-pVTZ
 There are 410 shells and 1426 basis functions
 A cutoff of  1.0D-10 yielded  11597 shell pairs
 There are     91023 function pairs (    119139 Cartesian)
 Smallest overlap matrix eigenvalue = 6.38E-05

 Scale SEOQF with 1.000000e-01/1.000000e-01/1.000000e-02

 Standard Electronic Orientation quadrupole field applied
 Nucleus-field energy     =     0.0000000222 hartrees
 Guess from superposition of atomic densities
 Warning:  Energy on first SCF cycle will be non-variational
 SAD guess density has 118.000000 electrons

 -----------------------------------------------------------------------
  General SCF calculation program by
  Eric Jon Sundstrom, Paul Horn, Yuezhi Mao, Dmitri Zuev, Alec White,
  David Stuck, Shaama M.S., Shane Yost, Joonho Lee, David Small,
  Daniel Levine, Susi Lehtola, Hugh Burton, Evgeny Epifanovsky,
  Bang C. Huynh
 -----------------------------------------------------------------------
 Hartree-Fock
 using 64 threads for integral computing
 -------------------------------------------------------
 OpenMP Integral computing Module                
 Release: version 1.0, May 2013, Q-Chem Inc. Pittsburgh 
 -------------------------------------------------------
 A restricted SCF calculation will be
 performed using DIIS
 SCF converges when DIIS error is below 1.0e-06
 ---------------------------------------
  Cycle       Energy         DIIS error
 ---------------------------------------
    1   -1394.2658951182      2.47e-02  
    2   -1389.0219052950      2.47e-03  
    3   -1389.1919649236      1.53e-03  
    4   -1389.2512126476      3.53e-04  
    5   -1389.2569998790      1.12e-04  
    6   -1389.2576903813      3.67e-05  
    7   -1389.2578416428      1.84e-05  
    8   -1389.2578943263      7.14e-06  
    9   -1389.2579055039      3.08e-06  
   10   -1389.2579070319      1.17e-06  
   11   -1389.2579072791      5.42e-07  Convergence criterion met
 ---------------------------------------
 SCF time:   CPU 1718.25s  wall 53.00s 

************** Final PCM Free Energy Summary **************
 G_electrostatic  =      -0.01232653 hartree =      -7.73501198 kcal/mol
 G_cavitation     =       0.00000000 hartree =       0.00000000 kcal/mol
 G_dispersion     =       0.00000000 hartree =       0.00000000 kcal/mol
 G_repulsion      =       0.00000000 hartree =       0.00000000 kcal/mol
 --------------------------------------------------
 Non-electrostatic Free Energy =       0.00000000 hartree =       0.00000000 kcal/mol
 Total                         =      -0.01232653 hartree =      -7.73501198 kcal/mol
 --------------------------------------------------
 SCF Energy (H0 + V/2)                       =   -1389.25790728 
 Solute Internal Energy (H0)                 =   -1389.24558075 
 Total Free Energy (H0 + V/2 + non-elec)     =   -1389.25790728 hartree
                                             = -871772.49447928 kcal/mol
***********************************************************

 SCF   energy in the final basis set =    -1389.2579072791
 Total energy in the final basis set =    -1389.2579072791


 --------------------------------------------------------------
  Generalized many-body perturbation theory program
  by Joonho Lee, Fazle Rob, Xintian Feng, Evgeny Epifanovsky

 No regularization used 
 (reg. param. = 0.0000e+00)
  (P|Q)^-1/2 Time:  CPU 28.89 s  wall 0.46 s

 In RI-MP2 calculation: 
 # of frozen core orbitals: 22

 Components of the RIMP2 correlation energy:
        aaaa    correlation energy =        -0.3286554984 a.u.
        abab    correlation energy =        -1.8498133007 a.u.
        bbbb    correlation energy =        -0.3286554984 a.u.
        non-Brillouin singles      =        -0.0000000000 a.u.
        total same-spin energy     =        -0.6573109968 a.u.
        total opposite-spin energy =        -1.8498133007 a.u.

 Total  RIMP2   correlation energy =        -2.5071242974 a.u.
        RIMP2         total energy =     -1391.7650315765 a.u.

 RI-MP2 Energy Time:  CPU 181.35 s  wall 3.28 s
 
 --------------------------------------------------------------
 
                    Orbital Energies (a.u.)
 --------------------------------------------------------------
 
 Alpha MOs
 -- Occupied --
-92.0034 -91.9919 -26.3404 -20.6136 -20.5598 -11.4076 -11.3784 -11.2982
-11.2972 -11.2947 -11.2882 -11.2834 -11.2793 -11.2301  -9.0028  -8.9920
 -6.6836  -6.6830  -6.6825  -6.6731  -6.6724  -6.6712  -1.6577  -1.4660
 -1.3686  -1.2139  -1.1389  -1.0675  -1.0189  -0.9937  -0.9583  -0.9107
 -0.8635  -0.8055  -0.7885  -0.7587  -0.7313  -0.7226  -0.6928  -0.6834
 -0.6727  -0.6601  -0.6124  -0.5982  -0.5937  -0.5755  -0.5631  -0.5573
 -0.5317  -0.5261  -0.5180  -0.5004  -0.4728  -0.4715  -0.4708  -0.4567
 -0.3838  -0.3462  -0.2806
 -- Virtual --
  0.0394   0.1102   0.1393   0.1542   0.1578   0.1729   0.1876   0.1961
  0.2032   0.2152   0.2156   0.2283   0.2304   0.2454   0.2549   0.2668
  0.2862   0.3097   0.3291   0.3346   0.3436   0.3534   0.3677   0.3801
  0.3858   0.4014   0.4105   0.4137   0.4228   0.4284   0.4375   0.4464
  0.4569   0.4612   0.4725   0.4853   0.4922   0.5062   0.5117   0.5173
  0.5215   0.5352   0.5440   0.5489   0.5519   0.5573   0.5623   0.5728
  0.5838   0.5979   0.6041   0.6083   0.6148   0.6173   0.6215   0.6268
  0.6377   0.6418   0.6575   0.6635   0.6671   0.6881   0.6966   0.7067
  0.7202   0.7242   0.7355   0.7485   0.7531   0.7626   0.7856   0.7992
  0.8037   0.8146   0.8290   0.8423   0.8467   0.8613   0.8672   0.8717
  0.8793   0.8902   0.8978   0.9211   0.9283   0.9560   0.9630   0.9698
  0.9824   0.9941   1.0163   1.0223   1.0282   1.0431   1.0450   1.0581
  1.0679   1.0803   1.0881   1.0976   1.0987   1.1087   1.1181   1.1204
  1.1366   1.1420   1.1588   1.1732   1.1800   1.1842   1.2006   1.2129
  1.2226   1.2320   1.2435   1.2496   1.2601   1.2812   1.2928   1.2969
  1.3149   1.3228   1.3457   1.3615   1.3709   1.3843   1.3904   1.4054
  1.4226   1.4405   1.4413   1.4731   1.4785   1.4893   1.5024   1.5089
  1.5115   1.5220   1.5365   1.5409   1.5463   1.5491   1.5767   1.5889
  1.6076   1.6286   1.6479   1.6671   1.6780   1.6943   1.7181   1.7386
  1.7562   1.7803   1.7891   1.7994   1.8197   1.8255   1.8351   1.8732
  1.8783   1.8866   1.9022   1.9269   1.9315   1.9363   1.9655   1.9743
  1.9827   2.0059   2.0113   2.0467   2.0600   2.0793   2.0908   2.0999
  2.1432   2.1516   2.1685   2.1863   2.1959   2.2014   2.2232   2.2357
  2.2384   2.2443   2.2612   2.2701   2.2966   2.3079   2.3334   2.3478
  2.3648   2.3741   2.3913   2.4133   2.4244   2.4349   2.4780   2.4877
  2.4924   2.5165   2.5454   2.5579   2.5851   2.5875   2.6037   2.6282
  2.6356   2.6460   2.6694   2.6787   2.6843   2.6999   2.7006   2.7100
  2.7241   2.7513   2.7767   2.7822   2.7940   2.7959   2.8091   2.8153
  2.8455   2.8579   2.8766   2.8821   2.9120   2.9366   2.9485   2.9548
  2.9696   2.9852   3.0037   3.0077   3.0186   3.0243   3.0423   3.0573
  3.0763   3.0937   3.1016   3.1034   3.1142   3.1277   3.1299   3.1412
  3.1442   3.1627   3.1936   3.2045   3.2152   3.2215   3.2326   3.2461
  3.2543   3.2615   3.2735   3.2813   3.2857   3.3085   3.3134   3.3281
  3.3445   3.3538   3.3677   3.3770   3.3839   3.3893   3.4059   3.4115
  3.4304   3.4326   3.4424   3.4514   3.4648   3.4728   3.4842   3.4965
  3.5046   3.5193   3.5227   3.5422   3.5531   3.5589   3.5674   3.5825
  3.5838   3.5977   3.6041   3.6141   3.6217   3.6355   3.6451   3.6624
  3.6781   3.6877   3.6940   3.7036   3.7072   3.7240   3.7290   3.7448
  3.7541   3.7774   3.7792   3.8024   3.8085   3.8157   3.8182   3.8404
  3.8562   3.8633   3.8756   3.8892   3.8923   3.9028   3.9269   3.9366
  3.9480   3.9585   3.9690   3.9724   4.0200   4.0282   4.0358   4.0463
  4.0691   4.1004   4.1023   4.1194   4.1421   4.1516   4.1631   4.1667
  4.1757   4.1985   4.2156   4.2590   4.2705   4.2950   4.3085   4.3358
  4.3426   4.3596   4.3731   4.3812   4.4136   4.4196   4.4309   4.4372
  4.4585   4.4777   4.5190   4.5329   4.5446   4.5630   4.5667   4.5910
  4.6121   4.6221   4.6309   4.6608   4.6713   4.7037   4.7251   4.7477
  4.7753   4.7801   4.7883   4.8485   4.8519   4.8732   4.8905   4.9028
  4.9142   4.9794   5.0096   5.0138   5.0458   5.0852   5.1145   5.1201
  5.1281   5.1709   5.2079   5.2473   5.2559   5.2599   5.2810   5.3533
  5.3553   5.3983   5.4076   5.4269   5.4791   5.4821   5.4856   5.5290
  5.5435   5.5816   5.5914   5.6230   5.6400   5.6636   5.7323   5.7516
  5.8086   5.8114   5.8195   5.8627   5.9074   5.9304   5.9534   6.0338
  6.0429   6.1074   6.1513   6.1647   6.1893   6.2624   6.2810   6.4006
  6.4513   6.4613   6.5387   6.6025   6.6621   6.6726   6.7471   6.8309
  6.8609   6.9793   7.2051   7.2060   7.3112   7.3654   7.3657   7.4068
  7.4145   7.4882   7.5237   7.5510   7.6158   7.7757   7.7898   7.8952
  7.9565   8.1355   8.2175   8.9246   9.0178   9.3655   9.4732   9.6551
 10.1331  11.0961  11.6181  11.8167  12.4088  12.7932  13.0638  13.3855
 13.7712  14.0287  14.4614
 --------------------------------------------------------------
 
          Ground-State Mulliken Net Atomic Charges

     Atom                 Charge (a.u.)
  ----------------------------------------
      1 C                     0.046425
      2 S                     0.076025
      3 C                    -0.221078
      4 C                    -0.065193
      5 C                    -0.074427
      6 S                    -0.006077
      7 C                    -0.153292
      8 C                     0.388364
      9 F                    -0.208452
     10 C                     0.446432
     11 O                    -0.461739
     12 O                    -0.300915
     13 C                    -0.058477
     14 H                     0.121125
     15 H                     0.094860
     16 H                     0.094632
     17 C                    -0.379922
     18 H                     0.146215
     19 H                     0.159666
     20 H                     0.143456
     21 H                     0.212372
  ----------------------------------------
  Sum of atomic charges =     0.000000

 -----------------------------------------------------------------
                    Cartesian Multipole Moments
 -----------------------------------------------------------------
    Charge (ESU x 10^10)
                -0.0000
    Dipole Moment (Debye)
         X       1.7259      Y       0.0212      Z       3.2818
       Tot       3.7080
    Quadrupole Moments (Debye-Ang)
        XX     -95.1764     XY       3.5713     YY     -83.7530
        XZ      -3.7639     YZ      -9.5930     ZZ     -96.1860
    Octopole Moments (Debye-Ang^2)
       XXX    -128.2149    XXY     -63.5980    XYY     -35.4010
       YYY    -210.3728    XXZ      70.4257    XYZ     -15.6413
       YYZ      59.2251    XZZ      -4.6435    YZZ      -4.7380
       ZZZ     271.0787
    Hexadecapole Moments (Debye-Ang^3)
      XXXX    -561.3400   XXXY    -401.9920   XXYY    -369.5222
      XYYY    -378.5789   YYYY   -1641.7925   XXXZ     383.7149
      XXYZ     215.2649   XYYZ      74.3580   YYYZ     621.0594
      XXZZ    -628.5278   XYZZ      13.8251   YYZZ    -631.5253
      XZZZ     239.6733   YZZZ     451.5926   ZZZZ   -3707.6574
 -----------------------------------------------------------------
 Total job time:  60.12s(wall), 1976.95s(cpu) 
 Tue Jan  9 09:49:50 2024

        *************************************************************
        *                                                           *
        *  Thank you very much for using Q-Chem.  Have a nice day.  *
        *                                                           *
        *************************************************************


0 sent ACK to 0 
now end server 0 ... 
cleanup process ... done
remove work dirs ./qchem957296.0 -- ./qchem957296.0
rm -rf ./qchem957296.0
rm -rf ./qchem957296
