You are running Q-Chem version: 5.4.0

#
# job setting
#
local host:  exp-6-40
current dir: /home/rramji/project-csd799/aromodel/ptb7fout-qchem/methylated-rotation-run
input file:  Dimethoxy_Benzodithiophene_Phi_15_Theta_230_Methylcarbonyl_3_Fluoro_Thienothiophene_Hydrogenated_Improper.qcin
output file: 
nprocs     : 1
nthreads   : 64
#
# qchem installation setting
#
QC:          /cm/shared/apps/spack/cpu/opt/spack/linux-centos8-zen2/gcc-10.2.0/qchem-5.4-akfmr7b3t57bfs6qan3padb2wnb2i7cl
QCAUX:       /cm/shared/apps/spack/cpu/opt/spack/linux-centos8-zen2/gcc-10.2.0/qchem-5.4-akfmr7b3t57bfs6qan3padb2wnb2i7cl/qcaux
QCPROG:      /cm/shared/apps/spack/cpu/opt/spack/linux-centos8-zen2/gcc-10.2.0/qchem-5.4-akfmr7b3t57bfs6qan3padb2wnb2i7cl/exe/qcprog.exe
QCPROG_S:    /cm/shared/apps/spack/cpu/opt/spack/linux-centos8-zen2/gcc-10.2.0/qchem-5.4-akfmr7b3t57bfs6qan3padb2wnb2i7cl/exe/qcprog.exe_s
PARALLEL:    -DPARALLEL
QCMPI:       mpich
#
# qchem directory setting
#
qcrun:       qchem3224736
QCSCRATCH:   .
QCLOCALSCR:  
QCTMPDIR:    .
QCFILEPREF:  ./qchem3224736
QCSAVEDIR:   
workdirs:    ./qchem3224736
workdir0:    ./qchem3224736
partmpdirs =  
#
# parallel setting
#
QCRSH:           ssh
QCMPI:           mpich
QCMPIRUN:        /cm/shared/apps/spack/cpu/opt/spack/linux-centos8-zen2/gcc-10.2.0/qchem-5.4-akfmr7b3t57bfs6qan3padb2wnb2i7cl/bin/mpi/mpirun_qchem
QCMACHINEFILE:   ./qchem3224736/hostfile
exp-6-40

#
# env setting
#
exported envs:   QC QCAUX QCSCRATCH QCRUNNAME QCFILEPREF QCPROG QCPROG_S GUIFILE

Running Job 1 of 1 Dimethoxy_Benzodithiophene_Phi_15_Theta_230_Methylcarbonyl_3_Fluoro_Thienothiophene_Hydrogenated_Improper.qcin
qchem Dimethoxy_Benzodithiophene_Phi_15_Theta_230_Methylcarbonyl_3_Fluoro_Thienothiophene_Hydrogenated_Improper.qcin_3224736.0 ./qchem3224736/ 1
/cm/shared/apps/spack/cpu/opt/spack/linux-centos8-zen2/gcc-10.2.0/qchem-5.4-akfmr7b3t57bfs6qan3padb2wnb2i7cl/bin/mpi/mpirun_qchem -machinefile ./qchem3224736/hostfile -np 1 /cm/shared/apps/spack/cpu/opt/spack/linux-centos8-zen2/gcc-10.2.0/qchem-5.4-akfmr7b3t57bfs6qan3padb2wnb2i7cl/exe/qcprog.exe Dimethoxy_Benzodithiophene_Phi_15_Theta_230_Methylcarbonyl_3_Fluoro_Thienothiophene_Hydrogenated_Improper.qcin_3224736.0 ./qchem3224736/

Process 0 of 1 is on exp-6-40 - thread support 0
initial socket setup ...start
initial socket setup ...done 
now start server 0 ... 
                  Welcome to Q-Chem
     A Quantum Leap Into The Future Of Chemistry


 Q-Chem 5.4, Q-Chem, Inc., Pleasanton, CA (2021)

 License issued to: University of California, San Diego (site)

 E. Epifanovsky,  A. T. B. Gilbert,  Xintian Feng,  Joonho Lee,  Yuezhi Mao,  
 N. Mardirossian,  P. Pokhilko,  A. White,  M. Wormit,  M. P. Coons,  
 A. L. Dempwolff,  Zhengting Gan,  D. Hait,  P. R. Horn,  L. D. Jacobson,  
 I. Kaliman,  J. Kussmann,  A. W. Lange,  Ka Un Lao,  D. S. Levine,  Jie Liu,  
 S. C. McKenzie,  A. F. Morrison,  K. Nanda,  F. Plasser,  D. R. Rehn,  
 M. L. Vidal,  Zhi-Qiang You,  Ying Zhu,  B. Alam,  B. Albrecht,  
 A. Aldossary,  E. Alguire,  J. H. Andersen,  D. Barton,  K. Begam,  A. Behn,  
 Y. A. Bernard,  E. J. Berquist,  H. Burton,  A. Carreras,  K. Carter-Fenk,  
 R. Chakraborty,  A. D. Chien,  K. D. Closser,  V. Cofer-Shabica,  
 S. Dasgupta,  Jia Deng,  M. de Wergifosse,  M. Diedenhofen,  Hainam Do,  
 S. Ehlert,  Po-Tung Fang,  S. Fatehi,  Qingguo Feng,  J. Gayvert,  
 Qinghui Ge,  G. Gidofalvi,  M. Goldey,  J. Gomes,  C. Gonzalez-Espinoza,  
 S. Gulania,  A. Gunina,  M. W. D. Hanson-Heine,  P. H. P. Harbach,  
 A. W. Hauser,  M. F. Herbst,  M. Hernandez Vera,  M. Hodecker,  
 Z. C. Holden,  S. Houck,  Xunkun Huang,  Kerwin Hui,  B. C. Huynh,  
 M. Ivanov,  Hyunjun Ji,  Hanjie Jiang,  B. Kaduk,  S. Kaehler,  
 K. Khistyaev,  Jaehoon Kim,  P. Klunzinger,  Z. Koczor-Benda,  
 Joong Hoon Koh,  D. Kosenkov,  L. Koulias,  T. Kowalczyk,  C. M. Krauter,  
 K. Kue,  A. Kunitsa,  T. Kus,  A. Landau,  K. V. Lawler,  D. Lefrancois,  
 S. Lehtola,  Rain Li,  Yi-Pei Li,  Jiashu Liang,  M. Liebenthal,  
 Hung-Hsuan Lin,  You-Sheng Lin,  Fenglai Liu,  Kuan-Yu Liu,  
 M. Loipersberger,  A. Luenser,  A. Manjanath,  P. Manohar,  E. Mansoor,  
 S. F. Manzer,  Shan-Ping Mao,  A. V. Marenich,  T. Markovich,  S. Mason,  
 S. A. Maurer,  P. F. McLaughlin,  M. F. S. J. Menger,  J.-M. Mewes,  
 S. A. Mewes,  P. Morgante,  J. W. Mullinax,  T. S. Nguyen-Beck,  
 K. J. Oosterbaan,  G. Paran,  Alexander C. Paul,  Suranjan K. Paul,  
 F. Pavosevic,  Zheng Pei,  S. Prager,  E. I. Proynov,  E. Ramos,  B. Rana,  
 A. E. Rask,  A. Rettig,  R. M. Richard,  F. Rob,  E. Rossomme,  T. Scheele,  
 M. Scheurer,  M. Schneider,  N. Sergueev,  S. M. Sharada,  W. Skomorowski,  
 D. W. Small,  C. J. Stein,  Yu-Chuan Su,  E. J. Sundstrom,  Zhen Tao,  
 J. Thirman,  T. Tsuchimochi,  N. M. Tubman,  S. P. Veccham,  O. Vydrov,  
 J. Wenzel,  J. Witte,  A. Yamada,  Kun Yao,  S. Yeganeh,  S. R. Yost,  
 A. Zech,  Igor Ying Zhang,  Xing Zhang,  Yu Zhang,  D. Zuev,  
 A. Aspuru-Guzik,  A. T. Bell,  N. A. Besley,  K. B. Bravaya,  B. R. Brooks,  
 D. Casanova,  Jeng-Da Chai,  S. Coriani,  C. J. Cramer,  
 A. E. DePrince, III,  R. A. DiStasio Jr.,  A. Dreuw,  B. D. Dunietz,  
 T. R. Furlani,  W. A. Goddard III,  S. Grimme,  S. Hammes-Schiffer,  
 T. Head-Gordon,  W. J. Hehre,  Chao-Ping Hsu,  T.-C. Jagau,  Yousung Jung,  
 A. Klamt,  Jing Kong,  D. S. Lambrecht,  WanZhen Liang,  N. J. Mayhall,  
 C. W. McCurdy,  J. B. Neaton,  C. Ochsenfeld,  J. A. Parkhill,  R. Peverati,  
 V. A. Rassolov,  Yihan Shao,  L. V. Slipchenko,  T. Stauch,  R. P. Steele,  
 J. E. Subotnik,  A. J. W. Thom,  A. Tkatchenko,  D. G. Truhlar,  
 T. Van Voorhis,  T. A. Wesolowski,  K. B. Whaley,  H. L. Woodcock III,  
 P. M. Zimmerman,  S. Faraji,  P. M. W. Gill,  M. Head-Gordon,  
 J. M. Herbert,  A. I. Krylov

 Contributors to earlier versions of Q-Chem not listed above: 
 R. D. Adamson,  B. Austin,  R. Baer,  J. Baker,  G. J. O. Beran,  
 K. Brandhorst,  S. T. Brown,  E. F. C. Byrd,  A. K. Chakraborty,  
 G. K. L. Chan,  Chun-Min Chang,  Yunqing Chen,  C.-L. Cheng,  
 Siu Hung Chien,  D. M. Chipman,  D. L. Crittenden,  H. Dachsel,  
 R. J. Doerksen,  A. D. Dutoi,  R. G. Edgar,  J. Fosso-Tande,  
 L. Fusti-Molnar,  D. Ghosh,  A. Ghysels,  A. Golubeva-Zadorozhnaya,  
 J. Gonthier,  M. S. Gordon,  S. R. Gwaltney,  G. Hawkins,  J. E. Herr,  
 A. Heyden,  S. Hirata,  E. G. Hohenstein,  G. Kedziora,  F. J. Keil,  
 C. Kelley,  Jihan Kim,  R. A. King,  R. Z. Khaliullin,  P. P. Korambath,  
 W. Kurlancheek,  A. Laurent,  A. M. Lee,  M. S. Lee,  S. V. Levchenko,  
 Ching Yeh Lin,  D. Liotard,  E. Livshits,  R. C. Lochan,  I. Lotan,  
 L. A. Martinez-Martinez,  P. E. Maslen,  N. Nair,  D. P. O'Neill,  
 D. Neuhauser,  E. Neuscamman,  C. M. Oana,  R. Olivares-Amaya,  R. Olson,  
 T. M. Perrine,  B. Peters,  P. A. Pieniazek,  A. Prociuk,  Y. M. Rhee,  
 J. Ritchie,  M. A. Rohrdanz,  E. Rosta,  N. J. Russ,  H. F. Schaefer III,  
 M. W. Schmidt,  N. E. Schultz,  S. Sharma,  N. Shenvi,  C. D. Sherrill,  
 A. C. Simmonett,  A. Sodt,  T. Stein,  D. Stuck,  K. S. Thanthiriwatte,  
 V. Vanovschi,  L. Vogt,  Tao Wang,  A. Warshel,  M. A. Watson,  
 C. F. Williams,  Q. Wu,  X. Xu,  Jun Yang,  W. Zhang,  Yan Zhao

 Please cite Q-Chem as follows:
 Y. Shao et al., Mol. Phys. 113, 184-215 (2015)
 DOI: 10.1080/00268976.2014.952696

 Q-Chem 5.4.0 for Intel X86 EM64T Linux

 Parts of Q-Chem use Armadillo 9.800.1 (Horizon Scraper).
 http://arma.sourceforge.net/

 Q-Chem begins on Tue Jan  9 10:12:43 2024  

 Host: 
0

     Scratch files written to ./qchem3224736//
 May1621 |scratch|qcdevops|jenkins|workspace|build_RNUM    
 Parallel job on  1  processors
 Processing $rem in /cm/shared/apps/spack/cpu/opt/spack/linux-centos8-zen2/gcc-10.2.0/qchem-5.4-akfmr7b3t57bfs6qan3padb2wnb2i7cl/config/preferences:
 Processing $rem in /home/rramji/.qchemrc:
 Symmetry turned off for PCM/SM12/SMD calculation
 Core orbitals will be frozen

 Checking the input file for inconsistencies... 	...done.

 Q-Chem warning in module forms1/BasisType.C, line 2236:

 You are not using the predefined 5D/6D in this basis set.


--------------------------------------------------------------
User input:
--------------------------------------------------------------
$molecule
0 1
C	-0.267332	-0.955820	0.977564
S	-0.032732	-0.082020	2.485064
C	0.373568	1.437180	1.696464
C	-0.032532	-0.082420	-0.090336
C	0.325068	1.260980	0.291164
S	-0.092832	-0.318420	-1.827936
C	0.355268	1.374980	-2.076936
C	0.536168	2.059780	-0.885036
F	0.877468	3.352180	-0.841536
C	0.472968	1.807280	-3.478536
O	0.281468	1.061580	-4.428936
O	0.815368	3.113680	-3.591636
C	0.948468	3.590580	-4.938636
H	1.226768	4.655880	-4.855536
H	-0.005632	3.480480	-5.492636
H	1.732768	3.025480	-5.481736
C	-0.267332	-2.391020	0.977564
H	-0.967232	-2.399020	0.155064
H	0.376568	-3.068920	0.436964
H	-0.983432	-2.922120	1.587164
H	0.611368	2.330280	2.284064
$end

$rem
JOBTYPE		SP
EXCHANGE	HF
CORRELATION	pRIMP2
BASIS		cc-pvtz
METHOD		rimp2
AUX_BASIS	rimp2-cc-pvtz
SOLVENT_METHOD	PCM
PURECART	11111
SYMMETRY	false
MEM_TOTAL	110000
SCF_CONVERGENCE = 6
THRESH=10
GUI = 2
$end



$solvent
dielectric 4.90
$end
--------------------------------------------------------------
 ----------------------------------------------------------------
             Standard Nuclear Orientation (Angstroms)
    I     Atom           X                Y                Z
 ----------------------------------------------------------------
    1      C      -0.2673320000    -0.9558200000     0.9775640000
    2      S      -0.0327320000    -0.0820200000     2.4850640000
    3      C       0.3735680000     1.4371800000     1.6964640000
    4      C      -0.0325320000    -0.0824200000    -0.0903360000
    5      C       0.3250680000     1.2609800000     0.2911640000
    6      S      -0.0928320000    -0.3184200000    -1.8279360000
    7      C       0.3552680000     1.3749800000    -2.0769360000
    8      C       0.5361680000     2.0597800000    -0.8850360000
    9      F       0.8774680000     3.3521800000    -0.8415360000
   10      C       0.4729680000     1.8072800000    -3.4785360000
   11      O       0.2814680000     1.0615800000    -4.4289360000
   12      O       0.8153680000     3.1136800000    -3.5916360000
   13      C       0.9484680000     3.5905800000    -4.9386360000
   14      H       1.2267680000     4.6558800000    -4.8555360000
   15      H      -0.0056320000     3.4804800000    -5.4926360000
   16      H       1.7327680000     3.0254800000    -5.4817360000
   17      C      -0.2673320000    -2.3910200000     0.9775640000
   18      H      -0.9672320000    -2.3990200000     0.1550640000
   19      H       0.3765680000    -3.0689200000     0.4369640000
   20      H      -0.9834320000    -2.9221200000     1.5871640000
   21      H       0.6113680000     2.3302800000     2.2840640000
 ----------------------------------------------------------------
 Nuclear Repulsion Energy =        1083.57701015 hartrees
 There are       59 alpha and       59 beta electrons
 Requested basis set is cc-pVTZ
 There are 186 shells and 526 basis functions

 Total QAlloc Memory Limit 110000 MB
 Mega-Array Size       188 MB
 MEM_STATIC part       192 MB
 Discretize the solute cavity surface with Lebedev spheres
	Using 110 Lebedev grid points for each H atom
	Using 194 Lebedev grid points for other atoms
	Atomic van der Waals radii will be scaled by 1.20
 Remove points where switching function is < 1.0e-08
 Keep 1569 surface tesserae and discard 1917 interior tesserae
 Molecular Surface Area = 242.406 Angst**2
 Requested basis set is rimp2-cc-pVTZ
 There are 410 shells and 1426 basis functions
 A cutoff of  1.0D-10 yielded  11543 shell pairs
 There are     90543 function pairs (    118489 Cartesian)
 Smallest overlap matrix eigenvalue = 6.04E-05

 Scale SEOQF with 1.000000e-01/1.000000e-01/1.000000e-02

 Standard Electronic Orientation quadrupole field applied
 Nucleus-field energy     =     0.0000000253 hartrees
 Guess from superposition of atomic densities
 Warning:  Energy on first SCF cycle will be non-variational
 SAD guess density has 118.000000 electrons

 -----------------------------------------------------------------------
  General SCF calculation program by
  Eric Jon Sundstrom, Paul Horn, Yuezhi Mao, Dmitri Zuev, Alec White,
  David Stuck, Shaama M.S., Shane Yost, Joonho Lee, David Small,
  Daniel Levine, Susi Lehtola, Hugh Burton, Evgeny Epifanovsky,
  Bang C. Huynh
 -----------------------------------------------------------------------
 Hartree-Fock
 using 64 threads for integral computing
 -------------------------------------------------------
 OpenMP Integral computing Module                
 Release: version 1.0, May 2013, Q-Chem Inc. Pittsburgh 
 -------------------------------------------------------
 A restricted SCF calculation will be
 performed using DIIS
 SCF converges when DIIS error is below 1.0e-06
 ---------------------------------------
  Cycle       Energy         DIIS error
 ---------------------------------------
    1   -1394.2403840423      2.47e-02  
    2   -1389.0332209361      2.47e-03  
    3   -1389.2025159415      1.54e-03  
    4   -1389.2620780792      3.52e-04  
    5   -1389.2678159792      1.12e-04  
    6   -1389.2684868562      3.60e-05  
    7   -1389.2686299152      1.80e-05  
    8   -1389.2686789937      6.98e-06  
    9   -1389.2686893843      2.98e-06  
   10   -1389.2686908001      1.12e-06  
   11   -1389.2686910136      4.71e-07  Convergence criterion met
 ---------------------------------------
 SCF time:   CPU 1680.95s  wall 50.00s 

************** Final PCM Free Energy Summary **************
 G_electrostatic  =      -0.01179866 hartree =      -7.40377206 kcal/mol
 G_cavitation     =       0.00000000 hartree =       0.00000000 kcal/mol
 G_dispersion     =       0.00000000 hartree =       0.00000000 kcal/mol
 G_repulsion      =       0.00000000 hartree =       0.00000000 kcal/mol
 --------------------------------------------------
 Non-electrostatic Free Energy =       0.00000000 hartree =       0.00000000 kcal/mol
 Total                         =      -0.01179866 hartree =      -7.40377206 kcal/mol
 --------------------------------------------------
 SCF Energy (H0 + V/2)                       =   -1389.26869101 
 Solute Internal Energy (H0)                 =   -1389.25689235 
 Total Free Energy (H0 + V/2 + non-elec)     =   -1389.26869101 hartree
                                             = -871779.26137478 kcal/mol
***********************************************************

 SCF   energy in the final basis set =    -1389.2686910136
 Total energy in the final basis set =    -1389.2686910136


 --------------------------------------------------------------
  Generalized many-body perturbation theory program
  by Joonho Lee, Fazle Rob, Xintian Feng, Evgeny Epifanovsky

 No regularization used 
 (reg. param. = 0.0000e+00)
  (P|Q)^-1/2 Time:  CPU 48.11 s  wall 0.80 s

 In RI-MP2 calculation: 
 # of frozen core orbitals: 22

 Components of the RIMP2 correlation energy:
        aaaa    correlation energy =        -0.3287244007 a.u.
        abab    correlation energy =        -1.8490894402 a.u.
        bbbb    correlation energy =        -0.3287244007 a.u.
        non-Brillouin singles      =        -0.0000000000 a.u.
        total same-spin energy     =        -0.6574488015 a.u.
        total opposite-spin energy =        -1.8490894402 a.u.

 Total  RIMP2   correlation energy =        -2.5065382417 a.u.
        RIMP2         total energy =     -1391.7752292553 a.u.

 RI-MP2 Energy Time:  CPU 199.20 s  wall 3.40 s
 
 --------------------------------------------------------------
 
                    Orbital Energies (a.u.)
 --------------------------------------------------------------
 
 Alpha MOs
 -- Occupied --
-92.0036 -91.9936 -26.3410 -20.6136 -20.5597 -11.4077 -11.3793 -11.2983
-11.2947 -11.2945 -11.2882 -11.2876 -11.2790 -11.2266  -9.0027  -8.9937
 -6.6835  -6.6828  -6.6824  -6.6747  -6.6740  -6.6729  -1.6581  -1.4660
 -1.3686  -1.2130  -1.1355  -1.0672  -1.0186  -0.9952  -0.9582  -0.9139
 -0.8633  -0.8050  -0.7888  -0.7590  -0.7299  -0.7230  -0.6940  -0.6834
 -0.6728  -0.6609  -0.6113  -0.5976  -0.5909  -0.5811  -0.5646  -0.5567
 -0.5387  -0.5298  -0.5072  -0.4910  -0.4737  -0.4715  -0.4679  -0.4554
 -0.3874  -0.3447  -0.2882
 -- Virtual --
  0.0406   0.1181   0.1322   0.1520   0.1575   0.1764   0.1864   0.1941
  0.2123   0.2155   0.2192   0.2280   0.2327   0.2402   0.2515   0.2691
  0.2952   0.3018   0.3162   0.3409   0.3460   0.3519   0.3774   0.3823
  0.3849   0.3987   0.4089   0.4164   0.4224   0.4307   0.4378   0.4422
  0.4624   0.4670   0.4828   0.4901   0.4948   0.5059   0.5082   0.5169
  0.5238   0.5340   0.5417   0.5450   0.5473   0.5593   0.5664   0.5837
  0.5904   0.5940   0.6053   0.6084   0.6155   0.6208   0.6240   0.6284
  0.6364   0.6454   0.6607   0.6614   0.6726   0.6832   0.6999   0.7117
  0.7143   0.7169   0.7239   0.7479   0.7578   0.7644   0.7752   0.8126
  0.8148   0.8191   0.8359   0.8463   0.8523   0.8649   0.8768   0.8774
  0.8866   0.8970   0.9111   0.9272   0.9394   0.9504   0.9642   0.9699
  0.9820   0.9912   1.0053   1.0108   1.0261   1.0306   1.0430   1.0483
  1.0575   1.0741   1.0940   1.1005   1.1026   1.1083   1.1132   1.1235
  1.1278   1.1462   1.1665   1.1699   1.1807   1.1853   1.2084   1.2184
  1.2234   1.2370   1.2420   1.2516   1.2652   1.2790   1.2927   1.2971
  1.3156   1.3375   1.3508   1.3574   1.3604   1.3828   1.3937   1.4064
  1.4153   1.4318   1.4445   1.4604   1.4817   1.4938   1.5001   1.5046
  1.5150   1.5316   1.5414   1.5468   1.5568   1.5780   1.5963   1.6041
  1.6160   1.6262   1.6597   1.6765   1.6846   1.6970   1.7098   1.7265
  1.7414   1.7652   1.7947   1.8051   1.8208   1.8273   1.8369   1.8611
  1.8695   1.8832   1.8988   1.9146   1.9243   1.9424   1.9569   1.9691
  1.9972   2.0028   2.0145   2.0376   2.0488   2.0832   2.0895   2.1074
  2.1167   2.1607   2.1711   2.1917   2.1945   2.2025   2.2138   2.2307
  2.2372   2.2464   2.2584   2.2821   2.2912   2.3051   2.3343   2.3446
  2.3687   2.3760   2.3873   2.4124   2.4302   2.4580   2.4801   2.4913
  2.5109   2.5297   2.5551   2.5588   2.5838   2.6063   2.6288   2.6399
  2.6439   2.6561   2.6730   2.6846   2.6878   2.6962   2.7040   2.7264
  2.7280   2.7444   2.7541   2.7823   2.7881   2.7994   2.8088   2.8234
  2.8370   2.8478   2.8716   2.8817   2.8869   2.9078   2.9284   2.9457
  2.9599   2.9717   2.9912   2.9949   3.0158   3.0239   3.0309   3.0616
  3.0722   3.0763   3.0947   3.1012   3.1055   3.1252   3.1306   3.1438
  3.1529   3.1792   3.1993   3.2045   3.2146   3.2186   3.2423   3.2542
  3.2601   3.2685   3.2753   3.2812   3.2897   3.3115   3.3155   3.3326
  3.3409   3.3492   3.3614   3.3751   3.3820   3.3995   3.4068   3.4182
  3.4230   3.4266   3.4448   3.4570   3.4620   3.4755   3.4794   3.4869
  3.4997   3.5152   3.5232   3.5399   3.5500   3.5659   3.5676   3.5747
  3.5901   3.5982   3.6048   3.6129   3.6270   3.6506   3.6548   3.6720
  3.6795   3.6931   3.6999   3.7066   3.7120   3.7155   3.7398   3.7514
  3.7608   3.7690   3.7806   3.7969   3.8068   3.8182   3.8212   3.8296
  3.8496   3.8652   3.8734   3.8850   3.8902   3.9018   3.9049   3.9185
  3.9399   3.9534   3.9593   3.9884   4.0043   4.0119   4.0380   4.0608
  4.0654   4.0694   4.0850   4.0898   4.1217   4.1448   4.1626   4.1669
  4.1792   4.2047   4.2141   4.2288   4.2557   4.2961   4.3098   4.3422
  4.3442   4.3592   4.3657   4.3743   4.3974   4.4107   4.4189   4.4395
  4.4458   4.4652   4.4958   4.5186   4.5405   4.5792   4.5814   4.5911
  4.6130   4.6373   4.6459   4.6564   4.6732   4.6818   4.7272   4.7366
  4.7714   4.7792   4.8180   4.8339   4.8460   4.8941   4.9052   4.9286
  4.9489   4.9731   4.9943   5.0095   5.0429   5.0660   5.0931   5.1160
  5.1491   5.1806   5.2040   5.2501   5.2532   5.2582   5.2878   5.3523
  5.3581   5.4029   5.4144   5.4268   5.4578   5.4855   5.5217   5.5295
  5.5395   5.5825   5.6017   5.6230   5.6608   5.6655   5.7326   5.7555
  5.8086   5.8174   5.8303   5.8964   5.9246   5.9305   5.9819   6.0074
  6.0440   6.1153   6.1512   6.1778   6.2138   6.2624   6.3091   6.4214
  6.4514   6.4689   6.5388   6.6037   6.6619   6.6726   6.7473   6.8312
  6.8609   6.9794   7.2051   7.2072   7.3112   7.3650   7.3653   7.4074
  7.4144   7.4878   7.5261   7.5518   7.6160   7.7752   7.7898   7.8959
  7.9595   8.1349   8.2293   8.9241   9.0124   9.3650   9.4606   9.6471
 10.0704  11.0608  11.6075  11.8094  12.4050  12.9631  13.0876  13.3862
 13.7719  14.0304  14.5436
 --------------------------------------------------------------
 
          Ground-State Mulliken Net Atomic Charges

     Atom                 Charge (a.u.)
  ----------------------------------------
      1 C                     0.038838
      2 S                     0.076980
      3 C                    -0.208286
      4 C                    -0.033706
      5 C                    -0.089347
      6 S                    -0.005643
      7 C                    -0.156351
      8 C                     0.386346
      9 F                    -0.207938
     10 C                     0.445688
     11 O                    -0.462622
     12 O                    -0.300890
     13 C                    -0.058470
     14 H                     0.121120
     15 H                     0.094741
     16 H                     0.094690
     17 C                    -0.373003
     18 H                     0.122373
     19 H                     0.155680
     20 H                     0.147462
     21 H                     0.212338
  ----------------------------------------
  Sum of atomic charges =     0.000000

 -----------------------------------------------------------------
                    Cartesian Multipole Moments
 -----------------------------------------------------------------
    Charge (ESU x 10^10)
                -0.0000
    Dipole Moment (Debye)
         X       0.1095      Y       0.4462      Z       2.7041
       Tot       2.7428
    Quadrupole Moments (Debye-Ang)
        XX     -95.6094     XY       4.0532     YY     -81.8237
        XZ      -2.8291     YZ      -8.5927     ZZ     -97.6040
    Octopole Moments (Debye-Ang^2)
       XXX     -66.8069    XXY     -78.1317    XYY     -21.3060
       YYY    -232.2155    XXZ      78.5157    XYZ      -6.3805
       YYZ      48.2632    XZZ      -3.2699    YZZ      -0.9150
       ZZZ     269.3958
    Hexadecapole Moments (Debye-Ang^3)
      XXXX    -242.3180   XXXY    -237.9139   XXYY    -377.9559
      XYYY    -205.7046   YYYY   -1952.1627   XXXZ     207.0475
      XXYZ     261.0847   XYYZ      24.2715   YYYZ     672.4267
      XXZZ    -633.1581   XYZZ       9.8527   YYZZ    -640.4162
      XZZZ     126.8738   YZZZ     506.4251   ZZZZ   -3705.4192
 -----------------------------------------------------------------
 Total job time:  67.35s(wall), 1955.59s(cpu) 
 Tue Jan  9 10:13:51 2024

        *************************************************************
        *                                                           *
        *  Thank you very much for using Q-Chem.  Have a nice day.  *
        *                                                           *
        *************************************************************


0 sent ACK to 0 
now end server 0 ... 
cleanup process ... done
remove work dirs ./qchem3224736.0 -- ./qchem3224736.0
rm -rf ./qchem3224736.0
rm -rf ./qchem3224736
