You are running Q-Chem version: 5.4.0

#
# job setting
#
local host:  exp-14-38
current dir: /home/rramji/project-csd799/aromodel/ptb7fout-qchem/methylated-rotation-run
input file:  Dimethoxy_Benzodithiophene_Phi_50_Theta_140_Methylcarbonyl_3_Fluoro_Thienothiophene_Hydrogenated_Improper.qcin
output file: 
nprocs     : 1
nthreads   : 64
#
# qchem installation setting
#
QC:          /cm/shared/apps/spack/cpu/opt/spack/linux-centos8-zen2/gcc-10.2.0/qchem-5.4-akfmr7b3t57bfs6qan3padb2wnb2i7cl
QCAUX:       /cm/shared/apps/spack/cpu/opt/spack/linux-centos8-zen2/gcc-10.2.0/qchem-5.4-akfmr7b3t57bfs6qan3padb2wnb2i7cl/qcaux
QCPROG:      /cm/shared/apps/spack/cpu/opt/spack/linux-centos8-zen2/gcc-10.2.0/qchem-5.4-akfmr7b3t57bfs6qan3padb2wnb2i7cl/exe/qcprog.exe
QCPROG_S:    /cm/shared/apps/spack/cpu/opt/spack/linux-centos8-zen2/gcc-10.2.0/qchem-5.4-akfmr7b3t57bfs6qan3padb2wnb2i7cl/exe/qcprog.exe_s
PARALLEL:    -DPARALLEL
QCMPI:       mpich
#
# qchem directory setting
#
qcrun:       qchem2779405
QCSCRATCH:   .
QCLOCALSCR:  
QCTMPDIR:    .
QCFILEPREF:  ./qchem2779405
QCSAVEDIR:   
workdirs:    ./qchem2779405
workdir0:    ./qchem2779405
partmpdirs =  
#
# parallel setting
#
QCRSH:           ssh
QCMPI:           mpich
QCMPIRUN:        /cm/shared/apps/spack/cpu/opt/spack/linux-centos8-zen2/gcc-10.2.0/qchem-5.4-akfmr7b3t57bfs6qan3padb2wnb2i7cl/bin/mpi/mpirun_qchem
QCMACHINEFILE:   ./qchem2779405/hostfile
exp-14-38

#
# env setting
#
exported envs:   QC QCAUX QCSCRATCH QCRUNNAME QCFILEPREF QCPROG QCPROG_S GUIFILE

Running Job 1 of 1 Dimethoxy_Benzodithiophene_Phi_50_Theta_140_Methylcarbonyl_3_Fluoro_Thienothiophene_Hydrogenated_Improper.qcin
qchem Dimethoxy_Benzodithiophene_Phi_50_Theta_140_Methylcarbonyl_3_Fluoro_Thienothiophene_Hydrogenated_Improper.qcin_2779405.0 ./qchem2779405/ 1
/cm/shared/apps/spack/cpu/opt/spack/linux-centos8-zen2/gcc-10.2.0/qchem-5.4-akfmr7b3t57bfs6qan3padb2wnb2i7cl/bin/mpi/mpirun_qchem -machinefile ./qchem2779405/hostfile -np 1 /cm/shared/apps/spack/cpu/opt/spack/linux-centos8-zen2/gcc-10.2.0/qchem-5.4-akfmr7b3t57bfs6qan3padb2wnb2i7cl/exe/qcprog.exe Dimethoxy_Benzodithiophene_Phi_50_Theta_140_Methylcarbonyl_3_Fluoro_Thienothiophene_Hydrogenated_Improper.qcin_2779405.0 ./qchem2779405/

Process 0 of 1 is on exp-14-38 - thread support 0
initial socket setup ...start
initial socket setup ...done 
now start server 0 ... 
                  Welcome to Q-Chem
     A Quantum Leap Into The Future Of Chemistry


 Q-Chem 5.4, Q-Chem, Inc., Pleasanton, CA (2021)

 License issued to: University of California, San Diego (site)

 E. Epifanovsky,  A. T. B. Gilbert,  Xintian Feng,  Joonho Lee,  Yuezhi Mao,  
 N. Mardirossian,  P. Pokhilko,  A. White,  M. Wormit,  M. P. Coons,  
 A. L. Dempwolff,  Zhengting Gan,  D. Hait,  P. R. Horn,  L. D. Jacobson,  
 I. Kaliman,  J. Kussmann,  A. W. Lange,  Ka Un Lao,  D. S. Levine,  Jie Liu,  
 S. C. McKenzie,  A. F. Morrison,  K. Nanda,  F. Plasser,  D. R. Rehn,  
 M. L. Vidal,  Zhi-Qiang You,  Ying Zhu,  B. Alam,  B. Albrecht,  
 A. Aldossary,  E. Alguire,  J. H. Andersen,  D. Barton,  K. Begam,  A. Behn,  
 Y. A. Bernard,  E. J. Berquist,  H. Burton,  A. Carreras,  K. Carter-Fenk,  
 R. Chakraborty,  A. D. Chien,  K. D. Closser,  V. Cofer-Shabica,  
 S. Dasgupta,  Jia Deng,  M. de Wergifosse,  M. Diedenhofen,  Hainam Do,  
 S. Ehlert,  Po-Tung Fang,  S. Fatehi,  Qingguo Feng,  J. Gayvert,  
 Qinghui Ge,  G. Gidofalvi,  M. Goldey,  J. Gomes,  C. Gonzalez-Espinoza,  
 S. Gulania,  A. Gunina,  M. W. D. Hanson-Heine,  P. H. P. Harbach,  
 A. W. Hauser,  M. F. Herbst,  M. Hernandez Vera,  M. Hodecker,  
 Z. C. Holden,  S. Houck,  Xunkun Huang,  Kerwin Hui,  B. C. Huynh,  
 M. Ivanov,  Hyunjun Ji,  Hanjie Jiang,  B. Kaduk,  S. Kaehler,  
 K. Khistyaev,  Jaehoon Kim,  P. Klunzinger,  Z. Koczor-Benda,  
 Joong Hoon Koh,  D. Kosenkov,  L. Koulias,  T. Kowalczyk,  C. M. Krauter,  
 K. Kue,  A. Kunitsa,  T. Kus,  A. Landau,  K. V. Lawler,  D. Lefrancois,  
 S. Lehtola,  Rain Li,  Yi-Pei Li,  Jiashu Liang,  M. Liebenthal,  
 Hung-Hsuan Lin,  You-Sheng Lin,  Fenglai Liu,  Kuan-Yu Liu,  
 M. Loipersberger,  A. Luenser,  A. Manjanath,  P. Manohar,  E. Mansoor,  
 S. F. Manzer,  Shan-Ping Mao,  A. V. Marenich,  T. Markovich,  S. Mason,  
 S. A. Maurer,  P. F. McLaughlin,  M. F. S. J. Menger,  J.-M. Mewes,  
 S. A. Mewes,  P. Morgante,  J. W. Mullinax,  T. S. Nguyen-Beck,  
 K. J. Oosterbaan,  G. Paran,  Alexander C. Paul,  Suranjan K. Paul,  
 F. Pavosevic,  Zheng Pei,  S. Prager,  E. I. Proynov,  E. Ramos,  B. Rana,  
 A. E. Rask,  A. Rettig,  R. M. Richard,  F. Rob,  E. Rossomme,  T. Scheele,  
 M. Scheurer,  M. Schneider,  N. Sergueev,  S. M. Sharada,  W. Skomorowski,  
 D. W. Small,  C. J. Stein,  Yu-Chuan Su,  E. J. Sundstrom,  Zhen Tao,  
 J. Thirman,  T. Tsuchimochi,  N. M. Tubman,  S. P. Veccham,  O. Vydrov,  
 J. Wenzel,  J. Witte,  A. Yamada,  Kun Yao,  S. Yeganeh,  S. R. Yost,  
 A. Zech,  Igor Ying Zhang,  Xing Zhang,  Yu Zhang,  D. Zuev,  
 A. Aspuru-Guzik,  A. T. Bell,  N. A. Besley,  K. B. Bravaya,  B. R. Brooks,  
 D. Casanova,  Jeng-Da Chai,  S. Coriani,  C. J. Cramer,  
 A. E. DePrince, III,  R. A. DiStasio Jr.,  A. Dreuw,  B. D. Dunietz,  
 T. R. Furlani,  W. A. Goddard III,  S. Grimme,  S. Hammes-Schiffer,  
 T. Head-Gordon,  W. J. Hehre,  Chao-Ping Hsu,  T.-C. Jagau,  Yousung Jung,  
 A. Klamt,  Jing Kong,  D. S. Lambrecht,  WanZhen Liang,  N. J. Mayhall,  
 C. W. McCurdy,  J. B. Neaton,  C. Ochsenfeld,  J. A. Parkhill,  R. Peverati,  
 V. A. Rassolov,  Yihan Shao,  L. V. Slipchenko,  T. Stauch,  R. P. Steele,  
 J. E. Subotnik,  A. J. W. Thom,  A. Tkatchenko,  D. G. Truhlar,  
 T. Van Voorhis,  T. A. Wesolowski,  K. B. Whaley,  H. L. Woodcock III,  
 P. M. Zimmerman,  S. Faraji,  P. M. W. Gill,  M. Head-Gordon,  
 J. M. Herbert,  A. I. Krylov

 Contributors to earlier versions of Q-Chem not listed above: 
 R. D. Adamson,  B. Austin,  R. Baer,  J. Baker,  G. J. O. Beran,  
 K. Brandhorst,  S. T. Brown,  E. F. C. Byrd,  A. K. Chakraborty,  
 G. K. L. Chan,  Chun-Min Chang,  Yunqing Chen,  C.-L. Cheng,  
 Siu Hung Chien,  D. M. Chipman,  D. L. Crittenden,  H. Dachsel,  
 R. J. Doerksen,  A. D. Dutoi,  R. G. Edgar,  J. Fosso-Tande,  
 L. Fusti-Molnar,  D. Ghosh,  A. Ghysels,  A. Golubeva-Zadorozhnaya,  
 J. Gonthier,  M. S. Gordon,  S. R. Gwaltney,  G. Hawkins,  J. E. Herr,  
 A. Heyden,  S. Hirata,  E. G. Hohenstein,  G. Kedziora,  F. J. Keil,  
 C. Kelley,  Jihan Kim,  R. A. King,  R. Z. Khaliullin,  P. P. Korambath,  
 W. Kurlancheek,  A. Laurent,  A. M. Lee,  M. S. Lee,  S. V. Levchenko,  
 Ching Yeh Lin,  D. Liotard,  E. Livshits,  R. C. Lochan,  I. Lotan,  
 L. A. Martinez-Martinez,  P. E. Maslen,  N. Nair,  D. P. O'Neill,  
 D. Neuhauser,  E. Neuscamman,  C. M. Oana,  R. Olivares-Amaya,  R. Olson,  
 T. M. Perrine,  B. Peters,  P. A. Pieniazek,  A. Prociuk,  Y. M. Rhee,  
 J. Ritchie,  M. A. Rohrdanz,  E. Rosta,  N. J. Russ,  H. F. Schaefer III,  
 M. W. Schmidt,  N. E. Schultz,  S. Sharma,  N. Shenvi,  C. D. Sherrill,  
 A. C. Simmonett,  A. Sodt,  T. Stein,  D. Stuck,  K. S. Thanthiriwatte,  
 V. Vanovschi,  L. Vogt,  Tao Wang,  A. Warshel,  M. A. Watson,  
 C. F. Williams,  Q. Wu,  X. Xu,  Jun Yang,  W. Zhang,  Yan Zhao

 Please cite Q-Chem as follows:
 Y. Shao et al., Mol. Phys. 113, 184-215 (2015)
 DOI: 10.1080/00268976.2014.952696

 Q-Chem 5.4.0 for Intel X86 EM64T Linux

 Parts of Q-Chem use Armadillo 9.800.1 (Horizon Scraper).
 http://arma.sourceforge.net/

 Q-Chem begins on Tue Jan  9 10:03:43 2024  

 Host: 
0

     Scratch files written to ./qchem2779405//
 May1621 |scratch|qcdevops|jenkins|workspace|build_RNUM    
 Parallel job on  1  processors
 Processing $rem in /cm/shared/apps/spack/cpu/opt/spack/linux-centos8-zen2/gcc-10.2.0/qchem-5.4-akfmr7b3t57bfs6qan3padb2wnb2i7cl/config/preferences:
 Processing $rem in /home/rramji/.qchemrc:
 Symmetry turned off for PCM/SM12/SMD calculation
 Core orbitals will be frozen

 Checking the input file for inconsistencies... 	...done.

 Q-Chem warning in module forms1/BasisType.C, line 2236:

 You are not using the predefined 5D/6D in this basis set.


--------------------------------------------------------------
User input:
--------------------------------------------------------------
$molecule
0 1
C	-0.795369	-0.619704	0.974225
S	-0.101969	-0.038504	2.481725
C	1.102131	0.972896	1.693125
C	-0.102069	-0.038904	-0.093675
C	0.961431	0.856396	0.287825
S	-0.286769	-0.197704	-1.831275
C	1.051531	0.932496	-2.080275
C	1.592531	1.389696	-0.888375
F	2.613331	2.252596	-0.844875
C	1.395931	1.219096	-3.481875
O	0.811331	0.718096	-4.432275
O	2.425731	2.092896	-3.594975
C	2.808331	2.407096	-4.941975
H	3.647231	3.120196	-4.858875
H	1.963631	2.864196	-5.495975
H	3.126631	1.494396	-5.485075
C	-0.795369	-2.054904	0.974225
H	-1.617869	-2.062904	1.674125
H	-1.335969	-2.732804	0.330325
H	-0.185769	-2.586004	1.690325
H	1.809331	1.568096	2.280725
$end

$rem
JOBTYPE		SP
EXCHANGE	HF
CORRELATION	pRIMP2
BASIS		cc-pvtz
METHOD		rimp2
AUX_BASIS	rimp2-cc-pvtz
SOLVENT_METHOD	PCM
PURECART	11111
SYMMETRY	false
MEM_TOTAL	110000
SCF_CONVERGENCE = 6
THRESH=10
GUI = 2
$end



$solvent
dielectric 4.90
$end
--------------------------------------------------------------
 ----------------------------------------------------------------
             Standard Nuclear Orientation (Angstroms)
    I     Atom           X                Y                Z
 ----------------------------------------------------------------
    1      C      -0.7953690000    -0.6197040000     0.9742250000
    2      S      -0.1019690000    -0.0385040000     2.4817250000
    3      C       1.1021310000     0.9728960000     1.6931250000
    4      C      -0.1020690000    -0.0389040000    -0.0936750000
    5      C       0.9614310000     0.8563960000     0.2878250000
    6      S      -0.2867690000    -0.1977040000    -1.8312750000
    7      C       1.0515310000     0.9324960000    -2.0802750000
    8      C       1.5925310000     1.3896960000    -0.8883750000
    9      F       2.6133310000     2.2525960000    -0.8448750000
   10      C       1.3959310000     1.2190960000    -3.4818750000
   11      O       0.8113310000     0.7180960000    -4.4322750000
   12      O       2.4257310000     2.0928960000    -3.5949750000
   13      C       2.8083310000     2.4070960000    -4.9419750000
   14      H       3.6472310000     3.1201960000    -4.8588750000
   15      H       1.9636310000     2.8641960000    -5.4959750000
   16      H       3.1266310000     1.4943960000    -5.4850750000
   17      C      -0.7953690000    -2.0549040000     0.9742250000
   18      H      -1.6178690000    -2.0629040000     1.6741250000
   19      H      -1.3359690000    -2.7328040000     0.3303250000
   20      H      -0.1857690000    -2.5860040000     1.6903250000
   21      H       1.8093310000     1.5680960000     2.2807250000
 ----------------------------------------------------------------
 Nuclear Repulsion Energy =        1088.18039227 hartrees
 There are       59 alpha and       59 beta electrons
 Requested basis set is cc-pVTZ
 There are 186 shells and 526 basis functions

 Total QAlloc Memory Limit 110000 MB
 Mega-Array Size       188 MB
 MEM_STATIC part       192 MB
 Discretize the solute cavity surface with Lebedev spheres
	Using 110 Lebedev grid points for each H atom
	Using 194 Lebedev grid points for other atoms
	Atomic van der Waals radii will be scaled by 1.20
 Remove points where switching function is < 1.0e-08
 Keep 1533 surface tesserae and discard 1953 interior tesserae
 Molecular Surface Area = 240.940 Angst**2
 Requested basis set is rimp2-cc-pVTZ
 There are 410 shells and 1426 basis functions
 A cutoff of  1.0D-10 yielded  11595 shell pairs
 There are     90889 function pairs (    118916 Cartesian)
 Smallest overlap matrix eigenvalue = 6.44E-05

 Scale SEOQF with 1.000000e-01/1.000000e-01/1.000000e-02

 Standard Electronic Orientation quadrupole field applied
 Nucleus-field energy     =     0.0000000165 hartrees
 Guess from superposition of atomic densities
 Warning:  Energy on first SCF cycle will be non-variational
 SAD guess density has 118.000000 electrons

 -----------------------------------------------------------------------
  General SCF calculation program by
  Eric Jon Sundstrom, Paul Horn, Yuezhi Mao, Dmitri Zuev, Alec White,
  David Stuck, Shaama M.S., Shane Yost, Joonho Lee, David Small,
  Daniel Levine, Susi Lehtola, Hugh Burton, Evgeny Epifanovsky,
  Bang C. Huynh
 -----------------------------------------------------------------------
 Hartree-Fock
 using 64 threads for integral computing
 -------------------------------------------------------
 OpenMP Integral computing Module                
 Release: version 1.0, May 2013, Q-Chem Inc. Pittsburgh 
 -------------------------------------------------------
 A restricted SCF calculation will be
 performed using DIIS
 SCF converges when DIIS error is below 1.0e-06
 ---------------------------------------
  Cycle       Energy         DIIS error
 ---------------------------------------
    1   -1394.3021681863      2.48e-02  
    2   -1388.9781535607      2.49e-03  
    3   -1389.1497340777      1.55e-03  
    4   -1389.2112764596      3.55e-04  
    5   -1389.2171727288      1.12e-04  
    6   -1389.2178755137      3.67e-05  
    7   -1389.2180256441      1.83e-05  
    8   -1389.2180776797      7.23e-06  
    9   -1389.2180891396      3.09e-06  
   10   -1389.2180908698      1.19e-06  
   11   -1389.2180911395      5.02e-07  Convergence criterion met
 ---------------------------------------
 SCF time:   CPU 1717.62s  wall 52.00s 

************** Final PCM Free Energy Summary **************
 G_electrostatic  =      -0.01182074 hartree =      -7.41762623 kcal/mol
 G_cavitation     =       0.00000000 hartree =       0.00000000 kcal/mol
 G_dispersion     =       0.00000000 hartree =       0.00000000 kcal/mol
 G_repulsion      =       0.00000000 hartree =       0.00000000 kcal/mol
 --------------------------------------------------
 Non-electrostatic Free Energy =       0.00000000 hartree =       0.00000000 kcal/mol
 Total                         =      -0.01182074 hartree =      -7.41762623 kcal/mol
 --------------------------------------------------
 SCF Energy (H0 + V/2)                       =   -1389.21809114 
 Solute Internal Energy (H0)                 =   -1389.20627040 
 Total Free Energy (H0 + V/2 + non-elec)     =   -1389.21809114 hartree
                                             = -871747.50947456 kcal/mol
***********************************************************

 SCF   energy in the final basis set =    -1389.2180911395
 Total energy in the final basis set =    -1389.2180911395


 --------------------------------------------------------------
  Generalized many-body perturbation theory program
  by Joonho Lee, Fazle Rob, Xintian Feng, Evgeny Epifanovsky

 No regularization used 
 (reg. param. = 0.0000e+00)
  (P|Q)^-1/2 Time:  CPU 29.15 s  wall 0.47 s

 In RI-MP2 calculation: 
 # of frozen core orbitals: 22

 Components of the RIMP2 correlation energy:
        aaaa    correlation energy =        -0.3298653241 a.u.
        abab    correlation energy =        -1.8541510320 a.u.
        bbbb    correlation energy =        -0.3298653241 a.u.
        non-Brillouin singles      =        -0.0000000000 a.u.
        total same-spin energy     =        -0.6597306482 a.u.
        total opposite-spin energy =        -1.8541510320 a.u.

 Total  RIMP2   correlation energy =        -2.5138816803 a.u.
        RIMP2         total energy =     -1391.7319728197 a.u.

 RI-MP2 Energy Time:  CPU 227.60 s  wall 4.58 s
 
 --------------------------------------------------------------
 
                    Orbital Energies (a.u.)
 --------------------------------------------------------------
 
 Alpha MOs
 -- Occupied --
-92.0047 -91.9989 -26.3422 -20.6138 -20.5598 -11.4080 -11.3813 -11.3172
-11.2974 -11.2942 -11.2884 -11.2800 -11.2674 -11.2158  -9.0042  -8.9988
 -6.6850  -6.6842  -6.6839  -6.6798  -6.6791  -6.6780  -1.6595  -1.4662
 -1.3688  -1.2179  -1.1406  -1.0659  -1.0218  -0.9916  -0.9600  -0.9088
 -0.8656  -0.8094  -0.7900  -0.7593  -0.7322  -0.7242  -0.6940  -0.6836
 -0.6731  -0.6605  -0.6118  -0.5980  -0.5902  -0.5774  -0.5652  -0.5607
 -0.5308  -0.5232  -0.5089  -0.4850  -0.4732  -0.4717  -0.4687  -0.4550
 -0.3798  -0.3439  -0.2906
 -- Virtual --
  0.0318   0.0899   0.1384   0.1527   0.1575   0.1710   0.1857   0.1906
  0.2077   0.2151   0.2191   0.2256   0.2300   0.2435   0.2527   0.2662
  0.2835   0.2966   0.3091   0.3317   0.3414   0.3491   0.3756   0.3850
  0.3895   0.3953   0.4005   0.4135   0.4221   0.4246   0.4329   0.4393
  0.4533   0.4670   0.4736   0.4836   0.4917   0.4994   0.5060   0.5115
  0.5269   0.5328   0.5354   0.5435   0.5495   0.5591   0.5632   0.5779
  0.5793   0.5988   0.5999   0.6074   0.6143   0.6166   0.6223   0.6346
  0.6402   0.6469   0.6577   0.6643   0.6776   0.6842   0.7000   0.7121
  0.7176   0.7209   0.7276   0.7380   0.7599   0.7667   0.7774   0.7940
  0.8071   0.8138   0.8260   0.8365   0.8470   0.8542   0.8649   0.8742
  0.8781   0.8964   0.9137   0.9196   0.9408   0.9492   0.9606   0.9734
  0.9784   0.9966   1.0070   1.0134   1.0258   1.0350   1.0509   1.0593
  1.0661   1.0822   1.0946   1.1042   1.1072   1.1115   1.1170   1.1240
  1.1302   1.1521   1.1661   1.1683   1.1789   1.1898   1.2011   1.2148
  1.2247   1.2333   1.2498   1.2590   1.2718   1.2769   1.2854   1.2933
  1.3233   1.3354   1.3517   1.3566   1.3703   1.3753   1.3927   1.4094
  1.4202   1.4274   1.4414   1.4575   1.4650   1.4883   1.5030   1.5126
  1.5186   1.5368   1.5424   1.5534   1.5567   1.5729   1.5797   1.6056
  1.6119   1.6357   1.6474   1.6505   1.6661   1.6829   1.7007   1.7341
  1.7533   1.7657   1.7846   1.7947   1.8174   1.8265   1.8437   1.8488
  1.8637   1.8718   1.8969   1.9124   1.9253   1.9338   1.9459   1.9543
  1.9785   2.0006   2.0068   2.0302   2.0555   2.0766   2.0929   2.0943
  2.1050   2.1482   2.1633   2.1770   2.1943   2.1956   2.2195   2.2299
  2.2330   2.2494   2.2611   2.2765   2.2946   2.3035   2.3321   2.3390
  2.3524   2.3691   2.3857   2.4029   2.4151   2.4307   2.4734   2.4828
  2.4984   2.5336   2.5482   2.5638   2.5769   2.5974   2.6282   2.6369
  2.6438   2.6562   2.6748   2.6763   2.6937   2.6979   2.7137   2.7172
  2.7299   2.7460   2.7593   2.7791   2.7867   2.8039   2.8201   2.8225
  2.8357   2.8463   2.8679   2.8885   2.9092   2.9214   2.9386   2.9591
  2.9771   2.9814   3.0020   3.0159   3.0237   3.0317   3.0425   3.0680
  3.0781   3.0896   3.1017   3.1090   3.1107   3.1226   3.1391   3.1432
  3.1512   3.1755   3.1914   3.2071   3.2115   3.2173   3.2293   3.2400
  3.2502   3.2612   3.2698   3.2763   3.2952   3.2995   3.3154   3.3260
  3.3443   3.3529   3.3600   3.3722   3.3886   3.3910   3.4013   3.4144
  3.4252   3.4365   3.4428   3.4499   3.4611   3.4749   3.4833   3.4919
  3.5113   3.5171   3.5343   3.5368   3.5460   3.5665   3.5716   3.5812
  3.5937   3.5998   3.6071   3.6109   3.6222   3.6370   3.6534   3.6708
  3.6845   3.6952   3.7060   3.7126   3.7195   3.7337   3.7459   3.7642
  3.7761   3.7940   3.7988   3.8062   3.8083   3.8232   3.8350   3.8489
  3.8576   3.8720   3.8752   3.8878   3.9003   3.9141   3.9252   3.9402
  3.9472   3.9701   3.9830   3.9974   4.0188   4.0245   4.0485   4.0631
  4.0687   4.0747   4.1012   4.1176   4.1342   4.1571   4.1617   4.1670
  4.1888   4.2057   4.2254   4.2534   4.2675   4.2952   4.3028   4.3422
  4.3517   4.3595   4.3742   4.3820   4.3992   4.4226   4.4303   4.4367
  4.4666   4.4898   4.5179   4.5318   4.5386   4.5516   4.5679   4.5844
  4.6060   4.6227   4.6475   4.6616   4.6780   4.7211   4.7310   4.7466
  4.7793   4.7889   4.7932   4.8359   4.8503   4.8514   4.8886   4.8940
  4.9391   4.9757   5.0094   5.0249   5.0502   5.0821   5.0915   5.1182
  5.1587   5.1774   5.1976   5.2506   5.2539   5.2583   5.3214   5.3514
  5.3595   5.3917   5.4264   5.4267   5.4334   5.4854   5.5003   5.5156
  5.5350   5.5815   5.6079   5.6228   5.6629   5.7038   5.7375   5.7527
  5.8084   5.8127   5.8469   5.8854   5.9302   5.9349   5.9388   5.9465
  6.0414   6.0431   6.1447   6.1511   6.1844   6.2509   6.2622   6.3808
  6.4511   6.4569   6.5383   6.5988   6.6619   6.6724   6.7462   6.8304
  6.8607   6.9793   7.2047   7.2050   7.3111   7.3640   7.3640   7.4060
  7.4143   7.4866   7.5194   7.5506   7.6152   7.7740   7.7894   7.8909
  7.9552   8.1331   8.2045   8.9229   9.0217   9.3639   9.4779   9.6604
 10.1873  11.1860  11.7100  11.8430  12.4129  12.9117  13.0592  13.3848
 13.7745  14.0314  14.2724
 --------------------------------------------------------------
 
          Ground-State Mulliken Net Atomic Charges

     Atom                 Charge (a.u.)
  ----------------------------------------
      1 C                    -0.115404
      2 S                     0.086660
      3 C                    -0.158104
      4 C                     0.076050
      5 C                    -0.109658
      6 S                     0.024757
      7 C                    -0.158708
      8 C                     0.391218
      9 F                    -0.207427
     10 C                     0.447731
     11 O                    -0.463578
     12 O                    -0.301339
     13 C                    -0.058400
     14 H                     0.121076
     15 H                     0.094859
     16 H                     0.094765
     17 C                    -0.384397
     18 H                     0.120757
     19 H                     0.149924
     20 H                     0.133288
     21 H                     0.215930
  ----------------------------------------
  Sum of atomic charges =     0.000000

 -----------------------------------------------------------------
                    Cartesian Multipole Moments
 -----------------------------------------------------------------
    Charge (ESU x 10^10)
                -0.0000
    Dipole Moment (Debye)
         X       2.0585      Y       0.7005      Z       3.2694
       Tot       3.9264
    Quadrupole Moments (Debye-Ang)
        XX     -90.5044     XY       6.7907     YY     -89.2973
        XZ      -5.4425     YZ      -6.3902     ZZ     -95.0668
    Octopole Moments (Debye-Ang^2)
       XXX    -188.4548    XXY     -43.7445    XYY     -63.9366
       YYY    -148.7852    XXZ      59.2321    XYZ     -16.1721
       YYZ      69.1059    XZZ      -5.2484    YZZ      -0.4695
       ZZZ     270.0623
    Hexadecapole Moments (Debye-Ang^3)
      XXXX   -1150.3755   XXXY    -451.5449   XXYY    -348.2735
      XYYY    -452.7923   YYYY   -1058.1511   XXXZ     557.4878
      XXYZ     131.3885   XYYZ     157.8174   YYYZ     518.2505
      XXZZ    -614.2396   XYZZ      10.3853   YYZZ    -646.4653
      XZZZ     376.4635   YZZZ     353.1602   ZZZZ   -3709.1294
 -----------------------------------------------------------------
 Total job time:  58.51s(wall), 2024.46s(cpu) 
 Tue Jan  9 10:04:42 2024

        *************************************************************
        *                                                           *
        *  Thank you very much for using Q-Chem.  Have a nice day.  *
        *                                                           *
        *************************************************************


0 sent ACK to 0 
now end server 0 ... 
cleanup process ... done
remove work dirs ./qchem2779405.0 -- ./qchem2779405.0
rm -rf ./qchem2779405.0
rm -rf ./qchem2779405
