You are running Q-Chem version: 5.4.0

#
# job setting
#
local host:  exp-6-40
current dir: /home/rramji/project-csd799/aromodel/ptb7fout-qchem/methylated-rotation-run
input file:  Dimethoxy_Benzodithiophene_Phi_15_Theta_20_Methylcarbonyl_3_Fluoro_Thienothiophene_Hydrogenated_Improper.qcin
output file: 
nprocs     : 1
nthreads   : 64
#
# qchem installation setting
#
QC:          /cm/shared/apps/spack/cpu/opt/spack/linux-centos8-zen2/gcc-10.2.0/qchem-5.4-akfmr7b3t57bfs6qan3padb2wnb2i7cl
QCAUX:       /cm/shared/apps/spack/cpu/opt/spack/linux-centos8-zen2/gcc-10.2.0/qchem-5.4-akfmr7b3t57bfs6qan3padb2wnb2i7cl/qcaux
QCPROG:      /cm/shared/apps/spack/cpu/opt/spack/linux-centos8-zen2/gcc-10.2.0/qchem-5.4-akfmr7b3t57bfs6qan3padb2wnb2i7cl/exe/qcprog.exe
QCPROG_S:    /cm/shared/apps/spack/cpu/opt/spack/linux-centos8-zen2/gcc-10.2.0/qchem-5.4-akfmr7b3t57bfs6qan3padb2wnb2i7cl/exe/qcprog.exe_s
PARALLEL:    -DPARALLEL
QCMPI:       mpich
#
# qchem directory setting
#
qcrun:       qchem3217476
QCSCRATCH:   .
QCLOCALSCR:  
QCTMPDIR:    .
QCFILEPREF:  ./qchem3217476
QCSAVEDIR:   
workdirs:    ./qchem3217476
workdir0:    ./qchem3217476
partmpdirs =  
#
# parallel setting
#
QCRSH:           ssh
QCMPI:           mpich
QCMPIRUN:        /cm/shared/apps/spack/cpu/opt/spack/linux-centos8-zen2/gcc-10.2.0/qchem-5.4-akfmr7b3t57bfs6qan3padb2wnb2i7cl/bin/mpi/mpirun_qchem
QCMACHINEFILE:   ./qchem3217476/hostfile
exp-6-40

#
# env setting
#
exported envs:   QC QCAUX QCSCRATCH QCRUNNAME QCFILEPREF QCPROG QCPROG_S GUIFILE

Running Job 1 of 1 Dimethoxy_Benzodithiophene_Phi_15_Theta_20_Methylcarbonyl_3_Fluoro_Thienothiophene_Hydrogenated_Improper.qcin
qchem Dimethoxy_Benzodithiophene_Phi_15_Theta_20_Methylcarbonyl_3_Fluoro_Thienothiophene_Hydrogenated_Improper.qcin_3217476.0 ./qchem3217476/ 1
/cm/shared/apps/spack/cpu/opt/spack/linux-centos8-zen2/gcc-10.2.0/qchem-5.4-akfmr7b3t57bfs6qan3padb2wnb2i7cl/bin/mpi/mpirun_qchem -machinefile ./qchem3217476/hostfile -np 1 /cm/shared/apps/spack/cpu/opt/spack/linux-centos8-zen2/gcc-10.2.0/qchem-5.4-akfmr7b3t57bfs6qan3padb2wnb2i7cl/exe/qcprog.exe Dimethoxy_Benzodithiophene_Phi_15_Theta_20_Methylcarbonyl_3_Fluoro_Thienothiophene_Hydrogenated_Improper.qcin_3217476.0 ./qchem3217476/

Process 0 of 1 is on exp-6-40 - thread support 0
initial socket setup ...start
initial socket setup ...done 
now start server 0 ... 
                  Welcome to Q-Chem
     A Quantum Leap Into The Future Of Chemistry


 Q-Chem 5.4, Q-Chem, Inc., Pleasanton, CA (2021)

 License issued to: University of California, San Diego (site)

 E. Epifanovsky,  A. T. B. Gilbert,  Xintian Feng,  Joonho Lee,  Yuezhi Mao,  
 N. Mardirossian,  P. Pokhilko,  A. White,  M. Wormit,  M. P. Coons,  
 A. L. Dempwolff,  Zhengting Gan,  D. Hait,  P. R. Horn,  L. D. Jacobson,  
 I. Kaliman,  J. Kussmann,  A. W. Lange,  Ka Un Lao,  D. S. Levine,  Jie Liu,  
 S. C. McKenzie,  A. F. Morrison,  K. Nanda,  F. Plasser,  D. R. Rehn,  
 M. L. Vidal,  Zhi-Qiang You,  Ying Zhu,  B. Alam,  B. Albrecht,  
 A. Aldossary,  E. Alguire,  J. H. Andersen,  D. Barton,  K. Begam,  A. Behn,  
 Y. A. Bernard,  E. J. Berquist,  H. Burton,  A. Carreras,  K. Carter-Fenk,  
 R. Chakraborty,  A. D. Chien,  K. D. Closser,  V. Cofer-Shabica,  
 S. Dasgupta,  Jia Deng,  M. de Wergifosse,  M. Diedenhofen,  Hainam Do,  
 S. Ehlert,  Po-Tung Fang,  S. Fatehi,  Qingguo Feng,  J. Gayvert,  
 Qinghui Ge,  G. Gidofalvi,  M. Goldey,  J. Gomes,  C. Gonzalez-Espinoza,  
 S. Gulania,  A. Gunina,  M. W. D. Hanson-Heine,  P. H. P. Harbach,  
 A. W. Hauser,  M. F. Herbst,  M. Hernandez Vera,  M. Hodecker,  
 Z. C. Holden,  S. Houck,  Xunkun Huang,  Kerwin Hui,  B. C. Huynh,  
 M. Ivanov,  Hyunjun Ji,  Hanjie Jiang,  B. Kaduk,  S. Kaehler,  
 K. Khistyaev,  Jaehoon Kim,  P. Klunzinger,  Z. Koczor-Benda,  
 Joong Hoon Koh,  D. Kosenkov,  L. Koulias,  T. Kowalczyk,  C. M. Krauter,  
 K. Kue,  A. Kunitsa,  T. Kus,  A. Landau,  K. V. Lawler,  D. Lefrancois,  
 S. Lehtola,  Rain Li,  Yi-Pei Li,  Jiashu Liang,  M. Liebenthal,  
 Hung-Hsuan Lin,  You-Sheng Lin,  Fenglai Liu,  Kuan-Yu Liu,  
 M. Loipersberger,  A. Luenser,  A. Manjanath,  P. Manohar,  E. Mansoor,  
 S. F. Manzer,  Shan-Ping Mao,  A. V. Marenich,  T. Markovich,  S. Mason,  
 S. A. Maurer,  P. F. McLaughlin,  M. F. S. J. Menger,  J.-M. Mewes,  
 S. A. Mewes,  P. Morgante,  J. W. Mullinax,  T. S. Nguyen-Beck,  
 K. J. Oosterbaan,  G. Paran,  Alexander C. Paul,  Suranjan K. Paul,  
 F. Pavosevic,  Zheng Pei,  S. Prager,  E. I. Proynov,  E. Ramos,  B. Rana,  
 A. E. Rask,  A. Rettig,  R. M. Richard,  F. Rob,  E. Rossomme,  T. Scheele,  
 M. Scheurer,  M. Schneider,  N. Sergueev,  S. M. Sharada,  W. Skomorowski,  
 D. W. Small,  C. J. Stein,  Yu-Chuan Su,  E. J. Sundstrom,  Zhen Tao,  
 J. Thirman,  T. Tsuchimochi,  N. M. Tubman,  S. P. Veccham,  O. Vydrov,  
 J. Wenzel,  J. Witte,  A. Yamada,  Kun Yao,  S. Yeganeh,  S. R. Yost,  
 A. Zech,  Igor Ying Zhang,  Xing Zhang,  Yu Zhang,  D. Zuev,  
 A. Aspuru-Guzik,  A. T. Bell,  N. A. Besley,  K. B. Bravaya,  B. R. Brooks,  
 D. Casanova,  Jeng-Da Chai,  S. Coriani,  C. J. Cramer,  
 A. E. DePrince, III,  R. A. DiStasio Jr.,  A. Dreuw,  B. D. Dunietz,  
 T. R. Furlani,  W. A. Goddard III,  S. Grimme,  S. Hammes-Schiffer,  
 T. Head-Gordon,  W. J. Hehre,  Chao-Ping Hsu,  T.-C. Jagau,  Yousung Jung,  
 A. Klamt,  Jing Kong,  D. S. Lambrecht,  WanZhen Liang,  N. J. Mayhall,  
 C. W. McCurdy,  J. B. Neaton,  C. Ochsenfeld,  J. A. Parkhill,  R. Peverati,  
 V. A. Rassolov,  Yihan Shao,  L. V. Slipchenko,  T. Stauch,  R. P. Steele,  
 J. E. Subotnik,  A. J. W. Thom,  A. Tkatchenko,  D. G. Truhlar,  
 T. Van Voorhis,  T. A. Wesolowski,  K. B. Whaley,  H. L. Woodcock III,  
 P. M. Zimmerman,  S. Faraji,  P. M. W. Gill,  M. Head-Gordon,  
 J. M. Herbert,  A. I. Krylov

 Contributors to earlier versions of Q-Chem not listed above: 
 R. D. Adamson,  B. Austin,  R. Baer,  J. Baker,  G. J. O. Beran,  
 K. Brandhorst,  S. T. Brown,  E. F. C. Byrd,  A. K. Chakraborty,  
 G. K. L. Chan,  Chun-Min Chang,  Yunqing Chen,  C.-L. Cheng,  
 Siu Hung Chien,  D. M. Chipman,  D. L. Crittenden,  H. Dachsel,  
 R. J. Doerksen,  A. D. Dutoi,  R. G. Edgar,  J. Fosso-Tande,  
 L. Fusti-Molnar,  D. Ghosh,  A. Ghysels,  A. Golubeva-Zadorozhnaya,  
 J. Gonthier,  M. S. Gordon,  S. R. Gwaltney,  G. Hawkins,  J. E. Herr,  
 A. Heyden,  S. Hirata,  E. G. Hohenstein,  G. Kedziora,  F. J. Keil,  
 C. Kelley,  Jihan Kim,  R. A. King,  R. Z. Khaliullin,  P. P. Korambath,  
 W. Kurlancheek,  A. Laurent,  A. M. Lee,  M. S. Lee,  S. V. Levchenko,  
 Ching Yeh Lin,  D. Liotard,  E. Livshits,  R. C. Lochan,  I. Lotan,  
 L. A. Martinez-Martinez,  P. E. Maslen,  N. Nair,  D. P. O'Neill,  
 D. Neuhauser,  E. Neuscamman,  C. M. Oana,  R. Olivares-Amaya,  R. Olson,  
 T. M. Perrine,  B. Peters,  P. A. Pieniazek,  A. Prociuk,  Y. M. Rhee,  
 J. Ritchie,  M. A. Rohrdanz,  E. Rosta,  N. J. Russ,  H. F. Schaefer III,  
 M. W. Schmidt,  N. E. Schultz,  S. Sharma,  N. Shenvi,  C. D. Sherrill,  
 A. C. Simmonett,  A. Sodt,  T. Stein,  D. Stuck,  K. S. Thanthiriwatte,  
 V. Vanovschi,  L. Vogt,  Tao Wang,  A. Warshel,  M. A. Watson,  
 C. F. Williams,  Q. Wu,  X. Xu,  Jun Yang,  W. Zhang,  Yan Zhao

 Please cite Q-Chem as follows:
 Y. Shao et al., Mol. Phys. 113, 184-215 (2015)
 DOI: 10.1080/00268976.2014.952696

 Q-Chem 5.4.0 for Intel X86 EM64T Linux

 Parts of Q-Chem use Armadillo 9.800.1 (Horizon Scraper).
 http://arma.sourceforge.net/

 Q-Chem begins on Tue Jan  9 09:50:00 2024  

 Host: 
0

     Scratch files written to ./qchem3217476//
 May1621 |scratch|qcdevops|jenkins|workspace|build_RNUM    
 Parallel job on  1  processors
 Processing $rem in /cm/shared/apps/spack/cpu/opt/spack/linux-centos8-zen2/gcc-10.2.0/qchem-5.4-akfmr7b3t57bfs6qan3padb2wnb2i7cl/config/preferences:
 Processing $rem in /home/rramji/.qchemrc:
 Symmetry turned off for PCM/SM12/SMD calculation
 Core orbitals will be frozen

 Checking the input file for inconsistencies... 	...done.

 Q-Chem warning in module forms1/BasisType.C, line 2236:

 You are not using the predefined 5D/6D in this basis set.


--------------------------------------------------------------
User input:
--------------------------------------------------------------
$molecule
0 1
C	-0.271310	-0.955820	0.975331
S	-0.036710	-0.082020	2.482831
C	0.369590	1.437180	1.694231
C	-0.036510	-0.082420	-0.092569
C	0.321090	1.260980	0.288931
S	-0.096810	-0.318420	-1.830169
C	0.351290	1.374980	-2.079169
C	0.532190	2.059780	-0.887269
F	0.873490	3.352180	-0.843769
C	0.468990	1.807280	-3.480769
O	0.277490	1.061580	-4.431169
O	0.811390	3.113680	-3.593869
C	0.944490	3.590580	-4.940869
H	1.222790	4.655880	-4.857769
H	-0.009610	3.480480	-5.494869
H	1.728790	3.025480	-5.483969
C	-0.271310	-2.391020	0.975331
H	0.746090	-2.399020	1.337731
H	-0.558610	-3.068920	1.765431
H	0.044090	-2.922120	0.089431
H	0.607390	2.330280	2.281831
$end

$rem
JOBTYPE		SP
EXCHANGE	HF
CORRELATION	pRIMP2
BASIS		cc-pvtz
METHOD		rimp2
AUX_BASIS	rimp2-cc-pvtz
SOLVENT_METHOD	PCM
PURECART	11111
SYMMETRY	false
MEM_TOTAL	110000
SCF_CONVERGENCE = 6
THRESH=10
GUI = 2
$end



$solvent
dielectric 4.90
$end
--------------------------------------------------------------
 ----------------------------------------------------------------
             Standard Nuclear Orientation (Angstroms)
    I     Atom           X                Y                Z
 ----------------------------------------------------------------
    1      C      -0.2713100000    -0.9558200000     0.9753310000
    2      S      -0.0367100000    -0.0820200000     2.4828310000
    3      C       0.3695900000     1.4371800000     1.6942310000
    4      C      -0.0365100000    -0.0824200000    -0.0925690000
    5      C       0.3210900000     1.2609800000     0.2889310000
    6      S      -0.0968100000    -0.3184200000    -1.8301690000
    7      C       0.3512900000     1.3749800000    -2.0791690000
    8      C       0.5321900000     2.0597800000    -0.8872690000
    9      F       0.8734900000     3.3521800000    -0.8437690000
   10      C       0.4689900000     1.8072800000    -3.4807690000
   11      O       0.2774900000     1.0615800000    -4.4311690000
   12      O       0.8113900000     3.1136800000    -3.5938690000
   13      C       0.9444900000     3.5905800000    -4.9408690000
   14      H       1.2227900000     4.6558800000    -4.8577690000
   15      H      -0.0096100000     3.4804800000    -5.4948690000
   16      H       1.7287900000     3.0254800000    -5.4839690000
   17      C      -0.2713100000    -2.3910200000     0.9753310000
   18      H       0.7460900000    -2.3990200000     1.3377310000
   19      H      -0.5586100000    -3.0689200000     1.7654310000
   20      H       0.0440900000    -2.9221200000     0.0894310000
   21      H       0.6073900000     2.3302800000     2.2818310000
 ----------------------------------------------------------------
 Nuclear Repulsion Energy =        1083.56118287 hartrees
 There are       59 alpha and       59 beta electrons
 Requested basis set is cc-pVTZ
 There are 186 shells and 526 basis functions

 Total QAlloc Memory Limit 110000 MB
 Mega-Array Size       188 MB
 MEM_STATIC part       192 MB
 Discretize the solute cavity surface with Lebedev spheres
	Using 110 Lebedev grid points for each H atom
	Using 194 Lebedev grid points for other atoms
	Atomic van der Waals radii will be scaled by 1.20
 Remove points where switching function is < 1.0e-08
 Keep 1567 surface tesserae and discard 1919 interior tesserae
 Molecular Surface Area = 242.699 Angst**2
 Requested basis set is rimp2-cc-pVTZ
 There are 410 shells and 1426 basis functions
 A cutoff of  1.0D-10 yielded  11508 shell pairs
 There are     90304 function pairs (    118220 Cartesian)
 Smallest overlap matrix eigenvalue = 6.08E-05

 Scale SEOQF with 1.000000e-01/1.000000e-01/1.000000e-02

 Standard Electronic Orientation quadrupole field applied
 Nucleus-field energy     =     0.0000000252 hartrees
 Guess from superposition of atomic densities
 Warning:  Energy on first SCF cycle will be non-variational
 SAD guess density has 118.000000 electrons

 -----------------------------------------------------------------------
  General SCF calculation program by
  Eric Jon Sundstrom, Paul Horn, Yuezhi Mao, Dmitri Zuev, Alec White,
  David Stuck, Shaama M.S., Shane Yost, Joonho Lee, David Small,
  Daniel Levine, Susi Lehtola, Hugh Burton, Evgeny Epifanovsky,
  Bang C. Huynh
 -----------------------------------------------------------------------
 Hartree-Fock
 using 64 threads for integral computing
 -------------------------------------------------------
 OpenMP Integral computing Module                
 Release: version 1.0, May 2013, Q-Chem Inc. Pittsburgh 
 -------------------------------------------------------
 A restricted SCF calculation will be
 performed using DIIS
 SCF converges when DIIS error is below 1.0e-06
 ---------------------------------------
  Cycle       Energy         DIIS error
 ---------------------------------------
    1   -1394.2440169421      2.47e-02  
    2   -1389.0346356883      2.47e-03  
    3   -1389.2044716968      1.53e-03  
    4   -1389.2634965388      3.53e-04  
    5   -1389.2692772220      1.13e-04  
    6   -1389.2699711136      3.69e-05  
    7   -1389.2701244750      1.84e-05  
    8   -1389.2701777312      7.14e-06  
    9   -1389.2701887843      3.06e-06  
   10   -1389.2701902327      1.15e-06  
   11   -1389.2701904623      5.41e-07  Convergence criterion met
 ---------------------------------------
 SCF time:   CPU 1691.26s  wall 50.00s 

************** Final PCM Free Energy Summary **************
 G_electrostatic  =      -0.01269926 hartree =      -7.96890498 kcal/mol
 G_cavitation     =       0.00000000 hartree =       0.00000000 kcal/mol
 G_dispersion     =       0.00000000 hartree =       0.00000000 kcal/mol
 G_repulsion      =       0.00000000 hartree =       0.00000000 kcal/mol
 --------------------------------------------------
 Non-electrostatic Free Energy =       0.00000000 hartree =       0.00000000 kcal/mol
 Total                         =      -0.01269926 hartree =      -7.96890498 kcal/mol
 --------------------------------------------------
 SCF Energy (H0 + V/2)                       =   -1389.27019046 
 Solute Internal Energy (H0)                 =   -1389.25749120 
 Total Free Energy (H0 + V/2 + non-elec)     =   -1389.27019046 hartree
                                             = -871780.20229309 kcal/mol
***********************************************************

 SCF   energy in the final basis set =    -1389.2701904623
 Total energy in the final basis set =    -1389.2701904623


 --------------------------------------------------------------
  Generalized many-body perturbation theory program
  by Joonho Lee, Fazle Rob, Xintian Feng, Evgeny Epifanovsky

 No regularization used 
 (reg. param. = 0.0000e+00)
  (P|Q)^-1/2 Time:  CPU 58.60 s  wall 0.95 s

 In RI-MP2 calculation: 
 # of frozen core orbitals: 22

 Components of the RIMP2 correlation energy:
        aaaa    correlation energy =        -0.3280863681 a.u.
        abab    correlation energy =        -1.8477796204 a.u.
        bbbb    correlation energy =        -0.3280863681 a.u.
        non-Brillouin singles      =        -0.0000000000 a.u.
        total same-spin energy     =        -0.6561727362 a.u.
        total opposite-spin energy =        -1.8477796204 a.u.

 Total  RIMP2   correlation energy =        -2.5039523566 a.u.
        RIMP2         total energy =     -1391.7741428189 a.u.

 RI-MP2 Energy Time:  CPU 214.13 s  wall 4.07 s
 
 --------------------------------------------------------------
 
                    Orbital Energies (a.u.)
 --------------------------------------------------------------
 
 Alpha MOs
 -- Occupied --
-92.0044 -91.9900 -26.3398 -20.6134 -20.5595 -11.4073 -11.3776 -11.3020
-11.2943 -11.2937 -11.2880 -11.2811 -11.2783 -11.2312  -9.0035  -8.9902
 -6.6844  -6.6838  -6.6832  -6.6713  -6.6706  -6.6694  -1.6571  -1.4657
 -1.3683  -1.2118  -1.1371  -1.0668  -1.0183  -0.9951  -0.9579  -0.9124
 -0.8629  -0.8048  -0.7879  -0.7582  -0.7310  -0.7220  -0.6918  -0.6831
 -0.6725  -0.6599  -0.6120  -0.5977  -0.5925  -0.5781  -0.5630  -0.5565
 -0.5326  -0.5281  -0.5168  -0.4986  -0.4723  -0.4711  -0.4702  -0.4582
 -0.3851  -0.3459  -0.2808
 -- Virtual --
  0.0409   0.1226   0.1368   0.1546   0.1580   0.1729   0.1865   0.1992
  0.2057   0.2128   0.2157   0.2294   0.2303   0.2445   0.2530   0.2676
  0.2847   0.3084   0.3339   0.3394   0.3438   0.3525   0.3704   0.3798
  0.3856   0.4027   0.4078   0.4148   0.4225   0.4321   0.4386   0.4478
  0.4601   0.4637   0.4825   0.4885   0.5009   0.5072   0.5136   0.5170
  0.5240   0.5298   0.5441   0.5446   0.5560   0.5602   0.5672   0.5746
  0.5845   0.5978   0.6107   0.6146   0.6157   0.6187   0.6225   0.6274
  0.6357   0.6404   0.6562   0.6623   0.6681   0.6947   0.6999   0.7094
  0.7203   0.7240   0.7349   0.7441   0.7548   0.7687   0.7912   0.8016
  0.8095   0.8217   0.8305   0.8443   0.8585   0.8658   0.8706   0.8770
  0.8880   0.8932   0.9021   0.9194   0.9280   0.9543   0.9610   0.9735
  0.9835   0.9978   1.0061   1.0175   1.0268   1.0363   1.0485   1.0552
  1.0654   1.0725   1.0842   1.0935   1.1027   1.1108   1.1179   1.1207
  1.1287   1.1476   1.1626   1.1738   1.1785   1.1862   1.2039   1.2118
  1.2198   1.2399   1.2494   1.2587   1.2599   1.2739   1.2820   1.2949
  1.3107   1.3256   1.3536   1.3659   1.3788   1.3926   1.3957   1.4039
  1.4184   1.4268   1.4429   1.4781   1.4827   1.4939   1.5022   1.5073
  1.5114   1.5269   1.5404   1.5447   1.5467   1.5576   1.5767   1.5876
  1.6151   1.6309   1.6571   1.6689   1.6800   1.6887   1.7191   1.7330
  1.7568   1.7802   1.7959   1.8025   1.8222   1.8275   1.8365   1.8698
  1.8819   1.8977   1.8998   1.9147   1.9317   1.9412   1.9570   1.9809
  1.9973   2.0116   2.0154   2.0360   2.0557   2.0828   2.0891   2.1015
  2.1466   2.1597   2.1640   2.1911   2.1989   2.2042   2.2245   2.2294
  2.2402   2.2471   2.2588   2.2808   2.2976   2.3140   2.3369   2.3558
  2.3574   2.3726   2.3848   2.4171   2.4346   2.4503   2.4696   2.4887
  2.4968   2.5346   2.5541   2.5609   2.5835   2.6054   2.6147   2.6314
  2.6350   2.6463   2.6544   2.6765   2.6894   2.6934   2.7010   2.7094
  2.7299   2.7530   2.7746   2.7857   2.7918   2.8030   2.8105   2.8228
  2.8357   2.8531   2.8720   2.8786   2.8864   2.9175   2.9350   2.9485
  2.9594   2.9791   2.9967   3.0011   3.0242   3.0320   3.0437   3.0647
  3.0673   3.0919   3.0969   3.1032   3.1133   3.1247   3.1334   3.1424
  3.1491   3.1678   3.1894   3.2096   3.2174   3.2238   3.2370   3.2453
  3.2556   3.2656   3.2678   3.2771   3.2906   3.3101   3.3187   3.3244
  3.3319   3.3527   3.3676   3.3705   3.3862   3.3912   3.4046   3.4121
  3.4240   3.4387   3.4473   3.4566   3.4619   3.4757   3.4845   3.4886
  3.4961   3.5097   3.5194   3.5483   3.5501   3.5570   3.5621   3.5822
  3.5878   3.5987   3.6011   3.6131   3.6227   3.6379   3.6447   3.6647
  3.6779   3.6896   3.7040   3.7069   3.7107   3.7295   3.7406   3.7470
  3.7559   3.7709   3.7782   3.7878   3.8095   3.8131   3.8176   3.8263
  3.8566   3.8583   3.8760   3.8840   3.8952   3.9078   3.9186   3.9306
  3.9517   3.9583   3.9637   3.9761   4.0095   4.0146   4.0218   4.0418
  4.0690   4.0791   4.1087   4.1096   4.1302   4.1477   4.1556   4.1682
  4.1751   4.1905   4.2119   4.2595   4.2940   4.3015   4.3102   4.3424
  4.3439   4.3596   4.3683   4.3899   4.4038   4.4140   4.4236   4.4319
  4.4418   4.4774   4.5160   4.5265   4.5314   4.5506   4.5865   4.6005
  4.6116   4.6230   4.6315   4.6568   4.6705   4.7091   4.7228   4.7493
  4.7716   4.7818   4.7846   4.8235   4.8517   4.8963   4.9092   4.9256
  4.9435   4.9784   4.9957   5.0098   5.0457   5.0960   5.1032   5.1221
  5.1359   5.1633   5.2065   5.2528   5.2563   5.2610   5.2886   5.3537
  5.3558   5.3958   5.4082   5.4271   5.4533   5.4847   5.4858   5.5294
  5.5463   5.5830   5.5989   5.6233   5.6406   5.6655   5.7338   5.7543
  5.8067   5.8089   5.8283   5.8561   5.9137   5.9307   5.9561   6.0434
  6.0693   6.1285   6.1515   6.1779   6.2192   6.2626   6.3055   6.4207
  6.4517   6.4815   6.5393   6.6049   6.6623   6.6729   6.7479   6.8315
  6.8611   6.9797   7.2054   7.2074   7.3114   7.3660   7.3662   7.4076
  7.4147   7.4888   7.5271   7.5521   7.6163   7.7762   7.7904   7.8992
  7.9611   8.1364   8.2665   8.9251   9.0156   9.3660   9.4676   9.6470
 10.0914  11.0362  11.5814  11.8093  12.4080  12.9190  13.0823  13.3861
 13.7704  14.0296  14.5123
 --------------------------------------------------------------
 
          Ground-State Mulliken Net Atomic Charges

     Atom                 Charge (a.u.)
  ----------------------------------------
      1 C                     0.058830
      2 S                     0.073415
      3 C                    -0.226407
      4 C                    -0.057162
      5 C                    -0.081664
      6 S                    -0.012355
      7 C                    -0.155326
      8 C                     0.388838
      9 F                    -0.208978
     10 C                     0.445549
     11 O                    -0.461803
     12 O                    -0.300782
     13 C                    -0.058510
     14 H                     0.121058
     15 H                     0.094792
     16 H                     0.094594
     17 C                    -0.383571
     18 H                     0.146984
     19 H                     0.161968
     20 H                     0.147887
     21 H                     0.212644
  ----------------------------------------
  Sum of atomic charges =     0.000000

 -----------------------------------------------------------------
                    Cartesian Multipole Moments
 -----------------------------------------------------------------
    Charge (ESU x 10^10)
                -0.0000
    Dipole Moment (Debye)
         X       1.1748      Y      -0.0120      Z       3.4999
       Tot       3.6918
    Quadrupole Moments (Debye-Ang)
        XX     -96.6015     XY       1.2727     YY     -81.2269
        XZ      -1.8550     YZ     -11.0943     ZZ     -96.1188
    Octopole Moments (Debye-Ang^2)
       XXX     -67.8066    XXY     -76.0114    XYY     -15.6938
       YYY    -235.6588    XXZ      77.3578    XYZ      -9.0822
       YYZ      54.1926    XZZ      -2.7964    YZZ      -6.6083
       ZZZ     271.7977
    Hexadecapole Moments (Debye-Ang^3)
      XXXX    -238.1593   XXXY    -233.1616   XXYY    -385.0220
      XYYY    -213.8567   YYYY   -1946.0962   XXXZ     205.1021
      XXYZ     264.8819   XYYZ      30.0567   YYYZ     656.8925
      XXZZ    -636.1182   XYZZ       9.1398   YYZZ    -625.2125
      XZZZ     123.9768   YZZZ     499.8187   ZZZZ   -3710.4333
 -----------------------------------------------------------------
 Total job time:  57.55s(wall), 1986.92s(cpu) 
 Tue Jan  9 09:50:58 2024

        *************************************************************
        *                                                           *
        *  Thank you very much for using Q-Chem.  Have a nice day.  *
        *                                                           *
        *************************************************************


0 sent ACK to 0 
now end server 0 ... 
cleanup process ... done
remove work dirs ./qchem3217476.0 -- ./qchem3217476.0
rm -rf ./qchem3217476.0
rm -rf ./qchem3217476
