You are running Q-Chem version: 5.4.0

#
# job setting
#
local host:  exp-6-40
current dir: /home/rramji/project-csd799/aromodel/ptb7fout-qchem/methylated-rotation-run
input file:  Dimethoxy_Benzodithiophene_Phi_15_Theta_110_Methylcarbonyl_3_Fluoro_Thienothiophene_Hydrogenated_Improper.qcin
output file: 
nprocs     : 1
nthreads   : 64
#
# qchem installation setting
#
QC:          /cm/shared/apps/spack/cpu/opt/spack/linux-centos8-zen2/gcc-10.2.0/qchem-5.4-akfmr7b3t57bfs6qan3padb2wnb2i7cl
QCAUX:       /cm/shared/apps/spack/cpu/opt/spack/linux-centos8-zen2/gcc-10.2.0/qchem-5.4-akfmr7b3t57bfs6qan3padb2wnb2i7cl/qcaux
QCPROG:      /cm/shared/apps/spack/cpu/opt/spack/linux-centos8-zen2/gcc-10.2.0/qchem-5.4-akfmr7b3t57bfs6qan3padb2wnb2i7cl/exe/qcprog.exe
QCPROG_S:    /cm/shared/apps/spack/cpu/opt/spack/linux-centos8-zen2/gcc-10.2.0/qchem-5.4-akfmr7b3t57bfs6qan3padb2wnb2i7cl/exe/qcprog.exe_s
PARALLEL:    -DPARALLEL
QCMPI:       mpich
#
# qchem directory setting
#
qcrun:       qchem3220229
QCSCRATCH:   .
QCLOCALSCR:  
QCTMPDIR:    .
QCFILEPREF:  ./qchem3220229
QCSAVEDIR:   
workdirs:    ./qchem3220229
workdir0:    ./qchem3220229
partmpdirs =  
#
# parallel setting
#
QCRSH:           ssh
QCMPI:           mpich
QCMPIRUN:        /cm/shared/apps/spack/cpu/opt/spack/linux-centos8-zen2/gcc-10.2.0/qchem-5.4-akfmr7b3t57bfs6qan3padb2wnb2i7cl/bin/mpi/mpirun_qchem
QCMACHINEFILE:   ./qchem3220229/hostfile
exp-6-40

#
# env setting
#
exported envs:   QC QCAUX QCSCRATCH QCRUNNAME QCFILEPREF QCPROG QCPROG_S GUIFILE

Running Job 1 of 1 Dimethoxy_Benzodithiophene_Phi_15_Theta_110_Methylcarbonyl_3_Fluoro_Thienothiophene_Hydrogenated_Improper.qcin
qchem Dimethoxy_Benzodithiophene_Phi_15_Theta_110_Methylcarbonyl_3_Fluoro_Thienothiophene_Hydrogenated_Improper.qcin_3220229.0 ./qchem3220229/ 1
/cm/shared/apps/spack/cpu/opt/spack/linux-centos8-zen2/gcc-10.2.0/qchem-5.4-akfmr7b3t57bfs6qan3padb2wnb2i7cl/bin/mpi/mpirun_qchem -machinefile ./qchem3220229/hostfile -np 1 /cm/shared/apps/spack/cpu/opt/spack/linux-centos8-zen2/gcc-10.2.0/qchem-5.4-akfmr7b3t57bfs6qan3padb2wnb2i7cl/exe/qcprog.exe Dimethoxy_Benzodithiophene_Phi_15_Theta_110_Methylcarbonyl_3_Fluoro_Thienothiophene_Hydrogenated_Improper.qcin_3220229.0 ./qchem3220229/

Process 0 of 1 is on exp-6-40 - thread support 0
initial socket setup ...start
initial socket setup ...done 
now start server 0 ... 
                  Welcome to Q-Chem
     A Quantum Leap Into The Future Of Chemistry


 Q-Chem 5.4, Q-Chem, Inc., Pleasanton, CA (2021)

 License issued to: University of California, San Diego (site)

 E. Epifanovsky,  A. T. B. Gilbert,  Xintian Feng,  Joonho Lee,  Yuezhi Mao,  
 N. Mardirossian,  P. Pokhilko,  A. White,  M. Wormit,  M. P. Coons,  
 A. L. Dempwolff,  Zhengting Gan,  D. Hait,  P. R. Horn,  L. D. Jacobson,  
 I. Kaliman,  J. Kussmann,  A. W. Lange,  Ka Un Lao,  D. S. Levine,  Jie Liu,  
 S. C. McKenzie,  A. F. Morrison,  K. Nanda,  F. Plasser,  D. R. Rehn,  
 M. L. Vidal,  Zhi-Qiang You,  Ying Zhu,  B. Alam,  B. Albrecht,  
 A. Aldossary,  E. Alguire,  J. H. Andersen,  D. Barton,  K. Begam,  A. Behn,  
 Y. A. Bernard,  E. J. Berquist,  H. Burton,  A. Carreras,  K. Carter-Fenk,  
 R. Chakraborty,  A. D. Chien,  K. D. Closser,  V. Cofer-Shabica,  
 S. Dasgupta,  Jia Deng,  M. de Wergifosse,  M. Diedenhofen,  Hainam Do,  
 S. Ehlert,  Po-Tung Fang,  S. Fatehi,  Qingguo Feng,  J. Gayvert,  
 Qinghui Ge,  G. Gidofalvi,  M. Goldey,  J. Gomes,  C. Gonzalez-Espinoza,  
 S. Gulania,  A. Gunina,  M. W. D. Hanson-Heine,  P. H. P. Harbach,  
 A. W. Hauser,  M. F. Herbst,  M. Hernandez Vera,  M. Hodecker,  
 Z. C. Holden,  S. Houck,  Xunkun Huang,  Kerwin Hui,  B. C. Huynh,  
 M. Ivanov,  Hyunjun Ji,  Hanjie Jiang,  B. Kaduk,  S. Kaehler,  
 K. Khistyaev,  Jaehoon Kim,  P. Klunzinger,  Z. Koczor-Benda,  
 Joong Hoon Koh,  D. Kosenkov,  L. Koulias,  T. Kowalczyk,  C. M. Krauter,  
 K. Kue,  A. Kunitsa,  T. Kus,  A. Landau,  K. V. Lawler,  D. Lefrancois,  
 S. Lehtola,  Rain Li,  Yi-Pei Li,  Jiashu Liang,  M. Liebenthal,  
 Hung-Hsuan Lin,  You-Sheng Lin,  Fenglai Liu,  Kuan-Yu Liu,  
 M. Loipersberger,  A. Luenser,  A. Manjanath,  P. Manohar,  E. Mansoor,  
 S. F. Manzer,  Shan-Ping Mao,  A. V. Marenich,  T. Markovich,  S. Mason,  
 S. A. Maurer,  P. F. McLaughlin,  M. F. S. J. Menger,  J.-M. Mewes,  
 S. A. Mewes,  P. Morgante,  J. W. Mullinax,  T. S. Nguyen-Beck,  
 K. J. Oosterbaan,  G. Paran,  Alexander C. Paul,  Suranjan K. Paul,  
 F. Pavosevic,  Zheng Pei,  S. Prager,  E. I. Proynov,  E. Ramos,  B. Rana,  
 A. E. Rask,  A. Rettig,  R. M. Richard,  F. Rob,  E. Rossomme,  T. Scheele,  
 M. Scheurer,  M. Schneider,  N. Sergueev,  S. M. Sharada,  W. Skomorowski,  
 D. W. Small,  C. J. Stein,  Yu-Chuan Su,  E. J. Sundstrom,  Zhen Tao,  
 J. Thirman,  T. Tsuchimochi,  N. M. Tubman,  S. P. Veccham,  O. Vydrov,  
 J. Wenzel,  J. Witte,  A. Yamada,  Kun Yao,  S. Yeganeh,  S. R. Yost,  
 A. Zech,  Igor Ying Zhang,  Xing Zhang,  Yu Zhang,  D. Zuev,  
 A. Aspuru-Guzik,  A. T. Bell,  N. A. Besley,  K. B. Bravaya,  B. R. Brooks,  
 D. Casanova,  Jeng-Da Chai,  S. Coriani,  C. J. Cramer,  
 A. E. DePrince, III,  R. A. DiStasio Jr.,  A. Dreuw,  B. D. Dunietz,  
 T. R. Furlani,  W. A. Goddard III,  S. Grimme,  S. Hammes-Schiffer,  
 T. Head-Gordon,  W. J. Hehre,  Chao-Ping Hsu,  T.-C. Jagau,  Yousung Jung,  
 A. Klamt,  Jing Kong,  D. S. Lambrecht,  WanZhen Liang,  N. J. Mayhall,  
 C. W. McCurdy,  J. B. Neaton,  C. Ochsenfeld,  J. A. Parkhill,  R. Peverati,  
 V. A. Rassolov,  Yihan Shao,  L. V. Slipchenko,  T. Stauch,  R. P. Steele,  
 J. E. Subotnik,  A. J. W. Thom,  A. Tkatchenko,  D. G. Truhlar,  
 T. Van Voorhis,  T. A. Wesolowski,  K. B. Whaley,  H. L. Woodcock III,  
 P. M. Zimmerman,  S. Faraji,  P. M. W. Gill,  M. Head-Gordon,  
 J. M. Herbert,  A. I. Krylov

 Contributors to earlier versions of Q-Chem not listed above: 
 R. D. Adamson,  B. Austin,  R. Baer,  J. Baker,  G. J. O. Beran,  
 K. Brandhorst,  S. T. Brown,  E. F. C. Byrd,  A. K. Chakraborty,  
 G. K. L. Chan,  Chun-Min Chang,  Yunqing Chen,  C.-L. Cheng,  
 Siu Hung Chien,  D. M. Chipman,  D. L. Crittenden,  H. Dachsel,  
 R. J. Doerksen,  A. D. Dutoi,  R. G. Edgar,  J. Fosso-Tande,  
 L. Fusti-Molnar,  D. Ghosh,  A. Ghysels,  A. Golubeva-Zadorozhnaya,  
 J. Gonthier,  M. S. Gordon,  S. R. Gwaltney,  G. Hawkins,  J. E. Herr,  
 A. Heyden,  S. Hirata,  E. G. Hohenstein,  G. Kedziora,  F. J. Keil,  
 C. Kelley,  Jihan Kim,  R. A. King,  R. Z. Khaliullin,  P. P. Korambath,  
 W. Kurlancheek,  A. Laurent,  A. M. Lee,  M. S. Lee,  S. V. Levchenko,  
 Ching Yeh Lin,  D. Liotard,  E. Livshits,  R. C. Lochan,  I. Lotan,  
 L. A. Martinez-Martinez,  P. E. Maslen,  N. Nair,  D. P. O'Neill,  
 D. Neuhauser,  E. Neuscamman,  C. M. Oana,  R. Olivares-Amaya,  R. Olson,  
 T. M. Perrine,  B. Peters,  P. A. Pieniazek,  A. Prociuk,  Y. M. Rhee,  
 J. Ritchie,  M. A. Rohrdanz,  E. Rosta,  N. J. Russ,  H. F. Schaefer III,  
 M. W. Schmidt,  N. E. Schultz,  S. Sharma,  N. Shenvi,  C. D. Sherrill,  
 A. C. Simmonett,  A. Sodt,  T. Stein,  D. Stuck,  K. S. Thanthiriwatte,  
 V. Vanovschi,  L. Vogt,  Tao Wang,  A. Warshel,  M. A. Watson,  
 C. F. Williams,  Q. Wu,  X. Xu,  Jun Yang,  W. Zhang,  Yan Zhao

 Please cite Q-Chem as follows:
 Y. Shao et al., Mol. Phys. 113, 184-215 (2015)
 DOI: 10.1080/00268976.2014.952696

 Q-Chem 5.4.0 for Intel X86 EM64T Linux

 Parts of Q-Chem use Armadillo 9.800.1 (Horizon Scraper).
 http://arma.sourceforge.net/

 Q-Chem begins on Tue Jan  9 09:59:44 2024  

 Host: 
0

     Scratch files written to ./qchem3220229//
 May1621 |scratch|qcdevops|jenkins|workspace|build_RNUM    
 Parallel job on  1  processors
 Processing $rem in /cm/shared/apps/spack/cpu/opt/spack/linux-centos8-zen2/gcc-10.2.0/qchem-5.4-akfmr7b3t57bfs6qan3padb2wnb2i7cl/config/preferences:
 Processing $rem in /home/rramji/.qchemrc:
 Symmetry turned off for PCM/SM12/SMD calculation
 Core orbitals will be frozen

 Checking the input file for inconsistencies... 	...done.

 Q-Chem warning in module forms1/BasisType.C, line 2236:

 You are not using the predefined 5D/6D in this basis set.


--------------------------------------------------------------
User input:
--------------------------------------------------------------
$molecule
0 1
C	-0.268438	-0.955820	0.973626
S	-0.033838	-0.082020	2.481126
C	0.372462	1.437180	1.692526
C	-0.033638	-0.082420	-0.094274
C	0.323962	1.260980	0.287226
S	-0.093938	-0.318420	-1.831874
C	0.354162	1.374980	-2.080874
C	0.535062	2.059780	-0.888974
F	0.876362	3.352180	-0.845474
C	0.471862	1.807280	-3.482474
O	0.280362	1.061580	-4.432874
O	0.814262	3.113680	-3.595574
C	0.947362	3.590580	-4.942574
H	1.225662	4.655880	-4.859474
H	-0.006738	3.480480	-5.496574
H	1.731662	3.025480	-5.485674
C	-0.268438	-2.391020	0.973626
H	-0.630838	-2.399020	1.991026
H	-1.058538	-3.068920	0.686326
H	0.617462	-2.922120	1.289026
H	0.610262	2.330280	2.280126
$end

$rem
JOBTYPE		SP
EXCHANGE	HF
CORRELATION	pRIMP2
BASIS		cc-pvtz
METHOD		rimp2
AUX_BASIS	rimp2-cc-pvtz
SOLVENT_METHOD	PCM
PURECART	11111
SYMMETRY	false
MEM_TOTAL	110000
SCF_CONVERGENCE = 6
THRESH=10
GUI = 2
$end



$solvent
dielectric 4.90
$end
--------------------------------------------------------------
 ----------------------------------------------------------------
             Standard Nuclear Orientation (Angstroms)
    I     Atom           X                Y                Z
 ----------------------------------------------------------------
    1      C      -0.2684380000    -0.9558200000     0.9736260000
    2      S      -0.0338380000    -0.0820200000     2.4811260000
    3      C       0.3724620000     1.4371800000     1.6925260000
    4      C      -0.0336380000    -0.0824200000    -0.0942740000
    5      C       0.3239620000     1.2609800000     0.2872260000
    6      S      -0.0939380000    -0.3184200000    -1.8318740000
    7      C       0.3541620000     1.3749800000    -2.0808740000
    8      C       0.5350620000     2.0597800000    -0.8889740000
    9      F       0.8763620000     3.3521800000    -0.8454740000
   10      C       0.4718620000     1.8072800000    -3.4824740000
   11      O       0.2803620000     1.0615800000    -4.4328740000
   12      O       0.8142620000     3.1136800000    -3.5955740000
   13      C       0.9473620000     3.5905800000    -4.9425740000
   14      H       1.2256620000     4.6558800000    -4.8594740000
   15      H      -0.0067380000     3.4804800000    -5.4965740000
   16      H       1.7316620000     3.0254800000    -5.4856740000
   17      C      -0.2684380000    -2.3910200000     0.9736260000
   18      H      -0.6308380000    -2.3990200000     1.9910260000
   19      H      -1.0585380000    -3.0689200000     0.6863260000
   20      H       0.6174620000    -2.9221200000     1.2890260000
   21      H       0.6102620000     2.3302800000     2.2801260000
 ----------------------------------------------------------------
 Nuclear Repulsion Energy =        1082.73696463 hartrees
 There are       59 alpha and       59 beta electrons
 Requested basis set is cc-pVTZ
 There are 186 shells and 526 basis functions

 Total QAlloc Memory Limit 110000 MB
 Mega-Array Size       188 MB
 MEM_STATIC part       192 MB
 Discretize the solute cavity surface with Lebedev spheres
	Using 110 Lebedev grid points for each H atom
	Using 194 Lebedev grid points for other atoms
	Atomic van der Waals radii will be scaled by 1.20
 Remove points where switching function is < 1.0e-08
 Keep 1564 surface tesserae and discard 1922 interior tesserae
 Molecular Surface Area = 242.084 Angst**2
 Requested basis set is rimp2-cc-pVTZ
 There are 410 shells and 1426 basis functions
 A cutoff of  1.0D-10 yielded  11487 shell pairs
 There are     90091 function pairs (    117922 Cartesian)
 Smallest overlap matrix eigenvalue = 5.83E-05

 Scale SEOQF with 1.000000e-01/1.000000e-01/1.000000e-02

 Standard Electronic Orientation quadrupole field applied
 Nucleus-field energy     =     0.0000000253 hartrees
 Guess from superposition of atomic densities
 Warning:  Energy on first SCF cycle will be non-variational
 SAD guess density has 118.000000 electrons

 -----------------------------------------------------------------------
  General SCF calculation program by
  Eric Jon Sundstrom, Paul Horn, Yuezhi Mao, Dmitri Zuev, Alec White,
  David Stuck, Shaama M.S., Shane Yost, Joonho Lee, David Small,
  Daniel Levine, Susi Lehtola, Hugh Burton, Evgeny Epifanovsky,
  Bang C. Huynh
 -----------------------------------------------------------------------
 Hartree-Fock
 using 64 threads for integral computing
 -------------------------------------------------------
 OpenMP Integral computing Module                
 Release: version 1.0, May 2013, Q-Chem Inc. Pittsburgh 
 -------------------------------------------------------
 A restricted SCF calculation will be
 performed using DIIS
 SCF converges when DIIS error is below 1.0e-06
 ---------------------------------------
  Cycle       Energy         DIIS error
 ---------------------------------------
    1   -1394.2500098324      2.47e-02  
    2   -1389.0305267537      2.47e-03  
    3   -1389.2007392127      1.53e-03  
    4   -1389.2598237117      3.54e-04  
    5   -1389.2655943150      1.12e-04  
    6   -1389.2662811683      3.65e-05  
    7   -1389.2664286889      1.82e-05  
    8   -1389.2664792309      7.02e-06  
    9   -1389.2664897258      3.00e-06  
   10   -1389.2664911659      1.10e-06  
   11   -1389.2664913745      4.76e-07  Convergence criterion met
 ---------------------------------------
 SCF time:   CPU 1607.72s  wall 48.00s 

************** Final PCM Free Energy Summary **************
 G_electrostatic  =      -0.01209772 hartree =      -7.59143655 kcal/mol
 G_cavitation     =       0.00000000 hartree =       0.00000000 kcal/mol
 G_dispersion     =       0.00000000 hartree =       0.00000000 kcal/mol
 G_repulsion      =       0.00000000 hartree =       0.00000000 kcal/mol
 --------------------------------------------------
 Non-electrostatic Free Energy =       0.00000000 hartree =       0.00000000 kcal/mol
 Total                         =      -0.01209772 hartree =      -7.59143655 kcal/mol
 --------------------------------------------------
 SCF Energy (H0 + V/2)                       =   -1389.26649137 
 Solute Internal Energy (H0)                 =   -1389.25439365 
 Total Free Energy (H0 + V/2 + non-elec)     =   -1389.26649137 hartree
                                             = -871777.88108045 kcal/mol
***********************************************************

 SCF   energy in the final basis set =    -1389.2664913745
 Total energy in the final basis set =    -1389.2664913745


 --------------------------------------------------------------
  Generalized many-body perturbation theory program
  by Joonho Lee, Fazle Rob, Xintian Feng, Evgeny Epifanovsky

 No regularization used 
 (reg. param. = 0.0000e+00)
  (P|Q)^-1/2 Time:  CPU 38.11 s  wall 0.68 s

 In RI-MP2 calculation: 
 # of frozen core orbitals: 22

 Components of the RIMP2 correlation energy:
        aaaa    correlation energy =        -0.3284906274 a.u.
        abab    correlation energy =        -1.8488794023 a.u.
        bbbb    correlation energy =        -0.3284906274 a.u.
        non-Brillouin singles      =        -0.0000000000 a.u.
        total same-spin energy     =        -0.6569812549 a.u.
        total opposite-spin energy =        -1.8488794023 a.u.

 Total  RIMP2   correlation energy =        -2.5058606571 a.u.
        RIMP2         total energy =     -1391.7723520316 a.u.

 RI-MP2 Energy Time:  CPU 210.15 s  wall 4.32 s
 
 --------------------------------------------------------------
 
                    Orbital Energies (a.u.)
 --------------------------------------------------------------
 
 Alpha MOs
 -- Occupied --
-92.0083 -91.9923 -26.3404 -20.6134 -20.5595 -11.4073 -11.3784 -11.3009
-11.2941 -11.2910 -11.2880 -11.2854 -11.2787 -11.2250  -9.0071  -8.9924
 -6.6879  -6.6873  -6.6868  -6.6734  -6.6727  -6.6716  -1.6576  -1.4657
 -1.3683  -1.2125  -1.1371  -1.0647  -1.0198  -0.9949  -0.9587  -0.9123
 -0.8638  -0.8066  -0.7884  -0.7580  -0.7312  -0.7225  -0.6914  -0.6831
 -0.6725  -0.6605  -0.6085  -0.6008  -0.5915  -0.5779  -0.5655  -0.5571
 -0.5377  -0.5298  -0.5079  -0.4806  -0.4730  -0.4712  -0.4656  -0.4621
 -0.3905  -0.3451  -0.2907
 -- Virtual --
  0.0394   0.1166   0.1285   0.1556   0.1585   0.1700   0.1808   0.1967
  0.2133   0.2159   0.2253   0.2286   0.2384   0.2480   0.2544   0.2709
  0.2824   0.3040   0.3131   0.3382   0.3476   0.3563   0.3741   0.3815
  0.3849   0.3890   0.4027   0.4114   0.4216   0.4317   0.4418   0.4433
  0.4597   0.4672   0.4746   0.4810   0.4984   0.5071   0.5127   0.5162
  0.5353   0.5370   0.5403   0.5446   0.5537   0.5613   0.5678   0.5836
  0.5911   0.6003   0.6072   0.6082   0.6158   0.6200   0.6245   0.6293
  0.6404   0.6541   0.6565   0.6609   0.6693   0.6892   0.6964   0.7107
  0.7128   0.7195   0.7351   0.7448   0.7586   0.7611   0.7787   0.8038
  0.8152   0.8208   0.8300   0.8423   0.8497   0.8679   0.8698   0.8793
  0.8857   0.8894   0.9079   0.9172   0.9319   0.9516   0.9575   0.9671
  0.9803   0.9866   0.9915   1.0079   1.0240   1.0374   1.0435   1.0558
  1.0638   1.0760   1.0871   1.0962   1.1075   1.1098   1.1180   1.1230
  1.1448   1.1474   1.1647   1.1689   1.1889   1.2040   1.2076   1.2117
  1.2194   1.2375   1.2502   1.2571   1.2618   1.2818   1.2863   1.2937
  1.3059   1.3237   1.3404   1.3601   1.3713   1.3843   1.3923   1.4049
  1.4224   1.4238   1.4330   1.4680   1.4810   1.5004   1.5017   1.5055
  1.5154   1.5408   1.5428   1.5557   1.5654   1.5739   1.5861   1.6074
  1.6136   1.6394   1.6452   1.6664   1.6704   1.6793   1.7055   1.7361
  1.7482   1.7724   1.7960   1.8079   1.8199   1.8202   1.8306   1.8591
  1.8738   1.8851   1.8967   1.9141   1.9166   1.9337   1.9523   1.9678
  1.9884   2.0052   2.0128   2.0394   2.0438   2.0771   2.0860   2.1000
  2.1138   2.1588   2.1732   2.1945   2.1983   2.2003   2.2153   2.2280
  2.2327   2.2448   2.2564   2.2849   2.2986   2.3090   2.3299   2.3404
  2.3645   2.3739   2.3955   2.4099   2.4315   2.4527   2.4817   2.4916
  2.5259   2.5356   2.5480   2.5648   2.5832   2.6078   2.6288   2.6365
  2.6446   2.6594   2.6773   2.6833   2.6891   2.7039   2.7082   2.7140
  2.7319   2.7631   2.7719   2.7805   2.7856   2.8005   2.8166   2.8221
  2.8382   2.8413   2.8611   2.8825   2.8833   2.9022   2.9182   2.9525
  2.9529   2.9640   2.9848   2.9888   3.0242   3.0280   3.0565   3.0630
  3.0678   3.0847   3.0950   3.0987   3.1108   3.1243   3.1343   3.1476
  3.1526   3.1736   3.1937   3.2105   3.2181   3.2241   3.2414   3.2465
  3.2596   3.2670   3.2704   3.2824   3.2830   3.3021   3.3155   3.3363
  3.3394   3.3533   3.3661   3.3749   3.3806   3.3949   3.4030   3.4071
  3.4278   3.4373   3.4484   3.4582   3.4631   3.4720   3.4825   3.4838
  3.4941   3.4996   3.5293   3.5393   3.5525   3.5565   3.5726   3.5802
  3.5863   3.5993   3.6074   3.6213   3.6253   3.6388   3.6627   3.6662
  3.6835   3.6861   3.6971   3.7035   3.7068   3.7270   3.7333   3.7448
  3.7521   3.7827   3.7878   3.7949   3.8056   3.8170   3.8223   3.8335
  3.8514   3.8544   3.8731   3.8877   3.9035   3.9152   3.9197   3.9301
  3.9445   3.9511   3.9612   3.9711   4.0010   4.0183   4.0295   4.0536
  4.0649   4.0721   4.0738   4.0879   4.1265   4.1501   4.1632   4.1659
  4.1705   4.1945   4.2082   4.2446   4.2615   4.2771   4.3077   4.3202
  4.3426   4.3557   4.3595   4.3684   4.3994   4.4164   4.4281   4.4420
  4.4434   4.4821   4.5073   4.5175   4.5222   4.5484   4.5825   4.5916
  4.5971   4.6126   4.6495   4.6641   4.6661   4.7178   4.7225   4.7431
  4.7549   4.7792   4.7972   4.8382   4.8443   4.8642   4.9004   4.9238
  4.9595   4.9908   5.0040   5.0098   5.0534   5.0828   5.1162   5.1231
  5.1452   5.1882   5.2079   5.2529   5.2558   5.2609   5.3266   5.3533
  5.3621   5.4048   5.4150   5.4270   5.4510   5.4857   5.4872   5.5252
  5.5404   5.5828   5.6129   5.6233   5.6624   5.7171   5.7473   5.7722
  5.8088   5.8096   5.8198   5.8659   5.9045   5.9307   5.9612   5.9976
  6.0435   6.0793   6.1515   6.1754   6.2071   6.2626   6.2725   6.3515
  6.4517   6.4642   6.5391   6.6034   6.6622   6.6729   6.7475   6.8312
  6.8611   6.9796   7.2053   7.2071   7.3114   7.3653   7.3657   7.4075
  7.4147   7.4882   7.5250   7.5519   7.6163   7.7757   7.7898   7.8934
  7.9555   8.1349   8.2021   8.9245   9.0118   9.3654   9.4616   9.6465
 10.0694  11.0589  11.6034  11.8094  12.4042  12.9826  13.1072  13.3854
 13.7695  14.0298  14.5046
 --------------------------------------------------------------
 
          Ground-State Mulliken Net Atomic Charges

     Atom                 Charge (a.u.)
  ----------------------------------------
      1 C                     0.011220
      2 S                     0.077918
      3 C                    -0.206629
      4 C                    -0.002510
      5 C                    -0.094205
      6 S                    -0.003054
      7 C                    -0.158844
      8 C                     0.393104
      9 F                    -0.208889
     10 C                     0.445115
     11 O                    -0.462332
     12 O                    -0.300875
     13 C                    -0.058515
     14 H                     0.120995
     15 H                     0.094748
     16 H                     0.094685
     17 C                    -0.364643
     18 H                     0.112267
     19 H                     0.160235
     20 H                     0.135802
     21 H                     0.214407
  ----------------------------------------
  Sum of atomic charges =     0.000000

 -----------------------------------------------------------------
                    Cartesian Multipole Moments
 -----------------------------------------------------------------
    Charge (ESU x 10^10)
                -0.0000
    Dipole Moment (Debye)
         X       0.3891      Y       0.6601      Z       3.7819
       Tot       3.8588
    Quadrupole Moments (Debye-Ang)
        XX     -95.5271     XY       3.5498     YY     -82.1633
        XZ      -2.2101     YZ     -10.9264     ZZ     -95.4534
    Octopole Moments (Debye-Ang^2)
       XXX     -67.1409    XXY     -78.6911    XYY     -21.1105
       YYY    -230.9003    XXZ      77.8179    XYZ      -8.4076
       YYZ      54.9674    XZZ      -2.3310    YZZ      -4.7043
       ZZZ     270.8897
    Hexadecapole Moments (Debye-Ang^3)
      XXXX    -241.0374   XXXY    -235.9960   XXYY    -375.1080
      XYYY    -202.5509   YYYY   -1956.0717   XXXZ     207.6174
      XXYZ     264.2725   XYYZ      31.3094   YYYZ     663.3488
      XXZZ    -636.1281   XYZZ       6.3373   YYZZ    -631.9742
      XZZZ     127.2406   YZZZ     510.6394   ZZZZ   -3713.1818
 -----------------------------------------------------------------
 Total job time:  61.05s(wall), 2230.39s(cpu) 
 Tue Jan  9 10:00:45 2024

        *************************************************************
        *                                                           *
        *  Thank you very much for using Q-Chem.  Have a nice day.  *
        *                                                           *
        *************************************************************


0 sent ACK to 0 
now end server 0 ... 
cleanup process ... done
remove work dirs ./qchem3220229.0 -- ./qchem3220229.0
rm -rf ./qchem3220229.0
rm -rf ./qchem3220229
