You are running Q-Chem version: 5.4.0

#
# job setting
#
local host:  exp-14-37
current dir: /home/rramji/project-csd799/aromodel/ptb7fout-qchem/methylated-rotation-run
input file:  Dimethoxy_Benzodithiophene_Phi_40_Theta_160_Methylcarbonyl_3_Fluoro_Thienothiophene_Hydrogenated_Improper.qcin
output file: 
nprocs     : 1
nthreads   : 64
#
# qchem installation setting
#
QC:          /cm/shared/apps/spack/cpu/opt/spack/linux-centos8-zen2/gcc-10.2.0/qchem-5.4-akfmr7b3t57bfs6qan3padb2wnb2i7cl
QCAUX:       /cm/shared/apps/spack/cpu/opt/spack/linux-centos8-zen2/gcc-10.2.0/qchem-5.4-akfmr7b3t57bfs6qan3padb2wnb2i7cl/qcaux
QCPROG:      /cm/shared/apps/spack/cpu/opt/spack/linux-centos8-zen2/gcc-10.2.0/qchem-5.4-akfmr7b3t57bfs6qan3padb2wnb2i7cl/exe/qcprog.exe
QCPROG_S:    /cm/shared/apps/spack/cpu/opt/spack/linux-centos8-zen2/gcc-10.2.0/qchem-5.4-akfmr7b3t57bfs6qan3padb2wnb2i7cl/exe/qcprog.exe_s
PARALLEL:    -DPARALLEL
QCMPI:       mpich
#
# qchem directory setting
#
qcrun:       qchem4062851
QCSCRATCH:   .
QCLOCALSCR:  
QCTMPDIR:    .
QCFILEPREF:  ./qchem4062851
QCSAVEDIR:   
workdirs:    ./qchem4062851
workdir0:    ./qchem4062851
partmpdirs =  
#
# parallel setting
#
QCRSH:           ssh
QCMPI:           mpich
QCMPIRUN:        /cm/shared/apps/spack/cpu/opt/spack/linux-centos8-zen2/gcc-10.2.0/qchem-5.4-akfmr7b3t57bfs6qan3padb2wnb2i7cl/bin/mpi/mpirun_qchem
QCMACHINEFILE:   ./qchem4062851/hostfile
exp-14-37

#
# env setting
#
exported envs:   QC QCAUX QCSCRATCH QCRUNNAME QCFILEPREF QCPROG QCPROG_S GUIFILE

Running Job 1 of 1 Dimethoxy_Benzodithiophene_Phi_40_Theta_160_Methylcarbonyl_3_Fluoro_Thienothiophene_Hydrogenated_Improper.qcin
qchem Dimethoxy_Benzodithiophene_Phi_40_Theta_160_Methylcarbonyl_3_Fluoro_Thienothiophene_Hydrogenated_Improper.qcin_4062851.0 ./qchem4062851/ 1
/cm/shared/apps/spack/cpu/opt/spack/linux-centos8-zen2/gcc-10.2.0/qchem-5.4-akfmr7b3t57bfs6qan3padb2wnb2i7cl/bin/mpi/mpirun_qchem -machinefile ./qchem4062851/hostfile -np 1 /cm/shared/apps/spack/cpu/opt/spack/linux-centos8-zen2/gcc-10.2.0/qchem-5.4-akfmr7b3t57bfs6qan3padb2wnb2i7cl/exe/qcprog.exe Dimethoxy_Benzodithiophene_Phi_40_Theta_160_Methylcarbonyl_3_Fluoro_Thienothiophene_Hydrogenated_Improper.qcin_4062851.0 ./qchem4062851/

Process 0 of 1 is on exp-14-37 - thread support 0
initial socket setup ...start
initial socket setup ...done 
now start server 0 ... 
                  Welcome to Q-Chem
     A Quantum Leap Into The Future Of Chemistry


 Q-Chem 5.4, Q-Chem, Inc., Pleasanton, CA (2021)

 License issued to: University of California, San Diego (site)

 E. Epifanovsky,  A. T. B. Gilbert,  Xintian Feng,  Joonho Lee,  Yuezhi Mao,  
 N. Mardirossian,  P. Pokhilko,  A. White,  M. Wormit,  M. P. Coons,  
 A. L. Dempwolff,  Zhengting Gan,  D. Hait,  P. R. Horn,  L. D. Jacobson,  
 I. Kaliman,  J. Kussmann,  A. W. Lange,  Ka Un Lao,  D. S. Levine,  Jie Liu,  
 S. C. McKenzie,  A. F. Morrison,  K. Nanda,  F. Plasser,  D. R. Rehn,  
 M. L. Vidal,  Zhi-Qiang You,  Ying Zhu,  B. Alam,  B. Albrecht,  
 A. Aldossary,  E. Alguire,  J. H. Andersen,  D. Barton,  K. Begam,  A. Behn,  
 Y. A. Bernard,  E. J. Berquist,  H. Burton,  A. Carreras,  K. Carter-Fenk,  
 R. Chakraborty,  A. D. Chien,  K. D. Closser,  V. Cofer-Shabica,  
 S. Dasgupta,  Jia Deng,  M. de Wergifosse,  M. Diedenhofen,  Hainam Do,  
 S. Ehlert,  Po-Tung Fang,  S. Fatehi,  Qingguo Feng,  J. Gayvert,  
 Qinghui Ge,  G. Gidofalvi,  M. Goldey,  J. Gomes,  C. Gonzalez-Espinoza,  
 S. Gulania,  A. Gunina,  M. W. D. Hanson-Heine,  P. H. P. Harbach,  
 A. W. Hauser,  M. F. Herbst,  M. Hernandez Vera,  M. Hodecker,  
 Z. C. Holden,  S. Houck,  Xunkun Huang,  Kerwin Hui,  B. C. Huynh,  
 M. Ivanov,  Hyunjun Ji,  Hanjie Jiang,  B. Kaduk,  S. Kaehler,  
 K. Khistyaev,  Jaehoon Kim,  P. Klunzinger,  Z. Koczor-Benda,  
 Joong Hoon Koh,  D. Kosenkov,  L. Koulias,  T. Kowalczyk,  C. M. Krauter,  
 K. Kue,  A. Kunitsa,  T. Kus,  A. Landau,  K. V. Lawler,  D. Lefrancois,  
 S. Lehtola,  Rain Li,  Yi-Pei Li,  Jiashu Liang,  M. Liebenthal,  
 Hung-Hsuan Lin,  You-Sheng Lin,  Fenglai Liu,  Kuan-Yu Liu,  
 M. Loipersberger,  A. Luenser,  A. Manjanath,  P. Manohar,  E. Mansoor,  
 S. F. Manzer,  Shan-Ping Mao,  A. V. Marenich,  T. Markovich,  S. Mason,  
 S. A. Maurer,  P. F. McLaughlin,  M. F. S. J. Menger,  J.-M. Mewes,  
 S. A. Mewes,  P. Morgante,  J. W. Mullinax,  T. S. Nguyen-Beck,  
 K. J. Oosterbaan,  G. Paran,  Alexander C. Paul,  Suranjan K. Paul,  
 F. Pavosevic,  Zheng Pei,  S. Prager,  E. I. Proynov,  E. Ramos,  B. Rana,  
 A. E. Rask,  A. Rettig,  R. M. Richard,  F. Rob,  E. Rossomme,  T. Scheele,  
 M. Scheurer,  M. Schneider,  N. Sergueev,  S. M. Sharada,  W. Skomorowski,  
 D. W. Small,  C. J. Stein,  Yu-Chuan Su,  E. J. Sundstrom,  Zhen Tao,  
 J. Thirman,  T. Tsuchimochi,  N. M. Tubman,  S. P. Veccham,  O. Vydrov,  
 J. Wenzel,  J. Witte,  A. Yamada,  Kun Yao,  S. Yeganeh,  S. R. Yost,  
 A. Zech,  Igor Ying Zhang,  Xing Zhang,  Yu Zhang,  D. Zuev,  
 A. Aspuru-Guzik,  A. T. Bell,  N. A. Besley,  K. B. Bravaya,  B. R. Brooks,  
 D. Casanova,  Jeng-Da Chai,  S. Coriani,  C. J. Cramer,  
 A. E. DePrince, III,  R. A. DiStasio Jr.,  A. Dreuw,  B. D. Dunietz,  
 T. R. Furlani,  W. A. Goddard III,  S. Grimme,  S. Hammes-Schiffer,  
 T. Head-Gordon,  W. J. Hehre,  Chao-Ping Hsu,  T.-C. Jagau,  Yousung Jung,  
 A. Klamt,  Jing Kong,  D. S. Lambrecht,  WanZhen Liang,  N. J. Mayhall,  
 C. W. McCurdy,  J. B. Neaton,  C. Ochsenfeld,  J. A. Parkhill,  R. Peverati,  
 V. A. Rassolov,  Yihan Shao,  L. V. Slipchenko,  T. Stauch,  R. P. Steele,  
 J. E. Subotnik,  A. J. W. Thom,  A. Tkatchenko,  D. G. Truhlar,  
 T. Van Voorhis,  T. A. Wesolowski,  K. B. Whaley,  H. L. Woodcock III,  
 P. M. Zimmerman,  S. Faraji,  P. M. W. Gill,  M. Head-Gordon,  
 J. M. Herbert,  A. I. Krylov

 Contributors to earlier versions of Q-Chem not listed above: 
 R. D. Adamson,  B. Austin,  R. Baer,  J. Baker,  G. J. O. Beran,  
 K. Brandhorst,  S. T. Brown,  E. F. C. Byrd,  A. K. Chakraborty,  
 G. K. L. Chan,  Chun-Min Chang,  Yunqing Chen,  C.-L. Cheng,  
 Siu Hung Chien,  D. M. Chipman,  D. L. Crittenden,  H. Dachsel,  
 R. J. Doerksen,  A. D. Dutoi,  R. G. Edgar,  J. Fosso-Tande,  
 L. Fusti-Molnar,  D. Ghosh,  A. Ghysels,  A. Golubeva-Zadorozhnaya,  
 J. Gonthier,  M. S. Gordon,  S. R. Gwaltney,  G. Hawkins,  J. E. Herr,  
 A. Heyden,  S. Hirata,  E. G. Hohenstein,  G. Kedziora,  F. J. Keil,  
 C. Kelley,  Jihan Kim,  R. A. King,  R. Z. Khaliullin,  P. P. Korambath,  
 W. Kurlancheek,  A. Laurent,  A. M. Lee,  M. S. Lee,  S. V. Levchenko,  
 Ching Yeh Lin,  D. Liotard,  E. Livshits,  R. C. Lochan,  I. Lotan,  
 L. A. Martinez-Martinez,  P. E. Maslen,  N. Nair,  D. P. O'Neill,  
 D. Neuhauser,  E. Neuscamman,  C. M. Oana,  R. Olivares-Amaya,  R. Olson,  
 T. M. Perrine,  B. Peters,  P. A. Pieniazek,  A. Prociuk,  Y. M. Rhee,  
 J. Ritchie,  M. A. Rohrdanz,  E. Rosta,  N. J. Russ,  H. F. Schaefer III,  
 M. W. Schmidt,  N. E. Schultz,  S. Sharma,  N. Shenvi,  C. D. Sherrill,  
 A. C. Simmonett,  A. Sodt,  T. Stein,  D. Stuck,  K. S. Thanthiriwatte,  
 V. Vanovschi,  L. Vogt,  Tao Wang,  A. Warshel,  M. A. Watson,  
 C. F. Williams,  Q. Wu,  X. Xu,  Jun Yang,  W. Zhang,  Yan Zhao

 Please cite Q-Chem as follows:
 Y. Shao et al., Mol. Phys. 113, 184-215 (2015)
 DOI: 10.1080/00268976.2014.952696

 Q-Chem 5.4.0 for Intel X86 EM64T Linux

 Parts of Q-Chem use Armadillo 9.800.1 (Horizon Scraper).
 http://arma.sourceforge.net/

 Q-Chem begins on Tue Jan  9 10:05:28 2024  

 Host: 
0

     Scratch files written to ./qchem4062851//
 May1621 |scratch|qcdevops|jenkins|workspace|build_RNUM    
 Parallel job on  1  processors
 Processing $rem in /cm/shared/apps/spack/cpu/opt/spack/linux-centos8-zen2/gcc-10.2.0/qchem-5.4-akfmr7b3t57bfs6qan3padb2wnb2i7cl/config/preferences:
 Processing $rem in /home/rramji/.qchemrc:
 Symmetry turned off for PCM/SM12/SMD calculation
 Core orbitals will be frozen

 Checking the input file for inconsistencies... 	...done.

 Q-Chem warning in module forms1/BasisType.C, line 2236:

 You are not using the predefined 5D/6D in this basis set.


--------------------------------------------------------------
User input:
--------------------------------------------------------------
$molecule
0 1
C	-0.666570	-0.747937	0.974891
S	-0.084670	-0.055137	2.482391
C	0.925630	1.149963	1.693791
C	-0.084670	-0.055537	-0.093009
C	0.807130	1.010863	0.288491
S	-0.238970	-0.244037	-1.830609
C	0.882730	1.101463	-2.079609
C	1.336130	1.645563	-0.887709
F	2.191630	2.672563	-0.844209
C	1.172130	1.443363	-3.481209
O	0.683430	0.848563	-4.431609
O	2.034530	2.482763	-3.594309
C	2.356730	2.858663	-4.941309
H	3.059130	3.706563	-4.858209
H	1.445530	3.162063	-5.495309
H	2.828730	2.015063	-5.484409
C	-0.666570	-2.183137	0.974891
H	-1.678870	-2.191137	1.351291
H	-0.954370	-2.861037	0.184991
H	-0.338670	-2.714237	1.856291
H	1.518630	1.858863	2.281391
$end

$rem
JOBTYPE		SP
EXCHANGE	HF
CORRELATION	pRIMP2
BASIS		cc-pvtz
METHOD		rimp2
AUX_BASIS	rimp2-cc-pvtz
SOLVENT_METHOD	PCM
PURECART	11111
SYMMETRY	false
MEM_TOTAL	110000
SCF_CONVERGENCE = 6
THRESH=10
GUI = 2
$end



$solvent
dielectric 4.90
$end
--------------------------------------------------------------
 ----------------------------------------------------------------
             Standard Nuclear Orientation (Angstroms)
    I     Atom           X                Y                Z
 ----------------------------------------------------------------
    1      C      -0.6665700000    -0.7479370000     0.9748910000
    2      S      -0.0846700000    -0.0551370000     2.4823910000
    3      C       0.9256300000     1.1499630000     1.6937910000
    4      C      -0.0846700000    -0.0555370000    -0.0930090000
    5      C       0.8071300000     1.0108630000     0.2884910000
    6      S      -0.2389700000    -0.2440370000    -1.8306090000
    7      C       0.8827300000     1.1014630000    -2.0796090000
    8      C       1.3361300000     1.6455630000    -0.8877090000
    9      F       2.1916300000     2.6725630000    -0.8442090000
   10      C       1.1721300000     1.4433630000    -3.4812090000
   11      O       0.6834300000     0.8485630000    -4.4316090000
   12      O       2.0345300000     2.4827630000    -3.5943090000
   13      C       2.3567300000     2.8586630000    -4.9413090000
   14      H       3.0591300000     3.7065630000    -4.8582090000
   15      H       1.4455300000     3.1620630000    -5.4953090000
   16      H       2.8287300000     2.0150630000    -5.4844090000
   17      C      -0.6665700000    -2.1831370000     0.9748910000
   18      H      -1.6788700000    -2.1911370000     1.3512910000
   19      H      -0.9543700000    -2.8610370000     0.1849910000
   20      H      -0.3386700000    -2.7142370000     1.8562910000
   21      H       1.5186300000     1.8588630000     2.2813910000
 ----------------------------------------------------------------
 Nuclear Repulsion Energy =        1085.91914411 hartrees
 There are       59 alpha and       59 beta electrons
 Requested basis set is cc-pVTZ
 There are 186 shells and 526 basis functions

 Total QAlloc Memory Limit 110000 MB
 Mega-Array Size       188 MB
 MEM_STATIC part       192 MB
 Discretize the solute cavity surface with Lebedev spheres
	Using 110 Lebedev grid points for each H atom
	Using 194 Lebedev grid points for other atoms
	Atomic van der Waals radii will be scaled by 1.20
 Remove points where switching function is < 1.0e-08
 Keep 1532 surface tesserae and discard 1954 interior tesserae
 Molecular Surface Area = 241.792 Angst**2
 Requested basis set is rimp2-cc-pVTZ
 There are 410 shells and 1426 basis functions
 A cutoff of  1.0D-10 yielded  11556 shell pairs
 There are     90646 function pairs (    118641 Cartesian)
 Smallest overlap matrix eigenvalue = 6.45E-05

 Scale SEOQF with 1.000000e-01/1.000000e-01/1.000000e-02

 Standard Electronic Orientation quadrupole field applied
 Nucleus-field energy     =     0.0000000195 hartrees
 Guess from superposition of atomic densities
 Warning:  Energy on first SCF cycle will be non-variational
 SAD guess density has 118.000000 electrons

 -----------------------------------------------------------------------
  General SCF calculation program by
  Eric Jon Sundstrom, Paul Horn, Yuezhi Mao, Dmitri Zuev, Alec White,
  David Stuck, Shaama M.S., Shane Yost, Joonho Lee, David Small,
  Daniel Levine, Susi Lehtola, Hugh Burton, Evgeny Epifanovsky,
  Bang C. Huynh
 -----------------------------------------------------------------------
 Hartree-Fock
 using 64 threads for integral computing
 -------------------------------------------------------
 OpenMP Integral computing Module                
 Release: version 1.0, May 2013, Q-Chem Inc. Pittsburgh 
 -------------------------------------------------------
 A restricted SCF calculation will be
 performed using DIIS
 SCF converges when DIIS error is below 1.0e-06
 ---------------------------------------
  Cycle       Energy         DIIS error
 ---------------------------------------
    1   -1394.2700733246      2.47e-02  
    2   -1388.9971030453      2.47e-03  
    3   -1389.1673000245      1.54e-03  
    4   -1389.2268389036      3.54e-04  
    5   -1389.2326497176      1.12e-04  
    6   -1389.2333416622      3.65e-05  
    7   -1389.2334898409      1.82e-05  
    8   -1389.2335408800      7.10e-06  
    9   -1389.2335518423      3.00e-06  
   10   -1389.2335534026      1.13e-06  
   11   -1389.2335536305      4.61e-07  Convergence criterion met
 ---------------------------------------
 SCF time:   CPU 1727.14s  wall 52.00s 

************** Final PCM Free Energy Summary **************
 G_electrostatic  =      -0.01194017 hartree =      -7.49256957 kcal/mol
 G_cavitation     =       0.00000000 hartree =       0.00000000 kcal/mol
 G_dispersion     =       0.00000000 hartree =       0.00000000 kcal/mol
 G_repulsion      =       0.00000000 hartree =       0.00000000 kcal/mol
 --------------------------------------------------
 Non-electrostatic Free Energy =       0.00000000 hartree =       0.00000000 kcal/mol
 Total                         =      -0.01194017 hartree =      -7.49256957 kcal/mol
 --------------------------------------------------
 SCF Energy (H0 + V/2)                       =   -1389.23355363 
 Solute Internal Energy (H0)                 =   -1389.22161346 
 Total Free Energy (H0 + V/2 + non-elec)     =   -1389.23355363 hartree
                                             = -871757.21233413 kcal/mol
***********************************************************

 SCF   energy in the final basis set =    -1389.2335536305
 Total energy in the final basis set =    -1389.2335536305


 --------------------------------------------------------------
  Generalized many-body perturbation theory program
  by Joonho Lee, Fazle Rob, Xintian Feng, Evgeny Epifanovsky

 No regularization used 
 (reg. param. = 0.0000e+00)
  (P|Q)^-1/2 Time:  CPU 33.92 s  wall 0.58 s

 In RI-MP2 calculation: 
 # of frozen core orbitals: 22

 Components of the RIMP2 correlation energy:
        aaaa    correlation energy =        -0.3294854770 a.u.
        abab    correlation energy =        -1.8530627454 a.u.
        bbbb    correlation energy =        -0.3294854770 a.u.
        non-Brillouin singles      =        -0.0000000000 a.u.
        total same-spin energy     =        -0.6589709540 a.u.
        total opposite-spin energy =        -1.8530627454 a.u.

 Total  RIMP2   correlation energy =        -2.5120336994 a.u.
        RIMP2         total energy =     -1391.7455873300 a.u.

 RI-MP2 Energy Time:  CPU 198.22 s  wall 3.50 s
 
 --------------------------------------------------------------
 
                    Orbital Energies (a.u.)
 --------------------------------------------------------------
 
 Alpha MOs
 -- Occupied --
-92.0045 -91.9949 -26.3410 -20.6135 -20.5595 -11.4075 -11.3795 -11.3064
-11.2940 -11.2899 -11.2881 -11.2813 -11.2789 -11.2195  -9.0038  -8.9949
 -6.6846  -6.6839  -6.6835  -6.6760  -6.6753  -6.6742  -1.6583  -1.4659
 -1.3685  -1.2145  -1.1381  -1.0651  -1.0199  -0.9929  -0.9588  -0.9110
 -0.8641  -0.8069  -0.7889  -0.7586  -0.7306  -0.7231  -0.6928  -0.6833
 -0.6727  -0.6598  -0.6119  -0.5953  -0.5886  -0.5785  -0.5633  -0.5599
 -0.5312  -0.5247  -0.5082  -0.4950  -0.4732  -0.4716  -0.4712  -0.4548
 -0.3794  -0.3444  -0.2837
 -- Virtual --
  0.0361   0.0994   0.1385   0.1537   0.1578   0.1719   0.1849   0.1932
  0.2081   0.2132   0.2157   0.2243   0.2296   0.2431   0.2536   0.2648
  0.2858   0.3059   0.3110   0.3340   0.3417   0.3512   0.3768   0.3847
  0.3872   0.4012   0.4060   0.4136   0.4230   0.4317   0.4360   0.4383
  0.4572   0.4658   0.4746   0.4831   0.4953   0.5035   0.5078   0.5253
  0.5261   0.5361   0.5402   0.5440   0.5491   0.5593   0.5687   0.5791
  0.5850   0.5982   0.6051   0.6116   0.6149   0.6167   0.6197   0.6238
  0.6396   0.6512   0.6566   0.6621   0.6749   0.6808   0.6961   0.7094
  0.7168   0.7225   0.7273   0.7298   0.7565   0.7654   0.7857   0.8014
  0.8058   0.8112   0.8254   0.8435   0.8459   0.8646   0.8695   0.8765
  0.8826   0.8916   0.9160   0.9205   0.9316   0.9494   0.9600   0.9749
  0.9856   0.9989   1.0046   1.0174   1.0249   1.0383   1.0468   1.0579
  1.0678   1.0712   1.0860   1.0963   1.1026   1.1094   1.1132   1.1211
  1.1291   1.1534   1.1561   1.1679   1.1735   1.1835   1.1952   1.2078
  1.2299   1.2375   1.2451   1.2590   1.2629   1.2799   1.2944   1.3093
  1.3210   1.3373   1.3537   1.3609   1.3621   1.3844   1.3922   1.4077
  1.4177   1.4311   1.4351   1.4455   1.4799   1.4912   1.5028   1.5118
  1.5140   1.5306   1.5416   1.5487   1.5561   1.5756   1.5863   1.6052
  1.6150   1.6217   1.6420   1.6615   1.6661   1.6797   1.7027   1.7263
  1.7566   1.7827   1.7945   1.8007   1.8203   1.8264   1.8379   1.8572
  1.8621   1.8893   1.9006   1.9190   1.9288   1.9321   1.9474   1.9712
  1.9788   2.0014   2.0114   2.0410   2.0598   2.0760   2.0972   2.0985
  2.1239   2.1491   2.1676   2.1809   2.1977   2.2014   2.2204   2.2294
  2.2336   2.2478   2.2661   2.2712   2.2975   2.3048   2.3232   2.3355
  2.3551   2.3694   2.3860   2.4043   2.4206   2.4316   2.4714   2.4842
  2.4979   2.5398   2.5488   2.5645   2.5847   2.5924   2.6291   2.6336
  2.6431   2.6560   2.6643   2.6762   2.6866   2.7033   2.7121   2.7182
  2.7342   2.7368   2.7517   2.7660   2.7861   2.7984   2.8117   2.8268
  2.8466   2.8497   2.8779   2.8875   2.8951   2.9207   2.9456   2.9674
  2.9695   2.9808   2.9926   3.0145   3.0243   3.0343   3.0488   3.0597
  3.0723   3.0928   3.1015   3.1051   3.1127   3.1225   3.1323   3.1391
  3.1498   3.1778   3.1908   3.2054   3.2181   3.2230   3.2309   3.2440
  3.2525   3.2607   3.2716   3.2821   3.3006   3.3108   3.3175   3.3218
  3.3395   3.3512   3.3663   3.3692   3.3842   3.4004   3.4017   3.4171
  3.4280   3.4405   3.4459   3.4479   3.4537   3.4671   3.4762   3.4839
  3.4904   3.5082   3.5263   3.5416   3.5494   3.5598   3.5704   3.5746
  3.5897   3.5946   3.6040   3.6077   3.6227   3.6390   3.6575   3.6673
  3.6811   3.6949   3.7008   3.7072   3.7185   3.7278   3.7364   3.7593
  3.7719   3.7897   3.7929   3.8048   3.8084   3.8210   3.8331   3.8424
  3.8507   3.8688   3.8808   3.8826   3.8843   3.9153   3.9387   3.9540
  3.9560   3.9789   3.9839   3.9893   4.0056   4.0251   4.0505   4.0556
  4.0683   4.0854   4.0986   4.1181   4.1330   4.1573   4.1654   4.1677
  4.1798   4.2025   4.2191   4.2567   4.2648   4.2921   4.3163   4.3424
  4.3489   4.3564   4.3654   4.3735   4.3977   4.4140   4.4198   4.4300
  4.4542   4.4713   4.5135   4.5300   4.5390   4.5463   4.5769   4.5840
  4.5956   4.6113   4.6490   4.6613   4.6747   4.6994   4.7330   4.7461
  4.7528   4.7857   4.7940   4.8472   4.8558   4.8716   4.8965   4.9129
  4.9231   4.9859   5.0096   5.0193   5.0548   5.0817   5.0911   5.1193
  5.1700   5.1852   5.1977   5.2535   5.2558   5.2608   5.3039   5.3531
  5.3587   5.3972   5.4266   5.4270   5.4624   5.4755   5.4857   5.5218
  5.5370   5.5817   5.6044   5.6231   5.6630   5.6844   5.7502   5.7582
  5.8054   5.8087   5.8367   5.8885   5.9078   5.9306   5.9589   5.9687
  6.0429   6.0594   6.1513   6.1556   6.1864   6.2625   6.2740   6.3872
  6.4474   6.4515   6.5391   6.6016   6.6621   6.6729   6.7468   6.8309
  6.8610   6.9795   7.2052   7.2058   7.3114   7.3650   7.3652   7.4066
  7.4146   7.4877   7.5227   7.5508   7.6158   7.7752   7.7898   7.8923
  7.9542   8.1344   8.1975   8.9240   9.0173   9.3651   9.4721   9.6569
 10.1366  11.1334  11.6339  11.8150  12.4088  12.8262  13.0651  13.3862
 13.7740  14.0322  14.2727
 --------------------------------------------------------------
 
          Ground-State Mulliken Net Atomic Charges

     Atom                 Charge (a.u.)
  ----------------------------------------
      1 C                    -0.054768
      2 S                     0.083204
      3 C                    -0.190915
      4 C                     0.022959
      5 C                    -0.093498
      6 S                     0.008514
      7 C                    -0.157453
      8 C                     0.391059
      9 F                    -0.208184
     10 C                     0.447294
     11 O                    -0.462969
     12 O                    -0.301179
     13 C                    -0.058481
     14 H                     0.121033
     15 H                     0.094815
     16 H                     0.094646
     17 C                    -0.387781
     18 H                     0.134616
     19 H                     0.159104
     20 H                     0.143547
     21 H                     0.214436
  ----------------------------------------
  Sum of atomic charges =     0.000000

 -----------------------------------------------------------------
                    Cartesian Multipole Moments
 -----------------------------------------------------------------
    Charge (ESU x 10^10)
                -0.0000
    Dipole Moment (Debye)
         X       1.0951      Y       0.4543      Z       3.3098
       Tot       3.5157
    Quadrupole Moments (Debye-Ang)
        XX     -92.1057     XY       7.1486     YY     -86.6564
        XZ      -5.3549     YZ      -7.8432     ZZ     -95.5776
    Octopole Moments (Debye-Ang^2)
       XXX    -161.1876    XXY     -55.7270    XYY     -53.7056
       YYY    -182.5119    XXZ      65.5033    XYZ     -15.9439
       YYZ      63.4028    XZZ      -5.3940    YZZ      -2.9235
       ZZZ     271.6102
    Hexadecapole Moments (Debye-Ang^3)
      XXXX    -854.3412   XXXY    -457.5111   XXYY    -354.0345
      XYYY    -435.1813   YYYY   -1365.4239   XXXZ     482.7236
      XXYZ     172.9352   XYYZ     112.9660   YYYZ     584.0627
      XXZZ    -622.2188   XYZZ      12.4927   YYZZ    -639.8838
      XZZZ     314.8509   YZZZ     407.6228   ZZZZ   -3708.5876
 -----------------------------------------------------------------
 Total job time:  62.98s(wall), 1993.56s(cpu) 
 Tue Jan  9 10:06:31 2024

        *************************************************************
        *                                                           *
        *  Thank you very much for using Q-Chem.  Have a nice day.  *
        *                                                           *
        *************************************************************


0 sent ACK to 0 
now end server 0 ... 
cleanup process ... done
remove work dirs ./qchem4062851.0 -- ./qchem4062851.0
rm -rf ./qchem4062851.0
rm -rf ./qchem4062851
