You are running Q-Chem version: 5.4.0

#
# job setting
#
local host:  exp-7-24
current dir: /home/rramji/project-csd799/aromodel/ptb7fout-qchem/methylated-rotation-run
input file:  Dimethoxy_Benzodithiophene_Phi_25_Theta_60_Methylcarbonyl_3_Fluoro_Thienothiophene_Hydrogenated_Improper.qcin
output file: 
nprocs     : 1
nthreads   : 64
#
# qchem installation setting
#
QC:          /cm/shared/apps/spack/cpu/opt/spack/linux-centos8-zen2/gcc-10.2.0/qchem-5.4-akfmr7b3t57bfs6qan3padb2wnb2i7cl
QCAUX:       /cm/shared/apps/spack/cpu/opt/spack/linux-centos8-zen2/gcc-10.2.0/qchem-5.4-akfmr7b3t57bfs6qan3padb2wnb2i7cl/qcaux
QCPROG:      /cm/shared/apps/spack/cpu/opt/spack/linux-centos8-zen2/gcc-10.2.0/qchem-5.4-akfmr7b3t57bfs6qan3padb2wnb2i7cl/exe/qcprog.exe
QCPROG_S:    /cm/shared/apps/spack/cpu/opt/spack/linux-centos8-zen2/gcc-10.2.0/qchem-5.4-akfmr7b3t57bfs6qan3padb2wnb2i7cl/exe/qcprog.exe_s
PARALLEL:    -DPARALLEL
QCMPI:       mpich
#
# qchem directory setting
#
qcrun:       qchem1267178
QCSCRATCH:   .
QCLOCALSCR:  
QCTMPDIR:    .
QCFILEPREF:  ./qchem1267178
QCSAVEDIR:   
workdirs:    ./qchem1267178
workdir0:    ./qchem1267178
partmpdirs =  
#
# parallel setting
#
QCRSH:           ssh
QCMPI:           mpich
QCMPIRUN:        /cm/shared/apps/spack/cpu/opt/spack/linux-centos8-zen2/gcc-10.2.0/qchem-5.4-akfmr7b3t57bfs6qan3padb2wnb2i7cl/bin/mpi/mpirun_qchem
QCMACHINEFILE:   ./qchem1267178/hostfile
exp-7-24

#
# env setting
#
exported envs:   QC QCAUX QCSCRATCH QCRUNNAME QCFILEPREF QCPROG QCPROG_S GUIFILE

Running Job 1 of 1 Dimethoxy_Benzodithiophene_Phi_25_Theta_60_Methylcarbonyl_3_Fluoro_Thienothiophene_Hydrogenated_Improper.qcin
qchem Dimethoxy_Benzodithiophene_Phi_25_Theta_60_Methylcarbonyl_3_Fluoro_Thienothiophene_Hydrogenated_Improper.qcin_1267178.0 ./qchem1267178/ 1
/cm/shared/apps/spack/cpu/opt/spack/linux-centos8-zen2/gcc-10.2.0/qchem-5.4-akfmr7b3t57bfs6qan3padb2wnb2i7cl/bin/mpi/mpirun_qchem -machinefile ./qchem1267178/hostfile -np 1 /cm/shared/apps/spack/cpu/opt/spack/linux-centos8-zen2/gcc-10.2.0/qchem-5.4-akfmr7b3t57bfs6qan3padb2wnb2i7cl/exe/qcprog.exe Dimethoxy_Benzodithiophene_Phi_25_Theta_60_Methylcarbonyl_3_Fluoro_Thienothiophene_Hydrogenated_Improper.qcin_1267178.0 ./qchem1267178/

Process 0 of 1 is on exp-7-24 - thread support 0
initial socket setup ...start
initial socket setup ...done 
now start server 0 ... 
                  Welcome to Q-Chem
     A Quantum Leap Into The Future Of Chemistry


 Q-Chem 5.4, Q-Chem, Inc., Pleasanton, CA (2021)

 License issued to: University of California, San Diego (site)

 E. Epifanovsky,  A. T. B. Gilbert,  Xintian Feng,  Joonho Lee,  Yuezhi Mao,  
 N. Mardirossian,  P. Pokhilko,  A. White,  M. Wormit,  M. P. Coons,  
 A. L. Dempwolff,  Zhengting Gan,  D. Hait,  P. R. Horn,  L. D. Jacobson,  
 I. Kaliman,  J. Kussmann,  A. W. Lange,  Ka Un Lao,  D. S. Levine,  Jie Liu,  
 S. C. McKenzie,  A. F. Morrison,  K. Nanda,  F. Plasser,  D. R. Rehn,  
 M. L. Vidal,  Zhi-Qiang You,  Ying Zhu,  B. Alam,  B. Albrecht,  
 A. Aldossary,  E. Alguire,  J. H. Andersen,  D. Barton,  K. Begam,  A. Behn,  
 Y. A. Bernard,  E. J. Berquist,  H. Burton,  A. Carreras,  K. Carter-Fenk,  
 R. Chakraborty,  A. D. Chien,  K. D. Closser,  V. Cofer-Shabica,  
 S. Dasgupta,  Jia Deng,  M. de Wergifosse,  M. Diedenhofen,  Hainam Do,  
 S. Ehlert,  Po-Tung Fang,  S. Fatehi,  Qingguo Feng,  J. Gayvert,  
 Qinghui Ge,  G. Gidofalvi,  M. Goldey,  J. Gomes,  C. Gonzalez-Espinoza,  
 S. Gulania,  A. Gunina,  M. W. D. Hanson-Heine,  P. H. P. Harbach,  
 A. W. Hauser,  M. F. Herbst,  M. Hernandez Vera,  M. Hodecker,  
 Z. C. Holden,  S. Houck,  Xunkun Huang,  Kerwin Hui,  B. C. Huynh,  
 M. Ivanov,  Hyunjun Ji,  Hanjie Jiang,  B. Kaduk,  S. Kaehler,  
 K. Khistyaev,  Jaehoon Kim,  P. Klunzinger,  Z. Koczor-Benda,  
 Joong Hoon Koh,  D. Kosenkov,  L. Koulias,  T. Kowalczyk,  C. M. Krauter,  
 K. Kue,  A. Kunitsa,  T. Kus,  A. Landau,  K. V. Lawler,  D. Lefrancois,  
 S. Lehtola,  Rain Li,  Yi-Pei Li,  Jiashu Liang,  M. Liebenthal,  
 Hung-Hsuan Lin,  You-Sheng Lin,  Fenglai Liu,  Kuan-Yu Liu,  
 M. Loipersberger,  A. Luenser,  A. Manjanath,  P. Manohar,  E. Mansoor,  
 S. F. Manzer,  Shan-Ping Mao,  A. V. Marenich,  T. Markovich,  S. Mason,  
 S. A. Maurer,  P. F. McLaughlin,  M. F. S. J. Menger,  J.-M. Mewes,  
 S. A. Mewes,  P. Morgante,  J. W. Mullinax,  T. S. Nguyen-Beck,  
 K. J. Oosterbaan,  G. Paran,  Alexander C. Paul,  Suranjan K. Paul,  
 F. Pavosevic,  Zheng Pei,  S. Prager,  E. I. Proynov,  E. Ramos,  B. Rana,  
 A. E. Rask,  A. Rettig,  R. M. Richard,  F. Rob,  E. Rossomme,  T. Scheele,  
 M. Scheurer,  M. Schneider,  N. Sergueev,  S. M. Sharada,  W. Skomorowski,  
 D. W. Small,  C. J. Stein,  Yu-Chuan Su,  E. J. Sundstrom,  Zhen Tao,  
 J. Thirman,  T. Tsuchimochi,  N. M. Tubman,  S. P. Veccham,  O. Vydrov,  
 J. Wenzel,  J. Witte,  A. Yamada,  Kun Yao,  S. Yeganeh,  S. R. Yost,  
 A. Zech,  Igor Ying Zhang,  Xing Zhang,  Yu Zhang,  D. Zuev,  
 A. Aspuru-Guzik,  A. T. Bell,  N. A. Besley,  K. B. Bravaya,  B. R. Brooks,  
 D. Casanova,  Jeng-Da Chai,  S. Coriani,  C. J. Cramer,  
 A. E. DePrince, III,  R. A. DiStasio Jr.,  A. Dreuw,  B. D. Dunietz,  
 T. R. Furlani,  W. A. Goddard III,  S. Grimme,  S. Hammes-Schiffer,  
 T. Head-Gordon,  W. J. Hehre,  Chao-Ping Hsu,  T.-C. Jagau,  Yousung Jung,  
 A. Klamt,  Jing Kong,  D. S. Lambrecht,  WanZhen Liang,  N. J. Mayhall,  
 C. W. McCurdy,  J. B. Neaton,  C. Ochsenfeld,  J. A. Parkhill,  R. Peverati,  
 V. A. Rassolov,  Yihan Shao,  L. V. Slipchenko,  T. Stauch,  R. P. Steele,  
 J. E. Subotnik,  A. J. W. Thom,  A. Tkatchenko,  D. G. Truhlar,  
 T. Van Voorhis,  T. A. Wesolowski,  K. B. Whaley,  H. L. Woodcock III,  
 P. M. Zimmerman,  S. Faraji,  P. M. W. Gill,  M. Head-Gordon,  
 J. M. Herbert,  A. I. Krylov

 Contributors to earlier versions of Q-Chem not listed above: 
 R. D. Adamson,  B. Austin,  R. Baer,  J. Baker,  G. J. O. Beran,  
 K. Brandhorst,  S. T. Brown,  E. F. C. Byrd,  A. K. Chakraborty,  
 G. K. L. Chan,  Chun-Min Chang,  Yunqing Chen,  C.-L. Cheng,  
 Siu Hung Chien,  D. M. Chipman,  D. L. Crittenden,  H. Dachsel,  
 R. J. Doerksen,  A. D. Dutoi,  R. G. Edgar,  J. Fosso-Tande,  
 L. Fusti-Molnar,  D. Ghosh,  A. Ghysels,  A. Golubeva-Zadorozhnaya,  
 J. Gonthier,  M. S. Gordon,  S. R. Gwaltney,  G. Hawkins,  J. E. Herr,  
 A. Heyden,  S. Hirata,  E. G. Hohenstein,  G. Kedziora,  F. J. Keil,  
 C. Kelley,  Jihan Kim,  R. A. King,  R. Z. Khaliullin,  P. P. Korambath,  
 W. Kurlancheek,  A. Laurent,  A. M. Lee,  M. S. Lee,  S. V. Levchenko,  
 Ching Yeh Lin,  D. Liotard,  E. Livshits,  R. C. Lochan,  I. Lotan,  
 L. A. Martinez-Martinez,  P. E. Maslen,  N. Nair,  D. P. O'Neill,  
 D. Neuhauser,  E. Neuscamman,  C. M. Oana,  R. Olivares-Amaya,  R. Olson,  
 T. M. Perrine,  B. Peters,  P. A. Pieniazek,  A. Prociuk,  Y. M. Rhee,  
 J. Ritchie,  M. A. Rohrdanz,  E. Rosta,  N. J. Russ,  H. F. Schaefer III,  
 M. W. Schmidt,  N. E. Schultz,  S. Sharma,  N. Shenvi,  C. D. Sherrill,  
 A. C. Simmonett,  A. Sodt,  T. Stein,  D. Stuck,  K. S. Thanthiriwatte,  
 V. Vanovschi,  L. Vogt,  Tao Wang,  A. Warshel,  M. A. Watson,  
 C. F. Williams,  Q. Wu,  X. Xu,  Jun Yang,  W. Zhang,  Yan Zhao

 Please cite Q-Chem as follows:
 Y. Shao et al., Mol. Phys. 113, 184-215 (2015)
 DOI: 10.1080/00268976.2014.952696

 Q-Chem 5.4.0 for Intel X86 EM64T Linux

 Parts of Q-Chem use Armadillo 9.800.1 (Horizon Scraper).
 http://arma.sourceforge.net/

 Q-Chem begins on Tue Jan  9 09:55:11 2024  

 Host: 
0

     Scratch files written to ./qchem1267178//
 May1621 |scratch|qcdevops|jenkins|workspace|build_RNUM    
 Parallel job on  1  processors
 Processing $rem in /cm/shared/apps/spack/cpu/opt/spack/linux-centos8-zen2/gcc-10.2.0/qchem-5.4-akfmr7b3t57bfs6qan3padb2wnb2i7cl/config/preferences:
 Processing $rem in /home/rramji/.qchemrc:
 Symmetry turned off for PCM/SM12/SMD calculation
 Core orbitals will be frozen

 Checking the input file for inconsistencies... 	...done.

 Q-Chem warning in module forms1/BasisType.C, line 2236:

 You are not using the predefined 5D/6D in this basis set.


--------------------------------------------------------------
User input:
--------------------------------------------------------------
$molecule
0 1
C	-0.440897	-0.893839	0.973997
S	-0.058097	-0.074039	2.481497
C	0.605803	1.351461	1.692897
C	-0.057997	-0.074439	-0.093903
C	0.527403	1.186461	0.287597
S	-0.158297	-0.296439	-1.831503
C	0.576903	1.293461	-2.080503
C	0.874103	1.936461	-0.888603
F	1.434603	3.149961	-0.845103
C	0.768003	1.698761	-3.482103
O	0.449903	0.997661	-4.432503
O	1.332003	2.925861	-3.595203
C	1.546003	3.372361	-4.942203
H	2.004903	4.373161	-4.859103
H	0.587203	3.429561	-5.496203
H	2.220203	2.679661	-5.485303
C	-0.440897	-2.329039	0.973997
H	0.105503	-2.337039	1.905497
H	-1.168797	-3.006939	1.394597
H	0.370103	-2.860139	0.498097
H	0.995103	2.189761	2.280497
$end

$rem
JOBTYPE		SP
EXCHANGE	HF
CORRELATION	pRIMP2
BASIS		cc-pvtz
METHOD		rimp2
AUX_BASIS	rimp2-cc-pvtz
SOLVENT_METHOD	PCM
PURECART	11111
SYMMETRY	false
MEM_TOTAL	110000
SCF_CONVERGENCE = 6
THRESH=10
GUI = 2
$end



$solvent
dielectric 4.90
$end
--------------------------------------------------------------
 ----------------------------------------------------------------
             Standard Nuclear Orientation (Angstroms)
    I     Atom           X                Y                Z
 ----------------------------------------------------------------
    1      C      -0.4408970000    -0.8938390000     0.9739970000
    2      S      -0.0580970000    -0.0740390000     2.4814970000
    3      C       0.6058030000     1.3514610000     1.6928970000
    4      C      -0.0579970000    -0.0744390000    -0.0939030000
    5      C       0.5274030000     1.1864610000     0.2875970000
    6      S      -0.1582970000    -0.2964390000    -1.8315030000
    7      C       0.5769030000     1.2934610000    -2.0805030000
    8      C       0.8741030000     1.9364610000    -0.8886030000
    9      F       1.4346030000     3.1499610000    -0.8451030000
   10      C       0.7680030000     1.6987610000    -3.4821030000
   11      O       0.4499030000     0.9976610000    -4.4325030000
   12      O       1.3320030000     2.9258610000    -3.5952030000
   13      C       1.5460030000     3.3723610000    -4.9422030000
   14      H       2.0049030000     4.3731610000    -4.8591030000
   15      H       0.5872030000     3.4295610000    -5.4962030000
   16      H       2.2202030000     2.6796610000    -5.4853030000
   17      C      -0.4408970000    -2.3290390000     0.9739970000
   18      H       0.1055030000    -2.3370390000     1.9054970000
   19      H      -1.1687970000    -3.0069390000     1.3945970000
   20      H       0.3701030000    -2.8601390000     0.4980970000
   21      H       0.9951030000     2.1897610000     2.2804970000
 ----------------------------------------------------------------
 Nuclear Repulsion Energy =        1084.33057106 hartrees
 There are       59 alpha and       59 beta electrons
 Requested basis set is cc-pVTZ
 There are 186 shells and 526 basis functions

 Total QAlloc Memory Limit 110000 MB
 Mega-Array Size       188 MB
 MEM_STATIC part       192 MB
 Discretize the solute cavity surface with Lebedev spheres
	Using 110 Lebedev grid points for each H atom
	Using 194 Lebedev grid points for other atoms
	Atomic van der Waals radii will be scaled by 1.20
 Remove points where switching function is < 1.0e-08
 Keep 1551 surface tesserae and discard 1935 interior tesserae
 Molecular Surface Area = 242.521 Angst**2
 Requested basis set is rimp2-cc-pVTZ
 There are 410 shells and 1426 basis functions
 A cutoff of  1.0D-10 yielded  11515 shell pairs
 There are     90343 function pairs (    118243 Cartesian)
 Smallest overlap matrix eigenvalue = 6.33E-05

 Scale SEOQF with 1.000000e-01/1.000000e-01/1.000000e-02

 Standard Electronic Orientation quadrupole field applied
 Nucleus-field energy     =     0.0000000234 hartrees
 Guess from superposition of atomic densities
 Warning:  Energy on first SCF cycle will be non-variational
 SAD guess density has 118.000000 electrons

 -----------------------------------------------------------------------
  General SCF calculation program by
  Eric Jon Sundstrom, Paul Horn, Yuezhi Mao, Dmitri Zuev, Alec White,
  David Stuck, Shaama M.S., Shane Yost, Joonho Lee, David Small,
  Daniel Levine, Susi Lehtola, Hugh Burton, Evgeny Epifanovsky,
  Bang C. Huynh
 -----------------------------------------------------------------------
 Hartree-Fock
 using 64 threads for integral computing
 -------------------------------------------------------
 OpenMP Integral computing Module                
 Release: version 1.0, May 2013, Q-Chem Inc. Pittsburgh 
 -------------------------------------------------------
 A restricted SCF calculation will be
 performed using DIIS
 SCF converges when DIIS error is below 1.0e-06
 ---------------------------------------
  Cycle       Energy         DIIS error
 ---------------------------------------
    1   -1394.2690898492      2.47e-02  
    2   -1389.0209762445      2.47e-03  
    3   -1389.1917529492      1.54e-03  
    4   -1389.2513198217      3.54e-04  
    5   -1389.2571242671      1.13e-04  
    6   -1389.2578168542      3.66e-05  
    7   -1389.2579654578      1.82e-05  
    8   -1389.2580164050      7.04e-06  
    9   -1389.2580270484      3.02e-06  
   10   -1389.2580285438      1.13e-06  
   11   -1389.2580287718      5.07e-07  Convergence criterion met
 ---------------------------------------
 SCF time:   CPU 1712.83s  wall 53.00s 

************** Final PCM Free Energy Summary **************
 G_electrostatic  =      -0.01208160 hartree =      -7.58132150 kcal/mol
 G_cavitation     =       0.00000000 hartree =       0.00000000 kcal/mol
 G_dispersion     =       0.00000000 hartree =       0.00000000 kcal/mol
 G_repulsion      =       0.00000000 hartree =       0.00000000 kcal/mol
 --------------------------------------------------
 Non-electrostatic Free Energy =       0.00000000 hartree =       0.00000000 kcal/mol
 Total                         =      -0.01208160 hartree =      -7.58132150 kcal/mol
 --------------------------------------------------
 SCF Energy (H0 + V/2)                       =   -1389.25802877 
 Solute Internal Energy (H0)                 =   -1389.24594717 
 Total Free Energy (H0 + V/2 + non-elec)     =   -1389.25802877 hartree
                                             = -871772.57071712 kcal/mol
***********************************************************

 SCF   energy in the final basis set =    -1389.2580287718
 Total energy in the final basis set =    -1389.2580287718


 --------------------------------------------------------------
  Generalized many-body perturbation theory program
  by Joonho Lee, Fazle Rob, Xintian Feng, Evgeny Epifanovsky

 No regularization used 
 (reg. param. = 0.0000e+00)
  (P|Q)^-1/2 Time:  CPU 26.18 s  wall 0.43 s

 In RI-MP2 calculation: 
 # of frozen core orbitals: 22

 Components of the RIMP2 correlation energy:
        aaaa    correlation energy =        -0.3286379606 a.u.
        abab    correlation energy =        -1.8496385063 a.u.
        bbbb    correlation energy =        -0.3286379606 a.u.
        non-Brillouin singles      =        -0.0000000000 a.u.
        total same-spin energy     =        -0.6572759213 a.u.
        total opposite-spin energy =        -1.8496385063 a.u.

 Total  RIMP2   correlation energy =        -2.5069144276 a.u.
        RIMP2         total energy =     -1391.7649431995 a.u.

 RI-MP2 Energy Time:  CPU 183.74 s  wall 3.76 s
 
 --------------------------------------------------------------
 
                    Orbital Energies (a.u.)
 --------------------------------------------------------------
 
 Alpha MOs
 -- Occupied --
-92.0048 -91.9927 -26.3408 -20.6134 -20.5594 -11.4073 -11.3791 -11.3028
-11.2940 -11.2903 -11.2880 -11.2877 -11.2787 -11.2237  -9.0042  -8.9928
 -6.6849  -6.6843  -6.6838  -6.6739  -6.6732  -6.6721  -1.6580  -1.4658
 -1.3684  -1.2137  -1.1383  -1.0655  -1.0200  -0.9937  -0.9589  -0.9108
 -0.8641  -0.8072  -0.7887  -0.7581  -0.7316  -0.7229  -0.6920  -0.6831
 -0.6726  -0.6604  -0.6086  -0.6023  -0.5925  -0.5741  -0.5651  -0.5561
 -0.5380  -0.5298  -0.5089  -0.4872  -0.4743  -0.4712  -0.4702  -0.4517
 -0.3892  -0.3453  -0.2888
 -- Virtual --
  0.0378   0.1102   0.1371   0.1557   0.1585   0.1683   0.1804   0.1958
  0.2147   0.2158   0.2233   0.2288   0.2353   0.2455   0.2496   0.2679
  0.2819   0.3063   0.3135   0.3381   0.3458   0.3601   0.3774   0.3837
  0.3869   0.3987   0.4031   0.4156   0.4252   0.4347   0.4366   0.4414
  0.4587   0.4704   0.4740   0.4789   0.4945   0.5022   0.5072   0.5186
  0.5252   0.5332   0.5364   0.5445   0.5492   0.5603   0.5705   0.5801
  0.5863   0.5931   0.6011   0.6089   0.6149   0.6165   0.6235   0.6252
  0.6421   0.6448   0.6571   0.6644   0.6727   0.6855   0.7040   0.7088
  0.7096   0.7210   0.7242   0.7395   0.7508   0.7622   0.7791   0.8014
  0.8087   0.8149   0.8303   0.8450   0.8537   0.8602   0.8750   0.8803
  0.8877   0.8989   0.9112   0.9297   0.9436   0.9477   0.9551   0.9644
  0.9828   0.9976   1.0018   1.0078   1.0185   1.0295   1.0433   1.0542
  1.0624   1.0759   1.0927   1.0962   1.1032   1.1073   1.1175   1.1260
  1.1291   1.1538   1.1571   1.1693   1.1865   1.1959   1.2069   1.2144
  1.2263   1.2343   1.2431   1.2555   1.2632   1.2721   1.2809   1.3037
  1.3104   1.3294   1.3434   1.3597   1.3692   1.3800   1.3950   1.4038
  1.4180   1.4317   1.4402   1.4606   1.4726   1.4917   1.5036   1.5088
  1.5175   1.5372   1.5401   1.5456   1.5661   1.5718   1.5841   1.5975
  1.6111   1.6315   1.6587   1.6679   1.6775   1.6887   1.7004   1.7316
  1.7395   1.7612   1.7942   1.8116   1.8205   1.8247   1.8368   1.8552
  1.8803   1.8897   1.8996   1.9236   1.9312   1.9412   1.9535   1.9647
  1.9884   1.9945   2.0081   2.0398   2.0609   2.0831   2.0933   2.1081
  2.1211   2.1581   2.1663   2.1805   2.1941   2.2013   2.2115   2.2248
  2.2347   2.2430   2.2584   2.2830   2.2910   2.3022   2.3327   2.3510
  2.3664   2.3765   2.3803   2.4105   2.4315   2.4489   2.4743   2.4857
  2.5032   2.5353   2.5506   2.5615   2.5839   2.6032   2.6274   2.6408
  2.6441   2.6477   2.6632   2.6764   2.6840   2.7018   2.7077   2.7238
  2.7266   2.7523   2.7712   2.7770   2.7872   2.7912   2.8053   2.8116
  2.8282   2.8416   2.8662   2.8804   2.8985   2.9232   2.9345   2.9425
  2.9611   2.9809   2.9848   2.9964   3.0238   3.0276   3.0530   3.0696
  3.0803   3.0854   3.0998   3.1044   3.1071   3.1326   3.1423   3.1487
  3.1611   3.1776   3.1979   3.2128   3.2182   3.2249   3.2325   3.2474
  3.2626   3.2683   3.2734   3.2775   3.2804   3.3133   3.3229   3.3363
  3.3426   3.3569   3.3657   3.3745   3.3873   3.3934   3.4029   3.4213
  3.4254   3.4264   3.4363   3.4455   3.4564   3.4736   3.4755   3.4849
  3.4964   3.5101   3.5399   3.5515   3.5558   3.5670   3.5780   3.5809
  3.5911   3.6009   3.6118   3.6198   3.6399   3.6454   3.6577   3.6655
  3.6830   3.6891   3.7011   3.7068   3.7303   3.7347   3.7366   3.7540
  3.7583   3.7681   3.7897   3.8000   3.8080   3.8140   3.8221   3.8357
  3.8477   3.8582   3.8681   3.8763   3.8834   3.9113   3.9163   3.9261
  3.9445   3.9519   3.9567   3.9862   4.0044   4.0141   4.0230   4.0531
  4.0639   4.0694   4.0907   4.1131   4.1169   4.1346   4.1599   4.1674
  4.1706   4.2010   4.2192   4.2407   4.2751   4.2880   4.3044   4.3292
  4.3426   4.3595   4.3632   4.3845   4.3946   4.4188   4.4295   4.4405
  4.4495   4.4563   4.5186   4.5258   4.5444   4.5520   4.5826   4.5993
  4.6102   4.6243   4.6421   4.6569   4.6699   4.7090   4.7228   4.7303
  4.7700   4.7797   4.7918   4.8263   4.8478   4.8680   4.9051   4.9262
  4.9637   4.9787   4.9943   5.0097   5.0500   5.0721   5.1178   5.1192
  5.1317   5.1749   5.1976   5.2517   5.2531   5.2585   5.2795   5.3530
  5.3576   5.4017   5.4171   5.4271   5.4516   5.4796   5.4857   5.5237
  5.5391   5.5823   5.6101   5.6233   5.6629   5.6718   5.7249   5.7530
  5.8088   5.8136   5.8268   5.8798   5.9065   5.9117   5.9307   6.0379
  6.0461   6.0858   6.1514   6.1683   6.1930   6.2626   6.2788   6.4013
  6.4349   6.4517   6.5387   6.6028   6.6622   6.6729   6.7471   6.8312
  6.8611   6.9797   7.2053   7.2069   7.3114   7.3651   7.3653   7.4071
  7.4147   7.4879   7.5250   7.5514   7.6159   7.7753   7.7904   7.8977
  7.9602   8.1354   8.2518   8.9242   9.0159   9.3651   9.4682   9.6536
 10.1162  11.0659  11.6066  11.8135  12.4031  12.7290  13.0667  13.3859
 13.7691  14.0291  14.4438
 --------------------------------------------------------------
 
          Ground-State Mulliken Net Atomic Charges

     Atom                 Charge (a.u.)
  ----------------------------------------
      1 C                     0.028367
      2 S                     0.074808
      3 C                    -0.202248
      4 C                    -0.037951
      5 C                    -0.079524
      6 S                     0.001987
      7 C                    -0.156481
      8 C                     0.387916
      9 F                    -0.208219
     10 C                     0.446277
     11 O                    -0.462437
     12 O                    -0.301102
     13 C                    -0.058510
     14 H                     0.121023
     15 H                     0.094808
     16 H                     0.094643
     17 C                    -0.376773
     18 H                     0.125271
     19 H                     0.147794
     20 H                     0.146427
     21 H                     0.213924
  ----------------------------------------
  Sum of atomic charges =     0.000000

 -----------------------------------------------------------------
                    Cartesian Multipole Moments
 -----------------------------------------------------------------
    Charge (ESU x 10^10)
                -0.0000
    Dipole Moment (Debye)
         X       1.3775      Y       0.5782      Z       3.7336
       Tot       4.0214
    Quadrupole Moments (Debye-Ang)
        XX     -94.9528     XY       3.5362     YY     -83.6515
        XZ      -3.5405     YZ     -10.3689     ZZ     -95.4479
    Octopole Moments (Debye-Ang^2)
       XXX    -109.1524    XXY     -70.2255    XYY     -30.0362
       YYY    -216.3423    XXZ      73.8503    XYZ     -12.0279
       YYZ      58.9347    XZZ      -4.4610    YZZ      -4.7907
       ZZZ     271.3280
    Hexadecapole Moments (Debye-Ang^3)
      XXXX    -437.4395   XXXY    -356.1369   XXYY    -367.4824
      XYYY    -328.6702   YYYY   -1772.5151   XXXZ     329.5982
      XXYZ     233.1683   XYYZ      54.2121   YYYZ     639.3625
      XXZZ    -630.5950   XYZZ      14.0729   YYZZ    -632.8947
      XZZZ     205.2545   YZZZ     478.6343   ZZZZ   -3712.2038
 -----------------------------------------------------------------
 Total job time:  86.03s(wall), 2915.99s(cpu) 
 Tue Jan  9 09:56:37 2024

        *************************************************************
        *                                                           *
        *  Thank you very much for using Q-Chem.  Have a nice day.  *
        *                                                           *
        *************************************************************


0 sent ACK to 0 
now end server 0 ... 
cleanup process ... done
remove work dirs ./qchem1267178.0 -- ./qchem1267178.0
rm -rf ./qchem1267178.0
rm -rf ./qchem1267178
