You are running Q-Chem version: 5.4.0

#
# job setting
#
local host:  exp-7-24
current dir: /home/rramji/project-csd799/aromodel/ptb7fout-qchem/methylated-rotation-run
input file:  Dimethoxy_Benzodithiophene_Phi_25_Theta_340_Methylcarbonyl_3_Fluoro_Thienothiophene_Hydrogenated_Improper.qcin
output file: 
nprocs     : 1
nthreads   : 64
#
# qchem installation setting
#
QC:          /cm/shared/apps/spack/cpu/opt/spack/linux-centos8-zen2/gcc-10.2.0/qchem-5.4-akfmr7b3t57bfs6qan3padb2wnb2i7cl
QCAUX:       /cm/shared/apps/spack/cpu/opt/spack/linux-centos8-zen2/gcc-10.2.0/qchem-5.4-akfmr7b3t57bfs6qan3padb2wnb2i7cl/qcaux
QCPROG:      /cm/shared/apps/spack/cpu/opt/spack/linux-centos8-zen2/gcc-10.2.0/qchem-5.4-akfmr7b3t57bfs6qan3padb2wnb2i7cl/exe/qcprog.exe
QCPROG_S:    /cm/shared/apps/spack/cpu/opt/spack/linux-centos8-zen2/gcc-10.2.0/qchem-5.4-akfmr7b3t57bfs6qan3padb2wnb2i7cl/exe/qcprog.exe_s
PARALLEL:    -DPARALLEL
QCMPI:       mpich
#
# qchem directory setting
#
qcrun:       qchem1276798
QCSCRATCH:   .
QCLOCALSCR:  
QCTMPDIR:    .
QCFILEPREF:  ./qchem1276798
QCSAVEDIR:   
workdirs:    ./qchem1276798
workdir0:    ./qchem1276798
partmpdirs =  
#
# parallel setting
#
QCRSH:           ssh
QCMPI:           mpich
QCMPIRUN:        /cm/shared/apps/spack/cpu/opt/spack/linux-centos8-zen2/gcc-10.2.0/qchem-5.4-akfmr7b3t57bfs6qan3padb2wnb2i7cl/bin/mpi/mpirun_qchem
QCMACHINEFILE:   ./qchem1276798/hostfile
exp-7-24

#
# env setting
#
exported envs:   QC QCAUX QCSCRATCH QCRUNNAME QCFILEPREF QCPROG QCPROG_S GUIFILE

Running Job 1 of 1 Dimethoxy_Benzodithiophene_Phi_25_Theta_340_Methylcarbonyl_3_Fluoro_Thienothiophene_Hydrogenated_Improper.qcin
qchem Dimethoxy_Benzodithiophene_Phi_25_Theta_340_Methylcarbonyl_3_Fluoro_Thienothiophene_Hydrogenated_Improper.qcin_1276798.0 ./qchem1276798/ 1
/cm/shared/apps/spack/cpu/opt/spack/linux-centos8-zen2/gcc-10.2.0/qchem-5.4-akfmr7b3t57bfs6qan3padb2wnb2i7cl/bin/mpi/mpirun_qchem -machinefile ./qchem1276798/hostfile -np 1 /cm/shared/apps/spack/cpu/opt/spack/linux-centos8-zen2/gcc-10.2.0/qchem-5.4-akfmr7b3t57bfs6qan3padb2wnb2i7cl/exe/qcprog.exe Dimethoxy_Benzodithiophene_Phi_25_Theta_340_Methylcarbonyl_3_Fluoro_Thienothiophene_Hydrogenated_Improper.qcin_1276798.0 ./qchem1276798/

Process 0 of 1 is on exp-7-24 - thread support 0
initial socket setup ...start
initial socket setup ...done 
now start server 0 ... 
                  Welcome to Q-Chem
     A Quantum Leap Into The Future Of Chemistry


 Q-Chem 5.4, Q-Chem, Inc., Pleasanton, CA (2021)

 License issued to: University of California, San Diego (site)

 E. Epifanovsky,  A. T. B. Gilbert,  Xintian Feng,  Joonho Lee,  Yuezhi Mao,  
 N. Mardirossian,  P. Pokhilko,  A. White,  M. Wormit,  M. P. Coons,  
 A. L. Dempwolff,  Zhengting Gan,  D. Hait,  P. R. Horn,  L. D. Jacobson,  
 I. Kaliman,  J. Kussmann,  A. W. Lange,  Ka Un Lao,  D. S. Levine,  Jie Liu,  
 S. C. McKenzie,  A. F. Morrison,  K. Nanda,  F. Plasser,  D. R. Rehn,  
 M. L. Vidal,  Zhi-Qiang You,  Ying Zhu,  B. Alam,  B. Albrecht,  
 A. Aldossary,  E. Alguire,  J. H. Andersen,  D. Barton,  K. Begam,  A. Behn,  
 Y. A. Bernard,  E. J. Berquist,  H. Burton,  A. Carreras,  K. Carter-Fenk,  
 R. Chakraborty,  A. D. Chien,  K. D. Closser,  V. Cofer-Shabica,  
 S. Dasgupta,  Jia Deng,  M. de Wergifosse,  M. Diedenhofen,  Hainam Do,  
 S. Ehlert,  Po-Tung Fang,  S. Fatehi,  Qingguo Feng,  J. Gayvert,  
 Qinghui Ge,  G. Gidofalvi,  M. Goldey,  J. Gomes,  C. Gonzalez-Espinoza,  
 S. Gulania,  A. Gunina,  M. W. D. Hanson-Heine,  P. H. P. Harbach,  
 A. W. Hauser,  M. F. Herbst,  M. Hernandez Vera,  M. Hodecker,  
 Z. C. Holden,  S. Houck,  Xunkun Huang,  Kerwin Hui,  B. C. Huynh,  
 M. Ivanov,  Hyunjun Ji,  Hanjie Jiang,  B. Kaduk,  S. Kaehler,  
 K. Khistyaev,  Jaehoon Kim,  P. Klunzinger,  Z. Koczor-Benda,  
 Joong Hoon Koh,  D. Kosenkov,  L. Koulias,  T. Kowalczyk,  C. M. Krauter,  
 K. Kue,  A. Kunitsa,  T. Kus,  A. Landau,  K. V. Lawler,  D. Lefrancois,  
 S. Lehtola,  Rain Li,  Yi-Pei Li,  Jiashu Liang,  M. Liebenthal,  
 Hung-Hsuan Lin,  You-Sheng Lin,  Fenglai Liu,  Kuan-Yu Liu,  
 M. Loipersberger,  A. Luenser,  A. Manjanath,  P. Manohar,  E. Mansoor,  
 S. F. Manzer,  Shan-Ping Mao,  A. V. Marenich,  T. Markovich,  S. Mason,  
 S. A. Maurer,  P. F. McLaughlin,  M. F. S. J. Menger,  J.-M. Mewes,  
 S. A. Mewes,  P. Morgante,  J. W. Mullinax,  T. S. Nguyen-Beck,  
 K. J. Oosterbaan,  G. Paran,  Alexander C. Paul,  Suranjan K. Paul,  
 F. Pavosevic,  Zheng Pei,  S. Prager,  E. I. Proynov,  E. Ramos,  B. Rana,  
 A. E. Rask,  A. Rettig,  R. M. Richard,  F. Rob,  E. Rossomme,  T. Scheele,  
 M. Scheurer,  M. Schneider,  N. Sergueev,  S. M. Sharada,  W. Skomorowski,  
 D. W. Small,  C. J. Stein,  Yu-Chuan Su,  E. J. Sundstrom,  Zhen Tao,  
 J. Thirman,  T. Tsuchimochi,  N. M. Tubman,  S. P. Veccham,  O. Vydrov,  
 J. Wenzel,  J. Witte,  A. Yamada,  Kun Yao,  S. Yeganeh,  S. R. Yost,  
 A. Zech,  Igor Ying Zhang,  Xing Zhang,  Yu Zhang,  D. Zuev,  
 A. Aspuru-Guzik,  A. T. Bell,  N. A. Besley,  K. B. Bravaya,  B. R. Brooks,  
 D. Casanova,  Jeng-Da Chai,  S. Coriani,  C. J. Cramer,  
 A. E. DePrince, III,  R. A. DiStasio Jr.,  A. Dreuw,  B. D. Dunietz,  
 T. R. Furlani,  W. A. Goddard III,  S. Grimme,  S. Hammes-Schiffer,  
 T. Head-Gordon,  W. J. Hehre,  Chao-Ping Hsu,  T.-C. Jagau,  Yousung Jung,  
 A. Klamt,  Jing Kong,  D. S. Lambrecht,  WanZhen Liang,  N. J. Mayhall,  
 C. W. McCurdy,  J. B. Neaton,  C. Ochsenfeld,  J. A. Parkhill,  R. Peverati,  
 V. A. Rassolov,  Yihan Shao,  L. V. Slipchenko,  T. Stauch,  R. P. Steele,  
 J. E. Subotnik,  A. J. W. Thom,  A. Tkatchenko,  D. G. Truhlar,  
 T. Van Voorhis,  T. A. Wesolowski,  K. B. Whaley,  H. L. Woodcock III,  
 P. M. Zimmerman,  S. Faraji,  P. M. W. Gill,  M. Head-Gordon,  
 J. M. Herbert,  A. I. Krylov

 Contributors to earlier versions of Q-Chem not listed above: 
 R. D. Adamson,  B. Austin,  R. Baer,  J. Baker,  G. J. O. Beran,  
 K. Brandhorst,  S. T. Brown,  E. F. C. Byrd,  A. K. Chakraborty,  
 G. K. L. Chan,  Chun-Min Chang,  Yunqing Chen,  C.-L. Cheng,  
 Siu Hung Chien,  D. M. Chipman,  D. L. Crittenden,  H. Dachsel,  
 R. J. Doerksen,  A. D. Dutoi,  R. G. Edgar,  J. Fosso-Tande,  
 L. Fusti-Molnar,  D. Ghosh,  A. Ghysels,  A. Golubeva-Zadorozhnaya,  
 J. Gonthier,  M. S. Gordon,  S. R. Gwaltney,  G. Hawkins,  J. E. Herr,  
 A. Heyden,  S. Hirata,  E. G. Hohenstein,  G. Kedziora,  F. J. Keil,  
 C. Kelley,  Jihan Kim,  R. A. King,  R. Z. Khaliullin,  P. P. Korambath,  
 W. Kurlancheek,  A. Laurent,  A. M. Lee,  M. S. Lee,  S. V. Levchenko,  
 Ching Yeh Lin,  D. Liotard,  E. Livshits,  R. C. Lochan,  I. Lotan,  
 L. A. Martinez-Martinez,  P. E. Maslen,  N. Nair,  D. P. O'Neill,  
 D. Neuhauser,  E. Neuscamman,  C. M. Oana,  R. Olivares-Amaya,  R. Olson,  
 T. M. Perrine,  B. Peters,  P. A. Pieniazek,  A. Prociuk,  Y. M. Rhee,  
 J. Ritchie,  M. A. Rohrdanz,  E. Rosta,  N. J. Russ,  H. F. Schaefer III,  
 M. W. Schmidt,  N. E. Schultz,  S. Sharma,  N. Shenvi,  C. D. Sherrill,  
 A. C. Simmonett,  A. Sodt,  T. Stein,  D. Stuck,  K. S. Thanthiriwatte,  
 V. Vanovschi,  L. Vogt,  Tao Wang,  A. Warshel,  M. A. Watson,  
 C. F. Williams,  Q. Wu,  X. Xu,  Jun Yang,  W. Zhang,  Yan Zhao

 Please cite Q-Chem as follows:
 Y. Shao et al., Mol. Phys. 113, 184-215 (2015)
 DOI: 10.1080/00268976.2014.952696

 Q-Chem 5.4.0 for Intel X86 EM64T Linux

 Parts of Q-Chem use Armadillo 9.800.1 (Horizon Scraper).
 http://arma.sourceforge.net/

 Q-Chem begins on Tue Jan  9 10:26:48 2024  

 Host: 
0

     Scratch files written to ./qchem1276798//
 May1621 |scratch|qcdevops|jenkins|workspace|build_RNUM    
 Parallel job on  1  processors
 Processing $rem in /cm/shared/apps/spack/cpu/opt/spack/linux-centos8-zen2/gcc-10.2.0/qchem-5.4-akfmr7b3t57bfs6qan3padb2wnb2i7cl/config/preferences:
 Processing $rem in /home/rramji/.qchemrc:
 Symmetry turned off for PCM/SM12/SMD calculation
 Core orbitals will be frozen

 Checking the input file for inconsistencies... 	...done.

 Q-Chem warning in module forms1/BasisType.C, line 2236:

 You are not using the predefined 5D/6D in this basis set.


--------------------------------------------------------------
User input:
--------------------------------------------------------------
$molecule
0 1
C	-0.441647	-0.893839	0.976939
S	-0.058847	-0.074039	2.484439
C	0.605053	1.351461	1.695839
C	-0.058747	-0.074439	-0.090961
C	0.526653	1.186461	0.290539
S	-0.159047	-0.296439	-1.828561
C	0.576153	1.293461	-2.077561
C	0.873353	1.936461	-0.885661
F	1.433853	3.149961	-0.842161
C	0.767253	1.698761	-3.479161
O	0.449153	0.997661	-4.429561
O	1.331253	2.925861	-3.592261
C	1.545253	3.372361	-4.939261
H	2.004153	4.373161	-4.856161
H	0.586453	3.429561	-5.493261
H	2.219453	2.679661	-5.482361
C	-0.441647	-2.329039	0.976939
H	0.570653	-2.337039	0.600539
H	-0.153847	-3.006939	1.766839
H	-0.769547	-2.860139	0.095539
H	0.994353	2.189761	2.283439
$end

$rem
JOBTYPE		SP
EXCHANGE	HF
CORRELATION	pRIMP2
BASIS		cc-pvtz
METHOD		rimp2
AUX_BASIS	rimp2-cc-pvtz
SOLVENT_METHOD	PCM
PURECART	11111
SYMMETRY	false
MEM_TOTAL	110000
SCF_CONVERGENCE = 6
THRESH=10
GUI = 2
$end



$solvent
dielectric 4.90
$end
--------------------------------------------------------------
 ----------------------------------------------------------------
             Standard Nuclear Orientation (Angstroms)
    I     Atom           X                Y                Z
 ----------------------------------------------------------------
    1      C      -0.4416470000    -0.8938390000     0.9769390000
    2      S      -0.0588470000    -0.0740390000     2.4844390000
    3      C       0.6050530000     1.3514610000     1.6958390000
    4      C      -0.0587470000    -0.0744390000    -0.0909610000
    5      C       0.5266530000     1.1864610000     0.2905390000
    6      S      -0.1590470000    -0.2964390000    -1.8285610000
    7      C       0.5761530000     1.2934610000    -2.0775610000
    8      C       0.8733530000     1.9364610000    -0.8856610000
    9      F       1.4338530000     3.1499610000    -0.8421610000
   10      C       0.7672530000     1.6987610000    -3.4791610000
   11      O       0.4491530000     0.9976610000    -4.4295610000
   12      O       1.3312530000     2.9258610000    -3.5922610000
   13      C       1.5452530000     3.3723610000    -4.9392610000
   14      H       2.0041530000     4.3731610000    -4.8561610000
   15      H       0.5864530000     3.4295610000    -5.4932610000
   16      H       2.2194530000     2.6796610000    -5.4823610000
   17      C      -0.4416470000    -2.3290390000     0.9769390000
   18      H       0.5706530000    -2.3370390000     0.6005390000
   19      H      -0.1538470000    -3.0069390000     1.7668390000
   20      H      -0.7695470000    -2.8601390000     0.0955390000
   21      H       0.9943530000     2.1897610000     2.2834390000
 ----------------------------------------------------------------
 Nuclear Repulsion Energy =        1085.19150612 hartrees
 There are       59 alpha and       59 beta electrons
 Requested basis set is cc-pVTZ
 There are 186 shells and 526 basis functions

 Total QAlloc Memory Limit 110000 MB
 Mega-Array Size       188 MB
 MEM_STATIC part       192 MB
 Discretize the solute cavity surface with Lebedev spheres
	Using 110 Lebedev grid points for each H atom
	Using 194 Lebedev grid points for other atoms
	Atomic van der Waals radii will be scaled by 1.20
 Remove points where switching function is < 1.0e-08
 Keep 1555 surface tesserae and discard 1931 interior tesserae
 Molecular Surface Area = 242.682 Angst**2
 Requested basis set is rimp2-cc-pVTZ
 There are 410 shells and 1426 basis functions
 A cutoff of  1.0D-10 yielded  11578 shell pairs
 There are     90850 function pairs (    118894 Cartesian)
 Smallest overlap matrix eigenvalue = 6.34E-05

 Scale SEOQF with 1.000000e-01/1.000000e-01/1.000000e-02

 Standard Electronic Orientation quadrupole field applied
 Nucleus-field energy     =     0.0000000234 hartrees
 Guess from superposition of atomic densities
 Warning:  Energy on first SCF cycle will be non-variational
 SAD guess density has 118.000000 electrons

 -----------------------------------------------------------------------
  General SCF calculation program by
  Eric Jon Sundstrom, Paul Horn, Yuezhi Mao, Dmitri Zuev, Alec White,
  David Stuck, Shaama M.S., Shane Yost, Joonho Lee, David Small,
  Daniel Levine, Susi Lehtola, Hugh Burton, Evgeny Epifanovsky,
  Bang C. Huynh
 -----------------------------------------------------------------------
 Hartree-Fock
 using 64 threads for integral computing
 -------------------------------------------------------
 OpenMP Integral computing Module                
 Release: version 1.0, May 2013, Q-Chem Inc. Pittsburgh 
 -------------------------------------------------------
 A restricted SCF calculation will be
 performed using DIIS
 SCF converges when DIIS error is below 1.0e-06
 ---------------------------------------
  Cycle       Energy         DIIS error
 ---------------------------------------
    1   -1394.2558538213      2.47e-02  
    2   -1389.0264568520      2.47e-03  
    3   -1389.1959690558      1.53e-03  
    4   -1389.2550236702      3.53e-04  
    5   -1389.2607728473      1.12e-04  
    6   -1389.2614514815      3.64e-05  
    7   -1389.2615996888      1.83e-05  
    8   -1389.2616515015      7.15e-06  
    9   -1389.2616626615      3.09e-06  
   10   -1389.2616641876      1.17e-06  
   11   -1389.2616644244      5.12e-07  Convergence criterion met
 ---------------------------------------
 SCF time:   CPU 1723.32s  wall 52.00s 

************** Final PCM Free Energy Summary **************
 G_electrostatic  =      -0.01219831 hartree =      -7.65455525 kcal/mol
 G_cavitation     =       0.00000000 hartree =       0.00000000 kcal/mol
 G_dispersion     =       0.00000000 hartree =       0.00000000 kcal/mol
 G_repulsion      =       0.00000000 hartree =       0.00000000 kcal/mol
 --------------------------------------------------
 Non-electrostatic Free Energy =       0.00000000 hartree =       0.00000000 kcal/mol
 Total                         =      -0.01219831 hartree =      -7.65455525 kcal/mol
 --------------------------------------------------
 SCF Energy (H0 + V/2)                       =   -1389.26166442 
 Solute Internal Energy (H0)                 =   -1389.24946611 
 Total Free Energy (H0 + V/2 + non-elec)     =   -1389.26166442 hartree
                                             = -871774.85212353 kcal/mol
***********************************************************

 SCF   energy in the final basis set =    -1389.2616644244
 Total energy in the final basis set =    -1389.2616644244


 --------------------------------------------------------------
  Generalized many-body perturbation theory program
  by Joonho Lee, Fazle Rob, Xintian Feng, Evgeny Epifanovsky

 No regularization used 
 (reg. param. = 0.0000e+00)
  (P|Q)^-1/2 Time:  CPU 27.59 s  wall 0.44 s

 In RI-MP2 calculation: 
 # of frozen core orbitals: 22

 Components of the RIMP2 correlation energy:
        aaaa    correlation energy =        -0.3288397636 a.u.
        abab    correlation energy =        -1.8496848302 a.u.
        bbbb    correlation energy =        -0.3288397636 a.u.
        non-Brillouin singles      =        -0.0000000000 a.u.
        total same-spin energy     =        -0.6576795272 a.u.
        total opposite-spin energy =        -1.8496848302 a.u.

 Total  RIMP2   correlation energy =        -2.5073643574 a.u.
        RIMP2         total energy =     -1391.7690287818 a.u.

 RI-MP2 Energy Time:  CPU 189.63 s  wall 3.55 s
 
 --------------------------------------------------------------
 
                    Orbital Energies (a.u.)
 --------------------------------------------------------------
 
 Alpha MOs
 -- Occupied --
-92.0061 -91.9926 -26.3404 -20.6136 -20.5597 -11.4076 -11.3784 -11.2998
-11.2947 -11.2939 -11.2882 -11.2817 -11.2792 -11.2298  -9.0049  -8.9927
 -6.6857  -6.6851  -6.6846  -6.6737  -6.6730  -6.6719  -1.6576  -1.4660
 -1.3686  -1.2131  -1.1377  -1.0678  -1.0184  -0.9943  -0.9581  -0.9115
 -0.8633  -0.8046  -0.7885  -0.7588  -0.7304  -0.7225  -0.6930  -0.6834
 -0.6727  -0.6602  -0.6113  -0.5952  -0.5934  -0.5835  -0.5617  -0.5611
 -0.5308  -0.5264  -0.5107  -0.4995  -0.4724  -0.4715  -0.4697  -0.4614
 -0.3832  -0.3445  -0.2821
 -- Virtual --
  0.0409   0.1129   0.1390   0.1528   0.1576   0.1750   0.1861   0.1934
  0.2076   0.2151   0.2167   0.2259   0.2295   0.2438   0.2567   0.2692
  0.2878   0.3079   0.3258   0.3350   0.3424   0.3513   0.3752   0.3800
  0.3854   0.4018   0.4096   0.4121   0.4185   0.4330   0.4379   0.4420
  0.4601   0.4670   0.4769   0.4829   0.4942   0.5036   0.5091   0.5140
  0.5273   0.5385   0.5439   0.5479   0.5554   0.5601   0.5644   0.5715
  0.5885   0.5967   0.6018   0.6104   0.6152   0.6166   0.6237   0.6252
  0.6370   0.6375   0.6593   0.6664   0.6724   0.6833   0.6971   0.7062
  0.7195   0.7244   0.7264   0.7392   0.7491   0.7613   0.7789   0.7986
  0.8111   0.8155   0.8280   0.8462   0.8520   0.8630   0.8700   0.8809
  0.8827   0.8898   0.9018   0.9270   0.9366   0.9549   0.9640   0.9750
  0.9837   0.9980   1.0017   1.0207   1.0282   1.0403   1.0456   1.0567
  1.0682   1.0773   1.0864   1.0977   1.0994   1.1091   1.1143   1.1150
  1.1291   1.1510   1.1560   1.1593   1.1767   1.1858   1.2032   1.2138
  1.2227   1.2301   1.2481   1.2552   1.2642   1.2796   1.2917   1.2967
  1.3128   1.3281   1.3339   1.3521   1.3714   1.3894   1.3951   1.4101
  1.4207   1.4332   1.4360   1.4555   1.4772   1.4865   1.5007   1.5055
  1.5117   1.5302   1.5362   1.5425   1.5466   1.5747   1.5767   1.5876
  1.6209   1.6278   1.6475   1.6607   1.6731   1.6982   1.7177   1.7310
  1.7548   1.7853   1.8050   1.8085   1.8242   1.8287   1.8355   1.8673
  1.8707   1.8788   1.8991   1.9243   1.9347   1.9413   1.9596   1.9631
  1.9859   2.0056   2.0155   2.0525   2.0649   2.0731   2.0910   2.0991
  2.1426   2.1552   2.1734   2.1906   2.2009   2.2121   2.2209   2.2323
  2.2390   2.2475   2.2606   2.2683   2.2957   2.3064   2.3306   2.3524
  2.3531   2.3720   2.3921   2.4061   2.4284   2.4398   2.4810   2.4900
  2.5033   2.5277   2.5494   2.5575   2.5750   2.5917   2.5997   2.6292
  2.6422   2.6469   2.6545   2.6812   2.6870   2.6961   2.7021   2.7084
  2.7390   2.7519   2.7792   2.7825   2.7919   2.8015   2.8112   2.8252
  2.8366   2.8517   2.8702   2.8810   2.8936   2.9352   2.9486   2.9548
  2.9609   2.9758   2.9971   3.0108   3.0238   3.0272   3.0398   3.0642
  3.0800   3.0856   3.1001   3.1020   3.1135   3.1254   3.1296   3.1385
  3.1473   3.1596   3.2009   3.2078   3.2183   3.2318   3.2358   3.2410
  3.2561   3.2724   3.2771   3.2830   3.2963   3.3050   3.3184   3.3337
  3.3399   3.3487   3.3620   3.3713   3.3856   3.3930   3.4011   3.4249
  3.4289   3.4370   3.4493   3.4536   3.4622   3.4732   3.4794   3.4849
  3.4975   3.5143   3.5294   3.5411   3.5499   3.5605   3.5652   3.5842
  3.5894   3.5924   3.6016   3.6097   3.6253   3.6377   3.6404   3.6569
  3.6684   3.6835   3.6919   3.7026   3.7075   3.7140   3.7250   3.7361
  3.7548   3.7750   3.7940   3.7993   3.8035   3.8161   3.8200   3.8350
  3.8461   3.8732   3.8767   3.8837   3.8972   3.9080   3.9248   3.9358
  3.9550   3.9608   3.9851   3.9954   4.0052   4.0260   4.0285   4.0538
  4.0689   4.0789   4.0996   4.1109   4.1312   4.1557   4.1634   4.1682
  4.1739   4.2064   4.2216   4.2560   4.2706   4.2825   4.3074   4.3319
  4.3425   4.3595   4.3692   4.3770   4.4071   4.4257   4.4326   4.4362
  4.4576   4.4757   4.5132   4.5258   4.5389   4.5653   4.5800   4.5847
  4.6171   4.6305   4.6361   4.6636   4.6682   4.6795   4.7298   4.7404
  4.7709   4.7830   4.7988   4.8477   4.8644   4.8693   4.8883   4.9156
  4.9335   4.9824   5.0096   5.0226   5.0501   5.0624   5.1055   5.1162
  5.1351   5.1477   5.2022   5.2530   5.2568   5.2653   5.3222   5.3538
  5.3565   5.3938   5.4072   5.4270   5.4574   5.4856   5.4898   5.5269
  5.5443   5.5810   5.6019   5.6230   5.6393   5.6638   5.7352   5.7559
  5.8077   5.8087   5.8313   5.8835   5.9104   5.9305   5.9551   6.0415
  6.0431   6.0662   6.1513   6.1703   6.1956   6.2624   6.2779   6.3862
  6.4514   6.4601   6.5386   6.6022   6.6621   6.6727   6.7475   6.8311
  6.8609   6.9793   7.2051   7.2060   7.3112   7.3653   7.3657   7.4070
  7.4145   7.4883   7.5230   7.5514   7.6158   7.7757   7.7891   7.8895
  7.9508   8.1343   8.1796   8.9246   9.0155   9.3655   9.4685   9.6500
 10.1054  11.0875  11.6155  11.8108  12.4106  12.9222  13.0811  13.3874
 13.7748  14.0317  14.4067
 --------------------------------------------------------------
 
          Ground-State Mulliken Net Atomic Charges

     Atom                 Charge (a.u.)
  ----------------------------------------
      1 C                     0.032142
      2 S                     0.083810
      3 C                    -0.227914
      4 C                    -0.036194
      5 C                    -0.082492
      6 S                    -0.009198
      7 C                    -0.153987
      8 C                     0.387860
      9 F                    -0.208431
     10 C                     0.447333
     11 O                    -0.462034
     12 O                    -0.300866
     13 C                    -0.058507
     14 H                     0.121149
     15 H                     0.094848
     16 H                     0.094634
     17 C                    -0.389791
     18 H                     0.145612
     19 H                     0.166361
     20 H                     0.143853
     21 H                     0.211814
  ----------------------------------------
  Sum of atomic charges =     0.000000

 -----------------------------------------------------------------
                    Cartesian Multipole Moments
 -----------------------------------------------------------------
    Charge (ESU x 10^10)
                -0.0000
    Dipole Moment (Debye)
         X       1.4722      Y       0.0191      Z       2.9963
       Tot       3.3385
    Quadrupole Moments (Debye-Ang)
        XX     -95.6974     XY       2.8937     YY     -82.9382
        XZ      -2.7555     YZ      -9.3196     ZZ     -96.7320
    Octopole Moments (Debye-Ang^2)
       XXX    -109.2369    XXY     -68.5455    XYY     -28.5706
       YYY    -220.2291    XXZ      72.8165    XYZ     -15.8657
       YYZ      54.9197    XZZ      -3.4184    YZZ      -3.5817
       ZZZ     271.2696
    Hexadecapole Moments (Debye-Ang^3)
      XXXX    -436.5209   XXXY    -357.0689   XXYY    -374.7268
      XYYY    -333.2177   YYYY   -1762.9763   XXXZ     327.3657
      XXYZ     234.7137   XYYZ      63.8998   YYYZ     638.9808
      XXZZ    -631.2125   XYZZ       8.7941   YYZZ    -633.7567
      XZZZ     203.2408   YZZZ     471.6354   ZZZZ   -3702.4245
 -----------------------------------------------------------------
 Total job time:  60.02s(wall), 2017.16s(cpu) 
 Tue Jan  9 10:27:48 2024

        *************************************************************
        *                                                           *
        *  Thank you very much for using Q-Chem.  Have a nice day.  *
        *                                                           *
        *************************************************************


0 sent ACK to 0 
now end server 0 ... 
cleanup process ... done
remove work dirs ./qchem1276798.0 -- ./qchem1276798.0
rm -rf ./qchem1276798.0
rm -rf ./qchem1276798
