You are running Q-Chem version: 5.4.0

#
# job setting
#
local host:  exp-3-18
current dir: /home/rramji/project-csd799/aromodel/ptb7fout-qchem/methylated-rotation-run
input file:  Dimethoxy_Benzodithiophene_Phi_10_Theta_300_Methylcarbonyl_3_Fluoro_Thienothiophene_Hydrogenated_Improper.qcin
output file: 
nprocs     : 1
nthreads   : 64
#
# qchem installation setting
#
QC:          /cm/shared/apps/spack/cpu/opt/spack/linux-centos8-zen2/gcc-10.2.0/qchem-5.4-akfmr7b3t57bfs6qan3padb2wnb2i7cl
QCAUX:       /cm/shared/apps/spack/cpu/opt/spack/linux-centos8-zen2/gcc-10.2.0/qchem-5.4-akfmr7b3t57bfs6qan3padb2wnb2i7cl/qcaux
QCPROG:      /cm/shared/apps/spack/cpu/opt/spack/linux-centos8-zen2/gcc-10.2.0/qchem-5.4-akfmr7b3t57bfs6qan3padb2wnb2i7cl/exe/qcprog.exe
QCPROG_S:    /cm/shared/apps/spack/cpu/opt/spack/linux-centos8-zen2/gcc-10.2.0/qchem-5.4-akfmr7b3t57bfs6qan3padb2wnb2i7cl/exe/qcprog.exe_s
PARALLEL:    -DPARALLEL
QCMPI:       mpich
#
# qchem directory setting
#
qcrun:       qchem800416
QCSCRATCH:   .
QCLOCALSCR:  
QCTMPDIR:    .
QCFILEPREF:  ./qchem800416
QCSAVEDIR:   
workdirs:    ./qchem800416
workdir0:    ./qchem800416
partmpdirs =  
#
# parallel setting
#
QCRSH:           ssh
QCMPI:           mpich
QCMPIRUN:        /cm/shared/apps/spack/cpu/opt/spack/linux-centos8-zen2/gcc-10.2.0/qchem-5.4-akfmr7b3t57bfs6qan3padb2wnb2i7cl/bin/mpi/mpirun_qchem
QCMACHINEFILE:   ./qchem800416/hostfile
exp-3-18

#
# env setting
#
exported envs:   QC QCAUX QCSCRATCH QCRUNNAME QCFILEPREF QCPROG QCPROG_S GUIFILE

Running Job 1 of 1 Dimethoxy_Benzodithiophene_Phi_10_Theta_300_Methylcarbonyl_3_Fluoro_Thienothiophene_Hydrogenated_Improper.qcin
qchem Dimethoxy_Benzodithiophene_Phi_10_Theta_300_Methylcarbonyl_3_Fluoro_Thienothiophene_Hydrogenated_Improper.qcin_800416.0 ./qchem800416/ 1
/cm/shared/apps/spack/cpu/opt/spack/linux-centos8-zen2/gcc-10.2.0/qchem-5.4-akfmr7b3t57bfs6qan3padb2wnb2i7cl/bin/mpi/mpirun_qchem -machinefile ./qchem800416/hostfile -np 1 /cm/shared/apps/spack/cpu/opt/spack/linux-centos8-zen2/gcc-10.2.0/qchem-5.4-akfmr7b3t57bfs6qan3padb2wnb2i7cl/exe/qcprog.exe Dimethoxy_Benzodithiophene_Phi_10_Theta_300_Methylcarbonyl_3_Fluoro_Thienothiophene_Hydrogenated_Improper.qcin_800416.0 ./qchem800416/

Process 0 of 1 is on exp-3-18 - thread support 0
initial socket setup ...start
initial socket setup ...done 
now start server 0 ... 
                  Welcome to Q-Chem
     A Quantum Leap Into The Future Of Chemistry


 Q-Chem 5.4, Q-Chem, Inc., Pleasanton, CA (2021)

 License issued to: University of California, San Diego (site)

 E. Epifanovsky,  A. T. B. Gilbert,  Xintian Feng,  Joonho Lee,  Yuezhi Mao,  
 N. Mardirossian,  P. Pokhilko,  A. White,  M. Wormit,  M. P. Coons,  
 A. L. Dempwolff,  Zhengting Gan,  D. Hait,  P. R. Horn,  L. D. Jacobson,  
 I. Kaliman,  J. Kussmann,  A. W. Lange,  Ka Un Lao,  D. S. Levine,  Jie Liu,  
 S. C. McKenzie,  A. F. Morrison,  K. Nanda,  F. Plasser,  D. R. Rehn,  
 M. L. Vidal,  Zhi-Qiang You,  Ying Zhu,  B. Alam,  B. Albrecht,  
 A. Aldossary,  E. Alguire,  J. H. Andersen,  D. Barton,  K. Begam,  A. Behn,  
 Y. A. Bernard,  E. J. Berquist,  H. Burton,  A. Carreras,  K. Carter-Fenk,  
 R. Chakraborty,  A. D. Chien,  K. D. Closser,  V. Cofer-Shabica,  
 S. Dasgupta,  Jia Deng,  M. de Wergifosse,  M. Diedenhofen,  Hainam Do,  
 S. Ehlert,  Po-Tung Fang,  S. Fatehi,  Qingguo Feng,  J. Gayvert,  
 Qinghui Ge,  G. Gidofalvi,  M. Goldey,  J. Gomes,  C. Gonzalez-Espinoza,  
 S. Gulania,  A. Gunina,  M. W. D. Hanson-Heine,  P. H. P. Harbach,  
 A. W. Hauser,  M. F. Herbst,  M. Hernandez Vera,  M. Hodecker,  
 Z. C. Holden,  S. Houck,  Xunkun Huang,  Kerwin Hui,  B. C. Huynh,  
 M. Ivanov,  Hyunjun Ji,  Hanjie Jiang,  B. Kaduk,  S. Kaehler,  
 K. Khistyaev,  Jaehoon Kim,  P. Klunzinger,  Z. Koczor-Benda,  
 Joong Hoon Koh,  D. Kosenkov,  L. Koulias,  T. Kowalczyk,  C. M. Krauter,  
 K. Kue,  A. Kunitsa,  T. Kus,  A. Landau,  K. V. Lawler,  D. Lefrancois,  
 S. Lehtola,  Rain Li,  Yi-Pei Li,  Jiashu Liang,  M. Liebenthal,  
 Hung-Hsuan Lin,  You-Sheng Lin,  Fenglai Liu,  Kuan-Yu Liu,  
 M. Loipersberger,  A. Luenser,  A. Manjanath,  P. Manohar,  E. Mansoor,  
 S. F. Manzer,  Shan-Ping Mao,  A. V. Marenich,  T. Markovich,  S. Mason,  
 S. A. Maurer,  P. F. McLaughlin,  M. F. S. J. Menger,  J.-M. Mewes,  
 S. A. Mewes,  P. Morgante,  J. W. Mullinax,  T. S. Nguyen-Beck,  
 K. J. Oosterbaan,  G. Paran,  Alexander C. Paul,  Suranjan K. Paul,  
 F. Pavosevic,  Zheng Pei,  S. Prager,  E. I. Proynov,  E. Ramos,  B. Rana,  
 A. E. Rask,  A. Rettig,  R. M. Richard,  F. Rob,  E. Rossomme,  T. Scheele,  
 M. Scheurer,  M. Schneider,  N. Sergueev,  S. M. Sharada,  W. Skomorowski,  
 D. W. Small,  C. J. Stein,  Yu-Chuan Su,  E. J. Sundstrom,  Zhen Tao,  
 J. Thirman,  T. Tsuchimochi,  N. M. Tubman,  S. P. Veccham,  O. Vydrov,  
 J. Wenzel,  J. Witte,  A. Yamada,  Kun Yao,  S. Yeganeh,  S. R. Yost,  
 A. Zech,  Igor Ying Zhang,  Xing Zhang,  Yu Zhang,  D. Zuev,  
 A. Aspuru-Guzik,  A. T. Bell,  N. A. Besley,  K. B. Bravaya,  B. R. Brooks,  
 D. Casanova,  Jeng-Da Chai,  S. Coriani,  C. J. Cramer,  
 A. E. DePrince, III,  R. A. DiStasio Jr.,  A. Dreuw,  B. D. Dunietz,  
 T. R. Furlani,  W. A. Goddard III,  S. Grimme,  S. Hammes-Schiffer,  
 T. Head-Gordon,  W. J. Hehre,  Chao-Ping Hsu,  T.-C. Jagau,  Yousung Jung,  
 A. Klamt,  Jing Kong,  D. S. Lambrecht,  WanZhen Liang,  N. J. Mayhall,  
 C. W. McCurdy,  J. B. Neaton,  C. Ochsenfeld,  J. A. Parkhill,  R. Peverati,  
 V. A. Rassolov,  Yihan Shao,  L. V. Slipchenko,  T. Stauch,  R. P. Steele,  
 J. E. Subotnik,  A. J. W. Thom,  A. Tkatchenko,  D. G. Truhlar,  
 T. Van Voorhis,  T. A. Wesolowski,  K. B. Whaley,  H. L. Woodcock III,  
 P. M. Zimmerman,  S. Faraji,  P. M. W. Gill,  M. Head-Gordon,  
 J. M. Herbert,  A. I. Krylov

 Contributors to earlier versions of Q-Chem not listed above: 
 R. D. Adamson,  B. Austin,  R. Baer,  J. Baker,  G. J. O. Beran,  
 K. Brandhorst,  S. T. Brown,  E. F. C. Byrd,  A. K. Chakraborty,  
 G. K. L. Chan,  Chun-Min Chang,  Yunqing Chen,  C.-L. Cheng,  
 Siu Hung Chien,  D. M. Chipman,  D. L. Crittenden,  H. Dachsel,  
 R. J. Doerksen,  A. D. Dutoi,  R. G. Edgar,  J. Fosso-Tande,  
 L. Fusti-Molnar,  D. Ghosh,  A. Ghysels,  A. Golubeva-Zadorozhnaya,  
 J. Gonthier,  M. S. Gordon,  S. R. Gwaltney,  G. Hawkins,  J. E. Herr,  
 A. Heyden,  S. Hirata,  E. G. Hohenstein,  G. Kedziora,  F. J. Keil,  
 C. Kelley,  Jihan Kim,  R. A. King,  R. Z. Khaliullin,  P. P. Korambath,  
 W. Kurlancheek,  A. Laurent,  A. M. Lee,  M. S. Lee,  S. V. Levchenko,  
 Ching Yeh Lin,  D. Liotard,  E. Livshits,  R. C. Lochan,  I. Lotan,  
 L. A. Martinez-Martinez,  P. E. Maslen,  N. Nair,  D. P. O'Neill,  
 D. Neuhauser,  E. Neuscamman,  C. M. Oana,  R. Olivares-Amaya,  R. Olson,  
 T. M. Perrine,  B. Peters,  P. A. Pieniazek,  A. Prociuk,  Y. M. Rhee,  
 J. Ritchie,  M. A. Rohrdanz,  E. Rosta,  N. J. Russ,  H. F. Schaefer III,  
 M. W. Schmidt,  N. E. Schultz,  S. Sharma,  N. Shenvi,  C. D. Sherrill,  
 A. C. Simmonett,  A. Sodt,  T. Stein,  D. Stuck,  K. S. Thanthiriwatte,  
 V. Vanovschi,  L. Vogt,  Tao Wang,  A. Warshel,  M. A. Watson,  
 C. F. Williams,  Q. Wu,  X. Xu,  Jun Yang,  W. Zhang,  Yan Zhao

 Please cite Q-Chem as follows:
 Y. Shao et al., Mol. Phys. 113, 184-215 (2015)
 DOI: 10.1080/00268976.2014.952696

 Q-Chem 5.4.0 for Intel X86 EM64T Linux

 Parts of Q-Chem use Armadillo 9.800.1 (Horizon Scraper).
 http://arma.sourceforge.net/

 Q-Chem begins on Tue Jan  9 10:29:45 2024  

 Host: 
0

     Scratch files written to ./qchem800416//
 May1621 |scratch|qcdevops|jenkins|workspace|build_RNUM    
 Parallel job on  1  processors
 Processing $rem in /cm/shared/apps/spack/cpu/opt/spack/linux-centos8-zen2/gcc-10.2.0/qchem-5.4-akfmr7b3t57bfs6qan3padb2wnb2i7cl/config/preferences:
 Processing $rem in /home/rramji/.qchemrc:
 Symmetry turned off for PCM/SM12/SMD calculation
 Core orbitals will be frozen

 Checking the input file for inconsistencies... 	...done.

 Q-Chem warning in module forms1/BasisType.C, line 2236:

 You are not using the predefined 5D/6D in this basis set.


--------------------------------------------------------------
User input:
--------------------------------------------------------------
$molecule
0 1
C	-0.181355	-0.975447	0.978067
S	-0.023755	-0.084547	2.485567
C	0.248545	1.464253	1.696967
C	-0.023555	-0.084847	-0.089833
C	0.215545	1.284553	0.291667
S	-0.063055	-0.325247	-1.827433
C	0.235645	1.400753	-2.076433
C	0.356245	2.098753	-0.884533
F	0.583645	3.415953	-0.841033
C	0.315345	1.841653	-3.478033
O	0.189545	1.082153	-4.428433
O	0.542545	3.172953	-3.591133
C	0.633645	3.659653	-4.938133
H	0.817945	4.745153	-4.855033
H	-0.307255	3.466753	-5.492133
H	1.464145	3.165053	-5.481233
C	-0.181355	-2.410647	0.978067
H	0.352145	-2.418647	0.039067
H	0.546845	-3.088547	1.398167
H	-0.999055	-2.941747	0.513667
H	0.407645	2.374753	2.284567
$end

$rem
JOBTYPE		SP
EXCHANGE	HF
CORRELATION	pRIMP2
BASIS		cc-pvtz
METHOD		rimp2
AUX_BASIS	rimp2-cc-pvtz
SOLVENT_METHOD	PCM
PURECART	11111
SYMMETRY	false
MEM_TOTAL	110000
SCF_CONVERGENCE = 6
THRESH=10
GUI = 2
$end



$solvent
dielectric 4.90
$end
--------------------------------------------------------------
 ----------------------------------------------------------------
             Standard Nuclear Orientation (Angstroms)
    I     Atom           X                Y                Z
 ----------------------------------------------------------------
    1      C      -0.1813550000    -0.9754470000     0.9780670000
    2      S      -0.0237550000    -0.0845470000     2.4855670000
    3      C       0.2485450000     1.4642530000     1.6969670000
    4      C      -0.0235550000    -0.0848470000    -0.0898330000
    5      C       0.2155450000     1.2845530000     0.2916670000
    6      S      -0.0630550000    -0.3252470000    -1.8274330000
    7      C       0.2356450000     1.4007530000    -2.0764330000
    8      C       0.3562450000     2.0987530000    -0.8845330000
    9      F       0.5836450000     3.4159530000    -0.8410330000
   10      C       0.3153450000     1.8416530000    -3.4780330000
   11      O       0.1895450000     1.0821530000    -4.4284330000
   12      O       0.5425450000     3.1729530000    -3.5911330000
   13      C       0.6336450000     3.6596530000    -4.9381330000
   14      H       0.8179450000     4.7451530000    -4.8550330000
   15      H      -0.3072550000     3.4667530000    -5.4921330000
   16      H       1.4641450000     3.1650530000    -5.4812330000
   17      C      -0.1813550000    -2.4106470000     0.9780670000
   18      H       0.3521450000    -2.4186470000     0.0390670000
   19      H       0.5468450000    -3.0885470000     1.3981670000
   20      H      -0.9990550000    -2.9417470000     0.5136670000
   21      H       0.4076450000     2.3747530000     2.2845670000
 ----------------------------------------------------------------
 Nuclear Repulsion Energy =        1083.78061396 hartrees
 There are       59 alpha and       59 beta electrons
 Requested basis set is cc-pVTZ
 There are 186 shells and 526 basis functions

 Total QAlloc Memory Limit 110000 MB
 Mega-Array Size       188 MB
 MEM_STATIC part       192 MB
 Discretize the solute cavity surface with Lebedev spheres
	Using 110 Lebedev grid points for each H atom
	Using 194 Lebedev grid points for other atoms
	Atomic van der Waals radii will be scaled by 1.20
 Remove points where switching function is < 1.0e-08
 Keep 1564 surface tesserae and discard 1922 interior tesserae
 Molecular Surface Area = 241.921 Angst**2
 Requested basis set is rimp2-cc-pVTZ
 There are 410 shells and 1426 basis functions
 A cutoff of  1.0D-10 yielded  11570 shell pairs
 There are     90718 function pairs (    118704 Cartesian)
 Smallest overlap matrix eigenvalue = 5.90E-05

 Scale SEOQF with 1.000000e-01/1.000000e-01/1.000000e-02

 Standard Electronic Orientation quadrupole field applied
 Nucleus-field energy     =     0.0000000259 hartrees
 Guess from superposition of atomic densities
 Warning:  Energy on first SCF cycle will be non-variational
 SAD guess density has 118.000000 electrons

 -----------------------------------------------------------------------
  General SCF calculation program by
  Eric Jon Sundstrom, Paul Horn, Yuezhi Mao, Dmitri Zuev, Alec White,
  David Stuck, Shaama M.S., Shane Yost, Joonho Lee, David Small,
  Daniel Levine, Susi Lehtola, Hugh Burton, Evgeny Epifanovsky,
  Bang C. Huynh
 -----------------------------------------------------------------------
 Hartree-Fock
 using 64 threads for integral computing
 -------------------------------------------------------
 OpenMP Integral computing Module                
 Release: version 1.0, May 2013, Q-Chem Inc. Pittsburgh 
 -------------------------------------------------------
 A restricted SCF calculation will be
 performed using DIIS
 SCF converges when DIIS error is below 1.0e-06
 ---------------------------------------
  Cycle       Energy         DIIS error
 ---------------------------------------
    1   -1394.2465356182      2.47e-02  
    2   -1389.0349494576      2.47e-03  
    3   -1389.2044883366      1.54e-03  
    4   -1389.2641038191      3.53e-04  
    5   -1389.2698501783      1.12e-04  
    6   -1389.2705231391      3.61e-05  
    7   -1389.2706674884      1.81e-05  
    8   -1389.2707172948      7.02e-06  
    9   -1389.2707278328      2.99e-06  
   10   -1389.2707292439      1.12e-06  
   11   -1389.2707294524      4.72e-07  Convergence criterion met
 ---------------------------------------
 SCF time:   CPU 1692.70s  wall 52.00s 

************** Final PCM Free Energy Summary **************
 G_electrostatic  =      -0.01168268 hartree =      -7.33099054 kcal/mol
 G_cavitation     =       0.00000000 hartree =       0.00000000 kcal/mol
 G_dispersion     =       0.00000000 hartree =       0.00000000 kcal/mol
 G_repulsion      =       0.00000000 hartree =       0.00000000 kcal/mol
 --------------------------------------------------
 Non-electrostatic Free Energy =       0.00000000 hartree =       0.00000000 kcal/mol
 Total                         =      -0.01168268 hartree =      -7.33099054 kcal/mol
 --------------------------------------------------
 SCF Energy (H0 + V/2)                       =   -1389.27072945 
 Solute Internal Energy (H0)                 =   -1389.25904678 
 Total Free Energy (H0 + V/2 + non-elec)     =   -1389.27072945 hartree
                                             = -871780.54051444 kcal/mol
***********************************************************

 SCF   energy in the final basis set =    -1389.2707294524
 Total energy in the final basis set =    -1389.2707294524


 --------------------------------------------------------------
  Generalized many-body perturbation theory program
  by Joonho Lee, Fazle Rob, Xintian Feng, Evgeny Epifanovsky

 No regularization used 
 (reg. param. = 0.0000e+00)
  (P|Q)^-1/2 Time:  CPU 24.52 s  wall 0.39 s

 In RI-MP2 calculation: 
 # of frozen core orbitals: 22

 Components of the RIMP2 correlation energy:
        aaaa    correlation energy =        -0.3287167103 a.u.
        abab    correlation energy =        -1.8488359065 a.u.
        bbbb    correlation energy =        -0.3287167103 a.u.
        non-Brillouin singles      =        -0.0000000000 a.u.
        total same-spin energy     =        -0.6574334205 a.u.
        total opposite-spin energy =        -1.8488359065 a.u.

 Total  RIMP2   correlation energy =        -2.5062693270 a.u.
        RIMP2         total energy =     -1391.7769987794 a.u.

 RI-MP2 Energy Time:  CPU 174.76 s  wall 2.87 s
 
 --------------------------------------------------------------
 
                    Orbital Energies (a.u.)
 --------------------------------------------------------------
 
 Alpha MOs
 -- Occupied --
-92.0042 -91.9937 -26.3411 -20.6137 -20.5597 -11.4077 -11.3795 -11.2977
-11.2964 -11.2946 -11.2882 -11.2873 -11.2789 -11.2270  -9.0031  -8.9938
 -6.6839  -6.6833  -6.6829  -6.6749  -6.6742  -6.6731  -1.6582  -1.4660
 -1.3687  -1.2132  -1.1356  -1.0680  -1.0186  -0.9950  -0.9582  -0.9138
 -0.8634  -0.8049  -0.7889  -0.7592  -0.7300  -0.7231  -0.6940  -0.6834
 -0.6728  -0.6609  -0.6085  -0.6014  -0.5914  -0.5848  -0.5656  -0.5574
 -0.5367  -0.5301  -0.5072  -0.4887  -0.4732  -0.4717  -0.4642  -0.4587
 -0.3888  -0.3444  -0.2899
 -- Virtual --
  0.0408   0.1197   0.1359   0.1519   0.1575   0.1761   0.1864   0.1952
  0.2120   0.2153   0.2178   0.2261   0.2336   0.2403   0.2510   0.2735
  0.2942   0.3079   0.3144   0.3414   0.3430   0.3537   0.3770   0.3821
  0.3849   0.3955   0.4078   0.4114   0.4189   0.4310   0.4412   0.4447
  0.4617   0.4663   0.4796   0.4856   0.4999   0.5045   0.5099   0.5125
  0.5268   0.5408   0.5429   0.5468   0.5529   0.5640   0.5687   0.5749
  0.5892   0.6015   0.6040   0.6107   0.6161   0.6215   0.6244   0.6286
  0.6425   0.6508   0.6599   0.6625   0.6678   0.6895   0.6945   0.7084
  0.7166   0.7204   0.7246   0.7450   0.7536   0.7617   0.7749   0.8086
  0.8152   0.8206   0.8325   0.8434   0.8448   0.8724   0.8767   0.8785
  0.8831   0.8893   0.8994   0.9269   0.9390   0.9550   0.9647   0.9712
  0.9814   0.9883   1.0010   1.0148   1.0237   1.0305   1.0462   1.0527
  1.0660   1.0764   1.0898   1.0928   1.0997   1.1084   1.1137   1.1202
  1.1292   1.1544   1.1655   1.1789   1.1824   1.1996   1.2071   1.2116
  1.2200   1.2317   1.2448   1.2491   1.2615   1.2773   1.2798   1.2995
  1.3158   1.3300   1.3320   1.3577   1.3631   1.3847   1.3975   1.4028
  1.4230   1.4335   1.4486   1.4695   1.4778   1.4888   1.5027   1.5033
  1.5145   1.5399   1.5432   1.5574   1.5620   1.5822   1.5867   1.6041
  1.6068   1.6269   1.6512   1.6668   1.6751   1.6817   1.7132   1.7244
  1.7480   1.7839   1.7952   1.8134   1.8201   1.8296   1.8440   1.8557
  1.8782   1.8858   1.8988   1.9081   1.9121   1.9489   1.9517   1.9607
  1.9894   2.0053   2.0189   2.0212   2.0618   2.0845   2.0883   2.1077
  2.1270   2.1593   2.1759   2.1948   2.1979   2.1989   2.2168   2.2321
  2.2349   2.2495   2.2590   2.2831   2.3015   2.3156   2.3323   2.3420
  2.3705   2.3730   2.4003   2.4092   2.4337   2.4468   2.4834   2.4953
  2.5215   2.5425   2.5556   2.5623   2.5760   2.6061   2.6260   2.6311
  2.6433   2.6568   2.6707   2.6804   2.6946   2.6980   2.7055   2.7079
  2.7303   2.7389   2.7612   2.7664   2.7866   2.7988   2.8113   2.8160
  2.8224   2.8575   2.8687   2.8739   2.8900   2.9046   2.9193   2.9534
  2.9555   2.9709   2.9835   2.9874   3.0201   3.0239   3.0437   3.0482
  3.0771   3.0807   3.0893   3.1015   3.1138   3.1271   3.1361   3.1440
  3.1534   3.1657   3.2028   3.2107   3.2190   3.2226   3.2365   3.2483
  3.2582   3.2659   3.2759   3.2886   3.3033   3.3086   3.3232   3.3298
  3.3406   3.3494   3.3687   3.3721   3.3794   3.3988   3.4054   3.4067
  3.4314   3.4390   3.4444   3.4583   3.4614   3.4794   3.4812   3.4870
  3.4975   3.5083   3.5176   3.5416   3.5494   3.5556   3.5717   3.5783
  3.5816   3.5957   3.6014   3.6147   3.6270   3.6380   3.6510   3.6641
  3.6802   3.6863   3.6909   3.7046   3.7068   3.7166   3.7321   3.7518
  3.7755   3.7801   3.7901   3.8003   3.8113   3.8187   3.8228   3.8374
  3.8464   3.8631   3.8756   3.8871   3.8985   3.9180   3.9223   3.9263
  3.9361   3.9601   3.9611   3.9802   3.9909   4.0159   4.0354   4.0414
  4.0674   4.0688   4.0773   4.1041   4.1125   4.1372   4.1666   4.1705
  4.1760   4.1972   4.2086   4.2447   4.2654   4.2814   4.2896   4.3159
  4.3424   4.3590   4.3599   4.3773   4.3832   4.4063   4.4158   4.4265
  4.4374   4.4725   4.5157   4.5253   4.5352   4.5617   4.5852   4.5925
  4.6001   4.6471   4.6490   4.6636   4.6761   4.7099   4.7343   4.7419
  4.7773   4.7818   4.8222   4.8474   4.8646   4.8757   4.9063   4.9255
  4.9535   4.9720   5.0024   5.0095   5.0465   5.0821   5.1037   5.1136
  5.1360   5.1565   5.2039   5.2524   5.2557   5.2610   5.3241   5.3516
  5.3632   5.3947   5.4099   5.4268   5.4336   5.4855   5.5009   5.5254
  5.5412   5.5827   5.5970   5.6230   5.6606   5.7048   5.7390   5.7617
  5.8086   5.8138   5.8505   5.8597   5.9168   5.9304   5.9674   6.0330
  6.0446   6.0736   6.1512   6.1752   6.2053   6.2623   6.3041   6.3607
  6.4423   6.4514   6.5389   6.6033   6.6619   6.6726   6.7473   6.8310
  6.8608   6.9793   7.2050   7.2073   7.3111   7.3649   7.3652   7.4075
  7.4144   7.4877   7.5251   7.5522   7.6161   7.7751   7.7894   7.8931
  7.9592   8.1348   8.2029   8.9240   9.0117   9.3649   9.4592   9.6458
 10.0601  11.0626  11.6106  11.8056  12.4066  12.9823  13.0925  13.3866
 13.7750  14.0316  14.4929
 --------------------------------------------------------------
 
          Ground-State Mulliken Net Atomic Charges

     Atom                 Charge (a.u.)
  ----------------------------------------
      1 C                     0.040717
      2 S                     0.074762
      3 C                    -0.208366
      4 C                    -0.014203
      5 C                    -0.097377
      6 S                    -0.008456
      7 C                    -0.157791
      8 C                     0.388401
      9 F                    -0.207804
     10 C                     0.445772
     11 O                    -0.462738
     12 O                    -0.300927
     13 C                    -0.058619
     14 H                     0.121150
     15 H                     0.094797
     16 H                     0.094700
     17 C                    -0.378587
     18 H                     0.120131
     19 H                     0.161412
     20 H                     0.140706
     21 H                     0.212320
  ----------------------------------------
  Sum of atomic charges =     0.000000

 -----------------------------------------------------------------
                    Cartesian Multipole Moments
 -----------------------------------------------------------------
    Charge (ESU x 10^10)
                -0.0000
    Dipole Moment (Debye)
         X       0.6899      Y       0.4626      Z       2.6600
       Tot       2.7867
    Quadrupole Moments (Debye-Ang)
        XX     -96.2174     XY       0.9826     YY     -81.3715
        XZ      -0.7113     YZ      -8.7596     ZZ     -97.7979
    Octopole Moments (Debye-Ang^2)
       XXX     -45.7205    XXY     -80.0857    XYY      -9.6947
       YYY    -236.2954    XXZ      79.2566    XYZ      -8.3590
       YYZ      47.3657    XZZ      -0.8777    YZZ      -0.5679
       ZZZ     269.2415
    Hexadecapole Moments (Debye-Ang^3)
      XXXX    -173.9467   XXXY    -159.4408   XXYY    -382.6401
      XYYY    -149.1025   YYYY   -2012.6536   XXXZ     138.3125
      XXYZ     273.2209   XYYZ      27.0228   YYYZ     675.2219
      XXZZ    -635.2755   XYZZ       1.7739   YYZZ    -640.2709
      XZZZ      84.9164   YZZZ     516.4390   ZZZZ   -3703.4046
 -----------------------------------------------------------------
 Total job time:  59.43s(wall), 2058.79s(cpu) 
 Tue Jan  9 10:30:45 2024

        *************************************************************
        *                                                           *
        *  Thank you very much for using Q-Chem.  Have a nice day.  *
        *                                                           *
        *************************************************************


0 sent ACK to 0 
now end server 0 ... 
cleanup process ... done
remove work dirs ./qchem800416.0 -- ./qchem800416.0
rm -rf ./qchem800416.0
rm -rf ./qchem800416
