You are running Q-Chem version: 5.4.0

#
# job setting
#
local host:  exp-3-18
current dir: /home/rramji/project-csd799/aromodel/ptb7fout-qchem/methylated-rotation-run
input file:  Dimethoxy_Benzodithiophene_Phi_10_Theta_170_Methylcarbonyl_3_Fluoro_Thienothiophene_Hydrogenated_Improper.qcin
output file: 
nprocs     : 1
nthreads   : 64
#
# qchem installation setting
#
QC:          /cm/shared/apps/spack/cpu/opt/spack/linux-centos8-zen2/gcc-10.2.0/qchem-5.4-akfmr7b3t57bfs6qan3padb2wnb2i7cl
QCAUX:       /cm/shared/apps/spack/cpu/opt/spack/linux-centos8-zen2/gcc-10.2.0/qchem-5.4-akfmr7b3t57bfs6qan3padb2wnb2i7cl/qcaux
QCPROG:      /cm/shared/apps/spack/cpu/opt/spack/linux-centos8-zen2/gcc-10.2.0/qchem-5.4-akfmr7b3t57bfs6qan3padb2wnb2i7cl/exe/qcprog.exe
QCPROG_S:    /cm/shared/apps/spack/cpu/opt/spack/linux-centos8-zen2/gcc-10.2.0/qchem-5.4-akfmr7b3t57bfs6qan3padb2wnb2i7cl/exe/qcprog.exe_s
PARALLEL:    -DPARALLEL
QCMPI:       mpich
#
# qchem directory setting
#
qcrun:       qchem795640
QCSCRATCH:   .
QCLOCALSCR:  
QCTMPDIR:    .
QCFILEPREF:  ./qchem795640
QCSAVEDIR:   
workdirs:    ./qchem795640
workdir0:    ./qchem795640
partmpdirs =  
#
# parallel setting
#
QCRSH:           ssh
QCMPI:           mpich
QCMPIRUN:        /cm/shared/apps/spack/cpu/opt/spack/linux-centos8-zen2/gcc-10.2.0/qchem-5.4-akfmr7b3t57bfs6qan3padb2wnb2i7cl/bin/mpi/mpirun_qchem
QCMACHINEFILE:   ./qchem795640/hostfile
exp-3-18

#
# env setting
#
exported envs:   QC QCAUX QCSCRATCH QCRUNNAME QCFILEPREF QCPROG QCPROG_S GUIFILE

Running Job 1 of 1 Dimethoxy_Benzodithiophene_Phi_10_Theta_170_Methylcarbonyl_3_Fluoro_Thienothiophene_Hydrogenated_Improper.qcin
qchem Dimethoxy_Benzodithiophene_Phi_10_Theta_170_Methylcarbonyl_3_Fluoro_Thienothiophene_Hydrogenated_Improper.qcin_795640.0 ./qchem795640/ 1
/cm/shared/apps/spack/cpu/opt/spack/linux-centos8-zen2/gcc-10.2.0/qchem-5.4-akfmr7b3t57bfs6qan3padb2wnb2i7cl/bin/mpi/mpirun_qchem -machinefile ./qchem795640/hostfile -np 1 /cm/shared/apps/spack/cpu/opt/spack/linux-centos8-zen2/gcc-10.2.0/qchem-5.4-akfmr7b3t57bfs6qan3padb2wnb2i7cl/exe/qcprog.exe Dimethoxy_Benzodithiophene_Phi_10_Theta_170_Methylcarbonyl_3_Fluoro_Thienothiophene_Hydrogenated_Improper.qcin_795640.0 ./qchem795640/

Process 0 of 1 is on exp-3-18 - thread support 0
initial socket setup ...start
initial socket setup ...done 
now start server 0 ... 
                  Welcome to Q-Chem
     A Quantum Leap Into The Future Of Chemistry


 Q-Chem 5.4, Q-Chem, Inc., Pleasanton, CA (2021)

 License issued to: University of California, San Diego (site)

 E. Epifanovsky,  A. T. B. Gilbert,  Xintian Feng,  Joonho Lee,  Yuezhi Mao,  
 N. Mardirossian,  P. Pokhilko,  A. White,  M. Wormit,  M. P. Coons,  
 A. L. Dempwolff,  Zhengting Gan,  D. Hait,  P. R. Horn,  L. D. Jacobson,  
 I. Kaliman,  J. Kussmann,  A. W. Lange,  Ka Un Lao,  D. S. Levine,  Jie Liu,  
 S. C. McKenzie,  A. F. Morrison,  K. Nanda,  F. Plasser,  D. R. Rehn,  
 M. L. Vidal,  Zhi-Qiang You,  Ying Zhu,  B. Alam,  B. Albrecht,  
 A. Aldossary,  E. Alguire,  J. H. Andersen,  D. Barton,  K. Begam,  A. Behn,  
 Y. A. Bernard,  E. J. Berquist,  H. Burton,  A. Carreras,  K. Carter-Fenk,  
 R. Chakraborty,  A. D. Chien,  K. D. Closser,  V. Cofer-Shabica,  
 S. Dasgupta,  Jia Deng,  M. de Wergifosse,  M. Diedenhofen,  Hainam Do,  
 S. Ehlert,  Po-Tung Fang,  S. Fatehi,  Qingguo Feng,  J. Gayvert,  
 Qinghui Ge,  G. Gidofalvi,  M. Goldey,  J. Gomes,  C. Gonzalez-Espinoza,  
 S. Gulania,  A. Gunina,  M. W. D. Hanson-Heine,  P. H. P. Harbach,  
 A. W. Hauser,  M. F. Herbst,  M. Hernandez Vera,  M. Hodecker,  
 Z. C. Holden,  S. Houck,  Xunkun Huang,  Kerwin Hui,  B. C. Huynh,  
 M. Ivanov,  Hyunjun Ji,  Hanjie Jiang,  B. Kaduk,  S. Kaehler,  
 K. Khistyaev,  Jaehoon Kim,  P. Klunzinger,  Z. Koczor-Benda,  
 Joong Hoon Koh,  D. Kosenkov,  L. Koulias,  T. Kowalczyk,  C. M. Krauter,  
 K. Kue,  A. Kunitsa,  T. Kus,  A. Landau,  K. V. Lawler,  D. Lefrancois,  
 S. Lehtola,  Rain Li,  Yi-Pei Li,  Jiashu Liang,  M. Liebenthal,  
 Hung-Hsuan Lin,  You-Sheng Lin,  Fenglai Liu,  Kuan-Yu Liu,  
 M. Loipersberger,  A. Luenser,  A. Manjanath,  P. Manohar,  E. Mansoor,  
 S. F. Manzer,  Shan-Ping Mao,  A. V. Marenich,  T. Markovich,  S. Mason,  
 S. A. Maurer,  P. F. McLaughlin,  M. F. S. J. Menger,  J.-M. Mewes,  
 S. A. Mewes,  P. Morgante,  J. W. Mullinax,  T. S. Nguyen-Beck,  
 K. J. Oosterbaan,  G. Paran,  Alexander C. Paul,  Suranjan K. Paul,  
 F. Pavosevic,  Zheng Pei,  S. Prager,  E. I. Proynov,  E. Ramos,  B. Rana,  
 A. E. Rask,  A. Rettig,  R. M. Richard,  F. Rob,  E. Rossomme,  T. Scheele,  
 M. Scheurer,  M. Schneider,  N. Sergueev,  S. M. Sharada,  W. Skomorowski,  
 D. W. Small,  C. J. Stein,  Yu-Chuan Su,  E. J. Sundstrom,  Zhen Tao,  
 J. Thirman,  T. Tsuchimochi,  N. M. Tubman,  S. P. Veccham,  O. Vydrov,  
 J. Wenzel,  J. Witte,  A. Yamada,  Kun Yao,  S. Yeganeh,  S. R. Yost,  
 A. Zech,  Igor Ying Zhang,  Xing Zhang,  Yu Zhang,  D. Zuev,  
 A. Aspuru-Guzik,  A. T. Bell,  N. A. Besley,  K. B. Bravaya,  B. R. Brooks,  
 D. Casanova,  Jeng-Da Chai,  S. Coriani,  C. J. Cramer,  
 A. E. DePrince, III,  R. A. DiStasio Jr.,  A. Dreuw,  B. D. Dunietz,  
 T. R. Furlani,  W. A. Goddard III,  S. Grimme,  S. Hammes-Schiffer,  
 T. Head-Gordon,  W. J. Hehre,  Chao-Ping Hsu,  T.-C. Jagau,  Yousung Jung,  
 A. Klamt,  Jing Kong,  D. S. Lambrecht,  WanZhen Liang,  N. J. Mayhall,  
 C. W. McCurdy,  J. B. Neaton,  C. Ochsenfeld,  J. A. Parkhill,  R. Peverati,  
 V. A. Rassolov,  Yihan Shao,  L. V. Slipchenko,  T. Stauch,  R. P. Steele,  
 J. E. Subotnik,  A. J. W. Thom,  A. Tkatchenko,  D. G. Truhlar,  
 T. Van Voorhis,  T. A. Wesolowski,  K. B. Whaley,  H. L. Woodcock III,  
 P. M. Zimmerman,  S. Faraji,  P. M. W. Gill,  M. Head-Gordon,  
 J. M. Herbert,  A. I. Krylov

 Contributors to earlier versions of Q-Chem not listed above: 
 R. D. Adamson,  B. Austin,  R. Baer,  J. Baker,  G. J. O. Beran,  
 K. Brandhorst,  S. T. Brown,  E. F. C. Byrd,  A. K. Chakraborty,  
 G. K. L. Chan,  Chun-Min Chang,  Yunqing Chen,  C.-L. Cheng,  
 Siu Hung Chien,  D. M. Chipman,  D. L. Crittenden,  H. Dachsel,  
 R. J. Doerksen,  A. D. Dutoi,  R. G. Edgar,  J. Fosso-Tande,  
 L. Fusti-Molnar,  D. Ghosh,  A. Ghysels,  A. Golubeva-Zadorozhnaya,  
 J. Gonthier,  M. S. Gordon,  S. R. Gwaltney,  G. Hawkins,  J. E. Herr,  
 A. Heyden,  S. Hirata,  E. G. Hohenstein,  G. Kedziora,  F. J. Keil,  
 C. Kelley,  Jihan Kim,  R. A. King,  R. Z. Khaliullin,  P. P. Korambath,  
 W. Kurlancheek,  A. Laurent,  A. M. Lee,  M. S. Lee,  S. V. Levchenko,  
 Ching Yeh Lin,  D. Liotard,  E. Livshits,  R. C. Lochan,  I. Lotan,  
 L. A. Martinez-Martinez,  P. E. Maslen,  N. Nair,  D. P. O'Neill,  
 D. Neuhauser,  E. Neuscamman,  C. M. Oana,  R. Olivares-Amaya,  R. Olson,  
 T. M. Perrine,  B. Peters,  P. A. Pieniazek,  A. Prociuk,  Y. M. Rhee,  
 J. Ritchie,  M. A. Rohrdanz,  E. Rosta,  N. J. Russ,  H. F. Schaefer III,  
 M. W. Schmidt,  N. E. Schultz,  S. Sharma,  N. Shenvi,  C. D. Sherrill,  
 A. C. Simmonett,  A. Sodt,  T. Stein,  D. Stuck,  K. S. Thanthiriwatte,  
 V. Vanovschi,  L. Vogt,  Tao Wang,  A. Warshel,  M. A. Watson,  
 C. F. Williams,  Q. Wu,  X. Xu,  Jun Yang,  W. Zhang,  Yan Zhao

 Please cite Q-Chem as follows:
 Y. Shao et al., Mol. Phys. 113, 184-215 (2015)
 DOI: 10.1080/00268976.2014.952696

 Q-Chem 5.4.0 for Intel X86 EM64T Linux

 Parts of Q-Chem use Armadillo 9.800.1 (Horizon Scraper).
 http://arma.sourceforge.net/

 Q-Chem begins on Tue Jan  9 10:06:41 2024  

 Host: 
0

     Scratch files written to ./qchem795640//
 May1621 |scratch|qcdevops|jenkins|workspace|build_RNUM    
 Parallel job on  1  processors
 Processing $rem in /cm/shared/apps/spack/cpu/opt/spack/linux-centos8-zen2/gcc-10.2.0/qchem-5.4-akfmr7b3t57bfs6qan3padb2wnb2i7cl/config/preferences:
 Processing $rem in /home/rramji/.qchemrc:
 Symmetry turned off for PCM/SM12/SMD calculation
 Core orbitals will be frozen

 Checking the input file for inconsistencies... 	...done.

 Q-Chem warning in module forms1/BasisType.C, line 2236:

 You are not using the predefined 5D/6D in this basis set.


--------------------------------------------------------------
User input:
--------------------------------------------------------------
$molecule
0 1
C	-0.178110	-0.975447	0.975276
S	-0.020510	-0.084547	2.482776
C	0.251790	1.464253	1.694176
C	-0.020310	-0.084847	-0.092624
C	0.218790	1.284553	0.288876
S	-0.059810	-0.325247	-1.830224
C	0.238890	1.400753	-2.079224
C	0.359490	2.098753	-0.887324
F	0.586890	3.415953	-0.843824
C	0.318590	1.841653	-3.480824
O	0.192790	1.082153	-4.431224
O	0.545790	3.172953	-3.593924
C	0.636890	3.659653	-4.940924
H	0.821190	4.745153	-4.857824
H	-0.304010	3.466753	-5.494924
H	1.467390	3.165053	-5.484024
C	-0.178110	-2.410647	0.975276
H	-1.240310	-2.418647	1.170176
H	-0.324410	-3.088547	0.147376
H	-0.008310	-2.941747	1.900176
H	0.410890	2.374753	2.281776
$end

$rem
JOBTYPE		SP
EXCHANGE	HF
CORRELATION	pRIMP2
BASIS		cc-pvtz
METHOD		rimp2
AUX_BASIS	rimp2-cc-pvtz
SOLVENT_METHOD	PCM
PURECART	11111
SYMMETRY	false
MEM_TOTAL	110000
SCF_CONVERGENCE = 6
THRESH=10
GUI = 2
$end



$solvent
dielectric 4.90
$end
--------------------------------------------------------------
 ----------------------------------------------------------------
             Standard Nuclear Orientation (Angstroms)
    I     Atom           X                Y                Z
 ----------------------------------------------------------------
    1      C      -0.1781100000    -0.9754470000     0.9752760000
    2      S      -0.0205100000    -0.0845470000     2.4827760000
    3      C       0.2517900000     1.4642530000     1.6941760000
    4      C      -0.0203100000    -0.0848470000    -0.0926240000
    5      C       0.2187900000     1.2845530000     0.2888760000
    6      S      -0.0598100000    -0.3252470000    -1.8302240000
    7      C       0.2388900000     1.4007530000    -2.0792240000
    8      C       0.3594900000     2.0987530000    -0.8873240000
    9      F       0.5868900000     3.4159530000    -0.8438240000
   10      C       0.3185900000     1.8416530000    -3.4808240000
   11      O       0.1927900000     1.0821530000    -4.4312240000
   12      O       0.5457900000     3.1729530000    -3.5939240000
   13      C       0.6368900000     3.6596530000    -4.9409240000
   14      H       0.8211900000     4.7451530000    -4.8578240000
   15      H      -0.3040100000     3.4667530000    -5.4949240000
   16      H       1.4673900000     3.1650530000    -5.4840240000
   17      C      -0.1781100000    -2.4106470000     0.9752760000
   18      H      -1.2403100000    -2.4186470000     1.1701760000
   19      H      -0.3244100000    -3.0885470000     0.1473760000
   20      H      -0.0083100000    -2.9417470000     1.9001760000
   21      H       0.4108900000     2.3747530000     2.2817760000
 ----------------------------------------------------------------
 Nuclear Repulsion Energy =        1082.65444404 hartrees
 There are       59 alpha and       59 beta electrons
 Requested basis set is cc-pVTZ
 There are 186 shells and 526 basis functions

 Total QAlloc Memory Limit 110000 MB
 Mega-Array Size       188 MB
 MEM_STATIC part       192 MB
 Discretize the solute cavity surface with Lebedev spheres
	Using 110 Lebedev grid points for each H atom
	Using 194 Lebedev grid points for other atoms
	Atomic van der Waals radii will be scaled by 1.20
 Remove points where switching function is < 1.0e-08
 Keep 1570 surface tesserae and discard 1916 interior tesserae
 Molecular Surface Area = 243.028 Angst**2
 Requested basis set is rimp2-cc-pVTZ
 There are 410 shells and 1426 basis functions
 A cutoff of  1.0D-10 yielded  11471 shell pairs
 There are     90051 function pairs (    117883 Cartesian)
 Smallest overlap matrix eigenvalue = 5.78E-05

 Scale SEOQF with 1.000000e-01/1.000000e-01/1.000000e-02

 Standard Electronic Orientation quadrupole field applied
 Nucleus-field energy     =     0.0000000259 hartrees
 Guess from superposition of atomic densities
 Warning:  Energy on first SCF cycle will be non-variational
 SAD guess density has 118.000000 electrons

 -----------------------------------------------------------------------
  General SCF calculation program by
  Eric Jon Sundstrom, Paul Horn, Yuezhi Mao, Dmitri Zuev, Alec White,
  David Stuck, Shaama M.S., Shane Yost, Joonho Lee, David Small,
  Daniel Levine, Susi Lehtola, Hugh Burton, Evgeny Epifanovsky,
  Bang C. Huynh
 -----------------------------------------------------------------------
 Hartree-Fock
 using 64 threads for integral computing
 -------------------------------------------------------
 OpenMP Integral computing Module                
 Release: version 1.0, May 2013, Q-Chem Inc. Pittsburgh 
 -------------------------------------------------------
 A restricted SCF calculation will be
 performed using DIIS
 SCF converges when DIIS error is below 1.0e-06
 ---------------------------------------
  Cycle       Energy         DIIS error
 ---------------------------------------
    1   -1394.2342679354      2.47e-02  
    2   -1389.0345104583      2.46e-03  
    3   -1389.2040227410      1.53e-03  
    4   -1389.2626917737      3.53e-04  
    5   -1389.2684566096      1.12e-04  
    6   -1389.2691478217      3.68e-05  
    7   -1389.2693001513      1.84e-05  
    8   -1389.2693528018      7.11e-06  
    9   -1389.2693637188      3.05e-06  
   10   -1389.2693651442      1.13e-06  
   11   -1389.2693653618      5.21e-07  Convergence criterion met
 ---------------------------------------
 SCF time:   CPU 1681.05s  wall 50.00s 

************** Final PCM Free Energy Summary **************
 G_electrostatic  =      -0.01290247 hartree =      -8.09642389 kcal/mol
 G_cavitation     =       0.00000000 hartree =       0.00000000 kcal/mol
 G_dispersion     =       0.00000000 hartree =       0.00000000 kcal/mol
 G_repulsion      =       0.00000000 hartree =       0.00000000 kcal/mol
 --------------------------------------------------
 Non-electrostatic Free Energy =       0.00000000 hartree =       0.00000000 kcal/mol
 Total                         =      -0.01290247 hartree =      -8.09642389 kcal/mol
 --------------------------------------------------
 SCF Energy (H0 + V/2)                       =   -1389.26936536 
 Solute Internal Energy (H0)                 =   -1389.25646289 
 Total Free Energy (H0 + V/2 + non-elec)     =   -1389.26936536 hartree
                                             = -871779.68453467 kcal/mol
***********************************************************

 SCF   energy in the final basis set =    -1389.2693653618
 Total energy in the final basis set =    -1389.2693653618


 --------------------------------------------------------------
  Generalized many-body perturbation theory program
  by Joonho Lee, Fazle Rob, Xintian Feng, Evgeny Epifanovsky

 No regularization used 
 (reg. param. = 0.0000e+00)
  (P|Q)^-1/2 Time:  CPU 39.27 s  wall 0.64 s

 In RI-MP2 calculation: 
 # of frozen core orbitals: 22

 Components of the RIMP2 correlation energy:
        aaaa    correlation energy =        -0.3281448678 a.u.
        abab    correlation energy =        -1.8478659466 a.u.
        bbbb    correlation energy =        -0.3281448678 a.u.
        non-Brillouin singles      =        -0.0000000000 a.u.
        total same-spin energy     =        -0.6562897356 a.u.
        total opposite-spin energy =        -1.8478659466 a.u.

 Total  RIMP2   correlation energy =        -2.5041556823 a.u.
        RIMP2         total energy =     -1391.7735210441 a.u.

 RI-MP2 Energy Time:  CPU 198.36 s  wall 4.16 s
 
 --------------------------------------------------------------
 
                    Orbital Energies (a.u.)
 --------------------------------------------------------------
 
 Alpha MOs
 -- Occupied --
-92.0064 -91.9897 -26.3395 -20.6132 -20.5594 -11.4071 -11.3771 -11.3018
-11.2941 -11.2921 -11.2879 -11.2795 -11.2779 -11.2303  -9.0052  -8.9899
 -6.6861  -6.6855  -6.6849  -6.6710  -6.6703  -6.6691  -1.6568  -1.4656
 -1.3682  -1.2108  -1.1362  -1.0661  -1.0180  -0.9957  -0.9576  -0.9132
 -0.8626  -0.8043  -0.7876  -0.7580  -0.7303  -0.7217  -0.6919  -0.6830
 -0.6724  -0.6598  -0.6128  -0.5943  -0.5882  -0.5823  -0.5617  -0.5582
 -0.5321  -0.5265  -0.5165  -0.4991  -0.4719  -0.4718  -0.4703  -0.4596
 -0.3834  -0.3451  -0.2801
 -- Virtual --
  0.0418   0.1262   0.1345   0.1542   0.1580   0.1734   0.1827   0.1996
  0.2071   0.2091   0.2158   0.2290   0.2323   0.2428   0.2528   0.2667
  0.2834   0.3087   0.3279   0.3399   0.3436   0.3513   0.3740   0.3814
  0.3854   0.4029   0.4087   0.4110   0.4199   0.4337   0.4438   0.4484
  0.4613   0.4658   0.4832   0.4957   0.4993   0.5101   0.5125   0.5190
  0.5253   0.5434   0.5439   0.5457   0.5536   0.5643   0.5681   0.5827
  0.5910   0.5957   0.6052   0.6127   0.6163   0.6178   0.6249   0.6266
  0.6297   0.6457   0.6580   0.6668   0.6716   0.6925   0.6977   0.7087
  0.7186   0.7237   0.7304   0.7417   0.7537   0.7727   0.7850   0.7994
  0.8157   0.8174   0.8339   0.8446   0.8588   0.8642   0.8786   0.8814
  0.8908   0.8985   0.9028   0.9321   0.9461   0.9521   0.9677   0.9830
  0.9886   0.9938   1.0021   1.0151   1.0279   1.0389   1.0487   1.0592
  1.0629   1.0724   1.0903   1.0942   1.0983   1.1074   1.1120   1.1209
  1.1269   1.1396   1.1496   1.1607   1.1769   1.1830   1.2028   1.2055
  1.2226   1.2407   1.2468   1.2554   1.2604   1.2767   1.2920   1.3076
  1.3169   1.3235   1.3537   1.3608   1.3821   1.3960   1.4009   1.4098
  1.4234   1.4285   1.4377   1.4781   1.4831   1.4963   1.5047   1.5089
  1.5176   1.5399   1.5431   1.5460   1.5690   1.5736   1.5781   1.6018
  1.6196   1.6418   1.6566   1.6715   1.6761   1.6814   1.7177   1.7243
  1.7533   1.7924   1.8009   1.8177   1.8220   1.8285   1.8388   1.8648
  1.8670   1.8873   1.9015   1.9052   1.9287   1.9400   1.9589   1.9823
  1.9971   2.0160   2.0193   2.0372   2.0670   2.0789   2.0893   2.1014
  2.1399   2.1565   2.1709   2.1981   2.2021   2.2101   2.2236   2.2396
  2.2418   2.2534   2.2608   2.2708   2.3032   2.3156   2.3382   2.3456
  2.3549   2.3719   2.3892   2.4104   2.4320   2.4358   2.4724   2.4896
  2.5024   2.5357   2.5530   2.5560   2.5786   2.6084   2.6262   2.6340
  2.6451   2.6496   2.6710   2.6803   2.6878   2.6970   2.7048   2.7089
  2.7268   2.7465   2.7701   2.7862   2.7962   2.8048   2.8131   2.8227
  2.8391   2.8502   2.8720   2.8783   2.9062   2.9117   2.9364   2.9467
  2.9687   2.9816   2.9914   2.9994   3.0241   3.0383   3.0464   3.0603
  3.0685   3.0895   3.0996   3.1044   3.1087   3.1287   3.1339   3.1463
  3.1512   3.1703   3.1904   3.2022   3.2106   3.2187   3.2381   3.2453
  3.2614   3.2677   3.2776   3.2902   3.3015   3.3082   3.3157   3.3288
  3.3349   3.3509   3.3627   3.3681   3.3781   3.4000   3.4047   3.4109
  3.4211   3.4319   3.4423   3.4484   3.4545   3.4669   3.4773   3.4795
  3.4858   3.4959   3.5169   3.5205   3.5363   3.5499   3.5574   3.5747
  3.5810   3.5966   3.6019   3.6180   3.6370   3.6397   3.6566   3.6754
  3.6833   3.6981   3.7051   3.7081   3.7091   3.7286   3.7393   3.7404
  3.7624   3.7784   3.7856   3.7875   3.8100   3.8177   3.8208   3.8308
  3.8558   3.8617   3.8809   3.8894   3.8967   3.9008   3.9350   3.9454
  3.9582   3.9639   3.9812   3.9881   3.9948   4.0129   4.0217   4.0474
  4.0672   4.0745   4.1028   4.1204   4.1311   4.1488   4.1595   4.1675
  4.1874   4.2020   4.2150   4.2526   4.2662   4.2854   4.3066   4.3335
  4.3427   4.3596   4.3617   4.3879   4.4058   4.4153   4.4188   4.4367
  4.4514   4.4844   4.5076   4.5274   4.5386   4.5555   4.5812   4.5860
  4.6061   4.6176   4.6367   4.6566   4.6752   4.6903   4.7197   4.7385
  4.7705   4.7821   4.7977   4.8436   4.8601   4.8953   4.9082   4.9457
  4.9562   4.9843   5.0042   5.0099   5.0525   5.0842   5.0991   5.1198
  5.1598   5.1846   5.2057   5.2538   5.2569   5.2649   5.2889   5.3536
  5.3578   5.4053   5.4242   5.4272   5.4278   5.4858   5.5188   5.5359
  5.5604   5.5784   5.5832   5.6234   5.6479   5.6641   5.7432   5.7552
  5.8090   5.8102   5.8296   5.8683   5.9179   5.9309   5.9730   6.0437
  6.0737   6.1181   6.1516   6.1799   6.2366   6.2627   6.3145   6.4217
  6.4518   6.5054   6.5408   6.6066   6.6624   6.6730   6.7484   6.8317
  6.8612   6.9798   7.2055   7.2085   7.3115   7.3665   7.3665   7.4080
  7.4148   7.4891   7.5281   7.5526   7.6166   7.7766   7.7908   7.9000
  7.9628   8.1366   8.2631   8.9254   9.0144   9.3663   9.4637   9.6439
 10.0675  11.0421  11.5822  11.8077  12.4104  13.0334  13.1061  13.3866
 13.7733  14.0323  14.4809
 --------------------------------------------------------------
 
          Ground-State Mulliken Net Atomic Charges

     Atom                 Charge (a.u.)
  ----------------------------------------
      1 C                     0.037569
      2 S                     0.077332
      3 C                    -0.227819
      4 C                    -0.019877
      5 C                    -0.096742
      6 S                    -0.015671
      7 C                    -0.157878
      8 C                     0.392382
      9 F                    -0.209428
     10 C                     0.445894
     11 O                    -0.461965
     12 O                    -0.300666
     13 C                    -0.058682
     14 H                     0.121046
     15 H                     0.094666
     16 H                     0.094701
     17 C                    -0.389041
     18 H                     0.144879
     19 H                     0.169765
     20 H                     0.146328
     21 H                     0.213209
  ----------------------------------------
  Sum of atomic charges =     0.000000

 -----------------------------------------------------------------
                    Cartesian Multipole Moments
 -----------------------------------------------------------------
    Charge (ESU x 10^10)
                -0.0000
    Dipole Moment (Debye)
         X      -0.4157      Y      -0.0289      Z       3.4490
       Tot       3.4741
    Quadrupole Moments (Debye-Ang)
        XX     -96.4337     XY       3.9206     YY     -80.7668
        XZ      -2.1109     YZ     -10.8622     ZZ     -96.1762
    Octopole Moments (Debye-Ang^2)
       XXX     -44.6392    XXY     -79.4398    XYY     -17.2860
       YYY    -240.7342    XXZ      78.9277    XYZ      -4.5978
       YYZ      51.0039    XZZ      -2.0496    YZZ      -6.3414
       ZZZ     272.5544
    Hexadecapole Moments (Debye-Ang^3)
      XXXX    -175.1473   XXXY    -165.7702   XXYY    -387.3772
      XYYY    -132.5466   YYYY   -2005.1526   XXXZ     140.7890
      XXYZ     274.9564   XYYZ      17.3749   YYYZ     670.6957
      XXZZ    -638.2538   XYZZ       5.0505   YYZZ    -627.3807
      XZZZ      87.2021   YZZZ     509.1800   ZZZZ   -3709.0254
 -----------------------------------------------------------------
 Total job time:  57.24s(wall), 1960.98s(cpu) 
 Tue Jan  9 10:07:38 2024

        *************************************************************
        *                                                           *
        *  Thank you very much for using Q-Chem.  Have a nice day.  *
        *                                                           *
        *************************************************************


0 sent ACK to 0 
now end server 0 ... 
cleanup process ... done
remove work dirs ./qchem795640.0 -- ./qchem795640.0
rm -rf ./qchem795640.0
rm -rf ./qchem795640
