You are running Q-Chem version: 5.4.0

#
# job setting
#
local host:  exp-14-05
current dir: /home/rramji/project-csd799/aromodel/ptb7fout-qchem/methylated-rotation-run
input file:  Dimethoxy_Benzodithiophene_Phi_60_Theta_270_Methylcarbonyl_3_Fluoro_Thienothiophene_Hydrogenated_Improper.qcin
output file: 
nprocs     : 1
nthreads   : 64
#
# qchem installation setting
#
QC:          /cm/shared/apps/spack/cpu/opt/spack/linux-centos8-zen2/gcc-10.2.0/qchem-5.4-akfmr7b3t57bfs6qan3padb2wnb2i7cl
QCAUX:       /cm/shared/apps/spack/cpu/opt/spack/linux-centos8-zen2/gcc-10.2.0/qchem-5.4-akfmr7b3t57bfs6qan3padb2wnb2i7cl/qcaux
QCPROG:      /cm/shared/apps/spack/cpu/opt/spack/linux-centos8-zen2/gcc-10.2.0/qchem-5.4-akfmr7b3t57bfs6qan3padb2wnb2i7cl/exe/qcprog.exe
QCPROG_S:    /cm/shared/apps/spack/cpu/opt/spack/linux-centos8-zen2/gcc-10.2.0/qchem-5.4-akfmr7b3t57bfs6qan3padb2wnb2i7cl/exe/qcprog.exe_s
PARALLEL:    -DPARALLEL
QCMPI:       mpich
#
# qchem directory setting
#
qcrun:       qchem2534083
QCSCRATCH:   .
QCLOCALSCR:  
QCTMPDIR:    .
QCFILEPREF:  ./qchem2534083
QCSAVEDIR:   
workdirs:    ./qchem2534083
workdir0:    ./qchem2534083
partmpdirs =  
#
# parallel setting
#
QCRSH:           ssh
QCMPI:           mpich
QCMPIRUN:        /cm/shared/apps/spack/cpu/opt/spack/linux-centos8-zen2/gcc-10.2.0/qchem-5.4-akfmr7b3t57bfs6qan3padb2wnb2i7cl/bin/mpi/mpirun_qchem
QCMACHINEFILE:   ./qchem2534083/hostfile
exp-14-05

#
# env setting
#
exported envs:   QC QCAUX QCSCRATCH QCRUNNAME QCFILEPREF QCPROG QCPROG_S GUIFILE

Running Job 1 of 1 Dimethoxy_Benzodithiophene_Phi_60_Theta_270_Methylcarbonyl_3_Fluoro_Thienothiophene_Hydrogenated_Improper.qcin
qchem Dimethoxy_Benzodithiophene_Phi_60_Theta_270_Methylcarbonyl_3_Fluoro_Thienothiophene_Hydrogenated_Improper.qcin_2534083.0 ./qchem2534083/ 1
/cm/shared/apps/spack/cpu/opt/spack/linux-centos8-zen2/gcc-10.2.0/qchem-5.4-akfmr7b3t57bfs6qan3padb2wnb2i7cl/bin/mpi/mpirun_qchem -machinefile ./qchem2534083/hostfile -np 1 /cm/shared/apps/spack/cpu/opt/spack/linux-centos8-zen2/gcc-10.2.0/qchem-5.4-akfmr7b3t57bfs6qan3padb2wnb2i7cl/exe/qcprog.exe Dimethoxy_Benzodithiophene_Phi_60_Theta_270_Methylcarbonyl_3_Fluoro_Thienothiophene_Hydrogenated_Improper.qcin_2534083.0 ./qchem2534083/

Process 0 of 1 is on exp-14-05 - thread support 0
initial socket setup ...start
initial socket setup ...done 
now start server 0 ... 
                  Welcome to Q-Chem
     A Quantum Leap Into The Future Of Chemistry


 Q-Chem 5.4, Q-Chem, Inc., Pleasanton, CA (2021)

 License issued to: University of California, San Diego (site)

 E. Epifanovsky,  A. T. B. Gilbert,  Xintian Feng,  Joonho Lee,  Yuezhi Mao,  
 N. Mardirossian,  P. Pokhilko,  A. White,  M. Wormit,  M. P. Coons,  
 A. L. Dempwolff,  Zhengting Gan,  D. Hait,  P. R. Horn,  L. D. Jacobson,  
 I. Kaliman,  J. Kussmann,  A. W. Lange,  Ka Un Lao,  D. S. Levine,  Jie Liu,  
 S. C. McKenzie,  A. F. Morrison,  K. Nanda,  F. Plasser,  D. R. Rehn,  
 M. L. Vidal,  Zhi-Qiang You,  Ying Zhu,  B. Alam,  B. Albrecht,  
 A. Aldossary,  E. Alguire,  J. H. Andersen,  D. Barton,  K. Begam,  A. Behn,  
 Y. A. Bernard,  E. J. Berquist,  H. Burton,  A. Carreras,  K. Carter-Fenk,  
 R. Chakraborty,  A. D. Chien,  K. D. Closser,  V. Cofer-Shabica,  
 S. Dasgupta,  Jia Deng,  M. de Wergifosse,  M. Diedenhofen,  Hainam Do,  
 S. Ehlert,  Po-Tung Fang,  S. Fatehi,  Qingguo Feng,  J. Gayvert,  
 Qinghui Ge,  G. Gidofalvi,  M. Goldey,  J. Gomes,  C. Gonzalez-Espinoza,  
 S. Gulania,  A. Gunina,  M. W. D. Hanson-Heine,  P. H. P. Harbach,  
 A. W. Hauser,  M. F. Herbst,  M. Hernandez Vera,  M. Hodecker,  
 Z. C. Holden,  S. Houck,  Xunkun Huang,  Kerwin Hui,  B. C. Huynh,  
 M. Ivanov,  Hyunjun Ji,  Hanjie Jiang,  B. Kaduk,  S. Kaehler,  
 K. Khistyaev,  Jaehoon Kim,  P. Klunzinger,  Z. Koczor-Benda,  
 Joong Hoon Koh,  D. Kosenkov,  L. Koulias,  T. Kowalczyk,  C. M. Krauter,  
 K. Kue,  A. Kunitsa,  T. Kus,  A. Landau,  K. V. Lawler,  D. Lefrancois,  
 S. Lehtola,  Rain Li,  Yi-Pei Li,  Jiashu Liang,  M. Liebenthal,  
 Hung-Hsuan Lin,  You-Sheng Lin,  Fenglai Liu,  Kuan-Yu Liu,  
 M. Loipersberger,  A. Luenser,  A. Manjanath,  P. Manohar,  E. Mansoor,  
 S. F. Manzer,  Shan-Ping Mao,  A. V. Marenich,  T. Markovich,  S. Mason,  
 S. A. Maurer,  P. F. McLaughlin,  M. F. S. J. Menger,  J.-M. Mewes,  
 S. A. Mewes,  P. Morgante,  J. W. Mullinax,  T. S. Nguyen-Beck,  
 K. J. Oosterbaan,  G. Paran,  Alexander C. Paul,  Suranjan K. Paul,  
 F. Pavosevic,  Zheng Pei,  S. Prager,  E. I. Proynov,  E. Ramos,  B. Rana,  
 A. E. Rask,  A. Rettig,  R. M. Richard,  F. Rob,  E. Rossomme,  T. Scheele,  
 M. Scheurer,  M. Schneider,  N. Sergueev,  S. M. Sharada,  W. Skomorowski,  
 D. W. Small,  C. J. Stein,  Yu-Chuan Su,  E. J. Sundstrom,  Zhen Tao,  
 J. Thirman,  T. Tsuchimochi,  N. M. Tubman,  S. P. Veccham,  O. Vydrov,  
 J. Wenzel,  J. Witte,  A. Yamada,  Kun Yao,  S. Yeganeh,  S. R. Yost,  
 A. Zech,  Igor Ying Zhang,  Xing Zhang,  Yu Zhang,  D. Zuev,  
 A. Aspuru-Guzik,  A. T. Bell,  N. A. Besley,  K. B. Bravaya,  B. R. Brooks,  
 D. Casanova,  Jeng-Da Chai,  S. Coriani,  C. J. Cramer,  
 A. E. DePrince, III,  R. A. DiStasio Jr.,  A. Dreuw,  B. D. Dunietz,  
 T. R. Furlani,  W. A. Goddard III,  S. Grimme,  S. Hammes-Schiffer,  
 T. Head-Gordon,  W. J. Hehre,  Chao-Ping Hsu,  T.-C. Jagau,  Yousung Jung,  
 A. Klamt,  Jing Kong,  D. S. Lambrecht,  WanZhen Liang,  N. J. Mayhall,  
 C. W. McCurdy,  J. B. Neaton,  C. Ochsenfeld,  J. A. Parkhill,  R. Peverati,  
 V. A. Rassolov,  Yihan Shao,  L. V. Slipchenko,  T. Stauch,  R. P. Steele,  
 J. E. Subotnik,  A. J. W. Thom,  A. Tkatchenko,  D. G. Truhlar,  
 T. Van Voorhis,  T. A. Wesolowski,  K. B. Whaley,  H. L. Woodcock III,  
 P. M. Zimmerman,  S. Faraji,  P. M. W. Gill,  M. Head-Gordon,  
 J. M. Herbert,  A. I. Krylov

 Contributors to earlier versions of Q-Chem not listed above: 
 R. D. Adamson,  B. Austin,  R. Baer,  J. Baker,  G. J. O. Beran,  
 K. Brandhorst,  S. T. Brown,  E. F. C. Byrd,  A. K. Chakraborty,  
 G. K. L. Chan,  Chun-Min Chang,  Yunqing Chen,  C.-L. Cheng,  
 Siu Hung Chien,  D. M. Chipman,  D. L. Crittenden,  H. Dachsel,  
 R. J. Doerksen,  A. D. Dutoi,  R. G. Edgar,  J. Fosso-Tande,  
 L. Fusti-Molnar,  D. Ghosh,  A. Ghysels,  A. Golubeva-Zadorozhnaya,  
 J. Gonthier,  M. S. Gordon,  S. R. Gwaltney,  G. Hawkins,  J. E. Herr,  
 A. Heyden,  S. Hirata,  E. G. Hohenstein,  G. Kedziora,  F. J. Keil,  
 C. Kelley,  Jihan Kim,  R. A. King,  R. Z. Khaliullin,  P. P. Korambath,  
 W. Kurlancheek,  A. Laurent,  A. M. Lee,  M. S. Lee,  S. V. Levchenko,  
 Ching Yeh Lin,  D. Liotard,  E. Livshits,  R. C. Lochan,  I. Lotan,  
 L. A. Martinez-Martinez,  P. E. Maslen,  N. Nair,  D. P. O'Neill,  
 D. Neuhauser,  E. Neuscamman,  C. M. Oana,  R. Olivares-Amaya,  R. Olson,  
 T. M. Perrine,  B. Peters,  P. A. Pieniazek,  A. Prociuk,  Y. M. Rhee,  
 J. Ritchie,  M. A. Rohrdanz,  E. Rosta,  N. J. Russ,  H. F. Schaefer III,  
 M. W. Schmidt,  N. E. Schultz,  S. Sharma,  N. Shenvi,  C. D. Sherrill,  
 A. C. Simmonett,  A. Sodt,  T. Stein,  D. Stuck,  K. S. Thanthiriwatte,  
 V. Vanovschi,  L. Vogt,  Tao Wang,  A. Warshel,  M. A. Watson,  
 C. F. Williams,  Q. Wu,  X. Xu,  Jun Yang,  W. Zhang,  Yan Zhao

 Please cite Q-Chem as follows:
 Y. Shao et al., Mol. Phys. 113, 184-215 (2015)
 DOI: 10.1080/00268976.2014.952696

 Q-Chem 5.4.0 for Intel X86 EM64T Linux

 Parts of Q-Chem use Armadillo 9.800.1 (Horizon Scraper).
 http://arma.sourceforge.net/

 Q-Chem begins on Tue Jan  9 10:16:57 2024  

 Host: 
0

     Scratch files written to ./qchem2534083//
 May1621 |scratch|qcdevops|jenkins|workspace|build_RNUM    
 Parallel job on  1  processors
 Processing $rem in /cm/shared/apps/spack/cpu/opt/spack/linux-centos8-zen2/gcc-10.2.0/qchem-5.4-akfmr7b3t57bfs6qan3padb2wnb2i7cl/config/preferences:
 Processing $rem in /home/rramji/.qchemrc:
 Symmetry turned off for PCM/SM12/SMD calculation
 Core orbitals will be frozen

 Checking the input file for inconsistencies... 	...done.

 Q-Chem warning in module forms1/BasisType.C, line 2236:

 You are not using the predefined 5D/6D in this basis set.


--------------------------------------------------------------
User input:
--------------------------------------------------------------
$molecule
0 1
C	-0.900883	-0.471137	0.978264
S	-0.117083	-0.019137	2.485764
C	1.244417	0.767763	1.697164
C	-0.117183	-0.019537	-0.089636
C	1.085517	0.677463	0.291864
S	-0.326783	-0.143837	-1.827236
C	1.187517	0.736763	-2.076236
C	1.799617	1.093063	-0.884336
F	2.954817	1.765563	-0.840836
C	1.576417	0.959163	-3.477836
O	0.913717	0.567363	-4.428236
O	2.742317	1.640863	-3.590936
C	3.173617	1.883963	-4.937936
H	4.123717	2.440463	-4.854836
H	2.421117	2.480763	-5.491936
H	3.328617	0.929763	-5.481036
C	-0.900883	-1.906337	0.978264
H	-0.908283	-1.914337	-0.101636
H	-0.060183	-2.584237	0.977964
H	-1.841283	-2.437437	0.984964
H	2.044117	1.231163	2.284764
$end

$rem
JOBTYPE		SP
EXCHANGE	HF
CORRELATION	pRIMP2
BASIS		cc-pvtz
METHOD		rimp2
AUX_BASIS	rimp2-cc-pvtz
SOLVENT_METHOD	PCM
PURECART	11111
SYMMETRY	false
MEM_TOTAL	110000
SCF_CONVERGENCE = 6
THRESH=10
GUI = 2
$end



$solvent
dielectric 4.90
$end
--------------------------------------------------------------
 ----------------------------------------------------------------
             Standard Nuclear Orientation (Angstroms)
    I     Atom           X                Y                Z
 ----------------------------------------------------------------
    1      C      -0.9008830000    -0.4711370000     0.9782640000
    2      S      -0.1170830000    -0.0191370000     2.4857640000
    3      C       1.2444170000     0.7677630000     1.6971640000
    4      C      -0.1171830000    -0.0195370000    -0.0896360000
    5      C       1.0855170000     0.6774630000     0.2918640000
    6      S      -0.3267830000    -0.1438370000    -1.8272360000
    7      C       1.1875170000     0.7367630000    -2.0762360000
    8      C       1.7996170000     1.0930630000    -0.8843360000
    9      F       2.9548170000     1.7655630000    -0.8408360000
   10      C       1.5764170000     0.9591630000    -3.4778360000
   11      O       0.9137170000     0.5673630000    -4.4282360000
   12      O       2.7423170000     1.6408630000    -3.5909360000
   13      C       3.1736170000     1.8839630000    -4.9379360000
   14      H       4.1237170000     2.4404630000    -4.8548360000
   15      H       2.4211170000     2.4807630000    -5.4919360000
   16      H       3.3286170000     0.9297630000    -5.4810360000
   17      C      -0.9008830000    -1.9063370000     0.9782640000
   18      H      -0.9082830000    -1.9143370000    -0.1016360000
   19      H      -0.0601830000    -2.5842370000     0.9779640000
   20      H      -1.8412830000    -2.4374370000     0.9849640000
   21      H       2.0441170000     1.2311630000     2.2847640000
 ----------------------------------------------------------------
 Nuclear Repulsion Energy =        1093.20930176 hartrees
 There are       59 alpha and       59 beta electrons
 Requested basis set is cc-pVTZ
 There are 186 shells and 526 basis functions

 Total QAlloc Memory Limit 110000 MB
 Mega-Array Size       188 MB
 MEM_STATIC part       192 MB
 Discretize the solute cavity surface with Lebedev spheres
	Using 110 Lebedev grid points for each H atom
	Using 194 Lebedev grid points for other atoms
	Atomic van der Waals radii will be scaled by 1.20
 Remove points where switching function is < 1.0e-08
 Keep 1524 surface tesserae and discard 1962 interior tesserae
 Molecular Surface Area = 239.531 Angst**2
 Requested basis set is rimp2-cc-pVTZ
 There are 410 shells and 1426 basis functions
 A cutoff of  1.0D-10 yielded  11793 shell pairs
 There are     92353 function pairs (    120769 Cartesian)
 Smallest overlap matrix eigenvalue = 6.61E-05

 Scale SEOQF with 1.000000e-01/1.000000e-01/1.000000e-02

 Standard Electronic Orientation quadrupole field applied
 Nucleus-field energy     =     0.0000000137 hartrees
 Guess from superposition of atomic densities
 Warning:  Energy on first SCF cycle will be non-variational
 SAD guess density has 118.000000 electrons

 -----------------------------------------------------------------------
  General SCF calculation program by
  Eric Jon Sundstrom, Paul Horn, Yuezhi Mao, Dmitri Zuev, Alec White,
  David Stuck, Shaama M.S., Shane Yost, Joonho Lee, David Small,
  Daniel Levine, Susi Lehtola, Hugh Burton, Evgeny Epifanovsky,
  Bang C. Huynh
 -----------------------------------------------------------------------
 Hartree-Fock
 using 64 threads for integral computing
 -------------------------------------------------------
 OpenMP Integral computing Module                
 Release: version 1.0, May 2013, Q-Chem Inc. Pittsburgh 
 -------------------------------------------------------
 A restricted SCF calculation will be
 performed using DIIS
 SCF converges when DIIS error is below 1.0e-06
 ---------------------------------------
  Cycle       Energy         DIIS error
 ---------------------------------------
    1   -1394.3755051816      2.49e-02  
    2   -1388.9518633641      2.52e-03  
    3   -1389.1256544852      1.60e-03  
    4   -1389.1918011444      3.55e-04  
    5   -1389.1978281493      1.12e-04  
    6   -1389.1985344892      3.67e-05  
    7   -1389.1986854002      1.89e-05  
    8   -1389.1987378414      7.39e-06  
    9   -1389.1987501289      3.41e-06  
   10   -1389.1987521249      1.30e-06  
   11   -1389.1987524860      6.00e-07  Convergence criterion met
 ---------------------------------------
 SCF time:   CPU 1680.37s  wall 47.00s 

************** Final PCM Free Energy Summary **************
 G_electrostatic  =      -0.01181786 hartree =      -7.41581958 kcal/mol
 G_cavitation     =       0.00000000 hartree =       0.00000000 kcal/mol
 G_dispersion     =       0.00000000 hartree =       0.00000000 kcal/mol
 G_repulsion      =       0.00000000 hartree =       0.00000000 kcal/mol
 --------------------------------------------------
 Non-electrostatic Free Energy =       0.00000000 hartree =       0.00000000 kcal/mol
 Total                         =      -0.01181786 hartree =      -7.41581958 kcal/mol
 --------------------------------------------------
 SCF Energy (H0 + V/2)                       =   -1389.19875249 
 Solute Internal Energy (H0)                 =   -1389.18693463 
 Total Free Energy (H0 + V/2 + non-elec)     =   -1389.19875249 hartree
                                             = -871735.37428637 kcal/mol
***********************************************************

 SCF   energy in the final basis set =    -1389.1987524860
 Total energy in the final basis set =    -1389.1987524860


 --------------------------------------------------------------
  Generalized many-body perturbation theory program
  by Joonho Lee, Fazle Rob, Xintian Feng, Evgeny Epifanovsky

 No regularization used 
 (reg. param. = 0.0000e+00)
  (P|Q)^-1/2 Time:  CPU 20.00 s  wall 0.32 s

 In RI-MP2 calculation: 
 # of frozen core orbitals: 22

 Components of the RIMP2 correlation energy:
        aaaa    correlation energy =        -0.3308310094 a.u.
        abab    correlation energy =        -1.8556288569 a.u.
        bbbb    correlation energy =        -0.3308310094 a.u.
        non-Brillouin singles      =        -0.0000000000 a.u.
        total same-spin energy     =        -0.6616620189 a.u.
        total opposite-spin energy =        -1.8556288569 a.u.

 Total  RIMP2   correlation energy =        -2.5172908758 a.u.
        RIMP2         total energy =     -1391.7160433618 a.u.

 RI-MP2 Energy Time:  CPU 182.95 s  wall 3.24 s
 
 --------------------------------------------------------------
 
                    Orbital Energies (a.u.)
 --------------------------------------------------------------
 
 Alpha MOs
 -- Occupied --
-92.0055 -92.0005 -26.3447 -20.6146 -20.5606 -11.4092 -11.3850 -11.3264
-11.3098 -11.2954 -11.2890 -11.2819 -11.2558 -11.2135  -9.0054  -9.0005
 -6.6863  -6.6856  -6.6846  -6.6811  -6.6801  -6.6800  -1.6618  -1.4671
 -1.3698  -1.2247  -1.1430  -1.0737  -1.0225  -0.9907  -0.9607  -0.9069
 -0.8668  -0.8101  -0.7924  -0.7619  -0.7329  -0.7263  -0.6999  -0.6846
 -0.6740  -0.6628  -0.6112  -0.6042  -0.5930  -0.5822  -0.5638  -0.5616
 -0.5311  -0.5169  -0.5133  -0.4893  -0.4762  -0.4731  -0.4695  -0.4260
 -0.3867  -0.3413  -0.3043
 -- Virtual --
  0.0287   0.0802   0.1415   0.1486   0.1567   0.1739   0.1850   0.1904
  0.2090   0.2146   0.2172   0.2282   0.2327   0.2438   0.2511   0.2678
  0.2721   0.3005   0.3158   0.3308   0.3403   0.3555   0.3648   0.3790
  0.3840   0.3915   0.3976   0.4111   0.4236   0.4288   0.4387   0.4430
  0.4495   0.4518   0.4665   0.4857   0.4890   0.5040   0.5131   0.5144
  0.5231   0.5267   0.5368   0.5424   0.5440   0.5535   0.5715   0.5792
  0.5908   0.5960   0.6093   0.6131   0.6149   0.6217   0.6248   0.6286
  0.6365   0.6469   0.6541   0.6681   0.6766   0.6899   0.6930   0.7032
  0.7093   0.7169   0.7341   0.7421   0.7603   0.7629   0.7742   0.7922
  0.7993   0.8103   0.8204   0.8399   0.8489   0.8551   0.8629   0.8755
  0.8825   0.9040   0.9147   0.9356   0.9436   0.9545   0.9613   0.9725
  0.9832   0.9865   1.0064   1.0204   1.0271   1.0368   1.0406   1.0539
  1.0590   1.0801   1.0898   1.1016   1.1071   1.1191   1.1206   1.1229
  1.1386   1.1512   1.1645   1.1720   1.1860   1.1941   1.2037   1.2168
  1.2272   1.2335   1.2483   1.2564   1.2648   1.2743   1.2850   1.3017
  1.3199   1.3253   1.3485   1.3629   1.3678   1.3726   1.3999   1.4085
  1.4159   1.4299   1.4429   1.4626   1.4724   1.4820   1.5012   1.5070
  1.5122   1.5359   1.5434   1.5515   1.5604   1.5708   1.5836   1.5921
  1.6107   1.6418   1.6493   1.6658   1.6783   1.6961   1.6982   1.7338
  1.7581   1.7665   1.7762   1.7924   1.8173   1.8210   1.8336   1.8488
  1.8655   1.8780   1.8948   1.9238   1.9352   1.9557   1.9610   1.9688
  1.9797   1.9962   2.0156   2.0196   2.0627   2.0804   2.0847   2.0926
  2.1145   2.1487   2.1613   2.1770   2.1949   2.1976   2.2121   2.2168
  2.2302   2.2439   2.2584   2.2713   2.2893   2.2916   2.3351   2.3404
  2.3547   2.3693   2.3780   2.4105   2.4148   2.4321   2.4626   2.4842
  2.5002   2.5270   2.5405   2.5577   2.5672   2.5879   2.6177   2.6280
  2.6365   2.6436   2.6577   2.6739   2.6872   2.6971   2.7052   2.7227
  2.7450   2.7480   2.7690   2.7841   2.7895   2.8064   2.8188   2.8336
  2.8406   2.8666   2.8767   2.8806   2.9119   2.9386   2.9463   2.9541
  2.9799   2.9847   2.9992   3.0029   3.0233   3.0429   3.0563   3.0631
  3.0767   3.0865   3.0993   3.1103   3.1132   3.1218   3.1290   3.1495
  3.1729   3.1869   3.2029   3.2112   3.2177   3.2225   3.2305   3.2392
  3.2483   3.2608   3.2702   3.2771   3.2891   3.3045   3.3177   3.3324
  3.3398   3.3586   3.3622   3.3708   3.3884   3.3914   3.4078   3.4131
  3.4223   3.4294   3.4455   3.4571   3.4695   3.4734   3.4837   3.4950
  3.5016   3.5201   3.5337   3.5381   3.5491   3.5555   3.5708   3.5854
  3.5934   3.5992   3.6085   3.6173   3.6201   3.6498   3.6576   3.6632
  3.6831   3.6907   3.7056   3.7154   3.7257   3.7350   3.7574   3.7648
  3.7751   3.7936   3.7975   3.8020   3.8179   3.8333   3.8526   3.8642
  3.8752   3.8769   3.8831   3.9041   3.9110   3.9301   3.9328   3.9404
  3.9522   3.9648   3.9900   4.0089   4.0189   4.0329   4.0559   4.0682
  4.0693   4.0807   4.1059   4.1341   4.1446   4.1565   4.1645   4.1694
  4.2021   4.2160   4.2223   4.2363   4.2688   4.3090   4.3418   4.3492
  4.3582   4.3654   4.3727   4.3910   4.3987   4.4321   4.4360   4.4587
  4.4784   4.4944   4.5208   4.5399   4.5567   4.5792   4.5825   4.6165
  4.6261   4.6477   4.6559   4.6728   4.6778   4.6918   4.7480   4.7615
  4.7701   4.7810   4.8087   4.8148   4.8454   4.8557   4.8894   4.9355
  4.9510   4.9721   5.0088   5.0158   5.0256   5.0974   5.1160   5.1262
  5.1619   5.1981   5.2198   5.2453   5.2529   5.2572   5.2681   5.3501
  5.3563   5.4064   5.4229   5.4260   5.4357   5.4847   5.4907   5.5119
  5.5332   5.5810   5.6220   5.6298   5.6585   5.6985   5.7247   5.7517
  5.8076   5.8090   5.8531   5.8887   5.8941   5.9295   5.9530   5.9895
  6.0219   6.0423   6.1318   6.1504   6.1829   6.2386   6.2615   6.4031
  6.4503   6.4811   6.5371   6.5975   6.6611   6.6717   6.7447   6.8296
  6.8600   6.9785   7.2041   7.2044   7.3104   7.3619   7.3624   7.4049
  7.4135   7.4843   7.5174   7.5499   7.6146   7.7716   7.7893   7.8940
  7.9610   8.1318   8.2375   8.9208   9.0258   9.3619   9.4804   9.6636
 10.2240  11.2228  11.7552  11.9847  12.4284  12.7962  13.0479  13.3861
 13.7738  14.0266  14.3774
 --------------------------------------------------------------
 
          Ground-State Mulliken Net Atomic Charges

     Atom                 Charge (a.u.)
  ----------------------------------------
      1 C                    -0.148110
      2 S                     0.093887
      3 C                    -0.136463
      4 C                     0.088080
      5 C                    -0.119746
      6 S                     0.039655
      7 C                    -0.160455
      8 C                     0.396173
      9 F                    -0.205443
     10 C                     0.448826
     11 O                    -0.464352
     12 O                    -0.301638
     13 C                    -0.058205
     14 H                     0.121276
     15 H                     0.095069
     16 H                     0.094787
     17 C                    -0.347648
     18 H                     0.100108
     19 H                     0.134668
     20 H                     0.113698
     21 H                     0.215833
  ----------------------------------------
  Sum of atomic charges =     0.000000

 -----------------------------------------------------------------
                    Cartesian Multipole Moments
 -----------------------------------------------------------------
    Charge (ESU x 10^10)
                -0.0000
    Dipole Moment (Debye)
         X       3.3473      Y       0.6968      Z       2.1306
       Tot       4.0286
    Quadrupole Moments (Debye-Ang)
        XX     -89.5412     XY       4.8661     YY     -91.7322
        XZ      -4.6771     YZ      -3.2123     ZZ     -96.7642
    Octopole Moments (Debye-Ang^2)
       XXX    -208.5121    XXY     -29.7447    XYY     -70.0053
       YYY    -110.1624    XXZ      53.4685    XYZ     -15.6032
       YYZ      70.6899    XZZ      -4.3498    YZZ       5.5349
       ZZZ     266.3802
    Hexadecapole Moments (Debye-Ang^3)
      XXXX   -1417.2042   XXXY    -395.3115   XXYY    -351.5528
      XYYY    -424.2021   YYYY    -757.3712   XXXZ     605.8101
      XXYZ      90.7411   XYYZ     201.6332   YYYZ     429.2935
      XXZZ    -603.9372   XYZZ       5.3802   YYZZ    -658.3199
      XZZZ     422.2559   YZZZ     285.0901   ZZZZ   -3694.3861
 -----------------------------------------------------------------
 Total job time:  53.27s(wall), 1930.86s(cpu) 
 Tue Jan  9 10:17:50 2024

        *************************************************************
        *                                                           *
        *  Thank you very much for using Q-Chem.  Have a nice day.  *
        *                                                           *
        *************************************************************


0 sent ACK to 0 
now end server 0 ... 
cleanup process ... done
remove work dirs ./qchem2534083.0 -- ./qchem2534083.0
rm -rf ./qchem2534083.0
rm -rf ./qchem2534083
