You are running Q-Chem version: 5.4.0

#
# job setting
#
local host:  exp-1-41
current dir: /home/rramji/project-csd799/aromodel/ptb7fout-qchem/methylated-rotation-run
input file:  Dimethoxy_Benzodithiophene_Phi_0_Theta_300_Methylcarbonyl_3_Fluoro_Thienothiophene_Hydrogenated_Improper.qcin
output file: 
nprocs     : 1
nthreads   : 64
#
# qchem installation setting
#
QC:          /cm/shared/apps/spack/cpu/opt/spack/linux-centos8-zen2/gcc-10.2.0/qchem-5.4-akfmr7b3t57bfs6qan3padb2wnb2i7cl
QCAUX:       /cm/shared/apps/spack/cpu/opt/spack/linux-centos8-zen2/gcc-10.2.0/qchem-5.4-akfmr7b3t57bfs6qan3padb2wnb2i7cl/qcaux
QCPROG:      /cm/shared/apps/spack/cpu/opt/spack/linux-centos8-zen2/gcc-10.2.0/qchem-5.4-akfmr7b3t57bfs6qan3padb2wnb2i7cl/exe/qcprog.exe
QCPROG_S:    /cm/shared/apps/spack/cpu/opt/spack/linux-centos8-zen2/gcc-10.2.0/qchem-5.4-akfmr7b3t57bfs6qan3padb2wnb2i7cl/exe/qcprog.exe_s
PARALLEL:    -DPARALLEL
QCMPI:       mpich
#
# qchem directory setting
#
qcrun:       qchem1397430
QCSCRATCH:   .
QCLOCALSCR:  
QCTMPDIR:    .
QCFILEPREF:  ./qchem1397430
QCSAVEDIR:   
workdirs:    ./qchem1397430
workdir0:    ./qchem1397430
partmpdirs =  
#
# parallel setting
#
QCRSH:           ssh
QCMPI:           mpich
QCMPIRUN:        /cm/shared/apps/spack/cpu/opt/spack/linux-centos8-zen2/gcc-10.2.0/qchem-5.4-akfmr7b3t57bfs6qan3padb2wnb2i7cl/bin/mpi/mpirun_qchem
QCMACHINEFILE:   ./qchem1397430/hostfile
exp-1-41

#
# env setting
#
exported envs:   QC QCAUX QCSCRATCH QCRUNNAME QCFILEPREF QCPROG QCPROG_S GUIFILE

Running Job 1 of 1 Dimethoxy_Benzodithiophene_Phi_0_Theta_300_Methylcarbonyl_3_Fluoro_Thienothiophene_Hydrogenated_Improper.qcin
qchem Dimethoxy_Benzodithiophene_Phi_0_Theta_300_Methylcarbonyl_3_Fluoro_Thienothiophene_Hydrogenated_Improper.qcin_1397430.0 ./qchem1397430/ 1
/cm/shared/apps/spack/cpu/opt/spack/linux-centos8-zen2/gcc-10.2.0/qchem-5.4-akfmr7b3t57bfs6qan3padb2wnb2i7cl/bin/mpi/mpirun_qchem -machinefile ./qchem1397430/hostfile -np 1 /cm/shared/apps/spack/cpu/opt/spack/linux-centos8-zen2/gcc-10.2.0/qchem-5.4-akfmr7b3t57bfs6qan3padb2wnb2i7cl/exe/qcprog.exe Dimethoxy_Benzodithiophene_Phi_0_Theta_300_Methylcarbonyl_3_Fluoro_Thienothiophene_Hydrogenated_Improper.qcin_1397430.0 ./qchem1397430/

Process 0 of 1 is on exp-1-41 - thread support 0
initial socket setup ...start
initial socket setup ...done 
now start server 0 ... 
                  Welcome to Q-Chem
     A Quantum Leap Into The Future Of Chemistry


 Q-Chem 5.4, Q-Chem, Inc., Pleasanton, CA (2021)

 License issued to: University of California, San Diego (site)

 E. Epifanovsky,  A. T. B. Gilbert,  Xintian Feng,  Joonho Lee,  Yuezhi Mao,  
 N. Mardirossian,  P. Pokhilko,  A. White,  M. Wormit,  M. P. Coons,  
 A. L. Dempwolff,  Zhengting Gan,  D. Hait,  P. R. Horn,  L. D. Jacobson,  
 I. Kaliman,  J. Kussmann,  A. W. Lange,  Ka Un Lao,  D. S. Levine,  Jie Liu,  
 S. C. McKenzie,  A. F. Morrison,  K. Nanda,  F. Plasser,  D. R. Rehn,  
 M. L. Vidal,  Zhi-Qiang You,  Ying Zhu,  B. Alam,  B. Albrecht,  
 A. Aldossary,  E. Alguire,  J. H. Andersen,  D. Barton,  K. Begam,  A. Behn,  
 Y. A. Bernard,  E. J. Berquist,  H. Burton,  A. Carreras,  K. Carter-Fenk,  
 R. Chakraborty,  A. D. Chien,  K. D. Closser,  V. Cofer-Shabica,  
 S. Dasgupta,  Jia Deng,  M. de Wergifosse,  M. Diedenhofen,  Hainam Do,  
 S. Ehlert,  Po-Tung Fang,  S. Fatehi,  Qingguo Feng,  J. Gayvert,  
 Qinghui Ge,  G. Gidofalvi,  M. Goldey,  J. Gomes,  C. Gonzalez-Espinoza,  
 S. Gulania,  A. Gunina,  M. W. D. Hanson-Heine,  P. H. P. Harbach,  
 A. W. Hauser,  M. F. Herbst,  M. Hernandez Vera,  M. Hodecker,  
 Z. C. Holden,  S. Houck,  Xunkun Huang,  Kerwin Hui,  B. C. Huynh,  
 M. Ivanov,  Hyunjun Ji,  Hanjie Jiang,  B. Kaduk,  S. Kaehler,  
 K. Khistyaev,  Jaehoon Kim,  P. Klunzinger,  Z. Koczor-Benda,  
 Joong Hoon Koh,  D. Kosenkov,  L. Koulias,  T. Kowalczyk,  C. M. Krauter,  
 K. Kue,  A. Kunitsa,  T. Kus,  A. Landau,  K. V. Lawler,  D. Lefrancois,  
 S. Lehtola,  Rain Li,  Yi-Pei Li,  Jiashu Liang,  M. Liebenthal,  
 Hung-Hsuan Lin,  You-Sheng Lin,  Fenglai Liu,  Kuan-Yu Liu,  
 M. Loipersberger,  A. Luenser,  A. Manjanath,  P. Manohar,  E. Mansoor,  
 S. F. Manzer,  Shan-Ping Mao,  A. V. Marenich,  T. Markovich,  S. Mason,  
 S. A. Maurer,  P. F. McLaughlin,  M. F. S. J. Menger,  J.-M. Mewes,  
 S. A. Mewes,  P. Morgante,  J. W. Mullinax,  T. S. Nguyen-Beck,  
 K. J. Oosterbaan,  G. Paran,  Alexander C. Paul,  Suranjan K. Paul,  
 F. Pavosevic,  Zheng Pei,  S. Prager,  E. I. Proynov,  E. Ramos,  B. Rana,  
 A. E. Rask,  A. Rettig,  R. M. Richard,  F. Rob,  E. Rossomme,  T. Scheele,  
 M. Scheurer,  M. Schneider,  N. Sergueev,  S. M. Sharada,  W. Skomorowski,  
 D. W. Small,  C. J. Stein,  Yu-Chuan Su,  E. J. Sundstrom,  Zhen Tao,  
 J. Thirman,  T. Tsuchimochi,  N. M. Tubman,  S. P. Veccham,  O. Vydrov,  
 J. Wenzel,  J. Witte,  A. Yamada,  Kun Yao,  S. Yeganeh,  S. R. Yost,  
 A. Zech,  Igor Ying Zhang,  Xing Zhang,  Yu Zhang,  D. Zuev,  
 A. Aspuru-Guzik,  A. T. Bell,  N. A. Besley,  K. B. Bravaya,  B. R. Brooks,  
 D. Casanova,  Jeng-Da Chai,  S. Coriani,  C. J. Cramer,  
 A. E. DePrince, III,  R. A. DiStasio Jr.,  A. Dreuw,  B. D. Dunietz,  
 T. R. Furlani,  W. A. Goddard III,  S. Grimme,  S. Hammes-Schiffer,  
 T. Head-Gordon,  W. J. Hehre,  Chao-Ping Hsu,  T.-C. Jagau,  Yousung Jung,  
 A. Klamt,  Jing Kong,  D. S. Lambrecht,  WanZhen Liang,  N. J. Mayhall,  
 C. W. McCurdy,  J. B. Neaton,  C. Ochsenfeld,  J. A. Parkhill,  R. Peverati,  
 V. A. Rassolov,  Yihan Shao,  L. V. Slipchenko,  T. Stauch,  R. P. Steele,  
 J. E. Subotnik,  A. J. W. Thom,  A. Tkatchenko,  D. G. Truhlar,  
 T. Van Voorhis,  T. A. Wesolowski,  K. B. Whaley,  H. L. Woodcock III,  
 P. M. Zimmerman,  S. Faraji,  P. M. W. Gill,  M. Head-Gordon,  
 J. M. Herbert,  A. I. Krylov

 Contributors to earlier versions of Q-Chem not listed above: 
 R. D. Adamson,  B. Austin,  R. Baer,  J. Baker,  G. J. O. Beran,  
 K. Brandhorst,  S. T. Brown,  E. F. C. Byrd,  A. K. Chakraborty,  
 G. K. L. Chan,  Chun-Min Chang,  Yunqing Chen,  C.-L. Cheng,  
 Siu Hung Chien,  D. M. Chipman,  D. L. Crittenden,  H. Dachsel,  
 R. J. Doerksen,  A. D. Dutoi,  R. G. Edgar,  J. Fosso-Tande,  
 L. Fusti-Molnar,  D. Ghosh,  A. Ghysels,  A. Golubeva-Zadorozhnaya,  
 J. Gonthier,  M. S. Gordon,  S. R. Gwaltney,  G. Hawkins,  J. E. Herr,  
 A. Heyden,  S. Hirata,  E. G. Hohenstein,  G. Kedziora,  F. J. Keil,  
 C. Kelley,  Jihan Kim,  R. A. King,  R. Z. Khaliullin,  P. P. Korambath,  
 W. Kurlancheek,  A. Laurent,  A. M. Lee,  M. S. Lee,  S. V. Levchenko,  
 Ching Yeh Lin,  D. Liotard,  E. Livshits,  R. C. Lochan,  I. Lotan,  
 L. A. Martinez-Martinez,  P. E. Maslen,  N. Nair,  D. P. O'Neill,  
 D. Neuhauser,  E. Neuscamman,  C. M. Oana,  R. Olivares-Amaya,  R. Olson,  
 T. M. Perrine,  B. Peters,  P. A. Pieniazek,  A. Prociuk,  Y. M. Rhee,  
 J. Ritchie,  M. A. Rohrdanz,  E. Rosta,  N. J. Russ,  H. F. Schaefer III,  
 M. W. Schmidt,  N. E. Schultz,  S. Sharma,  N. Shenvi,  C. D. Sherrill,  
 A. C. Simmonett,  A. Sodt,  T. Stein,  D. Stuck,  K. S. Thanthiriwatte,  
 V. Vanovschi,  L. Vogt,  Tao Wang,  A. Warshel,  M. A. Watson,  
 C. F. Williams,  Q. Wu,  X. Xu,  Jun Yang,  W. Zhang,  Yan Zhao

 Please cite Q-Chem as follows:
 Y. Shao et al., Mol. Phys. 113, 184-215 (2015)
 DOI: 10.1080/00268976.2014.952696

 Q-Chem 5.4.0 for Intel X86 EM64T Linux

 Parts of Q-Chem use Armadillo 9.800.1 (Horizon Scraper).
 http://arma.sourceforge.net/

 Q-Chem begins on Tue Jan  9 10:17:33 2024  

 Host: 
0

     Scratch files written to ./qchem1397430//
 May1621 |scratch|qcdevops|jenkins|workspace|build_RNUM    
 Parallel job on  1  processors
 Processing $rem in /cm/shared/apps/spack/cpu/opt/spack/linux-centos8-zen2/gcc-10.2.0/qchem-5.4-akfmr7b3t57bfs6qan3padb2wnb2i7cl/config/preferences:
 Processing $rem in /home/rramji/.qchemrc:
 Symmetry turned off for PCM/SM12/SMD calculation
 Core orbitals will be frozen

 Checking the input file for inconsistencies... 	...done.

 Q-Chem warning in module forms1/BasisType.C, line 2236:

 You are not using the predefined 5D/6D in this basis set.


--------------------------------------------------------------
User input:
--------------------------------------------------------------
$molecule
0 1
C	-0.000628	-0.991205	0.978067
S	-0.000128	-0.086405	2.485567
C	-0.000928	1.486095	1.696967
C	0.000172	-0.086805	-0.089833
C	-0.002228	1.303395	0.291667
S	0.002972	-0.330305	-1.827433
C	-0.002528	1.421295	-2.076433
C	-0.005028	2.129695	-0.884533
F	-0.009828	3.466295	-0.841033
C	-0.000628	1.869395	-3.478033
O	0.007272	1.099495	-4.428433
O	-0.008128	3.219895	-3.591133
C	-0.002928	3.714995	-4.938133
H	-0.009928	4.815995	-4.855033
H	-0.896028	3.361695	-5.492133
H	0.900872	3.372095	-5.481233
C	-0.000628	-2.426405	0.978067
H	0.532872	-2.434405	0.039067
H	0.727572	-3.104305	1.398167
H	-0.818328	-2.957505	0.513667
H	-0.002328	2.410395	2.284567
$end

$rem
JOBTYPE		SP
EXCHANGE	HF
CORRELATION	pRIMP2
BASIS		cc-pvtz
METHOD		rimp2
AUX_BASIS	rimp2-cc-pvtz
SOLVENT_METHOD	PCM
PURECART	11111
SYMMETRY	false
MEM_TOTAL	110000
SCF_CONVERGENCE = 6
THRESH=10
GUI = 2
$end



$solvent
dielectric 4.90
$end
--------------------------------------------------------------
 ----------------------------------------------------------------
             Standard Nuclear Orientation (Angstroms)
    I     Atom           X                Y                Z
 ----------------------------------------------------------------
    1      C      -0.0006280000    -0.9912050000     0.9780670000
    2      S      -0.0001280000    -0.0864050000     2.4855670000
    3      C      -0.0009280000     1.4860950000     1.6969670000
    4      C       0.0001720000    -0.0868050000    -0.0898330000
    5      C      -0.0022280000     1.3033950000     0.2916670000
    6      S       0.0029720000    -0.3303050000    -1.8274330000
    7      C      -0.0025280000     1.4212950000    -2.0764330000
    8      C      -0.0050280000     2.1296950000    -0.8845330000
    9      F      -0.0098280000     3.4662950000    -0.8410330000
   10      C      -0.0006280000     1.8693950000    -3.4780330000
   11      O       0.0072720000     1.0994950000    -4.4284330000
   12      O      -0.0081280000     3.2198950000    -3.5911330000
   13      C      -0.0029280000     3.7149950000    -4.9381330000
   14      H      -0.0099280000     4.8159950000    -4.8550330000
   15      H      -0.8960280000     3.3616950000    -5.4921330000
   16      H       0.9008720000     3.3720950000    -5.4812330000
   17      C      -0.0006280000    -2.4264050000     0.9780670000
   18      H       0.5328720000    -2.4344050000     0.0390670000
   19      H       0.7275720000    -3.1043050000     1.3981670000
   20      H      -0.8183280000    -2.9575050000     0.5136670000
   21      H      -0.0023280000     2.4103950000     2.2845670000
 ----------------------------------------------------------------
 Nuclear Repulsion Energy =        1083.42064674 hartrees
 There are       59 alpha and       59 beta electrons
 Requested basis set is cc-pVTZ
 There are 186 shells and 526 basis functions

 Total QAlloc Memory Limit 110000 MB
 Mega-Array Size       188 MB
 MEM_STATIC part       192 MB
 Discretize the solute cavity surface with Lebedev spheres
	Using 110 Lebedev grid points for each H atom
	Using 194 Lebedev grid points for other atoms
	Atomic van der Waals radii will be scaled by 1.20
 Remove points where switching function is < 1.0e-08
 Keep 1544 surface tesserae and discard 1942 interior tesserae
 Molecular Surface Area = 242.721 Angst**2
 Requested basis set is rimp2-cc-pVTZ
 There are 410 shells and 1426 basis functions
 A cutoff of  1.0D-10 yielded  11556 shell pairs
 There are     90628 function pairs (    118596 Cartesian)
 Smallest overlap matrix eigenvalue = 5.84E-05

 Scale SEOQF with 1.000000e+00/1.000000e-01/1.000000e-02

 Standard Electronic Orientation quadrupole field applied
 Nucleus-field energy     =     0.0000000274 hartrees
 Guess from superposition of atomic densities
 Warning:  Energy on first SCF cycle will be non-variational
 SAD guess density has 118.000000 electrons

 -----------------------------------------------------------------------
  General SCF calculation program by
  Eric Jon Sundstrom, Paul Horn, Yuezhi Mao, Dmitri Zuev, Alec White,
  David Stuck, Shaama M.S., Shane Yost, Joonho Lee, David Small,
  Daniel Levine, Susi Lehtola, Hugh Burton, Evgeny Epifanovsky,
  Bang C. Huynh
 -----------------------------------------------------------------------
 Hartree-Fock
 using 64 threads for integral computing
 -------------------------------------------------------
 OpenMP Integral computing Module                
 Release: version 1.0, May 2013, Q-Chem Inc. Pittsburgh 
 -------------------------------------------------------
 A restricted SCF calculation will be
 performed using DIIS
 SCF converges when DIIS error is below 1.0e-06
 ---------------------------------------
  Cycle       Energy         DIIS error
 ---------------------------------------
    1   -1394.2418722990      2.47e-02  
    2   -1389.0376160318      2.47e-03  
    3   -1389.2070397316      1.54e-03  
    4   -1389.2666496056      3.53e-04  
    5   -1389.2723913939      1.12e-04  
    6   -1389.2730632235      3.61e-05  
    7   -1389.2732072451      1.81e-05  
    8   -1389.2732568029      7.00e-06  
    9   -1389.2732672372      2.98e-06  
   10   -1389.2732686246      1.11e-06  
   11   -1389.2732688291      4.69e-07  Convergence criterion met
 ---------------------------------------
 SCF time:   CPU 1683.10s  wall 50.00s 

************** Final PCM Free Energy Summary **************
 G_electrostatic  =      -0.01176155 hartree =      -7.38048612 kcal/mol
 G_cavitation     =       0.00000000 hartree =       0.00000000 kcal/mol
 G_dispersion     =       0.00000000 hartree =       0.00000000 kcal/mol
 G_repulsion      =       0.00000000 hartree =       0.00000000 kcal/mol
 --------------------------------------------------
 Non-electrostatic Free Energy =       0.00000000 hartree =       0.00000000 kcal/mol
 Total                         =      -0.01176155 hartree =      -7.38048612 kcal/mol
 --------------------------------------------------
 SCF Energy (H0 + V/2)                       =   -1389.27326883 
 Solute Internal Energy (H0)                 =   -1389.26150728 
 Total Free Energy (H0 + V/2 + non-elec)     =   -1389.27326883 hartree
                                             = -871782.13399737 kcal/mol
***********************************************************

 SCF   energy in the final basis set =    -1389.2732688291
 Total energy in the final basis set =    -1389.2732688291


 --------------------------------------------------------------
  Generalized many-body perturbation theory program
  by Joonho Lee, Fazle Rob, Xintian Feng, Evgeny Epifanovsky

 No regularization used 
 (reg. param. = 0.0000e+00)
  (P|Q)^-1/2 Time:  CPU 26.40 s  wall 0.42 s

 In RI-MP2 calculation: 
 # of frozen core orbitals: 22

 Components of the RIMP2 correlation energy:
        aaaa    correlation energy =        -0.3286112718 a.u.
        abab    correlation energy =        -1.8484836758 a.u.
        bbbb    correlation energy =        -0.3286112718 a.u.
        non-Brillouin singles      =        -0.0000000000 a.u.
        total same-spin energy     =        -0.6572225436 a.u.
        total opposite-spin energy =        -1.8484836758 a.u.

 Total  RIMP2   correlation energy =        -2.5057062194 a.u.
        RIMP2         total energy =     -1391.7789750485 a.u.

 RI-MP2 Energy Time:  CPU 184.14 s  wall 3.54 s
 
 --------------------------------------------------------------
 
                    Orbital Energies (a.u.)
 --------------------------------------------------------------
 
 Alpha MOs
 -- Occupied --
-92.0038 -91.9933 -26.3410 -20.6137 -20.5597 -11.4077 -11.3794 -11.2973
-11.2971 -11.2946 -11.2882 -11.2873 -11.2789 -11.2276  -9.0027  -8.9935
 -6.6835  -6.6829  -6.6825  -6.6745  -6.6738  -6.6727  -1.6582  -1.4660
 -1.3686  -1.2129  -1.1353  -1.0679  -1.0185  -0.9953  -0.9581  -0.9141
 -0.8633  -0.8048  -0.7888  -0.7591  -0.7300  -0.7230  -0.6939  -0.6834
 -0.6728  -0.6609  -0.6089  -0.6016  -0.5915  -0.5834  -0.5660  -0.5567
 -0.5387  -0.5301  -0.5070  -0.4889  -0.4733  -0.4716  -0.4650  -0.4572
 -0.3893  -0.3446  -0.2896
 -- Virtual --
  0.0411   0.1235   0.1327   0.1518   0.1575   0.1753   0.1867   0.1958
  0.2138   0.2156   0.2194   0.2252   0.2334   0.2406   0.2514   0.2723
  0.2954   0.3078   0.3169   0.3418   0.3434   0.3530   0.3744   0.3830
  0.3849   0.3955   0.4079   0.4126   0.4184   0.4311   0.4403   0.4430
  0.4622   0.4673   0.4799   0.4886   0.4992   0.5032   0.5092   0.5136
  0.5264   0.5413   0.5428   0.5472   0.5542   0.5581   0.5686   0.5786
  0.5895   0.6009   0.6050   0.6111   0.6160   0.6224   0.6252   0.6270
  0.6397   0.6535   0.6602   0.6639   0.6715   0.6888   0.7012   0.7076
  0.7119   0.7203   0.7221   0.7490   0.7575   0.7633   0.7743   0.8114
  0.8167   0.8197   0.8359   0.8418   0.8474   0.8726   0.8757   0.8786
  0.8834   0.8927   0.9026   0.9290   0.9380   0.9560   0.9638   0.9772
  0.9839   0.9883   1.0039   1.0149   1.0223   1.0315   1.0447   1.0511
  1.0602   1.0733   1.0904   1.0976   1.1009   1.1081   1.1139   1.1209
  1.1268   1.1528   1.1655   1.1784   1.1831   1.1952   1.2067   1.2108
  1.2226   1.2323   1.2400   1.2487   1.2631   1.2793   1.2814   1.2985
  1.3158   1.3325   1.3430   1.3589   1.3620   1.3850   1.3938   1.4074
  1.4227   1.4351   1.4414   1.4689   1.4858   1.4991   1.5024   1.5034
  1.5164   1.5407   1.5426   1.5561   1.5575   1.5806   1.5984   1.6028
  1.6085   1.6247   1.6528   1.6713   1.6756   1.6854   1.7151   1.7246
  1.7512   1.7760   1.7960   1.8149   1.8220   1.8271   1.8508   1.8574
  1.8696   1.8885   1.8966   1.9031   1.9103   1.9520   1.9544   1.9609
  1.9916   2.0064   2.0103   2.0260   2.0611   2.0877   2.0899   2.1078
  2.1280   2.1597   2.1758   2.1950   2.1978   2.2006   2.2152   2.2321
  2.2356   2.2512   2.2583   2.2818   2.3048   2.3103   2.3336   2.3467
  2.3711   2.3735   2.3950   2.4101   2.4321   2.4529   2.4840   2.4957
  2.5135   2.5402   2.5562   2.5630   2.5786   2.6068   2.6272   2.6367
  2.6422   2.6565   2.6759   2.6833   2.6879   2.7001   2.7055   2.7141
  2.7277   2.7353   2.7565   2.7762   2.7863   2.8027   2.8106   2.8174
  2.8262   2.8560   2.8713   2.8825   2.8943   2.8987   2.9246   2.9533
  2.9571   2.9747   2.9863   2.9945   3.0176   3.0239   3.0394   3.0473
  3.0744   3.0832   3.0882   3.1032   3.1066   3.1265   3.1326   3.1481
  3.1500   3.1565   3.2028   3.2066   3.2176   3.2192   3.2382   3.2463
  3.2583   3.2626   3.2768   3.2927   3.2931   3.3019   3.3236   3.3297
  3.3443   3.3490   3.3645   3.3713   3.3804   3.3944   3.4033   3.4098
  3.4324   3.4364   3.4395   3.4543   3.4574   3.4790   3.4847   3.4926
  3.4968   3.5127   3.5212   3.5349   3.5479   3.5549   3.5669   3.5741
  3.5870   3.5929   3.6007   3.6163   3.6279   3.6393   3.6540   3.6639
  3.6793   3.6839   3.6942   3.7048   3.7069   3.7143   3.7335   3.7543
  3.7741   3.7841   3.7960   3.7996   3.8161   3.8177   3.8230   3.8347
  3.8441   3.8654   3.8729   3.8867   3.8953   3.9122   3.9194   3.9245
  3.9391   3.9510   3.9600   3.9900   3.9941   4.0273   4.0321   4.0441
  4.0637   4.0683   4.0722   4.0992   4.1093   4.1332   4.1659   4.1694
  4.1722   4.2013   4.2094   4.2388   4.2677   4.2811   4.2986   4.3089
  4.3424   4.3586   4.3601   4.3795   4.3879   4.4130   4.4216   4.4348
  4.4436   4.4667   4.5103   4.5210   4.5391   4.5654   4.5839   4.5920
  4.5971   4.6454   4.6520   4.6615   4.6748   4.6962   4.7315   4.7425
  4.7777   4.7794   4.8268   4.8500   4.8722   4.8805   4.9037   4.9247
  4.9533   4.9759   5.0036   5.0095   5.0511   5.0922   5.1060   5.1147
  5.1311   5.1584   5.2044   5.2525   5.2554   5.2605   5.3187   5.3515
  5.3634   5.3946   5.4173   5.4269   5.4419   5.4855   5.4996   5.5258
  5.5421   5.5827   5.5995   5.6230   5.6616   5.6998   5.7378   5.7581
  5.8086   5.8164   5.8482   5.8743   5.9204   5.9304   5.9560   6.0428
  6.0591   6.0734   6.1512   6.1765   6.2118   6.2623   6.3130   6.3719
  6.4514   6.4539   6.5389   6.6039   6.6619   6.6725   6.7476   6.8311
  6.8608   6.9795   7.2051   7.2080   7.3111   7.3651   7.3653   7.4076
  7.4144   7.4878   7.5262   7.5527   7.6162   7.7753   7.7899   7.8962
  7.9634   8.1355   8.2422   8.9240   9.0131   9.3650   9.4605   9.6461
 10.0639  11.0561  11.6097  11.8054  12.4071  13.0037  13.0917  13.3866
 13.7755  14.0311  14.5327
 --------------------------------------------------------------
 
          Ground-State Mulliken Net Atomic Charges

     Atom                 Charge (a.u.)
  ----------------------------------------
      1 C                     0.050142
      2 S                     0.073278
      3 C                    -0.208552
      4 C                    -0.014871
      5 C                    -0.099113
      6 S                    -0.010448
      7 C                    -0.157503
      8 C                     0.388198
      9 F                    -0.207891
     10 C                     0.445287
     11 O                    -0.462849
     12 O                    -0.300826
     13 C                    -0.058673
     14 H                     0.121183
     15 H                     0.094787
     16 H                     0.094699
     17 C                    -0.379051
     18 H                     0.118315
     19 H                     0.162559
     20 H                     0.138907
     21 H                     0.212421
  ----------------------------------------
  Sum of atomic charges =     0.000000

 -----------------------------------------------------------------
                    Cartesian Multipole Moments
 -----------------------------------------------------------------
    Charge (ESU x 10^10)
                -0.0000
    Dipole Moment (Debye)
         X       0.3173      Y       0.4440      Z       2.6628
       Tot       2.7181
    Quadrupole Moments (Debye-Ang)
        XX     -96.4100     XY      -0.9990     YY     -80.8765
        XZ       0.6906     YZ      -8.9277     ZZ     -97.8829
    Octopole Moments (Debye-Ang^2)
       XXX      -0.3622    XXY     -82.3557    XYY       3.0594
       YYY    -240.1511    XXZ      80.5943    XYZ      -2.2717
       YYZ      46.3286    XZZ       0.4525    YZZ      -0.7699
       ZZZ     269.1892
    Hexadecapole Moments (Debye-Ang^3)
      XXXX    -120.7972   XXXY       2.8606   XXYY    -385.4412
      XYYY      -6.6889   YYYY   -2059.8223   XXXZ      -0.6959
      XXYZ     281.0763   XYYZ       6.9882   YYYZ     679.7092
      XXZZ    -636.3185   XYZZ      -2.6537   YYZZ    -639.3229
      XZZZ       1.4259   YZZZ     523.8855   ZZZZ   -3704.3602
 -----------------------------------------------------------------
 Total job time:  57.26s(wall), 1985.92s(cpu) 
 Tue Jan  9 10:18:30 2024

        *************************************************************
        *                                                           *
        *  Thank you very much for using Q-Chem.  Have a nice day.  *
        *                                                           *
        *************************************************************


0 sent ACK to 0 
now end server 0 ... 
cleanup process ... done
remove work dirs ./qchem1397430.0 -- ./qchem1397430.0
rm -rf ./qchem1397430.0
rm -rf ./qchem1397430
