You are running Q-Chem version: 5.4.0

#
# job setting
#
local host:  exp-1-41
current dir: /home/rramji/project-csd799/aromodel/ptb7fout-qchem/methylated-rotation-run
input file:  Dimethoxy_Benzodithiophene_Phi_0_Theta_220_Methylcarbonyl_3_Fluoro_Thienothiophene_Hydrogenated_Improper.qcin
output file: 
nprocs     : 1
nthreads   : 64
#
# qchem installation setting
#
QC:          /cm/shared/apps/spack/cpu/opt/spack/linux-centos8-zen2/gcc-10.2.0/qchem-5.4-akfmr7b3t57bfs6qan3padb2wnb2i7cl
QCAUX:       /cm/shared/apps/spack/cpu/opt/spack/linux-centos8-zen2/gcc-10.2.0/qchem-5.4-akfmr7b3t57bfs6qan3padb2wnb2i7cl/qcaux
QCPROG:      /cm/shared/apps/spack/cpu/opt/spack/linux-centos8-zen2/gcc-10.2.0/qchem-5.4-akfmr7b3t57bfs6qan3padb2wnb2i7cl/exe/qcprog.exe
QCPROG_S:    /cm/shared/apps/spack/cpu/opt/spack/linux-centos8-zen2/gcc-10.2.0/qchem-5.4-akfmr7b3t57bfs6qan3padb2wnb2i7cl/exe/qcprog.exe_s
PARALLEL:    -DPARALLEL
QCMPI:       mpich
#
# qchem directory setting
#
qcrun:       qchem1395274
QCSCRATCH:   .
QCLOCALSCR:  
QCTMPDIR:    .
QCFILEPREF:  ./qchem1395274
QCSAVEDIR:   
workdirs:    ./qchem1395274
workdir0:    ./qchem1395274
partmpdirs =  
#
# parallel setting
#
QCRSH:           ssh
QCMPI:           mpich
QCMPIRUN:        /cm/shared/apps/spack/cpu/opt/spack/linux-centos8-zen2/gcc-10.2.0/qchem-5.4-akfmr7b3t57bfs6qan3padb2wnb2i7cl/bin/mpi/mpirun_qchem
QCMACHINEFILE:   ./qchem1395274/hostfile
exp-1-41

#
# env setting
#
exported envs:   QC QCAUX QCSCRATCH QCRUNNAME QCFILEPREF QCPROG QCPROG_S GUIFILE

Running Job 1 of 1 Dimethoxy_Benzodithiophene_Phi_0_Theta_220_Methylcarbonyl_3_Fluoro_Thienothiophene_Hydrogenated_Improper.qcin
qchem Dimethoxy_Benzodithiophene_Phi_0_Theta_220_Methylcarbonyl_3_Fluoro_Thienothiophene_Hydrogenated_Improper.qcin_1395274.0 ./qchem1395274/ 1
/cm/shared/apps/spack/cpu/opt/spack/linux-centos8-zen2/gcc-10.2.0/qchem-5.4-akfmr7b3t57bfs6qan3padb2wnb2i7cl/bin/mpi/mpirun_qchem -machinefile ./qchem1395274/hostfile -np 1 /cm/shared/apps/spack/cpu/opt/spack/linux-centos8-zen2/gcc-10.2.0/qchem-5.4-akfmr7b3t57bfs6qan3padb2wnb2i7cl/exe/qcprog.exe Dimethoxy_Benzodithiophene_Phi_0_Theta_220_Methylcarbonyl_3_Fluoro_Thienothiophene_Hydrogenated_Improper.qcin_1395274.0 ./qchem1395274/

Process 0 of 1 is on exp-1-41 - thread support 0
initial socket setup ...start
initial socket setup ...done 
now start server 0 ... 
                  Welcome to Q-Chem
     A Quantum Leap Into The Future Of Chemistry


 Q-Chem 5.4, Q-Chem, Inc., Pleasanton, CA (2021)

 License issued to: University of California, San Diego (site)

 E. Epifanovsky,  A. T. B. Gilbert,  Xintian Feng,  Joonho Lee,  Yuezhi Mao,  
 N. Mardirossian,  P. Pokhilko,  A. White,  M. Wormit,  M. P. Coons,  
 A. L. Dempwolff,  Zhengting Gan,  D. Hait,  P. R. Horn,  L. D. Jacobson,  
 I. Kaliman,  J. Kussmann,  A. W. Lange,  Ka Un Lao,  D. S. Levine,  Jie Liu,  
 S. C. McKenzie,  A. F. Morrison,  K. Nanda,  F. Plasser,  D. R. Rehn,  
 M. L. Vidal,  Zhi-Qiang You,  Ying Zhu,  B. Alam,  B. Albrecht,  
 A. Aldossary,  E. Alguire,  J. H. Andersen,  D. Barton,  K. Begam,  A. Behn,  
 Y. A. Bernard,  E. J. Berquist,  H. Burton,  A. Carreras,  K. Carter-Fenk,  
 R. Chakraborty,  A. D. Chien,  K. D. Closser,  V. Cofer-Shabica,  
 S. Dasgupta,  Jia Deng,  M. de Wergifosse,  M. Diedenhofen,  Hainam Do,  
 S. Ehlert,  Po-Tung Fang,  S. Fatehi,  Qingguo Feng,  J. Gayvert,  
 Qinghui Ge,  G. Gidofalvi,  M. Goldey,  J. Gomes,  C. Gonzalez-Espinoza,  
 S. Gulania,  A. Gunina,  M. W. D. Hanson-Heine,  P. H. P. Harbach,  
 A. W. Hauser,  M. F. Herbst,  M. Hernandez Vera,  M. Hodecker,  
 Z. C. Holden,  S. Houck,  Xunkun Huang,  Kerwin Hui,  B. C. Huynh,  
 M. Ivanov,  Hyunjun Ji,  Hanjie Jiang,  B. Kaduk,  S. Kaehler,  
 K. Khistyaev,  Jaehoon Kim,  P. Klunzinger,  Z. Koczor-Benda,  
 Joong Hoon Koh,  D. Kosenkov,  L. Koulias,  T. Kowalczyk,  C. M. Krauter,  
 K. Kue,  A. Kunitsa,  T. Kus,  A. Landau,  K. V. Lawler,  D. Lefrancois,  
 S. Lehtola,  Rain Li,  Yi-Pei Li,  Jiashu Liang,  M. Liebenthal,  
 Hung-Hsuan Lin,  You-Sheng Lin,  Fenglai Liu,  Kuan-Yu Liu,  
 M. Loipersberger,  A. Luenser,  A. Manjanath,  P. Manohar,  E. Mansoor,  
 S. F. Manzer,  Shan-Ping Mao,  A. V. Marenich,  T. Markovich,  S. Mason,  
 S. A. Maurer,  P. F. McLaughlin,  M. F. S. J. Menger,  J.-M. Mewes,  
 S. A. Mewes,  P. Morgante,  J. W. Mullinax,  T. S. Nguyen-Beck,  
 K. J. Oosterbaan,  G. Paran,  Alexander C. Paul,  Suranjan K. Paul,  
 F. Pavosevic,  Zheng Pei,  S. Prager,  E. I. Proynov,  E. Ramos,  B. Rana,  
 A. E. Rask,  A. Rettig,  R. M. Richard,  F. Rob,  E. Rossomme,  T. Scheele,  
 M. Scheurer,  M. Schneider,  N. Sergueev,  S. M. Sharada,  W. Skomorowski,  
 D. W. Small,  C. J. Stein,  Yu-Chuan Su,  E. J. Sundstrom,  Zhen Tao,  
 J. Thirman,  T. Tsuchimochi,  N. M. Tubman,  S. P. Veccham,  O. Vydrov,  
 J. Wenzel,  J. Witte,  A. Yamada,  Kun Yao,  S. Yeganeh,  S. R. Yost,  
 A. Zech,  Igor Ying Zhang,  Xing Zhang,  Yu Zhang,  D. Zuev,  
 A. Aspuru-Guzik,  A. T. Bell,  N. A. Besley,  K. B. Bravaya,  B. R. Brooks,  
 D. Casanova,  Jeng-Da Chai,  S. Coriani,  C. J. Cramer,  
 A. E. DePrince, III,  R. A. DiStasio Jr.,  A. Dreuw,  B. D. Dunietz,  
 T. R. Furlani,  W. A. Goddard III,  S. Grimme,  S. Hammes-Schiffer,  
 T. Head-Gordon,  W. J. Hehre,  Chao-Ping Hsu,  T.-C. Jagau,  Yousung Jung,  
 A. Klamt,  Jing Kong,  D. S. Lambrecht,  WanZhen Liang,  N. J. Mayhall,  
 C. W. McCurdy,  J. B. Neaton,  C. Ochsenfeld,  J. A. Parkhill,  R. Peverati,  
 V. A. Rassolov,  Yihan Shao,  L. V. Slipchenko,  T. Stauch,  R. P. Steele,  
 J. E. Subotnik,  A. J. W. Thom,  A. Tkatchenko,  D. G. Truhlar,  
 T. Van Voorhis,  T. A. Wesolowski,  K. B. Whaley,  H. L. Woodcock III,  
 P. M. Zimmerman,  S. Faraji,  P. M. W. Gill,  M. Head-Gordon,  
 J. M. Herbert,  A. I. Krylov

 Contributors to earlier versions of Q-Chem not listed above: 
 R. D. Adamson,  B. Austin,  R. Baer,  J. Baker,  G. J. O. Beran,  
 K. Brandhorst,  S. T. Brown,  E. F. C. Byrd,  A. K. Chakraborty,  
 G. K. L. Chan,  Chun-Min Chang,  Yunqing Chen,  C.-L. Cheng,  
 Siu Hung Chien,  D. M. Chipman,  D. L. Crittenden,  H. Dachsel,  
 R. J. Doerksen,  A. D. Dutoi,  R. G. Edgar,  J. Fosso-Tande,  
 L. Fusti-Molnar,  D. Ghosh,  A. Ghysels,  A. Golubeva-Zadorozhnaya,  
 J. Gonthier,  M. S. Gordon,  S. R. Gwaltney,  G. Hawkins,  J. E. Herr,  
 A. Heyden,  S. Hirata,  E. G. Hohenstein,  G. Kedziora,  F. J. Keil,  
 C. Kelley,  Jihan Kim,  R. A. King,  R. Z. Khaliullin,  P. P. Korambath,  
 W. Kurlancheek,  A. Laurent,  A. M. Lee,  M. S. Lee,  S. V. Levchenko,  
 Ching Yeh Lin,  D. Liotard,  E. Livshits,  R. C. Lochan,  I. Lotan,  
 L. A. Martinez-Martinez,  P. E. Maslen,  N. Nair,  D. P. O'Neill,  
 D. Neuhauser,  E. Neuscamman,  C. M. Oana,  R. Olivares-Amaya,  R. Olson,  
 T. M. Perrine,  B. Peters,  P. A. Pieniazek,  A. Prociuk,  Y. M. Rhee,  
 J. Ritchie,  M. A. Rohrdanz,  E. Rosta,  N. J. Russ,  H. F. Schaefer III,  
 M. W. Schmidt,  N. E. Schultz,  S. Sharma,  N. Shenvi,  C. D. Sherrill,  
 A. C. Simmonett,  A. Sodt,  T. Stein,  D. Stuck,  K. S. Thanthiriwatte,  
 V. Vanovschi,  L. Vogt,  Tao Wang,  A. Warshel,  M. A. Watson,  
 C. F. Williams,  Q. Wu,  X. Xu,  Jun Yang,  W. Zhang,  Yan Zhao

 Please cite Q-Chem as follows:
 Y. Shao et al., Mol. Phys. 113, 184-215 (2015)
 DOI: 10.1080/00268976.2014.952696

 Q-Chem 5.4.0 for Intel X86 EM64T Linux

 Parts of Q-Chem use Armadillo 9.800.1 (Horizon Scraper).
 http://arma.sourceforge.net/

 Q-Chem begins on Tue Jan  9 10:09:35 2024  

 Host: 
0

     Scratch files written to ./qchem1395274//
 May1621 |scratch|qcdevops|jenkins|workspace|build_RNUM    
 Parallel job on  1  processors
 Processing $rem in /cm/shared/apps/spack/cpu/opt/spack/linux-centos8-zen2/gcc-10.2.0/qchem-5.4-akfmr7b3t57bfs6qan3padb2wnb2i7cl/config/preferences:
 Processing $rem in /home/rramji/.qchemrc:
 Symmetry turned off for PCM/SM12/SMD calculation
 Core orbitals will be frozen

 Checking the input file for inconsistencies... 	...done.

 Q-Chem warning in module forms1/BasisType.C, line 2236:

 You are not using the predefined 5D/6D in this basis set.


--------------------------------------------------------------
User input:
--------------------------------------------------------------
$molecule
0 1
C	0.002294	-0.991205	0.977246
S	0.002794	-0.086405	2.484746
C	0.001994	1.486095	1.696146
C	0.003094	-0.086805	-0.090654
C	0.000694	1.303395	0.290846
S	0.005894	-0.330305	-1.828254
C	0.000394	1.421295	-2.077254
C	-0.002106	2.129695	-0.885354
F	-0.006906	3.466295	-0.841854
C	0.002294	1.869395	-3.478854
O	0.010194	1.099495	-4.429254
O	-0.005206	3.219895	-3.591954
C	-0.000006	3.714995	-4.938954
H	-0.007006	4.815995	-4.855854
H	-0.893106	3.361695	-5.492954
H	0.903794	3.372095	-5.482054
C	0.002294	-2.426405	0.977246
H	-0.829806	-2.434405	0.288746
H	0.542494	-3.104305	0.333046
H	-0.597006	-2.957505	1.701846
H	0.000594	2.410395	2.283746
$end

$rem
JOBTYPE		SP
EXCHANGE	HF
CORRELATION	pRIMP2
BASIS		cc-pvtz
METHOD		rimp2
AUX_BASIS	rimp2-cc-pvtz
SOLVENT_METHOD	PCM
PURECART	11111
SYMMETRY	false
MEM_TOTAL	110000
SCF_CONVERGENCE = 6
THRESH=10
GUI = 2
$end



$solvent
dielectric 4.90
$end
--------------------------------------------------------------
 ----------------------------------------------------------------
             Standard Nuclear Orientation (Angstroms)
    I     Atom           X                Y                Z
 ----------------------------------------------------------------
    1      C       0.0022940000    -0.9912050000     0.9772460000
    2      S       0.0027940000    -0.0864050000     2.4847460000
    3      C       0.0019940000     1.4860950000     1.6961460000
    4      C       0.0030940000    -0.0868050000    -0.0906540000
    5      C       0.0006940000     1.3033950000     0.2908460000
    6      S       0.0058940000    -0.3303050000    -1.8282540000
    7      C       0.0003940000     1.4212950000    -2.0772540000
    8      C      -0.0021060000     2.1296950000    -0.8853540000
    9      F      -0.0069060000     3.4662950000    -0.8418540000
   10      C       0.0022940000     1.8693950000    -3.4788540000
   11      O       0.0101940000     1.0994950000    -4.4292540000
   12      O      -0.0052060000     3.2198950000    -3.5919540000
   13      C      -0.0000060000     3.7149950000    -4.9389540000
   14      H      -0.0070060000     4.8159950000    -4.8558540000
   15      H      -0.8931060000     3.3616950000    -5.4929540000
   16      H       0.9037940000     3.3720950000    -5.4820540000
   17      C       0.0022940000    -2.4264050000     0.9772460000
   18      H      -0.8298060000    -2.4344050000     0.2887460000
   19      H       0.5424940000    -3.1043050000     0.3330460000
   20      H      -0.5970060000    -2.9575050000     1.7018460000
   21      H       0.0005940000     2.4103950000     2.2837460000
 ----------------------------------------------------------------
 Nuclear Repulsion Energy =        1083.13554035 hartrees
 There are       59 alpha and       59 beta electrons
 Requested basis set is cc-pVTZ
 There are 186 shells and 526 basis functions

 Total QAlloc Memory Limit 110000 MB
 Mega-Array Size       188 MB
 MEM_STATIC part       192 MB
 Discretize the solute cavity surface with Lebedev spheres
	Using 110 Lebedev grid points for each H atom
	Using 194 Lebedev grid points for other atoms
	Atomic van der Waals radii will be scaled by 1.20
 Remove points where switching function is < 1.0e-08
 Keep 1555 surface tesserae and discard 1931 interior tesserae
 Molecular Surface Area = 243.448 Angst**2
 Requested basis set is rimp2-cc-pVTZ
 There are 410 shells and 1426 basis functions
 A cutoff of  1.0D-10 yielded  11525 shell pairs
 There are     90427 function pairs (    118359 Cartesian)
 Smallest overlap matrix eigenvalue = 5.78E-05

 Scale SEOQF with 1.000000e+00/1.000000e-01/1.000000e-02

 Standard Electronic Orientation quadrupole field applied
 Nucleus-field energy     =     0.0000000273 hartrees
 Guess from superposition of atomic densities
 Warning:  Energy on first SCF cycle will be non-variational
 SAD guess density has 118.000000 electrons

 -----------------------------------------------------------------------
  General SCF calculation program by
  Eric Jon Sundstrom, Paul Horn, Yuezhi Mao, Dmitri Zuev, Alec White,
  David Stuck, Shaama M.S., Shane Yost, Joonho Lee, David Small,
  Daniel Levine, Susi Lehtola, Hugh Burton, Evgeny Epifanovsky,
  Bang C. Huynh
 -----------------------------------------------------------------------
 Hartree-Fock
 using 64 threads for integral computing
 -------------------------------------------------------
 OpenMP Integral computing Module                
 Release: version 1.0, May 2013, Q-Chem Inc. Pittsburgh 
 -------------------------------------------------------
 A restricted SCF calculation will be
 performed using DIIS
 SCF converges when DIIS error is below 1.0e-06
 ---------------------------------------
  Cycle       Energy         DIIS error
 ---------------------------------------
    1   -1394.2364013908      2.47e-02  
    2   -1389.0384611516      2.47e-03  
    3   -1389.2077163632      1.53e-03  
    4   -1389.2668126949      3.52e-04  
    5   -1389.2725412508      1.12e-04  
    6   -1389.2732146945      3.62e-05  
    7   -1389.2733601270      1.81e-05  
    8   -1389.2734103133      7.03e-06  
    9   -1389.2734209054      3.01e-06  
   10   -1389.2734223204      1.13e-06  
   11   -1389.2734225345      4.92e-07  Convergence criterion met
 ---------------------------------------
 SCF time:   CPU 1705.46s  wall 50.00s 

************** Final PCM Free Energy Summary **************
 G_electrostatic  =      -0.01216176 hartree =      -7.63161861 kcal/mol
 G_cavitation     =       0.00000000 hartree =       0.00000000 kcal/mol
 G_dispersion     =       0.00000000 hartree =       0.00000000 kcal/mol
 G_repulsion      =       0.00000000 hartree =       0.00000000 kcal/mol
 --------------------------------------------------
 Non-electrostatic Free Energy =       0.00000000 hartree =       0.00000000 kcal/mol
 Total                         =      -0.01216176 hartree =      -7.63161861 kcal/mol
 --------------------------------------------------
 SCF Energy (H0 + V/2)                       =   -1389.27342253 
 Solute Internal Energy (H0)                 =   -1389.26126078 
 Total Free Energy (H0 + V/2 + non-elec)     =   -1389.27342253 hartree
                                             = -871782.23044898 kcal/mol
***********************************************************

 SCF   energy in the final basis set =    -1389.2734225345
 Total energy in the final basis set =    -1389.2734225345


 --------------------------------------------------------------
  Generalized many-body perturbation theory program
  by Joonho Lee, Fazle Rob, Xintian Feng, Evgeny Epifanovsky

 No regularization used 
 (reg. param. = 0.0000e+00)
  (P|Q)^-1/2 Time:  CPU 43.95 s  wall 0.71 s

 In RI-MP2 calculation: 
 # of frozen core orbitals: 22

 Components of the RIMP2 correlation energy:
        aaaa    correlation energy =        -0.3284631975 a.u.
        abab    correlation energy =        -1.8481085834 a.u.
        bbbb    correlation energy =        -0.3284631975 a.u.
        non-Brillouin singles      =        -0.0000000000 a.u.
        total same-spin energy     =        -0.6569263950 a.u.
        total opposite-spin energy =        -1.8481085834 a.u.

 Total  RIMP2   correlation energy =        -2.5050349784 a.u.
        RIMP2         total energy =     -1391.7784575129 a.u.

 RI-MP2 Energy Time:  CPU 195.29 s  wall 3.87 s
 
 --------------------------------------------------------------
 
                    Orbital Energies (a.u.)
 --------------------------------------------------------------
 
 Alpha MOs
 -- Occupied --
-92.0057 -91.9922 -26.3404 -20.6136 -20.5596 -11.4075 -11.3785 -11.2999
-11.2945 -11.2940 -11.2881 -11.2831 -11.2786 -11.2290  -9.0044  -8.9923
 -6.6852  -6.6846  -6.6841  -6.6733  -6.6726  -6.6715  -1.6576  -1.4659
 -1.3685  -1.2119  -1.1356  -1.0672  -1.0182  -0.9956  -0.9579  -0.9136
 -0.8630  -0.8044  -0.7884  -0.7587  -0.7300  -0.7225  -0.6935  -0.6833
 -0.6727  -0.6605  -0.6121  -0.5961  -0.5898  -0.5825  -0.5644  -0.5579
 -0.5374  -0.5297  -0.5077  -0.4934  -0.4731  -0.4713  -0.4682  -0.4607
 -0.3858  -0.3445  -0.2855
 -- Virtual --
  0.0418   0.1252   0.1333   0.1525   0.1576   0.1772   0.1854   0.1920
  0.2093   0.2155   0.2176   0.2286   0.2331   0.2399   0.2508   0.2726
  0.2880   0.3035   0.3229   0.3406   0.3443   0.3512   0.3770   0.3787
  0.3851   0.4004   0.4085   0.4183   0.4191   0.4326   0.4376   0.4463
  0.4616   0.4690   0.4826   0.4964   0.4978   0.4993   0.5110   0.5176
  0.5245   0.5359   0.5435   0.5466   0.5560   0.5615   0.5667   0.5837
  0.5890   0.5941   0.6016   0.6048   0.6160   0.6204   0.6249   0.6272
  0.6336   0.6468   0.6599   0.6614   0.6741   0.6850   0.7070   0.7142
  0.7149   0.7174   0.7245   0.7469   0.7562   0.7716   0.7754   0.8095
  0.8165   0.8187   0.8313   0.8452   0.8488   0.8716   0.8765   0.8791
  0.8850   0.8971   0.9074   0.9345   0.9507   0.9616   0.9663   0.9730
  0.9808   0.9877   1.0038   1.0100   1.0240   1.0291   1.0430   1.0525
  1.0582   1.0771   1.0878   1.0962   1.1027   1.1088   1.1148   1.1226
  1.1236   1.1524   1.1712   1.1724   1.1834   1.1998   1.2081   1.2197
  1.2207   1.2393   1.2457   1.2479   1.2604   1.2735   1.2877   1.2982
  1.3154   1.3425   1.3533   1.3566   1.3671   1.3852   1.3921   1.4092
  1.4217   1.4287   1.4432   1.4677   1.4842   1.4995   1.5043   1.5103
  1.5173   1.5385   1.5396   1.5446   1.5593   1.5772   1.5877   1.5960
  1.6131   1.6279   1.6606   1.6694   1.6748   1.6976   1.7195   1.7278
  1.7476   1.7807   1.7978   1.8136   1.8228   1.8308   1.8481   1.8630
  1.8658   1.8869   1.8990   1.9051   1.9150   1.9411   1.9530   1.9740
  1.9963   2.0082   2.0147   2.0300   2.0597   2.0848   2.0897   2.1045
  2.1259   2.1602   2.1738   2.1983   2.2000   2.2074   2.2164   2.2315
  2.2352   2.2549   2.2587   2.2806   2.3054   2.3114   2.3363   2.3494
  2.3710   2.3744   2.3947   2.4084   2.4308   2.4493   2.4813   2.4929
  2.5153   2.5338   2.5567   2.5611   2.5805   2.6048   2.6275   2.6406
  2.6480   2.6565   2.6781   2.6835   2.6919   2.7044   2.7076   2.7202
  2.7337   2.7432   2.7513   2.7807   2.7940   2.8048   2.8072   2.8144
  2.8249   2.8449   2.8648   2.8783   2.8979   2.9175   2.9314   2.9522
  2.9584   2.9688   2.9877   2.9954   3.0168   3.0231   3.0268   3.0494
  3.0767   3.0843   3.0997   3.1043   3.1079   3.1174   3.1278   3.1455
  3.1500   3.1787   3.1933   3.2046   3.2145   3.2194   3.2394   3.2465
  3.2585   3.2700   3.2752   3.2929   3.2978   3.3040   3.3240   3.3285
  3.3313   3.3516   3.3622   3.3699   3.3844   3.3962   3.4039   3.4095
  3.4325   3.4372   3.4461   3.4545   3.4657   3.4756   3.4852   3.4867
  3.4957   3.5099   3.5296   3.5382   3.5463   3.5499   3.5601   3.5742
  3.5811   3.5958   3.5991   3.6167   3.6239   3.6470   3.6591   3.6682
  3.6816   3.6866   3.6949   3.7002   3.7068   3.7197   3.7406   3.7504
  3.7671   3.7780   3.7847   3.8030   3.8098   3.8136   3.8231   3.8302
  3.8492   3.8528   3.8749   3.8872   3.8990   3.9118   3.9192   3.9262
  3.9370   3.9559   3.9618   3.9867   3.9931   4.0202   4.0373   4.0483
  4.0628   4.0695   4.0866   4.1092   4.1235   4.1438   4.1660   4.1668
  4.1789   4.2011   4.2148   4.2421   4.2618   4.2920   4.3021   4.3279
  4.3425   4.3592   4.3648   4.3733   4.3982   4.4137   4.4166   4.4371
  4.4416   4.4754   4.5075   4.5193   4.5406   4.5743   4.5822   4.5902
  4.6062   4.6354   4.6522   4.6591   4.6701   4.6788   4.7287   4.7411
  4.7718   4.7834   4.7998   4.8273   4.8506   4.9003   4.9111   4.9283
  4.9482   4.9839   5.0048   5.0096   5.0599   5.0697   5.0903   5.1183
  5.1471   5.1855   5.2064   5.2534   5.2549   5.2601   5.3063   5.3527
  5.3605   5.4023   5.4198   5.4270   5.4570   5.4856   5.5121   5.5283
  5.5439   5.5829   5.6034   5.6231   5.6485   5.6639   5.7378   5.7566
  5.8087   5.8149   5.8311   5.8904   5.9144   5.9305   5.9672   6.0405
  6.0487   6.1115   6.1513   6.1795   6.2343   6.2625   6.3239   6.4238
  6.4515   6.4752   6.5395   6.6046   6.6621   6.6726   6.7479   6.8314
  6.8609   6.9796   7.2052   7.2079   7.3112   7.3655   7.3657   7.4079
  7.4145   7.4883   7.5266   7.5527   7.6163   7.7758   7.7899   7.8958
  7.9614   8.1356   8.2318   8.9246   9.0132   9.3655   9.4590   9.6444
 10.0540  11.0638  11.6095  11.8062  12.4062  13.0890  13.1048  13.3863
 13.7742  14.0314  14.4956
 --------------------------------------------------------------
 
          Ground-State Mulliken Net Atomic Charges

     Atom                 Charge (a.u.)
  ----------------------------------------
      1 C                     0.056342
      2 S                     0.075443
      3 C                    -0.218403
      4 C                    -0.025820
      5 C                    -0.092230
      6 S                    -0.013091
      7 C                    -0.155949
      8 C                     0.384970
      9 F                    -0.208422
     10 C                     0.445631
     11 O                    -0.462576
     12 O                    -0.300704
     13 C                    -0.058671
     14 H                     0.121161
     15 H                     0.094713
     16 H                     0.094726
     17 C                    -0.385095
     18 H                     0.129052
     19 H                     0.158901
     20 H                     0.147758
     21 H                     0.212263
  ----------------------------------------
  Sum of atomic charges =     0.000000

 -----------------------------------------------------------------
                    Cartesian Multipole Moments
 -----------------------------------------------------------------
    Charge (ESU x 10^10)
                -0.0000
    Dipole Moment (Debye)
         X      -0.5550      Y       0.2219      Z       2.8512
       Tot       2.9132
    Quadrupole Moments (Debye-Ang)
        XX     -96.6976     XY       1.4300     YY     -80.7124
        XZ      -0.8368     YZ      -9.4407     ZZ     -97.3793
    Octopole Moments (Debye-Ang^2)
       XXX       0.6733    XXY     -81.5544    XYY      -2.7966
       YYY    -241.7567    XXZ      80.3385    XYZ       2.7917
       YYZ      46.3926    XZZ      -1.3300    YZZ      -2.5374
       ZZZ     270.5489
    Hexadecapole Moments (Debye-Ang^3)
      XXXX    -120.8616   XXXY      -2.0442   XXYY    -389.0782
      XYYY       5.6506   YYYY   -2057.9474   XXXZ       1.8963
      XXYZ     281.8970   XYYZ      -8.0980   YYYZ     681.2537
      XXZZ    -636.9270   XYZZ       3.5741   YYZZ    -636.0823
      XZZZ       2.2643   YZZZ     520.9140   ZZZZ   -3705.2146
 -----------------------------------------------------------------
 Total job time:  55.21s(wall), 1973.04s(cpu) 
 Tue Jan  9 10:10:30 2024

        *************************************************************
        *                                                           *
        *  Thank you very much for using Q-Chem.  Have a nice day.  *
        *                                                           *
        *************************************************************


0 sent ACK to 0 
now end server 0 ... 
cleanup process ... done
remove work dirs ./qchem1395274.0 -- ./qchem1395274.0
rm -rf ./qchem1395274.0
rm -rf ./qchem1395274
