You are running Q-Chem version: 5.4.0

#
# job setting
#
local host:  exp-14-38
current dir: /home/rramji/project-csd799/aromodel/ptb7fout-qchem/methylated-rotation-run
input file:  Dimethoxy_Benzodithiophene_Phi_50_Theta_80_Methylcarbonyl_3_Fluoro_Thienothiophene_Hydrogenated_Improper.qcin
output file: 
nprocs     : 1
nthreads   : 64
#
# qchem installation setting
#
QC:          /cm/shared/apps/spack/cpu/opt/spack/linux-centos8-zen2/gcc-10.2.0/qchem-5.4-akfmr7b3t57bfs6qan3padb2wnb2i7cl
QCAUX:       /cm/shared/apps/spack/cpu/opt/spack/linux-centos8-zen2/gcc-10.2.0/qchem-5.4-akfmr7b3t57bfs6qan3padb2wnb2i7cl/qcaux
QCPROG:      /cm/shared/apps/spack/cpu/opt/spack/linux-centos8-zen2/gcc-10.2.0/qchem-5.4-akfmr7b3t57bfs6qan3padb2wnb2i7cl/exe/qcprog.exe
QCPROG_S:    /cm/shared/apps/spack/cpu/opt/spack/linux-centos8-zen2/gcc-10.2.0/qchem-5.4-akfmr7b3t57bfs6qan3padb2wnb2i7cl/exe/qcprog.exe_s
PARALLEL:    -DPARALLEL
QCMPI:       mpich
#
# qchem directory setting
#
qcrun:       qchem2777049
QCSCRATCH:   .
QCLOCALSCR:  
QCTMPDIR:    .
QCFILEPREF:  ./qchem2777049
QCSAVEDIR:   
workdirs:    ./qchem2777049
workdir0:    ./qchem2777049
partmpdirs =  
#
# parallel setting
#
QCRSH:           ssh
QCMPI:           mpich
QCMPIRUN:        /cm/shared/apps/spack/cpu/opt/spack/linux-centos8-zen2/gcc-10.2.0/qchem-5.4-akfmr7b3t57bfs6qan3padb2wnb2i7cl/bin/mpi/mpirun_qchem
QCMACHINEFILE:   ./qchem2777049/hostfile
exp-14-38

#
# env setting
#
exported envs:   QC QCAUX QCSCRATCH QCRUNNAME QCFILEPREF QCPROG QCPROG_S GUIFILE

Running Job 1 of 1 Dimethoxy_Benzodithiophene_Phi_50_Theta_80_Methylcarbonyl_3_Fluoro_Thienothiophene_Hydrogenated_Improper.qcin
qchem Dimethoxy_Benzodithiophene_Phi_50_Theta_80_Methylcarbonyl_3_Fluoro_Thienothiophene_Hydrogenated_Improper.qcin_2777049.0 ./qchem2777049/ 1
/cm/shared/apps/spack/cpu/opt/spack/linux-centos8-zen2/gcc-10.2.0/qchem-5.4-akfmr7b3t57bfs6qan3padb2wnb2i7cl/bin/mpi/mpirun_qchem -machinefile ./qchem2777049/hostfile -np 1 /cm/shared/apps/spack/cpu/opt/spack/linux-centos8-zen2/gcc-10.2.0/qchem-5.4-akfmr7b3t57bfs6qan3padb2wnb2i7cl/exe/qcprog.exe Dimethoxy_Benzodithiophene_Phi_50_Theta_80_Methylcarbonyl_3_Fluoro_Thienothiophene_Hydrogenated_Improper.qcin_2777049.0 ./qchem2777049/

Process 0 of 1 is on exp-14-38 - thread support 0
initial socket setup ...start
initial socket setup ...done 
now start server 0 ... 
                  Welcome to Q-Chem
     A Quantum Leap Into The Future Of Chemistry


 Q-Chem 5.4, Q-Chem, Inc., Pleasanton, CA (2021)

 License issued to: University of California, San Diego (site)

 E. Epifanovsky,  A. T. B. Gilbert,  Xintian Feng,  Joonho Lee,  Yuezhi Mao,  
 N. Mardirossian,  P. Pokhilko,  A. White,  M. Wormit,  M. P. Coons,  
 A. L. Dempwolff,  Zhengting Gan,  D. Hait,  P. R. Horn,  L. D. Jacobson,  
 I. Kaliman,  J. Kussmann,  A. W. Lange,  Ka Un Lao,  D. S. Levine,  Jie Liu,  
 S. C. McKenzie,  A. F. Morrison,  K. Nanda,  F. Plasser,  D. R. Rehn,  
 M. L. Vidal,  Zhi-Qiang You,  Ying Zhu,  B. Alam,  B. Albrecht,  
 A. Aldossary,  E. Alguire,  J. H. Andersen,  D. Barton,  K. Begam,  A. Behn,  
 Y. A. Bernard,  E. J. Berquist,  H. Burton,  A. Carreras,  K. Carter-Fenk,  
 R. Chakraborty,  A. D. Chien,  K. D. Closser,  V. Cofer-Shabica,  
 S. Dasgupta,  Jia Deng,  M. de Wergifosse,  M. Diedenhofen,  Hainam Do,  
 S. Ehlert,  Po-Tung Fang,  S. Fatehi,  Qingguo Feng,  J. Gayvert,  
 Qinghui Ge,  G. Gidofalvi,  M. Goldey,  J. Gomes,  C. Gonzalez-Espinoza,  
 S. Gulania,  A. Gunina,  M. W. D. Hanson-Heine,  P. H. P. Harbach,  
 A. W. Hauser,  M. F. Herbst,  M. Hernandez Vera,  M. Hodecker,  
 Z. C. Holden,  S. Houck,  Xunkun Huang,  Kerwin Hui,  B. C. Huynh,  
 M. Ivanov,  Hyunjun Ji,  Hanjie Jiang,  B. Kaduk,  S. Kaehler,  
 K. Khistyaev,  Jaehoon Kim,  P. Klunzinger,  Z. Koczor-Benda,  
 Joong Hoon Koh,  D. Kosenkov,  L. Koulias,  T. Kowalczyk,  C. M. Krauter,  
 K. Kue,  A. Kunitsa,  T. Kus,  A. Landau,  K. V. Lawler,  D. Lefrancois,  
 S. Lehtola,  Rain Li,  Yi-Pei Li,  Jiashu Liang,  M. Liebenthal,  
 Hung-Hsuan Lin,  You-Sheng Lin,  Fenglai Liu,  Kuan-Yu Liu,  
 M. Loipersberger,  A. Luenser,  A. Manjanath,  P. Manohar,  E. Mansoor,  
 S. F. Manzer,  Shan-Ping Mao,  A. V. Marenich,  T. Markovich,  S. Mason,  
 S. A. Maurer,  P. F. McLaughlin,  M. F. S. J. Menger,  J.-M. Mewes,  
 S. A. Mewes,  P. Morgante,  J. W. Mullinax,  T. S. Nguyen-Beck,  
 K. J. Oosterbaan,  G. Paran,  Alexander C. Paul,  Suranjan K. Paul,  
 F. Pavosevic,  Zheng Pei,  S. Prager,  E. I. Proynov,  E. Ramos,  B. Rana,  
 A. E. Rask,  A. Rettig,  R. M. Richard,  F. Rob,  E. Rossomme,  T. Scheele,  
 M. Scheurer,  M. Schneider,  N. Sergueev,  S. M. Sharada,  W. Skomorowski,  
 D. W. Small,  C. J. Stein,  Yu-Chuan Su,  E. J. Sundstrom,  Zhen Tao,  
 J. Thirman,  T. Tsuchimochi,  N. M. Tubman,  S. P. Veccham,  O. Vydrov,  
 J. Wenzel,  J. Witte,  A. Yamada,  Kun Yao,  S. Yeganeh,  S. R. Yost,  
 A. Zech,  Igor Ying Zhang,  Xing Zhang,  Yu Zhang,  D. Zuev,  
 A. Aspuru-Guzik,  A. T. Bell,  N. A. Besley,  K. B. Bravaya,  B. R. Brooks,  
 D. Casanova,  Jeng-Da Chai,  S. Coriani,  C. J. Cramer,  
 A. E. DePrince, III,  R. A. DiStasio Jr.,  A. Dreuw,  B. D. Dunietz,  
 T. R. Furlani,  W. A. Goddard III,  S. Grimme,  S. Hammes-Schiffer,  
 T. Head-Gordon,  W. J. Hehre,  Chao-Ping Hsu,  T.-C. Jagau,  Yousung Jung,  
 A. Klamt,  Jing Kong,  D. S. Lambrecht,  WanZhen Liang,  N. J. Mayhall,  
 C. W. McCurdy,  J. B. Neaton,  C. Ochsenfeld,  J. A. Parkhill,  R. Peverati,  
 V. A. Rassolov,  Yihan Shao,  L. V. Slipchenko,  T. Stauch,  R. P. Steele,  
 J. E. Subotnik,  A. J. W. Thom,  A. Tkatchenko,  D. G. Truhlar,  
 T. Van Voorhis,  T. A. Wesolowski,  K. B. Whaley,  H. L. Woodcock III,  
 P. M. Zimmerman,  S. Faraji,  P. M. W. Gill,  M. Head-Gordon,  
 J. M. Herbert,  A. I. Krylov

 Contributors to earlier versions of Q-Chem not listed above: 
 R. D. Adamson,  B. Austin,  R. Baer,  J. Baker,  G. J. O. Beran,  
 K. Brandhorst,  S. T. Brown,  E. F. C. Byrd,  A. K. Chakraborty,  
 G. K. L. Chan,  Chun-Min Chang,  Yunqing Chen,  C.-L. Cheng,  
 Siu Hung Chien,  D. M. Chipman,  D. L. Crittenden,  H. Dachsel,  
 R. J. Doerksen,  A. D. Dutoi,  R. G. Edgar,  J. Fosso-Tande,  
 L. Fusti-Molnar,  D. Ghosh,  A. Ghysels,  A. Golubeva-Zadorozhnaya,  
 J. Gonthier,  M. S. Gordon,  S. R. Gwaltney,  G. Hawkins,  J. E. Herr,  
 A. Heyden,  S. Hirata,  E. G. Hohenstein,  G. Kedziora,  F. J. Keil,  
 C. Kelley,  Jihan Kim,  R. A. King,  R. Z. Khaliullin,  P. P. Korambath,  
 W. Kurlancheek,  A. Laurent,  A. M. Lee,  M. S. Lee,  S. V. Levchenko,  
 Ching Yeh Lin,  D. Liotard,  E. Livshits,  R. C. Lochan,  I. Lotan,  
 L. A. Martinez-Martinez,  P. E. Maslen,  N. Nair,  D. P. O'Neill,  
 D. Neuhauser,  E. Neuscamman,  C. M. Oana,  R. Olivares-Amaya,  R. Olson,  
 T. M. Perrine,  B. Peters,  P. A. Pieniazek,  A. Prociuk,  Y. M. Rhee,  
 J. Ritchie,  M. A. Rohrdanz,  E. Rosta,  N. J. Russ,  H. F. Schaefer III,  
 M. W. Schmidt,  N. E. Schultz,  S. Sharma,  N. Shenvi,  C. D. Sherrill,  
 A. C. Simmonett,  A. Sodt,  T. Stein,  D. Stuck,  K. S. Thanthiriwatte,  
 V. Vanovschi,  L. Vogt,  Tao Wang,  A. Warshel,  M. A. Watson,  
 C. F. Williams,  Q. Wu,  X. Xu,  Jun Yang,  W. Zhang,  Yan Zhao

 Please cite Q-Chem as follows:
 Y. Shao et al., Mol. Phys. 113, 184-215 (2015)
 DOI: 10.1080/00268976.2014.952696

 Q-Chem 5.4.0 for Intel X86 EM64T Linux

 Parts of Q-Chem use Armadillo 9.800.1 (Horizon Scraper).
 http://arma.sourceforge.net/

 Q-Chem begins on Tue Jan  9 09:57:22 2024  

 Host: 
0

     Scratch files written to ./qchem2777049//
 May1621 |scratch|qcdevops|jenkins|workspace|build_RNUM    
 Parallel job on  1  processors
 Processing $rem in /cm/shared/apps/spack/cpu/opt/spack/linux-centos8-zen2/gcc-10.2.0/qchem-5.4-akfmr7b3t57bfs6qan3padb2wnb2i7cl/config/preferences:
 Processing $rem in /home/rramji/.qchemrc:
 Symmetry turned off for PCM/SM12/SMD calculation
 Core orbitals will be frozen

 Checking the input file for inconsistencies... 	...done.

 Q-Chem warning in module forms1/BasisType.C, line 2236:

 You are not using the predefined 5D/6D in this basis set.


--------------------------------------------------------------
User input:
--------------------------------------------------------------
$molecule
0 1
C	-0.797657	-0.619704	0.973641
S	-0.104257	-0.038504	2.481141
C	1.099843	0.972896	1.692541
C	-0.104357	-0.038904	-0.094259
C	0.959143	0.856396	0.287241
S	-0.289057	-0.197704	-1.831859
C	1.049243	0.932496	-2.080859
C	1.590243	1.389696	-0.888959
F	2.611043	2.252596	-0.845459
C	1.393643	1.219096	-3.482459
O	0.809043	0.718096	-4.432859
O	2.423443	2.092896	-3.595559
C	2.806043	2.407096	-4.942559
H	3.644943	3.120196	-4.859459
H	1.961343	2.864196	-5.496559
H	3.124343	1.494396	-5.485659
C	-0.797657	-2.054904	0.973641
H	-0.602757	-2.062904	2.035841
H	-1.625557	-2.732804	1.119941
H	0.127243	-2.586004	0.803841
H	1.807043	1.568096	2.280141
$end

$rem
JOBTYPE		SP
EXCHANGE	HF
CORRELATION	pRIMP2
BASIS		cc-pvtz
METHOD		rimp2
AUX_BASIS	rimp2-cc-pvtz
SOLVENT_METHOD	PCM
PURECART	11111
SYMMETRY	false
MEM_TOTAL	110000
SCF_CONVERGENCE = 6
THRESH=10
GUI = 2
$end



$solvent
dielectric 4.90
$end
--------------------------------------------------------------
 ----------------------------------------------------------------
             Standard Nuclear Orientation (Angstroms)
    I     Atom           X                Y                Z
 ----------------------------------------------------------------
    1      C      -0.7976570000    -0.6197040000     0.9736410000
    2      S      -0.1042570000    -0.0385040000     2.4811410000
    3      C       1.0998430000     0.9728960000     1.6925410000
    4      C      -0.1043570000    -0.0389040000    -0.0942590000
    5      C       0.9591430000     0.8563960000     0.2872410000
    6      S      -0.2890570000    -0.1977040000    -1.8318590000
    7      C       1.0492430000     0.9324960000    -2.0808590000
    8      C       1.5902430000     1.3896960000    -0.8889590000
    9      F       2.6110430000     2.2525960000    -0.8454590000
   10      C       1.3936430000     1.2190960000    -3.4824590000
   11      O       0.8090430000     0.7180960000    -4.4328590000
   12      O       2.4234430000     2.0928960000    -3.5955590000
   13      C       2.8060430000     2.4070960000    -4.9425590000
   14      H       3.6449430000     3.1201960000    -4.8594590000
   15      H       1.9613430000     2.8641960000    -5.4965590000
   16      H       3.1243430000     1.4943960000    -5.4856590000
   17      C      -0.7976570000    -2.0549040000     0.9736410000
   18      H      -0.6027570000    -2.0629040000     2.0358410000
   19      H      -1.6255570000    -2.7328040000     1.1199410000
   20      H       0.1272430000    -2.5860040000     0.8038410000
   21      H       1.8070430000     1.5680960000     2.2801410000
 ----------------------------------------------------------------
 Nuclear Repulsion Energy =        1089.28818432 hartrees
 There are       59 alpha and       59 beta electrons
 Requested basis set is cc-pVTZ
 There are 186 shells and 526 basis functions

 Total QAlloc Memory Limit 110000 MB
 Mega-Array Size       188 MB
 MEM_STATIC part       192 MB
 Discretize the solute cavity surface with Lebedev spheres
	Using 110 Lebedev grid points for each H atom
	Using 194 Lebedev grid points for other atoms
	Atomic van der Waals radii will be scaled by 1.20
 Remove points where switching function is < 1.0e-08
 Keep 1523 surface tesserae and discard 1963 interior tesserae
 Molecular Surface Area = 240.417 Angst**2
 Requested basis set is rimp2-cc-pVTZ
 There are 410 shells and 1426 basis functions
 A cutoff of  1.0D-10 yielded  11659 shell pairs
 There are     91479 function pairs (    119721 Cartesian)
 Smallest overlap matrix eigenvalue = 6.65E-05

 Scale SEOQF with 1.000000e-01/1.000000e-01/1.000000e-02

 Standard Electronic Orientation quadrupole field applied
 Nucleus-field energy     =     0.0000000165 hartrees
 Guess from superposition of atomic densities
 Warning:  Energy on first SCF cycle will be non-variational
 SAD guess density has 118.000000 electrons

 -----------------------------------------------------------------------
  General SCF calculation program by
  Eric Jon Sundstrom, Paul Horn, Yuezhi Mao, Dmitri Zuev, Alec White,
  David Stuck, Shaama M.S., Shane Yost, Joonho Lee, David Small,
  Daniel Levine, Susi Lehtola, Hugh Burton, Evgeny Epifanovsky,
  Bang C. Huynh
 -----------------------------------------------------------------------
 Hartree-Fock
 using 64 threads for integral computing
 -------------------------------------------------------
 OpenMP Integral computing Module                
 Release: version 1.0, May 2013, Q-Chem Inc. Pittsburgh 
 -------------------------------------------------------
 A restricted SCF calculation will be
 performed using DIIS
 SCF converges when DIIS error is below 1.0e-06
 ---------------------------------------
  Cycle       Energy         DIIS error
 ---------------------------------------
    1   -1394.3440395974      2.48e-02  
    2   -1388.9747603793      2.49e-03  
    3   -1389.1476609127      1.56e-03  
    4   -1389.2100017879      3.56e-04  
    5   -1389.2159662769      1.13e-04  
    6   -1389.2166785754      3.69e-05  
    7   -1389.2168306332      1.84e-05  
    8   -1389.2168826723      7.23e-06  
    9   -1389.2168940427      3.15e-06  
   10   -1389.2168958203      1.19e-06  
   11   -1389.2168961032      5.17e-07  Convergence criterion met
 ---------------------------------------
 SCF time:   CPU 1723.17s  wall 53.00s 

************** Final PCM Free Energy Summary **************
 G_electrostatic  =      -0.01204351 hartree =      -7.55741440 kcal/mol
 G_cavitation     =       0.00000000 hartree =       0.00000000 kcal/mol
 G_dispersion     =       0.00000000 hartree =       0.00000000 kcal/mol
 G_repulsion      =       0.00000000 hartree =       0.00000000 kcal/mol
 --------------------------------------------------
 Non-electrostatic Free Energy =       0.00000000 hartree =       0.00000000 kcal/mol
 Total                         =      -0.01204351 hartree =      -7.55741440 kcal/mol
 --------------------------------------------------
 SCF Energy (H0 + V/2)                       =   -1389.21689610 
 Solute Internal Energy (H0)                 =   -1389.20485260 
 Total Free Energy (H0 + V/2 + non-elec)     =   -1389.21689610 hartree
                                             = -871746.75957797 kcal/mol
***********************************************************

 SCF   energy in the final basis set =    -1389.2168961032
 Total energy in the final basis set =    -1389.2168961032


 --------------------------------------------------------------
  Generalized many-body perturbation theory program
  by Joonho Lee, Fazle Rob, Xintian Feng, Evgeny Epifanovsky

 No regularization used 
 (reg. param. = 0.0000e+00)
  (P|Q)^-1/2 Time:  CPU 39.90 s  wall 0.77 s

 In RI-MP2 calculation: 
 # of frozen core orbitals: 22

 Components of the RIMP2 correlation energy:
        aaaa    correlation energy =        -0.3299893752 a.u.
        abab    correlation energy =        -1.8539128946 a.u.
        bbbb    correlation energy =        -0.3299893752 a.u.
        non-Brillouin singles      =        -0.0000000000 a.u.
        total same-spin energy     =        -0.6599787503 a.u.
        total opposite-spin energy =        -1.8539128946 a.u.

 Total  RIMP2   correlation energy =        -2.5138916449 a.u.
        RIMP2         total energy =     -1391.7307877480 a.u.

 RI-MP2 Energy Time:  CPU 238.88 s  wall 4.12 s
 
 --------------------------------------------------------------
 
                    Orbital Energies (a.u.)
 --------------------------------------------------------------
 
 Alpha MOs
 -- Occupied --
-92.0035 -91.9992 -26.3427 -20.6136 -20.5595 -11.4078 -11.3820 -11.3185
-11.3004 -11.2937 -11.2883 -11.2797 -11.2681 -11.2160  -9.0035  -8.9991
 -6.6842  -6.6832  -6.6830  -6.6801  -6.6793  -6.6783  -1.6599  -1.4660
 -1.3687  -1.2195  -1.1428  -1.0672  -1.0229  -0.9909  -0.9608  -0.9060
 -0.8664  -0.8111  -0.7904  -0.7591  -0.7335  -0.7246  -0.6944  -0.6835
 -0.6730  -0.6614  -0.6073  -0.6063  -0.5927  -0.5742  -0.5645  -0.5602
 -0.5302  -0.5253  -0.5106  -0.4821  -0.4781  -0.4721  -0.4707  -0.4407
 -0.3884  -0.3414  -0.2968
 -- Virtual --
  0.0315   0.0894   0.1354   0.1546   0.1579   0.1693   0.1813   0.1926
  0.2126   0.2153   0.2193   0.2289   0.2353   0.2470   0.2547   0.2655
  0.2825   0.2850   0.3063   0.3372   0.3425   0.3649   0.3655   0.3795
  0.3847   0.3931   0.4014   0.4118   0.4266   0.4296   0.4389   0.4424
  0.4501   0.4582   0.4681   0.4795   0.4910   0.5047   0.5117   0.5160
  0.5224   0.5260   0.5330   0.5430   0.5444   0.5549   0.5755   0.5782
  0.5859   0.5936   0.5980   0.6084   0.6144   0.6187   0.6226   0.6260
  0.6487   0.6525   0.6573   0.6654   0.6766   0.6869   0.6972   0.7078
  0.7121   0.7182   0.7269   0.7358   0.7510   0.7638   0.7782   0.7941
  0.8047   0.8138   0.8271   0.8419   0.8469   0.8660   0.8691   0.8754
  0.8875   0.9032   0.9068   0.9197   0.9459   0.9536   0.9590   0.9631
  0.9861   0.9885   1.0008   1.0171   1.0244   1.0380   1.0494   1.0558
  1.0612   1.0798   1.0880   1.1000   1.1043   1.1085   1.1209   1.1305
  1.1347   1.1503   1.1591   1.1729   1.1853   1.1899   1.1968   1.2196
  1.2228   1.2387   1.2576   1.2610   1.2691   1.2719   1.2821   1.3032
  1.3296   1.3370   1.3485   1.3566   1.3631   1.3798   1.3951   1.4092
  1.4113   1.4289   1.4449   1.4534   1.4748   1.4859   1.4973   1.5033
  1.5134   1.5356   1.5422   1.5475   1.5569   1.5750   1.5915   1.5981
  1.6082   1.6398   1.6574   1.6634   1.6699   1.6895   1.6997   1.7199
  1.7522   1.7656   1.7824   1.7965   1.8174   1.8217   1.8256   1.8517
  1.8760   1.8932   1.9029   1.9238   1.9354   1.9404   1.9505   1.9635
  1.9700   1.9944   2.0039   2.0290   2.0601   2.0797   2.0914   2.0988
  2.1261   2.1450   2.1617   2.1771   2.1962   2.1973   2.2157   2.2260
  2.2344   2.2361   2.2555   2.2720   2.2879   2.3013   2.3341   2.3513
  2.3555   2.3692   2.3801   2.4120   2.4194   2.4305   2.4697   2.4828
  2.5042   2.5371   2.5480   2.5699   2.5800   2.5919   2.6231   2.6331
  2.6378   2.6459   2.6736   2.6793   2.6893   2.7028   2.7063   2.7227
  2.7390   2.7537   2.7648   2.7879   2.7918   2.8017   2.8119   2.8263
  2.8391   2.8697   2.8801   2.8872   2.9107   2.9170   2.9476   2.9541
  2.9730   2.9828   2.9840   3.0135   3.0198   3.0239   3.0542   3.0638
  3.0792   3.0921   3.0956   3.1003   3.1072   3.1308   3.1399   3.1513
  3.1599   3.1915   3.1926   3.2077   3.2143   3.2199   3.2246   3.2437
  3.2579   3.2596   3.2719   3.2805   3.2844   3.3038   3.3164   3.3217
  3.3490   3.3569   3.3586   3.3795   3.3903   3.3952   3.4123   3.4145
  3.4190   3.4266   3.4345   3.4621   3.4689   3.4796   3.4837   3.4903
  3.4962   3.5232   3.5337   3.5462   3.5538   3.5612   3.5673   3.5790
  3.5964   3.6010   3.6094   3.6182   3.6318   3.6470   3.6652   3.6718
  3.6854   3.6926   3.7063   3.7211   3.7291   3.7407   3.7491   3.7656
  3.7829   3.7925   3.7999   3.8017   3.8135   3.8284   3.8329   3.8485
  3.8564   3.8744   3.8819   3.8939   3.8992   3.9169   3.9205   3.9337
  3.9539   3.9634   3.9754   4.0056   4.0068   4.0267   4.0417   4.0667
  4.0709   4.0782   4.0822   4.1150   4.1442   4.1504   4.1620   4.1666
  4.1995   4.2040   4.2315   4.2441   4.2782   4.2875   4.3104   4.3423
  4.3490   4.3597   4.3667   4.3795   4.3866   4.4262   4.4321   4.4447
  4.4685   4.4884   4.5188   4.5363   4.5463   4.5634   4.5862   4.6080
  4.6185   4.6311   4.6571   4.6751   4.6795   4.7152   4.7348   4.7467
  4.7677   4.7761   4.8023   4.8223   4.8353   4.8538   4.8991   4.9089
  4.9577   4.9752   5.0095   5.0231   5.0341   5.0687   5.1079   5.1199
  5.1633   5.1943   5.2201   5.2397   5.2527   5.2557   5.2596   5.3519
  5.3571   5.4050   5.4226   5.4267   5.4430   5.4855   5.4960   5.5134
  5.5349   5.5817   5.6195   5.6230   5.6575   5.6653   5.7267   5.7488
  5.8018   5.8085   5.8312   5.8665   5.9007   5.9305   5.9554   6.0067
  6.0407   6.0481   6.1345   6.1512   6.1836   6.2469   6.2624   6.3934
  6.4513   6.4685   6.5388   6.5994   6.6621   6.6727   6.7459   6.8305
  6.8610   6.9795   7.2050   7.2053   7.3113   7.3635   7.3636   7.4059
  7.4144   7.4861   7.5195   7.5506   7.6154   7.7735   7.7897   7.8915
  7.9574   8.1333   8.2081   8.9224   9.0220   9.3635   9.4774   9.6614
 10.1927  11.1833  11.7270  11.8821  12.4104  12.6996  13.0451  13.3857
 13.7704  14.0286  14.3128
 --------------------------------------------------------------
 
          Ground-State Mulliken Net Atomic Charges

     Atom                 Charge (a.u.)
  ----------------------------------------
      1 C                    -0.079751
      2 S                     0.086227
      3 C                    -0.162587
      4 C                     0.034555
      5 C                    -0.096133
      6 S                     0.025572
      7 C                    -0.157212
      8 C                     0.390782
      9 F                    -0.206935
     10 C                     0.447371
     11 O                    -0.464125
     12 O                    -0.301585
     13 C                    -0.058406
     14 H                     0.120980
     15 H                     0.094851
     16 H                     0.094693
     17 C                    -0.362804
     18 H                     0.114927
     19 H                     0.131943
     20 H                     0.131588
     21 H                     0.216050
  ----------------------------------------
  Sum of atomic charges =     0.000000

 -----------------------------------------------------------------
                    Cartesian Multipole Moments
 -----------------------------------------------------------------
    Charge (ESU x 10^10)
                -0.0000
    Dipole Moment (Debye)
         X       2.6658      Y       0.7580      Z       3.5686
       Tot       4.5184
    Quadrupole Moments (Debye-Ang)
        XX     -91.0926     XY       5.3599     YY     -89.5529
        XZ      -5.4859     YZ      -7.0571     ZZ     -94.7742
    Octopole Moments (Debye-Ang^2)
       XXX    -189.0860    XXY     -42.9182    XYY     -61.0742
       YYY    -147.5550    XXZ      59.8206    XYZ     -15.0672
       YYZ      71.0765    XZZ      -6.5388    YZZ      -1.0559
       ZZZ     271.0075
    Hexadecapole Moments (Debye-Ang^3)
      XXXX   -1143.4269   XXXY    -447.8013   XXYY    -347.7378
      XYYY    -456.7157   YYYY   -1062.9682   XXXZ     555.5507
      XXYZ     128.9979   XYYZ     153.1097   YYYZ     513.9706
      XXZZ    -613.0997   XYZZ      13.9759   YYZZ    -646.7873
      XZZZ     374.6860   YZZZ     355.1291   ZZZZ   -3708.8989
 -----------------------------------------------------------------
 Total job time:  60.16s(wall), 2058.12s(cpu) 
 Tue Jan  9 09:58:22 2024

        *************************************************************
        *                                                           *
        *  Thank you very much for using Q-Chem.  Have a nice day.  *
        *                                                           *
        *************************************************************


0 sent ACK to 0 
now end server 0 ... 
cleanup process ... done
remove work dirs ./qchem2777049.0 -- ./qchem2777049.0
rm -rf ./qchem2777049.0
rm -rf ./qchem2777049
