You are running Q-Chem version: 5.4.0

#
# job setting
#
local host:  exp-14-05
current dir: /home/rramji/project-csd799/aromodel/ptb7fout-qchem/methylated-rotation-run
input file:  Dimethoxy_Benzodithiophene_Phi_60_Theta_80_Methylcarbonyl_3_Fluoro_Thienothiophene_Hydrogenated_Improper.qcin
output file: 
nprocs     : 1
nthreads   : 64
#
# qchem installation setting
#
QC:          /cm/shared/apps/spack/cpu/opt/spack/linux-centos8-zen2/gcc-10.2.0/qchem-5.4-akfmr7b3t57bfs6qan3padb2wnb2i7cl
QCAUX:       /cm/shared/apps/spack/cpu/opt/spack/linux-centos8-zen2/gcc-10.2.0/qchem-5.4-akfmr7b3t57bfs6qan3padb2wnb2i7cl/qcaux
QCPROG:      /cm/shared/apps/spack/cpu/opt/spack/linux-centos8-zen2/gcc-10.2.0/qchem-5.4-akfmr7b3t57bfs6qan3padb2wnb2i7cl/exe/qcprog.exe
QCPROG_S:    /cm/shared/apps/spack/cpu/opt/spack/linux-centos8-zen2/gcc-10.2.0/qchem-5.4-akfmr7b3t57bfs6qan3padb2wnb2i7cl/exe/qcprog.exe_s
PARALLEL:    -DPARALLEL
QCMPI:       mpich
#
# qchem directory setting
#
qcrun:       qchem2525023
QCSCRATCH:   .
QCLOCALSCR:  
QCTMPDIR:    .
QCFILEPREF:  ./qchem2525023
QCSAVEDIR:   
workdirs:    ./qchem2525023
workdir0:    ./qchem2525023
partmpdirs =  
#
# parallel setting
#
QCRSH:           ssh
QCMPI:           mpich
QCMPIRUN:        /cm/shared/apps/spack/cpu/opt/spack/linux-centos8-zen2/gcc-10.2.0/qchem-5.4-akfmr7b3t57bfs6qan3padb2wnb2i7cl/bin/mpi/mpirun_qchem
QCMACHINEFILE:   ./qchem2525023/hostfile
exp-14-05

#
# env setting
#
exported envs:   QC QCAUX QCSCRATCH QCRUNNAME QCFILEPREF QCPROG QCPROG_S GUIFILE

Running Job 1 of 1 Dimethoxy_Benzodithiophene_Phi_60_Theta_80_Methylcarbonyl_3_Fluoro_Thienothiophene_Hydrogenated_Improper.qcin
qchem Dimethoxy_Benzodithiophene_Phi_60_Theta_80_Methylcarbonyl_3_Fluoro_Thienothiophene_Hydrogenated_Improper.qcin_2525023.0 ./qchem2525023/ 1
/cm/shared/apps/spack/cpu/opt/spack/linux-centos8-zen2/gcc-10.2.0/qchem-5.4-akfmr7b3t57bfs6qan3padb2wnb2i7cl/bin/mpi/mpirun_qchem -machinefile ./qchem2525023/hostfile -np 1 /cm/shared/apps/spack/cpu/opt/spack/linux-centos8-zen2/gcc-10.2.0/qchem-5.4-akfmr7b3t57bfs6qan3padb2wnb2i7cl/exe/qcprog.exe Dimethoxy_Benzodithiophene_Phi_60_Theta_80_Methylcarbonyl_3_Fluoro_Thienothiophene_Hydrogenated_Improper.qcin_2525023.0 ./qchem2525023/

Process 0 of 1 is on exp-14-05 - thread support 0
initial socket setup ...start
initial socket setup ...done 
now start server 0 ... 
                  Welcome to Q-Chem
     A Quantum Leap Into The Future Of Chemistry


 Q-Chem 5.4, Q-Chem, Inc., Pleasanton, CA (2021)

 License issued to: University of California, San Diego (site)

 E. Epifanovsky,  A. T. B. Gilbert,  Xintian Feng,  Joonho Lee,  Yuezhi Mao,  
 N. Mardirossian,  P. Pokhilko,  A. White,  M. Wormit,  M. P. Coons,  
 A. L. Dempwolff,  Zhengting Gan,  D. Hait,  P. R. Horn,  L. D. Jacobson,  
 I. Kaliman,  J. Kussmann,  A. W. Lange,  Ka Un Lao,  D. S. Levine,  Jie Liu,  
 S. C. McKenzie,  A. F. Morrison,  K. Nanda,  F. Plasser,  D. R. Rehn,  
 M. L. Vidal,  Zhi-Qiang You,  Ying Zhu,  B. Alam,  B. Albrecht,  
 A. Aldossary,  E. Alguire,  J. H. Andersen,  D. Barton,  K. Begam,  A. Behn,  
 Y. A. Bernard,  E. J. Berquist,  H. Burton,  A. Carreras,  K. Carter-Fenk,  
 R. Chakraborty,  A. D. Chien,  K. D. Closser,  V. Cofer-Shabica,  
 S. Dasgupta,  Jia Deng,  M. de Wergifosse,  M. Diedenhofen,  Hainam Do,  
 S. Ehlert,  Po-Tung Fang,  S. Fatehi,  Qingguo Feng,  J. Gayvert,  
 Qinghui Ge,  G. Gidofalvi,  M. Goldey,  J. Gomes,  C. Gonzalez-Espinoza,  
 S. Gulania,  A. Gunina,  M. W. D. Hanson-Heine,  P. H. P. Harbach,  
 A. W. Hauser,  M. F. Herbst,  M. Hernandez Vera,  M. Hodecker,  
 Z. C. Holden,  S. Houck,  Xunkun Huang,  Kerwin Hui,  B. C. Huynh,  
 M. Ivanov,  Hyunjun Ji,  Hanjie Jiang,  B. Kaduk,  S. Kaehler,  
 K. Khistyaev,  Jaehoon Kim,  P. Klunzinger,  Z. Koczor-Benda,  
 Joong Hoon Koh,  D. Kosenkov,  L. Koulias,  T. Kowalczyk,  C. M. Krauter,  
 K. Kue,  A. Kunitsa,  T. Kus,  A. Landau,  K. V. Lawler,  D. Lefrancois,  
 S. Lehtola,  Rain Li,  Yi-Pei Li,  Jiashu Liang,  M. Liebenthal,  
 Hung-Hsuan Lin,  You-Sheng Lin,  Fenglai Liu,  Kuan-Yu Liu,  
 M. Loipersberger,  A. Luenser,  A. Manjanath,  P. Manohar,  E. Mansoor,  
 S. F. Manzer,  Shan-Ping Mao,  A. V. Marenich,  T. Markovich,  S. Mason,  
 S. A. Maurer,  P. F. McLaughlin,  M. F. S. J. Menger,  J.-M. Mewes,  
 S. A. Mewes,  P. Morgante,  J. W. Mullinax,  T. S. Nguyen-Beck,  
 K. J. Oosterbaan,  G. Paran,  Alexander C. Paul,  Suranjan K. Paul,  
 F. Pavosevic,  Zheng Pei,  S. Prager,  E. I. Proynov,  E. Ramos,  B. Rana,  
 A. E. Rask,  A. Rettig,  R. M. Richard,  F. Rob,  E. Rossomme,  T. Scheele,  
 M. Scheurer,  M. Schneider,  N. Sergueev,  S. M. Sharada,  W. Skomorowski,  
 D. W. Small,  C. J. Stein,  Yu-Chuan Su,  E. J. Sundstrom,  Zhen Tao,  
 J. Thirman,  T. Tsuchimochi,  N. M. Tubman,  S. P. Veccham,  O. Vydrov,  
 J. Wenzel,  J. Witte,  A. Yamada,  Kun Yao,  S. Yeganeh,  S. R. Yost,  
 A. Zech,  Igor Ying Zhang,  Xing Zhang,  Yu Zhang,  D. Zuev,  
 A. Aspuru-Guzik,  A. T. Bell,  N. A. Besley,  K. B. Bravaya,  B. R. Brooks,  
 D. Casanova,  Jeng-Da Chai,  S. Coriani,  C. J. Cramer,  
 A. E. DePrince, III,  R. A. DiStasio Jr.,  A. Dreuw,  B. D. Dunietz,  
 T. R. Furlani,  W. A. Goddard III,  S. Grimme,  S. Hammes-Schiffer,  
 T. Head-Gordon,  W. J. Hehre,  Chao-Ping Hsu,  T.-C. Jagau,  Yousung Jung,  
 A. Klamt,  Jing Kong,  D. S. Lambrecht,  WanZhen Liang,  N. J. Mayhall,  
 C. W. McCurdy,  J. B. Neaton,  C. Ochsenfeld,  J. A. Parkhill,  R. Peverati,  
 V. A. Rassolov,  Yihan Shao,  L. V. Slipchenko,  T. Stauch,  R. P. Steele,  
 J. E. Subotnik,  A. J. W. Thom,  A. Tkatchenko,  D. G. Truhlar,  
 T. Van Voorhis,  T. A. Wesolowski,  K. B. Whaley,  H. L. Woodcock III,  
 P. M. Zimmerman,  S. Faraji,  P. M. W. Gill,  M. Head-Gordon,  
 J. M. Herbert,  A. I. Krylov

 Contributors to earlier versions of Q-Chem not listed above: 
 R. D. Adamson,  B. Austin,  R. Baer,  J. Baker,  G. J. O. Beran,  
 K. Brandhorst,  S. T. Brown,  E. F. C. Byrd,  A. K. Chakraborty,  
 G. K. L. Chan,  Chun-Min Chang,  Yunqing Chen,  C.-L. Cheng,  
 Siu Hung Chien,  D. M. Chipman,  D. L. Crittenden,  H. Dachsel,  
 R. J. Doerksen,  A. D. Dutoi,  R. G. Edgar,  J. Fosso-Tande,  
 L. Fusti-Molnar,  D. Ghosh,  A. Ghysels,  A. Golubeva-Zadorozhnaya,  
 J. Gonthier,  M. S. Gordon,  S. R. Gwaltney,  G. Hawkins,  J. E. Herr,  
 A. Heyden,  S. Hirata,  E. G. Hohenstein,  G. Kedziora,  F. J. Keil,  
 C. Kelley,  Jihan Kim,  R. A. King,  R. Z. Khaliullin,  P. P. Korambath,  
 W. Kurlancheek,  A. Laurent,  A. M. Lee,  M. S. Lee,  S. V. Levchenko,  
 Ching Yeh Lin,  D. Liotard,  E. Livshits,  R. C. Lochan,  I. Lotan,  
 L. A. Martinez-Martinez,  P. E. Maslen,  N. Nair,  D. P. O'Neill,  
 D. Neuhauser,  E. Neuscamman,  C. M. Oana,  R. Olivares-Amaya,  R. Olson,  
 T. M. Perrine,  B. Peters,  P. A. Pieniazek,  A. Prociuk,  Y. M. Rhee,  
 J. Ritchie,  M. A. Rohrdanz,  E. Rosta,  N. J. Russ,  H. F. Schaefer III,  
 M. W. Schmidt,  N. E. Schultz,  S. Sharma,  N. Shenvi,  C. D. Sherrill,  
 A. C. Simmonett,  A. Sodt,  T. Stein,  D. Stuck,  K. S. Thanthiriwatte,  
 V. Vanovschi,  L. Vogt,  Tao Wang,  A. Warshel,  M. A. Watson,  
 C. F. Williams,  Q. Wu,  X. Xu,  Jun Yang,  W. Zhang,  Yan Zhao

 Please cite Q-Chem as follows:
 Y. Shao et al., Mol. Phys. 113, 184-215 (2015)
 DOI: 10.1080/00268976.2014.952696

 Q-Chem 5.4.0 for Intel X86 EM64T Linux

 Parts of Q-Chem use Armadillo 9.800.1 (Horizon Scraper).
 http://arma.sourceforge.net/

 Q-Chem begins on Tue Jan  9 09:56:18 2024  

 Host: 
0

     Scratch files written to ./qchem2525023//
 May1621 |scratch|qcdevops|jenkins|workspace|build_RNUM    
 Parallel job on  1  processors
 Processing $rem in /cm/shared/apps/spack/cpu/opt/spack/linux-centos8-zen2/gcc-10.2.0/qchem-5.4-akfmr7b3t57bfs6qan3padb2wnb2i7cl/config/preferences:
 Processing $rem in /home/rramji/.qchemrc:
 Symmetry turned off for PCM/SM12/SMD calculation
 Core orbitals will be frozen

 Checking the input file for inconsistencies... 	...done.

 Q-Chem warning in module forms1/BasisType.C, line 2236:

 You are not using the predefined 5D/6D in this basis set.


--------------------------------------------------------------
User input:
--------------------------------------------------------------
$molecule
0 1
C	-0.901756	-0.471137	0.973641
S	-0.117956	-0.019137	2.481141
C	1.243544	0.767763	1.692541
C	-0.118056	-0.019537	-0.094259
C	1.084644	0.677463	0.287241
S	-0.327656	-0.143837	-1.831859
C	1.186644	0.736763	-2.080859
C	1.798744	1.093063	-0.888959
F	2.953944	1.765563	-0.845459
C	1.575544	0.959163	-3.482459
O	0.912844	0.567363	-4.432859
O	2.741444	1.640863	-3.595559
C	3.172744	1.883963	-4.942559
H	4.122844	2.440463	-4.859459
H	2.420244	2.480763	-5.496559
H	3.327744	0.929763	-5.485659
C	-0.901756	-1.906337	0.973641
H	-0.706856	-1.914337	2.035841
H	-1.729656	-2.584237	1.119941
H	0.023144	-2.437437	0.803841
H	2.043244	1.231163	2.280141
$end

$rem
JOBTYPE		SP
EXCHANGE	HF
CORRELATION	pRIMP2
BASIS		cc-pvtz
METHOD		rimp2
AUX_BASIS	rimp2-cc-pvtz
SOLVENT_METHOD	PCM
PURECART	11111
SYMMETRY	false
MEM_TOTAL	110000
SCF_CONVERGENCE = 6
THRESH=10
GUI = 2
$end



$solvent
dielectric 4.90
$end
--------------------------------------------------------------
 ----------------------------------------------------------------
             Standard Nuclear Orientation (Angstroms)
    I     Atom           X                Y                Z
 ----------------------------------------------------------------
    1      C      -0.9017560000    -0.4711370000     0.9736410000
    2      S      -0.1179560000    -0.0191370000     2.4811410000
    3      C       1.2435440000     0.7677630000     1.6925410000
    4      C      -0.1180560000    -0.0195370000    -0.0942590000
    5      C       1.0846440000     0.6774630000     0.2872410000
    6      S      -0.3276560000    -0.1438370000    -1.8318590000
    7      C       1.1866440000     0.7367630000    -2.0808590000
    8      C       1.7987440000     1.0930630000    -0.8889590000
    9      F       2.9539440000     1.7655630000    -0.8454590000
   10      C       1.5755440000     0.9591630000    -3.4824590000
   11      O       0.9128440000     0.5673630000    -4.4328590000
   12      O       2.7414440000     1.6408630000    -3.5955590000
   13      C       3.1727440000     1.8839630000    -4.9425590000
   14      H       4.1228440000     2.4404630000    -4.8594590000
   15      H       2.4202440000     2.4807630000    -5.4965590000
   16      H       3.3277440000     0.9297630000    -5.4856590000
   17      C      -0.9017560000    -1.9063370000     0.9736410000
   18      H      -0.7068560000    -1.9143370000     2.0358410000
   19      H      -1.7296560000    -2.5842370000     1.1199410000
   20      H       0.0231440000    -2.4374370000     0.8038410000
   21      H       2.0432440000     1.2311630000     2.2801410000
 ----------------------------------------------------------------
 Nuclear Repulsion Energy =        1092.45110233 hartrees
 There are       59 alpha and       59 beta electrons
 Requested basis set is cc-pVTZ
 There are 186 shells and 526 basis functions

 Total QAlloc Memory Limit 110000 MB
 Mega-Array Size       188 MB
 MEM_STATIC part       192 MB
 Discretize the solute cavity surface with Lebedev spheres
	Using 110 Lebedev grid points for each H atom
	Using 194 Lebedev grid points for other atoms
	Atomic van der Waals radii will be scaled by 1.20
 Remove points where switching function is < 1.0e-08
 Keep 1529 surface tesserae and discard 1957 interior tesserae
 Molecular Surface Area = 239.841 Angst**2
 Requested basis set is rimp2-cc-pVTZ
 There are 410 shells and 1426 basis functions
 A cutoff of  1.0D-10 yielded  11735 shell pairs
 There are     92037 function pairs (    120400 Cartesian)
 Smallest overlap matrix eigenvalue = 6.72E-05

 Scale SEOQF with 1.000000e-01/1.000000e-01/1.000000e-02

 Standard Electronic Orientation quadrupole field applied
 Nucleus-field energy     =     0.0000000136 hartrees
 Guess from superposition of atomic densities
 Warning:  Energy on first SCF cycle will be non-variational
 SAD guess density has 118.000000 electrons

 -----------------------------------------------------------------------
  General SCF calculation program by
  Eric Jon Sundstrom, Paul Horn, Yuezhi Mao, Dmitri Zuev, Alec White,
  David Stuck, Shaama M.S., Shane Yost, Joonho Lee, David Small,
  Daniel Levine, Susi Lehtola, Hugh Burton, Evgeny Epifanovsky,
  Bang C. Huynh
 -----------------------------------------------------------------------
 Hartree-Fock
 using 64 threads for integral computing
 -------------------------------------------------------
 OpenMP Integral computing Module                
 Release: version 1.0, May 2013, Q-Chem Inc. Pittsburgh 
 -------------------------------------------------------
 A restricted SCF calculation will be
 performed using DIIS
 SCF converges when DIIS error is below 1.0e-06
 ---------------------------------------
  Cycle       Energy         DIIS error
 ---------------------------------------
    1   -1394.4006815313      2.49e-02  
    2   -1388.9442579629      2.51e-03  
    3   -1389.1190685820      1.58e-03  
    4   -1389.1839101956      3.57e-04  
    5   -1389.1900219918      1.14e-04  
    6   -1389.1907585386      3.75e-05  
    7   -1389.1909186166      1.88e-05  
    8   -1389.1909739191      7.50e-06  
    9   -1389.1909865674      3.39e-06  
   10   -1389.1909886817      1.30e-06  
   11   -1389.1909890459      5.97e-07  Convergence criterion met
 ---------------------------------------
 SCF time:   CPU 1676.90s  wall 49.00s 

************** Final PCM Free Energy Summary **************
 G_electrostatic  =      -0.01260013 hartree =      -7.90669823 kcal/mol
 G_cavitation     =       0.00000000 hartree =       0.00000000 kcal/mol
 G_dispersion     =       0.00000000 hartree =       0.00000000 kcal/mol
 G_repulsion      =       0.00000000 hartree =       0.00000000 kcal/mol
 --------------------------------------------------
 Non-electrostatic Free Energy =       0.00000000 hartree =       0.00000000 kcal/mol
 Total                         =      -0.01260013 hartree =      -7.90669823 kcal/mol
 --------------------------------------------------
 SCF Energy (H0 + V/2)                       =   -1389.19098905 
 Solute Internal Energy (H0)                 =   -1389.17838892 
 Total Free Energy (H0 + V/2 + non-elec)     =   -1389.19098905 hartree
                                             = -871730.50265416 kcal/mol
***********************************************************

 SCF   energy in the final basis set =    -1389.1909890459
 Total energy in the final basis set =    -1389.1909890459


 --------------------------------------------------------------
  Generalized many-body perturbation theory program
  by Joonho Lee, Fazle Rob, Xintian Feng, Evgeny Epifanovsky

 No regularization used 
 (reg. param. = 0.0000e+00)
  (P|Q)^-1/2 Time:  CPU 36.78 s  wall 0.62 s

 In RI-MP2 calculation: 
 # of frozen core orbitals: 22

 Components of the RIMP2 correlation energy:
        aaaa    correlation energy =        -0.3305672638 a.u.
        abab    correlation energy =        -1.8552879885 a.u.
        bbbb    correlation energy =        -0.3305672638 a.u.
        non-Brillouin singles      =        -0.0000000000 a.u.
        total same-spin energy     =        -0.6611345275 a.u.
        total opposite-spin energy =        -1.8552879885 a.u.

 Total  RIMP2   correlation energy =        -2.5164225160 a.u.
        RIMP2         total energy =     -1391.7074115619 a.u.

 RI-MP2 Energy Time:  CPU 196.70 s  wall 3.88 s
 
 --------------------------------------------------------------
 
                    Orbital Energies (a.u.)
 --------------------------------------------------------------
 
 Alpha MOs
 -- Occupied --
-92.0026 -92.0024 -26.3438 -20.6137 -20.5595 -11.4079 -11.3838 -11.3272
-11.3080 -11.2933 -11.2885 -11.2801 -11.2571 -11.2128  -9.0029  -9.0024
 -6.6835  -6.6834  -6.6826  -6.6824  -6.6823  -6.6816  -1.6610  -1.4661
 -1.3688  -1.2237  -1.1463  -1.0693  -1.0247  -0.9900  -0.9619  -0.9029
 -0.8679  -0.8135  -0.7914  -0.7598  -0.7353  -0.7255  -0.6963  -0.6836
 -0.6732  -0.6623  -0.6090  -0.6080  -0.5932  -0.5733  -0.5657  -0.5602
 -0.5304  -0.5192  -0.5128  -0.4841  -0.4798  -0.4724  -0.4712  -0.4348
 -0.3859  -0.3378  -0.3000
 -- Virtual --
  0.0276   0.0840   0.1363   0.1533   0.1574   0.1689   0.1812   0.1914
  0.2102   0.2151   0.2188   0.2288   0.2341   0.2465   0.2515   0.2665
  0.2772   0.2836   0.3039   0.3353   0.3407   0.3605   0.3654   0.3774
  0.3847   0.3896   0.3997   0.4107   0.4259   0.4271   0.4360   0.4422
  0.4483   0.4552   0.4683   0.4839   0.4923   0.5043   0.5099   0.5139
  0.5243   0.5268   0.5308   0.5432   0.5437   0.5549   0.5733   0.5830
  0.5866   0.5956   0.5976   0.6071   0.6135   0.6168   0.6225   0.6251
  0.6452   0.6509   0.6563   0.6680   0.6800   0.6867   0.7002   0.7064
  0.7102   0.7171   0.7274   0.7381   0.7542   0.7675   0.7785   0.7911
  0.8028   0.8128   0.8249   0.8403   0.8449   0.8616   0.8693   0.8750
  0.8870   0.9046   0.9185   0.9220   0.9476   0.9539   0.9642   0.9680
  0.9829   0.9914   1.0041   1.0155   1.0235   1.0382   1.0552   1.0564
  1.0674   1.0806   1.0936   1.0990   1.1062   1.1116   1.1263   1.1300
  1.1411   1.1520   1.1612   1.1723   1.1862   1.1975   1.1994   1.2186
  1.2225   1.2406   1.2574   1.2594   1.2701   1.2751   1.2793   1.3060
  1.3233   1.3355   1.3518   1.3599   1.3695   1.3838   1.4007   1.4085
  1.4182   1.4310   1.4442   1.4550   1.4795   1.4875   1.4962   1.5039
  1.5130   1.5312   1.5410   1.5449   1.5546   1.5748   1.5909   1.5997
  1.6136   1.6370   1.6603   1.6633   1.6727   1.6861   1.6982   1.7223
  1.7504   1.7603   1.7846   1.7972   1.8174   1.8203   1.8272   1.8489
  1.8752   1.8898   1.8967   1.9242   1.9352   1.9397   1.9513   1.9621
  1.9644   1.9948   2.0127   2.0275   2.0562   2.0858   2.0906   2.0989
  2.1214   2.1443   2.1616   2.1757   2.1918   2.1956   2.2183   2.2272
  2.2358   2.2433   2.2586   2.2766   2.2861   2.2995   2.3353   2.3538
  2.3563   2.3682   2.3813   2.4108   2.4178   2.4304   2.4672   2.4823
  2.5011   2.5353   2.5517   2.5701   2.5784   2.5876   2.6201   2.6324
  2.6390   2.6459   2.6659   2.6764   2.6907   2.7003   2.7055   2.7246
  2.7373   2.7537   2.7733   2.7913   2.7941   2.8019   2.8124   2.8278
  2.8489   2.8764   2.8842   2.8916   2.9188   2.9375   2.9521   2.9616
  2.9727   2.9846   3.0056   3.0140   3.0235   3.0249   3.0559   3.0649
  3.0910   3.0976   3.0998   3.1025   3.1140   3.1309   3.1388   3.1492
  3.1531   3.1786   3.1922   3.2073   3.2130   3.2163   3.2269   3.2414
  3.2568   3.2641   3.2815   3.2880   3.2916   3.3111   3.3172   3.3242
  3.3458   3.3591   3.3636   3.3795   3.3862   3.4012   3.4036   3.4152
  3.4230   3.4266   3.4337   3.4593   3.4715   3.4783   3.4899   3.5011
  3.5034   3.5281   3.5366   3.5451   3.5473   3.5579   3.5765   3.5833
  3.5951   3.5984   3.6060   3.6250   3.6285   3.6542   3.6575   3.6724
  3.6867   3.6931   3.7061   3.7152   3.7309   3.7462   3.7632   3.7703
  3.7894   3.7962   3.7988   3.8029   3.8180   3.8216   3.8338   3.8568
  3.8713   3.8785   3.8856   3.8942   3.9107   3.9184   3.9263   3.9404
  3.9614   3.9688   3.9790   4.0125   4.0227   4.0472   4.0555   4.0691
  4.0811   4.0860   4.1047   4.1185   4.1469   4.1580   4.1624   4.1665
  4.2003   4.2151   4.2296   4.2486   4.2932   4.3086   4.3221   4.3424
  4.3506   4.3597   4.3728   4.3861   4.3941   4.4300   4.4328   4.4507
  4.4793   4.5014   4.5207   4.5244   4.5518   4.5683   4.5865   4.6125
  4.6169   4.6374   4.6578   4.6772   4.6841   4.7252   4.7381   4.7570
  4.7676   4.7794   4.7996   4.8263   4.8310   4.8570   4.8969   4.9269
  4.9546   4.9806   5.0093   5.0186   5.0353   5.0762   5.1034   5.1183
  5.1710   5.1904   5.2132   5.2433   5.2539   5.2569   5.2608   5.3508
  5.3574   5.4020   5.4261   5.4266   5.4488   5.4853   5.5027   5.5123
  5.5339   5.5815   5.6167   5.6230   5.6577   5.6621   5.7269   5.7467
  5.8076   5.8084   5.8487   5.8639   5.9070   5.9305   5.9443   5.9965
  6.0427   6.0548   6.1424   6.1510   6.1838   6.2357   6.2623   6.4100
  6.4512   6.4897   6.5393   6.5980   6.6621   6.6727   6.7456   6.8303
  6.8610   6.9796   7.2047   7.2050   7.3113   7.3626   7.3628   7.4056
  7.4144   7.4851   7.5172   7.5507   7.6154   7.7724   7.7894   7.8894
  7.9567   8.1320   8.2025   8.9215   9.0244   9.3625   9.4795   9.6617
 10.2125  11.2133  11.7519  11.9295  12.4184  12.7141  13.0387  13.3863
 13.7719  14.0265  14.3621
 --------------------------------------------------------------
 
          Ground-State Mulliken Net Atomic Charges

     Atom                 Charge (a.u.)
  ----------------------------------------
      1 C                    -0.134122
      2 S                     0.092447
      3 C                    -0.137725
      4 C                     0.079950
      5 C                    -0.115559
      6 S                     0.039001
      7 C                    -0.159347
      8 C                     0.393813
      9 F                    -0.206272
     10 C                     0.448030
     11 O                    -0.465116
     12 O                    -0.301870
     13 C                    -0.058325
     14 H                     0.120981
     15 H                     0.094906
     16 H                     0.094632
     17 C                    -0.364962
     18 H                     0.115397
     19 H                     0.126755
     20 H                     0.120033
     21 H                     0.217353
  ----------------------------------------
  Sum of atomic charges =     0.000000

 -----------------------------------------------------------------
                    Cartesian Multipole Moments
 -----------------------------------------------------------------
    Charge (ESU x 10^10)
                -0.0000
    Dipole Moment (Debye)
         X       3.3872      Y       0.6026      Z       3.4819
       Tot       4.8949
    Quadrupole Moments (Debye-Ang)
        XX     -89.8811     XY       4.8622     YY     -91.8461
        XZ      -5.5580     YZ      -5.6319     ZZ     -94.3686
    Octopole Moments (Debye-Ang^2)
       XXX    -209.0019    XXY     -30.0133    XYY     -70.9632
       YYY    -110.1801    XXZ      54.3140    XYZ     -12.6887
       YYZ      75.7292    XZZ      -6.9632    YZZ       0.1479
       ZZZ     271.3814
    Hexadecapole Moments (Debye-Ang^3)
      XXXX   -1416.7919   XXXY    -395.3315   XXYY    -350.5024
      XYYY    -419.9386   YYYY    -759.0390   XXXZ     609.4950
      XXYZ      90.6977   XYYZ     196.6933   YYYZ     424.5637
      XXZZ    -605.5006   XYZZ      10.6717   YYZZ    -650.5590
      XZZZ     424.8903   YZZZ     285.3857   ZZZZ   -3706.5273
 -----------------------------------------------------------------
 Total job time:  63.99s(wall), 1979.96s(cpu) 
 Tue Jan  9 09:57:22 2024

        *************************************************************
        *                                                           *
        *  Thank you very much for using Q-Chem.  Have a nice day.  *
        *                                                           *
        *************************************************************


0 sent ACK to 0 
now end server 0 ... 
cleanup process ... done
remove work dirs ./qchem2525023.0 -- ./qchem2525023.0
rm -rf ./qchem2525023.0
rm -rf ./qchem2525023
