You are running Q-Chem version: 5.4.0

#
# job setting
#
local host:  exp-14-37
current dir: /home/rramji/project-csd799/aromodel/ptb7fout-qchem/methylated-rotation-run
input file:  Dimethoxy_Benzodithiophene_Phi_40_Theta_250_Methylcarbonyl_3_Fluoro_Thienothiophene_Hydrogenated_Improper.qcin
output file: 
nprocs     : 1
nthreads   : 64
#
# qchem installation setting
#
QC:          /cm/shared/apps/spack/cpu/opt/spack/linux-centos8-zen2/gcc-10.2.0/qchem-5.4-akfmr7b3t57bfs6qan3padb2wnb2i7cl
QCAUX:       /cm/shared/apps/spack/cpu/opt/spack/linux-centos8-zen2/gcc-10.2.0/qchem-5.4-akfmr7b3t57bfs6qan3padb2wnb2i7cl/qcaux
QCPROG:      /cm/shared/apps/spack/cpu/opt/spack/linux-centos8-zen2/gcc-10.2.0/qchem-5.4-akfmr7b3t57bfs6qan3padb2wnb2i7cl/exe/qcprog.exe
QCPROG_S:    /cm/shared/apps/spack/cpu/opt/spack/linux-centos8-zen2/gcc-10.2.0/qchem-5.4-akfmr7b3t57bfs6qan3padb2wnb2i7cl/exe/qcprog.exe_s
PARALLEL:    -DPARALLEL
QCMPI:       mpich
#
# qchem directory setting
#
qcrun:       qchem4065494
QCSCRATCH:   .
QCLOCALSCR:  
QCTMPDIR:    .
QCFILEPREF:  ./qchem4065494
QCSAVEDIR:   
workdirs:    ./qchem4065494
workdir0:    ./qchem4065494
partmpdirs =  
#
# parallel setting
#
QCRSH:           ssh
QCMPI:           mpich
QCMPIRUN:        /cm/shared/apps/spack/cpu/opt/spack/linux-centos8-zen2/gcc-10.2.0/qchem-5.4-akfmr7b3t57bfs6qan3padb2wnb2i7cl/bin/mpi/mpirun_qchem
QCMACHINEFILE:   ./qchem4065494/hostfile
exp-14-37

#
# env setting
#
exported envs:   QC QCAUX QCSCRATCH QCRUNNAME QCFILEPREF QCPROG QCPROG_S GUIFILE

Running Job 1 of 1 Dimethoxy_Benzodithiophene_Phi_40_Theta_250_Methylcarbonyl_3_Fluoro_Thienothiophene_Hydrogenated_Improper.qcin
qchem Dimethoxy_Benzodithiophene_Phi_40_Theta_250_Methylcarbonyl_3_Fluoro_Thienothiophene_Hydrogenated_Improper.qcin_4065494.0 ./qchem4065494/ 1
/cm/shared/apps/spack/cpu/opt/spack/linux-centos8-zen2/gcc-10.2.0/qchem-5.4-akfmr7b3t57bfs6qan3padb2wnb2i7cl/bin/mpi/mpirun_qchem -machinefile ./qchem4065494/hostfile -np 1 /cm/shared/apps/spack/cpu/opt/spack/linux-centos8-zen2/gcc-10.2.0/qchem-5.4-akfmr7b3t57bfs6qan3padb2wnb2i7cl/exe/qcprog.exe Dimethoxy_Benzodithiophene_Phi_40_Theta_250_Methylcarbonyl_3_Fluoro_Thienothiophene_Hydrogenated_Improper.qcin_4065494.0 ./qchem4065494/

Process 0 of 1 is on exp-14-37 - thread support 0
initial socket setup ...start
initial socket setup ...done 
now start server 0 ... 
                  Welcome to Q-Chem
     A Quantum Leap Into The Future Of Chemistry


 Q-Chem 5.4, Q-Chem, Inc., Pleasanton, CA (2021)

 License issued to: University of California, San Diego (site)

 E. Epifanovsky,  A. T. B. Gilbert,  Xintian Feng,  Joonho Lee,  Yuezhi Mao,  
 N. Mardirossian,  P. Pokhilko,  A. White,  M. Wormit,  M. P. Coons,  
 A. L. Dempwolff,  Zhengting Gan,  D. Hait,  P. R. Horn,  L. D. Jacobson,  
 I. Kaliman,  J. Kussmann,  A. W. Lange,  Ka Un Lao,  D. S. Levine,  Jie Liu,  
 S. C. McKenzie,  A. F. Morrison,  K. Nanda,  F. Plasser,  D. R. Rehn,  
 M. L. Vidal,  Zhi-Qiang You,  Ying Zhu,  B. Alam,  B. Albrecht,  
 A. Aldossary,  E. Alguire,  J. H. Andersen,  D. Barton,  K. Begam,  A. Behn,  
 Y. A. Bernard,  E. J. Berquist,  H. Burton,  A. Carreras,  K. Carter-Fenk,  
 R. Chakraborty,  A. D. Chien,  K. D. Closser,  V. Cofer-Shabica,  
 S. Dasgupta,  Jia Deng,  M. de Wergifosse,  M. Diedenhofen,  Hainam Do,  
 S. Ehlert,  Po-Tung Fang,  S. Fatehi,  Qingguo Feng,  J. Gayvert,  
 Qinghui Ge,  G. Gidofalvi,  M. Goldey,  J. Gomes,  C. Gonzalez-Espinoza,  
 S. Gulania,  A. Gunina,  M. W. D. Hanson-Heine,  P. H. P. Harbach,  
 A. W. Hauser,  M. F. Herbst,  M. Hernandez Vera,  M. Hodecker,  
 Z. C. Holden,  S. Houck,  Xunkun Huang,  Kerwin Hui,  B. C. Huynh,  
 M. Ivanov,  Hyunjun Ji,  Hanjie Jiang,  B. Kaduk,  S. Kaehler,  
 K. Khistyaev,  Jaehoon Kim,  P. Klunzinger,  Z. Koczor-Benda,  
 Joong Hoon Koh,  D. Kosenkov,  L. Koulias,  T. Kowalczyk,  C. M. Krauter,  
 K. Kue,  A. Kunitsa,  T. Kus,  A. Landau,  K. V. Lawler,  D. Lefrancois,  
 S. Lehtola,  Rain Li,  Yi-Pei Li,  Jiashu Liang,  M. Liebenthal,  
 Hung-Hsuan Lin,  You-Sheng Lin,  Fenglai Liu,  Kuan-Yu Liu,  
 M. Loipersberger,  A. Luenser,  A. Manjanath,  P. Manohar,  E. Mansoor,  
 S. F. Manzer,  Shan-Ping Mao,  A. V. Marenich,  T. Markovich,  S. Mason,  
 S. A. Maurer,  P. F. McLaughlin,  M. F. S. J. Menger,  J.-M. Mewes,  
 S. A. Mewes,  P. Morgante,  J. W. Mullinax,  T. S. Nguyen-Beck,  
 K. J. Oosterbaan,  G. Paran,  Alexander C. Paul,  Suranjan K. Paul,  
 F. Pavosevic,  Zheng Pei,  S. Prager,  E. I. Proynov,  E. Ramos,  B. Rana,  
 A. E. Rask,  A. Rettig,  R. M. Richard,  F. Rob,  E. Rossomme,  T. Scheele,  
 M. Scheurer,  M. Schneider,  N. Sergueev,  S. M. Sharada,  W. Skomorowski,  
 D. W. Small,  C. J. Stein,  Yu-Chuan Su,  E. J. Sundstrom,  Zhen Tao,  
 J. Thirman,  T. Tsuchimochi,  N. M. Tubman,  S. P. Veccham,  O. Vydrov,  
 J. Wenzel,  J. Witte,  A. Yamada,  Kun Yao,  S. Yeganeh,  S. R. Yost,  
 A. Zech,  Igor Ying Zhang,  Xing Zhang,  Yu Zhang,  D. Zuev,  
 A. Aspuru-Guzik,  A. T. Bell,  N. A. Besley,  K. B. Bravaya,  B. R. Brooks,  
 D. Casanova,  Jeng-Da Chai,  S. Coriani,  C. J. Cramer,  
 A. E. DePrince, III,  R. A. DiStasio Jr.,  A. Dreuw,  B. D. Dunietz,  
 T. R. Furlani,  W. A. Goddard III,  S. Grimme,  S. Hammes-Schiffer,  
 T. Head-Gordon,  W. J. Hehre,  Chao-Ping Hsu,  T.-C. Jagau,  Yousung Jung,  
 A. Klamt,  Jing Kong,  D. S. Lambrecht,  WanZhen Liang,  N. J. Mayhall,  
 C. W. McCurdy,  J. B. Neaton,  C. Ochsenfeld,  J. A. Parkhill,  R. Peverati,  
 V. A. Rassolov,  Yihan Shao,  L. V. Slipchenko,  T. Stauch,  R. P. Steele,  
 J. E. Subotnik,  A. J. W. Thom,  A. Tkatchenko,  D. G. Truhlar,  
 T. Van Voorhis,  T. A. Wesolowski,  K. B. Whaley,  H. L. Woodcock III,  
 P. M. Zimmerman,  S. Faraji,  P. M. W. Gill,  M. Head-Gordon,  
 J. M. Herbert,  A. I. Krylov

 Contributors to earlier versions of Q-Chem not listed above: 
 R. D. Adamson,  B. Austin,  R. Baer,  J. Baker,  G. J. O. Beran,  
 K. Brandhorst,  S. T. Brown,  E. F. C. Byrd,  A. K. Chakraborty,  
 G. K. L. Chan,  Chun-Min Chang,  Yunqing Chen,  C.-L. Cheng,  
 Siu Hung Chien,  D. M. Chipman,  D. L. Crittenden,  H. Dachsel,  
 R. J. Doerksen,  A. D. Dutoi,  R. G. Edgar,  J. Fosso-Tande,  
 L. Fusti-Molnar,  D. Ghosh,  A. Ghysels,  A. Golubeva-Zadorozhnaya,  
 J. Gonthier,  M. S. Gordon,  S. R. Gwaltney,  G. Hawkins,  J. E. Herr,  
 A. Heyden,  S. Hirata,  E. G. Hohenstein,  G. Kedziora,  F. J. Keil,  
 C. Kelley,  Jihan Kim,  R. A. King,  R. Z. Khaliullin,  P. P. Korambath,  
 W. Kurlancheek,  A. Laurent,  A. M. Lee,  M. S. Lee,  S. V. Levchenko,  
 Ching Yeh Lin,  D. Liotard,  E. Livshits,  R. C. Lochan,  I. Lotan,  
 L. A. Martinez-Martinez,  P. E. Maslen,  N. Nair,  D. P. O'Neill,  
 D. Neuhauser,  E. Neuscamman,  C. M. Oana,  R. Olivares-Amaya,  R. Olson,  
 T. M. Perrine,  B. Peters,  P. A. Pieniazek,  A. Prociuk,  Y. M. Rhee,  
 J. Ritchie,  M. A. Rohrdanz,  E. Rosta,  N. J. Russ,  H. F. Schaefer III,  
 M. W. Schmidt,  N. E. Schultz,  S. Sharma,  N. Shenvi,  C. D. Sherrill,  
 A. C. Simmonett,  A. Sodt,  T. Stein,  D. Stuck,  K. S. Thanthiriwatte,  
 V. Vanovschi,  L. Vogt,  Tao Wang,  A. Warshel,  M. A. Watson,  
 C. F. Williams,  Q. Wu,  X. Xu,  Jun Yang,  W. Zhang,  Yan Zhao

 Please cite Q-Chem as follows:
 Y. Shao et al., Mol. Phys. 113, 184-215 (2015)
 DOI: 10.1080/00268976.2014.952696

 Q-Chem 5.4.0 for Intel X86 EM64T Linux

 Parts of Q-Chem use Armadillo 9.800.1 (Horizon Scraper).
 http://arma.sourceforge.net/

 Q-Chem begins on Tue Jan  9 10:15:33 2024  

 Host: 
0

     Scratch files written to ./qchem4065494//
 May1621 |scratch|qcdevops|jenkins|workspace|build_RNUM    
 Parallel job on  1  processors
 Processing $rem in /cm/shared/apps/spack/cpu/opt/spack/linux-centos8-zen2/gcc-10.2.0/qchem-5.4-akfmr7b3t57bfs6qan3padb2wnb2i7cl/config/preferences:
 Processing $rem in /home/rramji/.qchemrc:
 Symmetry turned off for PCM/SM12/SMD calculation
 Core orbitals will be frozen

 Checking the input file for inconsistencies... 	...done.

 Q-Chem warning in module forms1/BasisType.C, line 2236:

 You are not using the predefined 5D/6D in this basis set.


--------------------------------------------------------------
User input:
--------------------------------------------------------------
$molecule
0 1
C	-0.667674	-0.747937	0.978043
S	-0.085774	-0.055137	2.485543
C	0.924526	1.149963	1.696943
C	-0.085774	-0.055537	-0.089857
C	0.806026	1.010863	0.291643
S	-0.240074	-0.244037	-1.827457
C	0.881626	1.101463	-2.076457
C	1.335026	1.645563	-0.884557
F	2.190526	2.672563	-0.841057
C	1.171026	1.443363	-3.478057
O	0.682326	0.848563	-4.428457
O	2.033426	2.482763	-3.591157
C	2.355626	2.858663	-4.938157
H	3.058026	3.706563	-4.855057
H	1.444426	3.162063	-5.492157
H	2.827626	2.015063	-5.481257
C	-0.667674	-2.183137	0.978043
H	-1.044074	-2.191137	-0.034257
H	0.122226	-2.861037	0.690243
H	-1.549074	-2.714237	1.305943
H	1.517526	1.858863	2.284543
$end

$rem
JOBTYPE		SP
EXCHANGE	HF
CORRELATION	pRIMP2
BASIS		cc-pvtz
METHOD		rimp2
AUX_BASIS	rimp2-cc-pvtz
SOLVENT_METHOD	PCM
PURECART	11111
SYMMETRY	false
MEM_TOTAL	110000
SCF_CONVERGENCE = 6
THRESH=10
GUI = 2
$end



$solvent
dielectric 4.90
$end
--------------------------------------------------------------
 ----------------------------------------------------------------
             Standard Nuclear Orientation (Angstroms)
    I     Atom           X                Y                Z
 ----------------------------------------------------------------
    1      C      -0.6676740000    -0.7479370000     0.9780430000
    2      S      -0.0857740000    -0.0551370000     2.4855430000
    3      C       0.9245260000     1.1499630000     1.6969430000
    4      C      -0.0857740000    -0.0555370000    -0.0898570000
    5      C       0.8060260000     1.0108630000     0.2916430000
    6      S      -0.2400740000    -0.2440370000    -1.8274570000
    7      C       0.8816260000     1.1014630000    -2.0764570000
    8      C       1.3350260000     1.6455630000    -0.8845570000
    9      F       2.1905260000     2.6725630000    -0.8410570000
   10      C       1.1710260000     1.4433630000    -3.4780570000
   11      O       0.6823260000     0.8485630000    -4.4284570000
   12      O       2.0334260000     2.4827630000    -3.5911570000
   13      C       2.3556260000     2.8586630000    -4.9381570000
   14      H       3.0580260000     3.7065630000    -4.8550570000
   15      H       1.4444260000     3.1620630000    -5.4921570000
   16      H       2.8276260000     2.0150630000    -5.4812570000
   17      C      -0.6676740000    -2.1831370000     0.9780430000
   18      H      -1.0440740000    -2.1911370000    -0.0342570000
   19      H       0.1222260000    -2.8610370000     0.6902430000
   20      H      -1.5490740000    -2.7142370000     1.3059430000
   21      H       1.5175260000     1.8588630000     2.2845430000
 ----------------------------------------------------------------
 Nuclear Repulsion Energy =        1087.24987935 hartrees
 There are       59 alpha and       59 beta electrons
 Requested basis set is cc-pVTZ
 There are 186 shells and 526 basis functions

 Total QAlloc Memory Limit 110000 MB
 Mega-Array Size       188 MB
 MEM_STATIC part       192 MB
 Discretize the solute cavity surface with Lebedev spheres
	Using 110 Lebedev grid points for each H atom
	Using 194 Lebedev grid points for other atoms
	Atomic van der Waals radii will be scaled by 1.20
 Remove points where switching function is < 1.0e-08
 Keep 1526 surface tesserae and discard 1960 interior tesserae
 Molecular Surface Area = 241.134 Angst**2
 Requested basis set is rimp2-cc-pVTZ
 There are 410 shells and 1426 basis functions
 A cutoff of  1.0D-10 yielded  11647 shell pairs
 There are     91267 function pairs (    119410 Cartesian)
 Smallest overlap matrix eigenvalue = 6.51E-05

 Scale SEOQF with 1.000000e-01/1.000000e-01/1.000000e-02

 Standard Electronic Orientation quadrupole field applied
 Nucleus-field energy     =     0.0000000195 hartrees
 Guess from superposition of atomic densities
 Warning:  Energy on first SCF cycle will be non-variational
 SAD guess density has 118.000000 electrons

 -----------------------------------------------------------------------
  General SCF calculation program by
  Eric Jon Sundstrom, Paul Horn, Yuezhi Mao, Dmitri Zuev, Alec White,
  David Stuck, Shaama M.S., Shane Yost, Joonho Lee, David Small,
  Daniel Levine, Susi Lehtola, Hugh Burton, Evgeny Epifanovsky,
  Bang C. Huynh
 -----------------------------------------------------------------------
 Hartree-Fock
 using 64 threads for integral computing
 -------------------------------------------------------
 OpenMP Integral computing Module                
 Release: version 1.0, May 2013, Q-Chem Inc. Pittsburgh 
 -------------------------------------------------------
 A restricted SCF calculation will be
 performed using DIIS
 SCF converges when DIIS error is below 1.0e-06
 ---------------------------------------
  Cycle       Energy         DIIS error
 ---------------------------------------
    1   -1394.2820891485      2.47e-02  
    2   -1389.0033122209      2.48e-03  
    3   -1389.1738536823      1.56e-03  
    4   -1389.2357425047      3.53e-04  
    5   -1389.2415703185      1.12e-04  
    6   -1389.2422474173      3.60e-05  
    7   -1389.2423898447      1.81e-05  
    8   -1389.2424385995      7.03e-06  
    9   -1389.2424492589      3.04e-06  
   10   -1389.2424508294      1.15e-06  
   11   -1389.2424510756      4.77e-07  Convergence criterion met
 ---------------------------------------
 SCF time:   CPU 1756.29s  wall 54.00s 

************** Final PCM Free Energy Summary **************
 G_electrostatic  =      -0.01123025 hartree =      -7.04708960 kcal/mol
 G_cavitation     =       0.00000000 hartree =       0.00000000 kcal/mol
 G_dispersion     =       0.00000000 hartree =       0.00000000 kcal/mol
 G_repulsion      =       0.00000000 hartree =       0.00000000 kcal/mol
 --------------------------------------------------
 Non-electrostatic Free Energy =       0.00000000 hartree =       0.00000000 kcal/mol
 Total                         =      -0.01123025 hartree =      -7.04708960 kcal/mol
 --------------------------------------------------
 SCF Energy (H0 + V/2)                       =   -1389.24245108 
 Solute Internal Energy (H0)                 =   -1389.23122082 
 Total Free Energy (H0 + V/2 + non-elec)     =   -1389.24245108 hartree
                                             = -871762.79556522 kcal/mol
***********************************************************

 SCF   energy in the final basis set =    -1389.2424510756
 Total energy in the final basis set =    -1389.2424510756


 --------------------------------------------------------------
  Generalized many-body perturbation theory program
  by Joonho Lee, Fazle Rob, Xintian Feng, Evgeny Epifanovsky

 No regularization used 
 (reg. param. = 0.0000e+00)
  (P|Q)^-1/2 Time:  CPU 29.33 s  wall 0.48 s

 In RI-MP2 calculation: 
 # of frozen core orbitals: 22

 Components of the RIMP2 correlation energy:
        aaaa    correlation energy =        -0.3296608863 a.u.
        abab    correlation energy =        -1.8524536360 a.u.
        bbbb    correlation energy =        -0.3296608863 a.u.
        non-Brillouin singles      =        -0.0000000000 a.u.
        total same-spin energy     =        -0.6593217727 a.u.
        total opposite-spin energy =        -1.8524536360 a.u.

 Total  RIMP2   correlation energy =        -2.5117754087 a.u.
        RIMP2         total energy =     -1391.7542264843 a.u.

 RI-MP2 Energy Time:  CPU 192.17 s  wall 3.62 s
 
 --------------------------------------------------------------
 
                    Orbital Energies (a.u.)
 --------------------------------------------------------------
 
 Alpha MOs
 -- Occupied --
-92.0002 -91.9987 -26.3426 -20.6141 -20.5601 -11.4083 -11.3818 -11.3120
-11.2990 -11.2949 -11.2886 -11.2803 -11.2765 -11.2201  -8.9999  -8.9988
 -6.6806  -6.6798  -6.6798  -6.6795  -6.6790  -6.6780  -1.6598  -1.4665
 -1.3691  -1.2175  -1.1377  -1.0686  -1.0202  -0.9926  -0.9592  -0.9119
 -0.8648  -0.8072  -0.7903  -0.7601  -0.7306  -0.7245  -0.6961  -0.6839
 -0.6733  -0.6616  -0.6094  -0.6015  -0.5924  -0.5815  -0.5634  -0.5580
 -0.5314  -0.5294  -0.5089  -0.4892  -0.4749  -0.4724  -0.4682  -0.4396
 -0.3899  -0.3449  -0.2952
 -- Virtual --
  0.0355   0.0940   0.1371   0.1509   0.1571   0.1737   0.1863   0.1930
  0.2149   0.2153   0.2198   0.2286   0.2339   0.2422   0.2576   0.2643
  0.2857   0.3032   0.3152   0.3385   0.3434   0.3575   0.3789   0.3847
  0.3863   0.3951   0.4026   0.4144   0.4240   0.4295   0.4372   0.4398
  0.4553   0.4614   0.4702   0.4759   0.4891   0.5010   0.5091   0.5170
  0.5237   0.5314   0.5363   0.5432   0.5438   0.5591   0.5700   0.5822
  0.5848   0.5975   0.6002   0.6121   0.6147   0.6182   0.6239   0.6259
  0.6384   0.6542   0.6575   0.6658   0.6756   0.6866   0.6936   0.7052
  0.7133   0.7154   0.7272   0.7398   0.7530   0.7632   0.7745   0.7998
  0.8110   0.8164   0.8305   0.8427   0.8528   0.8638   0.8654   0.8777
  0.8877   0.9020   0.9113   0.9283   0.9383   0.9479   0.9568   0.9663
  0.9791   0.9898   1.0027   1.0081   1.0210   1.0253   1.0388   1.0557
  1.0611   1.0620   1.0929   1.0992   1.1045   1.1058   1.1201   1.1246
  1.1374   1.1505   1.1628   1.1712   1.1807   1.1903   1.1970   1.2101
  1.2274   1.2322   1.2482   1.2565   1.2598   1.2674   1.2954   1.3047
  1.3147   1.3195   1.3447   1.3560   1.3585   1.3697   1.3981   1.4068
  1.4091   1.4300   1.4417   1.4539   1.4734   1.4863   1.4913   1.5032
  1.5147   1.5279   1.5408   1.5508   1.5714   1.5837   1.5893   1.5966
  1.6246   1.6423   1.6538   1.6596   1.6793   1.6945   1.7057   1.7252
  1.7609   1.7712   1.7870   1.7907   1.8167   1.8216   1.8254   1.8582
  1.8725   1.8809   1.8986   1.9285   1.9360   1.9418   1.9559   1.9591
  1.9797   1.9920   2.0141   2.0289   2.0502   2.0840   2.0867   2.0998
  2.1064   2.1496   2.1628   2.1765   2.1961   2.2016   2.2121   2.2193
  2.2303   2.2367   2.2564   2.2686   2.2882   2.2972   2.3303   2.3346
  2.3545   2.3702   2.3813   2.4155   2.4320   2.4378   2.4707   2.4849
  2.5018   2.5376   2.5465   2.5605   2.5803   2.5967   2.6260   2.6380
  2.6417   2.6490   2.6522   2.6739   2.6885   2.6983   2.7059   2.7099
  2.7200   2.7489   2.7624   2.7784   2.7869   2.8031   2.8114   2.8265
  2.8442   2.8481   2.8731   2.8855   2.9124   2.9199   2.9340   2.9523
  2.9646   2.9809   2.9903   2.9958   3.0237   3.0339   3.0432   3.0588
  3.0681   3.0822   3.0887   3.0992   3.1030   3.1245   3.1283   3.1491
  3.1587   3.1706   3.1931   3.2065   3.2096   3.2192   3.2355   3.2446
  3.2616   3.2665   3.2709   3.2757   3.2857   3.3162   3.3232   3.3318
  3.3423   3.3566   3.3606   3.3711   3.3822   3.4038   3.4082   3.4186
  3.4205   3.4286   3.4371   3.4470   3.4668   3.4704   3.4732   3.4858
  3.5069   3.5188   3.5307   3.5344   3.5465   3.5570   3.5671   3.5756
  3.5899   3.5977   3.6023   3.6120   3.6363   3.6405   3.6554   3.6699
  3.6827   3.6929   3.6986   3.7059   3.7192   3.7305   3.7365   3.7532
  3.7800   3.7869   3.7950   3.8039   3.8130   3.8225   3.8339   3.8388
  3.8521   3.8634   3.8794   3.8856   3.8877   3.9008   3.9183   3.9305
  3.9477   3.9668   3.9809   3.9890   4.0009   4.0144   4.0385   4.0553
  4.0685   4.0825   4.0912   4.1190   4.1401   4.1625   4.1662   4.1710
  4.1809   4.2043   4.2084   4.2226   4.2451   4.2972   4.3360   4.3421
  4.3578   4.3604   4.3679   4.3861   4.3971   4.4220   4.4264   4.4376
  4.4652   4.4762   4.5162   4.5333   4.5518   4.5742   4.5850   4.6030
  4.6094   4.6425   4.6537   4.6564   4.6752   4.6816   4.7395   4.7467
  4.7679   4.7753   4.8128   4.8345   4.8459   4.8713   4.8858   4.9102
  4.9270   4.9597   5.0092   5.0094   5.0292   5.0787   5.1119   5.1184
  5.1288   5.1780   5.1964   5.2475   5.2533   5.2573   5.2635   5.3506
  5.3580   5.4014   5.4183   5.4265   5.4680   5.4853   5.5053   5.5198
  5.5366   5.5804   5.6125   5.6226   5.6610   5.6921   5.7262   5.7530
  5.8025   5.8082   5.8339   5.8868   5.9135   5.9301   5.9506   5.9814
  6.0420   6.0730   6.1381   6.1509   6.1835   6.2595   6.2621   6.3966
  6.4509   6.4576   6.5379   6.6001   6.6615   6.6723   6.7459   6.8303
  6.8605   6.9789   7.2046   7.2054   7.3108   7.3637   7.3639   7.4060
  7.4140   7.4863   7.5211   7.5504   7.6157   7.7737   7.7897   7.8938
  7.9584   8.1341   8.2148   8.9226   9.0185   9.3636   9.4742   9.6597
 10.1697  11.1548  11.7014  11.8628  12.4155  12.7684  13.0613  13.3861
 13.7695  14.0292  14.3832
 --------------------------------------------------------------
 
          Ground-State Mulliken Net Atomic Charges

     Atom                 Charge (a.u.)
  ----------------------------------------
      1 C                    -0.045810
      2 S                     0.082846
      3 C                    -0.175742
      4 C                     0.005729
      5 C                    -0.096871
      6 S                     0.014808
      7 C                    -0.157813
      8 C                     0.392634
      9 F                    -0.206607
     10 C                     0.447240
     11 O                    -0.463302
     12 O                    -0.301379
     13 C                    -0.058417
     14 H                     0.121172
     15 H                     0.094940
     16 H                     0.094713
     17 C                    -0.353300
     18 H                     0.107266
     19 H                     0.152483
     20 H                     0.131914
     21 H                     0.213496
  ----------------------------------------
  Sum of atomic charges =     0.000000

 -----------------------------------------------------------------
                    Cartesian Multipole Moments
 -----------------------------------------------------------------
    Charge (ESU x 10^10)
                -0.0000
    Dipole Moment (Debye)
         X       1.6866      Y       0.8140      Z       2.3886
       Tot       3.0352
    Quadrupole Moments (Debye-Ang)
        XX     -92.0320     XY       6.0658     YY     -86.8880
        XZ      -4.7338     YZ      -5.7733     ZZ     -97.5563
    Octopole Moments (Debye-Ang^2)
       XXX    -161.5263    XXY     -55.8023    XYY     -50.4217
       YYY    -179.9261    XXZ      66.3511    XYZ     -16.2826
       YYZ      59.5068    XZZ      -4.7102    YZZ       2.9679
       ZZZ     267.2945
    Hexadecapole Moments (Debye-Ang^3)
      XXXX    -850.1818   XXXY    -451.9589   XXYY    -350.3032
      XYYY    -441.5262   YYYY   -1369.5971   XXXZ     479.2635
      XXYZ     168.7079   XYYZ     111.1520   YYYZ     589.2414
      XXZZ    -618.3318   XYZZ      12.4449   YYZZ    -652.0399
      XZZZ     313.4813   YZZZ     413.5374   ZZZZ   -3702.5544
 -----------------------------------------------------------------
 Total job time:  65.12s(wall), 2049.30s(cpu) 
 Tue Jan  9 10:16:38 2024

        *************************************************************
        *                                                           *
        *  Thank you very much for using Q-Chem.  Have a nice day.  *
        *                                                           *
        *************************************************************


0 sent ACK to 0 
now end server 0 ... 
cleanup process ... done
remove work dirs ./qchem4065494.0 -- ./qchem4065494.0
rm -rf ./qchem4065494.0
rm -rf ./qchem4065494
