You are running Q-Chem version: 5.4.0

#
# job setting
#
local host:  exp-14-37
current dir: /home/rramji/project-csd799/aromodel/ptb7fout-qchem/methylated-rotation-run
input file:  Dimethoxy_Benzodithiophene_Phi_40_Theta_90_Methylcarbonyl_3_Fluoro_Thienothiophene_Hydrogenated_Improper.qcin
output file: 
nprocs     : 1
nthreads   : 64
#
# qchem installation setting
#
QC:          /cm/shared/apps/spack/cpu/opt/spack/linux-centos8-zen2/gcc-10.2.0/qchem-5.4-akfmr7b3t57bfs6qan3padb2wnb2i7cl
QCAUX:       /cm/shared/apps/spack/cpu/opt/spack/linux-centos8-zen2/gcc-10.2.0/qchem-5.4-akfmr7b3t57bfs6qan3padb2wnb2i7cl/qcaux
QCPROG:      /cm/shared/apps/spack/cpu/opt/spack/linux-centos8-zen2/gcc-10.2.0/qchem-5.4-akfmr7b3t57bfs6qan3padb2wnb2i7cl/exe/qcprog.exe
QCPROG_S:    /cm/shared/apps/spack/cpu/opt/spack/linux-centos8-zen2/gcc-10.2.0/qchem-5.4-akfmr7b3t57bfs6qan3padb2wnb2i7cl/exe/qcprog.exe_s
PARALLEL:    -DPARALLEL
QCMPI:       mpich
#
# qchem directory setting
#
qcrun:       qchem4060108
QCSCRATCH:   .
QCLOCALSCR:  
QCTMPDIR:    .
QCFILEPREF:  ./qchem4060108
QCSAVEDIR:   
workdirs:    ./qchem4060108
workdir0:    ./qchem4060108
partmpdirs =  
#
# parallel setting
#
QCRSH:           ssh
QCMPI:           mpich
QCMPIRUN:        /cm/shared/apps/spack/cpu/opt/spack/linux-centos8-zen2/gcc-10.2.0/qchem-5.4-akfmr7b3t57bfs6qan3padb2wnb2i7cl/bin/mpi/mpirun_qchem
QCMACHINEFILE:   ./qchem4060108/hostfile
exp-14-37

#
# env setting
#
exported envs:   QC QCAUX QCSCRATCH QCRUNNAME QCFILEPREF QCPROG QCPROG_S GUIFILE

Running Job 1 of 1 Dimethoxy_Benzodithiophene_Phi_40_Theta_90_Methylcarbonyl_3_Fluoro_Thienothiophene_Hydrogenated_Improper.qcin
qchem Dimethoxy_Benzodithiophene_Phi_40_Theta_90_Methylcarbonyl_3_Fluoro_Thienothiophene_Hydrogenated_Improper.qcin_4060108.0 ./qchem4060108/ 1
/cm/shared/apps/spack/cpu/opt/spack/linux-centos8-zen2/gcc-10.2.0/qchem-5.4-akfmr7b3t57bfs6qan3padb2wnb2i7cl/bin/mpi/mpirun_qchem -machinefile ./qchem4060108/hostfile -np 1 /cm/shared/apps/spack/cpu/opt/spack/linux-centos8-zen2/gcc-10.2.0/qchem-5.4-akfmr7b3t57bfs6qan3padb2wnb2i7cl/exe/qcprog.exe Dimethoxy_Benzodithiophene_Phi_40_Theta_90_Methylcarbonyl_3_Fluoro_Thienothiophene_Hydrogenated_Improper.qcin_4060108.0 ./qchem4060108/

Process 0 of 1 is on exp-14-37 - thread support 0
initial socket setup ...start
initial socket setup ...done 
now start server 0 ... 
                  Welcome to Q-Chem
     A Quantum Leap Into The Future Of Chemistry


 Q-Chem 5.4, Q-Chem, Inc., Pleasanton, CA (2021)

 License issued to: University of California, San Diego (site)

 E. Epifanovsky,  A. T. B. Gilbert,  Xintian Feng,  Joonho Lee,  Yuezhi Mao,  
 N. Mardirossian,  P. Pokhilko,  A. White,  M. Wormit,  M. P. Coons,  
 A. L. Dempwolff,  Zhengting Gan,  D. Hait,  P. R. Horn,  L. D. Jacobson,  
 I. Kaliman,  J. Kussmann,  A. W. Lange,  Ka Un Lao,  D. S. Levine,  Jie Liu,  
 S. C. McKenzie,  A. F. Morrison,  K. Nanda,  F. Plasser,  D. R. Rehn,  
 M. L. Vidal,  Zhi-Qiang You,  Ying Zhu,  B. Alam,  B. Albrecht,  
 A. Aldossary,  E. Alguire,  J. H. Andersen,  D. Barton,  K. Begam,  A. Behn,  
 Y. A. Bernard,  E. J. Berquist,  H. Burton,  A. Carreras,  K. Carter-Fenk,  
 R. Chakraborty,  A. D. Chien,  K. D. Closser,  V. Cofer-Shabica,  
 S. Dasgupta,  Jia Deng,  M. de Wergifosse,  M. Diedenhofen,  Hainam Do,  
 S. Ehlert,  Po-Tung Fang,  S. Fatehi,  Qingguo Feng,  J. Gayvert,  
 Qinghui Ge,  G. Gidofalvi,  M. Goldey,  J. Gomes,  C. Gonzalez-Espinoza,  
 S. Gulania,  A. Gunina,  M. W. D. Hanson-Heine,  P. H. P. Harbach,  
 A. W. Hauser,  M. F. Herbst,  M. Hernandez Vera,  M. Hodecker,  
 Z. C. Holden,  S. Houck,  Xunkun Huang,  Kerwin Hui,  B. C. Huynh,  
 M. Ivanov,  Hyunjun Ji,  Hanjie Jiang,  B. Kaduk,  S. Kaehler,  
 K. Khistyaev,  Jaehoon Kim,  P. Klunzinger,  Z. Koczor-Benda,  
 Joong Hoon Koh,  D. Kosenkov,  L. Koulias,  T. Kowalczyk,  C. M. Krauter,  
 K. Kue,  A. Kunitsa,  T. Kus,  A. Landau,  K. V. Lawler,  D. Lefrancois,  
 S. Lehtola,  Rain Li,  Yi-Pei Li,  Jiashu Liang,  M. Liebenthal,  
 Hung-Hsuan Lin,  You-Sheng Lin,  Fenglai Liu,  Kuan-Yu Liu,  
 M. Loipersberger,  A. Luenser,  A. Manjanath,  P. Manohar,  E. Mansoor,  
 S. F. Manzer,  Shan-Ping Mao,  A. V. Marenich,  T. Markovich,  S. Mason,  
 S. A. Maurer,  P. F. McLaughlin,  M. F. S. J. Menger,  J.-M. Mewes,  
 S. A. Mewes,  P. Morgante,  J. W. Mullinax,  T. S. Nguyen-Beck,  
 K. J. Oosterbaan,  G. Paran,  Alexander C. Paul,  Suranjan K. Paul,  
 F. Pavosevic,  Zheng Pei,  S. Prager,  E. I. Proynov,  E. Ramos,  B. Rana,  
 A. E. Rask,  A. Rettig,  R. M. Richard,  F. Rob,  E. Rossomme,  T. Scheele,  
 M. Scheurer,  M. Schneider,  N. Sergueev,  S. M. Sharada,  W. Skomorowski,  
 D. W. Small,  C. J. Stein,  Yu-Chuan Su,  E. J. Sundstrom,  Zhen Tao,  
 J. Thirman,  T. Tsuchimochi,  N. M. Tubman,  S. P. Veccham,  O. Vydrov,  
 J. Wenzel,  J. Witte,  A. Yamada,  Kun Yao,  S. Yeganeh,  S. R. Yost,  
 A. Zech,  Igor Ying Zhang,  Xing Zhang,  Yu Zhang,  D. Zuev,  
 A. Aspuru-Guzik,  A. T. Bell,  N. A. Besley,  K. B. Bravaya,  B. R. Brooks,  
 D. Casanova,  Jeng-Da Chai,  S. Coriani,  C. J. Cramer,  
 A. E. DePrince, III,  R. A. DiStasio Jr.,  A. Dreuw,  B. D. Dunietz,  
 T. R. Furlani,  W. A. Goddard III,  S. Grimme,  S. Hammes-Schiffer,  
 T. Head-Gordon,  W. J. Hehre,  Chao-Ping Hsu,  T.-C. Jagau,  Yousung Jung,  
 A. Klamt,  Jing Kong,  D. S. Lambrecht,  WanZhen Liang,  N. J. Mayhall,  
 C. W. McCurdy,  J. B. Neaton,  C. Ochsenfeld,  J. A. Parkhill,  R. Peverati,  
 V. A. Rassolov,  Yihan Shao,  L. V. Slipchenko,  T. Stauch,  R. P. Steele,  
 J. E. Subotnik,  A. J. W. Thom,  A. Tkatchenko,  D. G. Truhlar,  
 T. Van Voorhis,  T. A. Wesolowski,  K. B. Whaley,  H. L. Woodcock III,  
 P. M. Zimmerman,  S. Faraji,  P. M. W. Gill,  M. Head-Gordon,  
 J. M. Herbert,  A. I. Krylov

 Contributors to earlier versions of Q-Chem not listed above: 
 R. D. Adamson,  B. Austin,  R. Baer,  J. Baker,  G. J. O. Beran,  
 K. Brandhorst,  S. T. Brown,  E. F. C. Byrd,  A. K. Chakraborty,  
 G. K. L. Chan,  Chun-Min Chang,  Yunqing Chen,  C.-L. Cheng,  
 Siu Hung Chien,  D. M. Chipman,  D. L. Crittenden,  H. Dachsel,  
 R. J. Doerksen,  A. D. Dutoi,  R. G. Edgar,  J. Fosso-Tande,  
 L. Fusti-Molnar,  D. Ghosh,  A. Ghysels,  A. Golubeva-Zadorozhnaya,  
 J. Gonthier,  M. S. Gordon,  S. R. Gwaltney,  G. Hawkins,  J. E. Herr,  
 A. Heyden,  S. Hirata,  E. G. Hohenstein,  G. Kedziora,  F. J. Keil,  
 C. Kelley,  Jihan Kim,  R. A. King,  R. Z. Khaliullin,  P. P. Korambath,  
 W. Kurlancheek,  A. Laurent,  A. M. Lee,  M. S. Lee,  S. V. Levchenko,  
 Ching Yeh Lin,  D. Liotard,  E. Livshits,  R. C. Lochan,  I. Lotan,  
 L. A. Martinez-Martinez,  P. E. Maslen,  N. Nair,  D. P. O'Neill,  
 D. Neuhauser,  E. Neuscamman,  C. M. Oana,  R. Olivares-Amaya,  R. Olson,  
 T. M. Perrine,  B. Peters,  P. A. Pieniazek,  A. Prociuk,  Y. M. Rhee,  
 J. Ritchie,  M. A. Rohrdanz,  E. Rosta,  N. J. Russ,  H. F. Schaefer III,  
 M. W. Schmidt,  N. E. Schultz,  S. Sharma,  N. Shenvi,  C. D. Sherrill,  
 A. C. Simmonett,  A. Sodt,  T. Stein,  D. Stuck,  K. S. Thanthiriwatte,  
 V. Vanovschi,  L. Vogt,  Tao Wang,  A. Warshel,  M. A. Watson,  
 C. F. Williams,  Q. Wu,  X. Xu,  Jun Yang,  W. Zhang,  Yan Zhao

 Please cite Q-Chem as follows:
 Y. Shao et al., Mol. Phys. 113, 184-215 (2015)
 DOI: 10.1080/00268976.2014.952696

 Q-Chem 5.4.0 for Intel X86 EM64T Linux

 Parts of Q-Chem use Armadillo 9.800.1 (Horizon Scraper).
 http://arma.sourceforge.net/

 Q-Chem begins on Tue Jan  9 09:57:38 2024  

 Host: 
0

     Scratch files written to ./qchem4060108//
 May1621 |scratch|qcdevops|jenkins|workspace|build_RNUM    
 Parallel job on  1  processors
 Processing $rem in /cm/shared/apps/spack/cpu/opt/spack/linux-centos8-zen2/gcc-10.2.0/qchem-5.4-akfmr7b3t57bfs6qan3padb2wnb2i7cl/config/preferences:
 Processing $rem in /home/rramji/.qchemrc:
 Symmetry turned off for PCM/SM12/SMD calculation
 Core orbitals will be frozen

 Checking the input file for inconsistencies... 	...done.

 Q-Chem warning in module forms1/BasisType.C, line 2236:

 You are not using the predefined 5D/6D in this basis set.


--------------------------------------------------------------
User input:
--------------------------------------------------------------
$molecule
0 1
C	-0.668932	-0.747937	0.973565
S	-0.087032	-0.055137	2.481065
C	0.923268	1.149963	1.692465
C	-0.087032	-0.055537	-0.094335
C	0.804768	1.010863	0.287165
S	-0.241332	-0.244037	-1.831935
C	0.880368	1.101463	-2.080935
C	1.333768	1.645563	-0.889035
F	2.189268	2.672563	-0.845535
C	1.169768	1.443363	-3.482535
O	0.681068	0.848563	-4.432935
O	2.032168	2.482763	-3.595635
C	2.354368	2.858663	-4.942635
H	3.056768	3.706563	-4.859535
H	1.443168	3.162063	-5.496635
H	2.826368	2.015063	-5.485735
C	-0.668932	-2.183137	0.973565
H	-0.661532	-2.191137	2.053465
H	-1.509632	-2.861037	0.973865
H	0.271468	-2.714237	0.966865
H	1.516268	1.858863	2.280065
$end

$rem
JOBTYPE		SP
EXCHANGE	HF
CORRELATION	pRIMP2
BASIS		cc-pvtz
METHOD		rimp2
AUX_BASIS	rimp2-cc-pvtz
SOLVENT_METHOD	PCM
PURECART	11111
SYMMETRY	false
MEM_TOTAL	110000
SCF_CONVERGENCE = 6
THRESH=10
GUI = 2
$end



$solvent
dielectric 4.90
$end
--------------------------------------------------------------
 ----------------------------------------------------------------
             Standard Nuclear Orientation (Angstroms)
    I     Atom           X                Y                Z
 ----------------------------------------------------------------
    1      C      -0.6689320000    -0.7479370000     0.9735650000
    2      S      -0.0870320000    -0.0551370000     2.4810650000
    3      C       0.9232680000     1.1499630000     1.6924650000
    4      C      -0.0870320000    -0.0555370000    -0.0943350000
    5      C       0.8047680000     1.0108630000     0.2871650000
    6      S      -0.2413320000    -0.2440370000    -1.8319350000
    7      C       0.8803680000     1.1014630000    -2.0809350000
    8      C       1.3337680000     1.6455630000    -0.8890350000
    9      F       2.1892680000     2.6725630000    -0.8455350000
   10      C       1.1697680000     1.4433630000    -3.4825350000
   11      O       0.6810680000     0.8485630000    -4.4329350000
   12      O       2.0321680000     2.4827630000    -3.5956350000
   13      C       2.3543680000     2.8586630000    -4.9426350000
   14      H       3.0567680000     3.7065630000    -4.8595350000
   15      H       1.4431680000     3.1620630000    -5.4966350000
   16      H       2.8263680000     2.0150630000    -5.4857350000
   17      C      -0.6689320000    -2.1831370000     0.9735650000
   18      H      -0.6615320000    -2.1911370000     2.0534650000
   19      H      -1.5096320000    -2.8610370000     0.9738650000
   20      H       0.2714680000    -2.7142370000     0.9668650000
   21      H       1.5162680000     1.8588630000     2.2800650000
 ----------------------------------------------------------------
 Nuclear Repulsion Energy =        1086.55758865 hartrees
 There are       59 alpha and       59 beta electrons
 Requested basis set is cc-pVTZ
 There are 186 shells and 526 basis functions

 Total QAlloc Memory Limit 110000 MB
 Mega-Array Size       188 MB
 MEM_STATIC part       192 MB
 Discretize the solute cavity surface with Lebedev spheres
	Using 110 Lebedev grid points for each H atom
	Using 194 Lebedev grid points for other atoms
	Atomic van der Waals radii will be scaled by 1.20
 Remove points where switching function is < 1.0e-08
 Keep 1523 surface tesserae and discard 1963 interior tesserae
 Molecular Surface Area = 241.409 Angst**2
 Requested basis set is rimp2-cc-pVTZ
 There are 410 shells and 1426 basis functions
 A cutoff of  1.0D-10 yielded  11567 shell pairs
 There are     90769 function pairs (    118828 Cartesian)
 Smallest overlap matrix eigenvalue = 6.48E-05

 Scale SEOQF with 1.000000e-01/1.000000e-01/1.000000e-02

 Standard Electronic Orientation quadrupole field applied
 Nucleus-field energy     =     0.0000000195 hartrees
 Guess from superposition of atomic densities
 Warning:  Energy on first SCF cycle will be non-variational
 SAD guess density has 118.000000 electrons

 -----------------------------------------------------------------------
  General SCF calculation program by
  Eric Jon Sundstrom, Paul Horn, Yuezhi Mao, Dmitri Zuev, Alec White,
  David Stuck, Shaama M.S., Shane Yost, Joonho Lee, David Small,
  Daniel Levine, Susi Lehtola, Hugh Burton, Evgeny Epifanovsky,
  Bang C. Huynh
 -----------------------------------------------------------------------
 Hartree-Fock
 using 64 threads for integral computing
 -------------------------------------------------------
 OpenMP Integral computing Module                
 Release: version 1.0, May 2013, Q-Chem Inc. Pittsburgh 
 -------------------------------------------------------
 A restricted SCF calculation will be
 performed using DIIS
 SCF converges when DIIS error is below 1.0e-06
 ---------------------------------------
  Cycle       Energy         DIIS error
 ---------------------------------------
    1   -1394.3003630179      2.48e-02  
    2   -1388.9995774881      2.48e-03  
    3   -1389.1710306174      1.55e-03  
    4   -1389.2316797982      3.55e-04  
    5   -1389.2375396355      1.12e-04  
    6   -1389.2382350131      3.66e-05  
    7   -1389.2383828234      1.82e-05  
    8   -1389.2384333312      7.09e-06  
    9   -1389.2384441127      3.05e-06  
   10   -1389.2384457136      1.14e-06  
   11   -1389.2384459538      4.77e-07  Convergence criterion met
 ---------------------------------------
 SCF time:   CPU 1694.97s  wall 52.00s 

************** Final PCM Free Energy Summary **************
 G_electrostatic  =      -0.01179674 hartree =      -7.40256857 kcal/mol
 G_cavitation     =       0.00000000 hartree =       0.00000000 kcal/mol
 G_dispersion     =       0.00000000 hartree =       0.00000000 kcal/mol
 G_repulsion      =       0.00000000 hartree =       0.00000000 kcal/mol
 --------------------------------------------------
 Non-electrostatic Free Energy =       0.00000000 hartree =       0.00000000 kcal/mol
 Total                         =      -0.01179674 hartree =      -7.40256857 kcal/mol
 --------------------------------------------------
 SCF Energy (H0 + V/2)                       =   -1389.23844595 
 Solute Internal Energy (H0)                 =   -1389.22664921 
 Total Free Energy (H0 + V/2 + non-elec)     =   -1389.23844595 hartree
                                             = -871760.28231330 kcal/mol
***********************************************************

 SCF   energy in the final basis set =    -1389.2384459538
 Total energy in the final basis set =    -1389.2384459538


 --------------------------------------------------------------
  Generalized many-body perturbation theory program
  by Joonho Lee, Fazle Rob, Xintian Feng, Evgeny Epifanovsky

 No regularization used 
 (reg. param. = 0.0000e+00)
  (P|Q)^-1/2 Time:  CPU 38.64 s  wall 0.63 s

 In RI-MP2 calculation: 
 # of frozen core orbitals: 22

 Components of the RIMP2 correlation energy:
        aaaa    correlation energy =        -0.3294566577 a.u.
        abab    correlation energy =        -1.8522255820 a.u.
        bbbb    correlation energy =        -0.3294566577 a.u.
        non-Brillouin singles      =        -0.0000000000 a.u.
        total same-spin energy     =        -0.6589133153 a.u.
        total opposite-spin energy =        -1.8522255820 a.u.

 Total  RIMP2   correlation energy =        -2.5111388973 a.u.
        RIMP2         total energy =     -1391.7495848511 a.u.

 RI-MP2 Energy Time:  CPU 234.40 s  wall 3.98 s
 
 --------------------------------------------------------------
 
                    Orbital Energies (a.u.)
 --------------------------------------------------------------
 
 Alpha MOs
 -- Occupied --
-92.0058 -91.9966 -26.3418 -20.6136 -20.5595 -11.4076 -11.3806 -11.3116
-11.2942 -11.2939 -11.2882 -11.2794 -11.2763 -11.2196  -9.0053  -8.9966
 -6.6860  -6.6852  -6.6848  -6.6776  -6.6769  -6.6759  -1.6590  -1.4659
 -1.3686  -1.2164  -1.1402  -1.0657  -1.0217  -0.9923  -0.9599  -0.9088
 -0.8654  -0.8093  -0.7896  -0.7586  -0.7323  -0.7238  -0.6929  -0.6834
 -0.6728  -0.6609  -0.6066  -0.6048  -0.5921  -0.5762  -0.5646  -0.5597
 -0.5301  -0.5299  -0.5091  -0.4791  -0.4754  -0.4718  -0.4688  -0.4493
 -0.3903  -0.3433  -0.2955
 -- Virtual --
  0.0350   0.0960   0.1328   0.1552   0.1583   0.1700   0.1814   0.1937
  0.2131   0.2156   0.2207   0.2289   0.2367   0.2475   0.2593   0.2673
  0.2834   0.2923   0.3095   0.3383   0.3449   0.3635   0.3674   0.3748
  0.3847   0.3944   0.4009   0.4138   0.4261   0.4295   0.4413   0.4461
  0.4542   0.4578   0.4706   0.4734   0.4923   0.5067   0.5154   0.5193
  0.5219   0.5279   0.5394   0.5397   0.5445   0.5535   0.5685   0.5808
  0.5869   0.5933   0.6000   0.6071   0.6148   0.6217   0.6233   0.6329
  0.6509   0.6517   0.6573   0.6615   0.6735   0.6887   0.6892   0.7091
  0.7146   0.7173   0.7321   0.7458   0.7519   0.7625   0.7736   0.7969
  0.8078   0.8179   0.8281   0.8457   0.8481   0.8645   0.8696   0.8762
  0.8844   0.8902   0.9053   0.9120   0.9380   0.9519   0.9580   0.9631
  0.9838   0.9893   0.9996   1.0166   1.0280   1.0346   1.0443   1.0566
  1.0604   1.0771   1.0811   1.0975   1.1019   1.1097   1.1174   1.1301
  1.1334   1.1512   1.1566   1.1744   1.1860   1.1911   1.2030   1.2235
  1.2251   1.2329   1.2538   1.2619   1.2648   1.2683   1.2878   1.3069
  1.3280   1.3316   1.3410   1.3490   1.3603   1.3757   1.3889   1.4051
  1.4190   1.4227   1.4400   1.4533   1.4753   1.4879   1.5000   1.5036
  1.5141   1.5388   1.5429   1.5544   1.5639   1.5749   1.5834   1.5969
  1.6089   1.6307   1.6482   1.6621   1.6738   1.6918   1.7039   1.7214
  1.7546   1.7654   1.7783   1.7949   1.8185   1.8220   1.8239   1.8540
  1.8779   1.8902   1.9020   1.9237   1.9321   1.9363   1.9455   1.9738
  1.9850   1.9908   2.0025   2.0337   2.0565   2.0778   2.0880   2.0993
  2.1220   2.1510   2.1628   2.1824   2.1977   2.2010   2.2133   2.2220
  2.2308   2.2377   2.2535   2.2721   2.2892   2.3046   2.3311   2.3443
  2.3592   2.3710   2.3811   2.4161   2.4280   2.4335   2.4746   2.4842
  2.5083   2.5386   2.5503   2.5701   2.5821   2.5981   2.6280   2.6413
  2.6439   2.6489   2.6652   2.6823   2.6905   2.6972   2.7056   2.7247
  2.7366   2.7505   2.7619   2.7816   2.7977   2.7993   2.8115   2.8237
  2.8284   2.8651   2.8819   2.8834   2.8928   2.9104   2.9379   2.9543
  2.9712   2.9747   2.9838   3.0083   3.0203   3.0239   3.0418   3.0640
  3.0718   3.0868   3.0933   3.0993   3.1102   3.1317   3.1406   3.1492
  3.1597   3.1854   3.2054   3.2077   3.2116   3.2190   3.2334   3.2423
  3.2466   3.2610   3.2716   3.2773   3.2825   3.2966   3.3153   3.3231
  3.3469   3.3580   3.3588   3.3843   3.3886   3.3976   3.4049   3.4159
  3.4283   3.4288   3.4401   3.4477   3.4649   3.4741   3.4786   3.4866
  3.4968   3.5198   3.5379   3.5449   3.5588   3.5642   3.5667   3.5802
  3.5977   3.6018   3.6099   3.6222   3.6290   3.6373   3.6696   3.6787
  3.6842   3.6918   3.7063   3.7195   3.7264   3.7331   3.7406   3.7483
  3.7779   3.7846   3.7991   3.8042   3.8103   3.8246   3.8311   3.8424
  3.8498   3.8701   3.8846   3.8894   3.8997   3.9049   3.9156   3.9308
  3.9482   3.9579   3.9717   3.9789   4.0068   4.0150   4.0290   4.0493
  4.0686   4.0752   4.0880   4.1142   4.1303   4.1440   4.1593   4.1667
  4.1679   4.1999   4.2225   4.2340   4.2666   4.2795   4.2978   4.3424
  4.3476   4.3541   4.3601   4.3777   4.3862   4.4167   4.4324   4.4378
  4.4727   4.4804   4.5184   4.5441   4.5547   4.5573   4.5845   4.6062
  4.6190   4.6309   4.6527   4.6641   4.6706   4.7014   4.7297   4.7385
  4.7644   4.7757   4.8072   4.8296   4.8389   4.8513   4.8793   4.9051
  4.9650   4.9827   5.0096   5.0211   5.0380   5.0650   5.1184   5.1274
  5.1468   5.1944   5.2287   5.2483   5.2547   5.2586   5.2668   5.3528
  5.3562   5.4036   5.4143   5.4268   5.4385   5.4827   5.4856   5.5172
  5.5358   5.5820   5.6196   5.6231   5.6586   5.6947   5.7258   5.7534
  5.7916   5.8086   5.8187   5.8678   5.9014   5.9306   5.9723   6.0073
  6.0352   6.0447   6.1371   6.1513   6.1840   6.2586   6.2625   6.3690
  6.4478   6.4515   6.5386   6.6004   6.6620   6.6729   6.7463   6.8307
  6.8610   6.9795   7.2051   7.2055   7.3113   7.3641   7.3644   7.4063
  7.4145   7.4870   7.5211   7.5506   7.6156   7.7744   7.7898   7.8907
  7.9556   8.1339   8.1939   8.9233   9.0179   9.3643   9.4726   9.6589
 10.1535  11.1411  11.6875  11.8480  12.4053  12.7753  13.0687  13.3863
 13.7693  14.0301  14.2978
 --------------------------------------------------------------
 
          Ground-State Mulliken Net Atomic Charges

     Atom                 Charge (a.u.)
  ----------------------------------------
      1 C                    -0.039624
      2 S                     0.083401
      3 C                    -0.183643
      4 C                     0.004252
      5 C                    -0.084748
      6 S                     0.015010
      7 C                    -0.156792
      8 C                     0.389970
      9 F                    -0.207550
     10 C                     0.446620
     11 O                    -0.463264
     12 O                    -0.301410
     13 C                    -0.058456
     14 H                     0.120986
     15 H                     0.094879
     16 H                     0.094649
     17 C                    -0.354685
     18 H                     0.108685
     19 H                     0.139803
     20 H                     0.136446
     21 H                     0.215469
  ----------------------------------------
  Sum of atomic charges =     0.000000

 -----------------------------------------------------------------
                    Cartesian Multipole Moments
 -----------------------------------------------------------------
    Charge (ESU x 10^10)
                -0.0000
    Dipole Moment (Debye)
         X       1.9107      Y       0.8139      Z       3.6386
       Tot       4.1896
    Quadrupole Moments (Debye-Ang)
        XX     -92.3620     XY       5.6066     YY     -87.0967
        XZ      -4.9876     YZ      -8.3810     ZZ     -95.0781
    Octopole Moments (Debye-Ang^2)
       XXX    -161.9227    XXY     -55.8074    XYY     -50.5057
       YYY    -179.6507    XXZ      65.7648    XYZ     -15.5566
       YYZ      65.8316    XZZ      -5.6613    YZZ      -2.0259
       ZZZ     270.6039
    Hexadecapole Moments (Debye-Ang^3)
      XXXX    -848.0395   XXXY    -450.9120   XXYY    -349.3079
      XYYY    -438.1701   YYYY   -1372.3331   XXXZ     481.8892
      XXYZ     171.6347   XYYZ     110.7011   YYYZ     580.8875
      XXZZ    -621.3043   XYZZ      14.1642   YYZZ    -642.8027
      XZZZ     313.9644   YZZZ     415.9500   ZZZZ   -3710.8433
 -----------------------------------------------------------------
 Total job time:  58.07s(wall), 1997.99s(cpu) 
 Tue Jan  9 09:58:36 2024

        *************************************************************
        *                                                           *
        *  Thank you very much for using Q-Chem.  Have a nice day.  *
        *                                                           *
        *************************************************************


0 sent ACK to 0 
now end server 0 ... 
cleanup process ... done
remove work dirs ./qchem4060108.0 -- ./qchem4060108.0
rm -rf ./qchem4060108.0
rm -rf ./qchem4060108
