You are running Q-Chem version: 5.4.0

#
# job setting
#
local host:  exp-14-38
current dir: /home/rramji/project-csd799/aromodel/ptb7fout-qchem/methylated-rotation-run
input file:  Dimethoxy_Benzodithiophene_Phi_50_Theta_320_Methylcarbonyl_3_Fluoro_Thienothiophene_Hydrogenated_Improper.qcin
output file: 
nprocs     : 1
nthreads   : 64
#
# qchem installation setting
#
QC:          /cm/shared/apps/spack/cpu/opt/spack/linux-centos8-zen2/gcc-10.2.0/qchem-5.4-akfmr7b3t57bfs6qan3padb2wnb2i7cl
QCAUX:       /cm/shared/apps/spack/cpu/opt/spack/linux-centos8-zen2/gcc-10.2.0/qchem-5.4-akfmr7b3t57bfs6qan3padb2wnb2i7cl/qcaux
QCPROG:      /cm/shared/apps/spack/cpu/opt/spack/linux-centos8-zen2/gcc-10.2.0/qchem-5.4-akfmr7b3t57bfs6qan3padb2wnb2i7cl/exe/qcprog.exe
QCPROG_S:    /cm/shared/apps/spack/cpu/opt/spack/linux-centos8-zen2/gcc-10.2.0/qchem-5.4-akfmr7b3t57bfs6qan3padb2wnb2i7cl/exe/qcprog.exe_s
PARALLEL:    -DPARALLEL
QCMPI:       mpich
#
# qchem directory setting
#
qcrun:       qchem2784659
QCSCRATCH:   .
QCLOCALSCR:  
QCTMPDIR:    .
QCFILEPREF:  ./qchem2784659
QCSAVEDIR:   
workdirs:    ./qchem2784659
workdir0:    ./qchem2784659
partmpdirs =  
#
# parallel setting
#
QCRSH:           ssh
QCMPI:           mpich
QCMPIRUN:        /cm/shared/apps/spack/cpu/opt/spack/linux-centos8-zen2/gcc-10.2.0/qchem-5.4-akfmr7b3t57bfs6qan3padb2wnb2i7cl/bin/mpi/mpirun_qchem
QCMACHINEFILE:   ./qchem2784659/hostfile
exp-14-38

#
# env setting
#
exported envs:   QC QCAUX QCSCRATCH QCRUNNAME QCFILEPREF QCPROG QCPROG_S GUIFILE

Running Job 1 of 1 Dimethoxy_Benzodithiophene_Phi_50_Theta_320_Methylcarbonyl_3_Fluoro_Thienothiophene_Hydrogenated_Improper.qcin
qchem Dimethoxy_Benzodithiophene_Phi_50_Theta_320_Methylcarbonyl_3_Fluoro_Thienothiophene_Hydrogenated_Improper.qcin_2784659.0 ./qchem2784659/ 1
/cm/shared/apps/spack/cpu/opt/spack/linux-centos8-zen2/gcc-10.2.0/qchem-5.4-akfmr7b3t57bfs6qan3padb2wnb2i7cl/bin/mpi/mpirun_qchem -machinefile ./qchem2784659/hostfile -np 1 /cm/shared/apps/spack/cpu/opt/spack/linux-centos8-zen2/gcc-10.2.0/qchem-5.4-akfmr7b3t57bfs6qan3padb2wnb2i7cl/exe/qcprog.exe Dimethoxy_Benzodithiophene_Phi_50_Theta_320_Methylcarbonyl_3_Fluoro_Thienothiophene_Hydrogenated_Improper.qcin_2784659.0 ./qchem2784659/

Process 0 of 1 is on exp-14-38 - thread support 0
initial socket setup ...start
initial socket setup ...done 
now start server 0 ... 
                  Welcome to Q-Chem
     A Quantum Leap Into The Future Of Chemistry


 Q-Chem 5.4, Q-Chem, Inc., Pleasanton, CA (2021)

 License issued to: University of California, San Diego (site)

 E. Epifanovsky,  A. T. B. Gilbert,  Xintian Feng,  Joonho Lee,  Yuezhi Mao,  
 N. Mardirossian,  P. Pokhilko,  A. White,  M. Wormit,  M. P. Coons,  
 A. L. Dempwolff,  Zhengting Gan,  D. Hait,  P. R. Horn,  L. D. Jacobson,  
 I. Kaliman,  J. Kussmann,  A. W. Lange,  Ka Un Lao,  D. S. Levine,  Jie Liu,  
 S. C. McKenzie,  A. F. Morrison,  K. Nanda,  F. Plasser,  D. R. Rehn,  
 M. L. Vidal,  Zhi-Qiang You,  Ying Zhu,  B. Alam,  B. Albrecht,  
 A. Aldossary,  E. Alguire,  J. H. Andersen,  D. Barton,  K. Begam,  A. Behn,  
 Y. A. Bernard,  E. J. Berquist,  H. Burton,  A. Carreras,  K. Carter-Fenk,  
 R. Chakraborty,  A. D. Chien,  K. D. Closser,  V. Cofer-Shabica,  
 S. Dasgupta,  Jia Deng,  M. de Wergifosse,  M. Diedenhofen,  Hainam Do,  
 S. Ehlert,  Po-Tung Fang,  S. Fatehi,  Qingguo Feng,  J. Gayvert,  
 Qinghui Ge,  G. Gidofalvi,  M. Goldey,  J. Gomes,  C. Gonzalez-Espinoza,  
 S. Gulania,  A. Gunina,  M. W. D. Hanson-Heine,  P. H. P. Harbach,  
 A. W. Hauser,  M. F. Herbst,  M. Hernandez Vera,  M. Hodecker,  
 Z. C. Holden,  S. Houck,  Xunkun Huang,  Kerwin Hui,  B. C. Huynh,  
 M. Ivanov,  Hyunjun Ji,  Hanjie Jiang,  B. Kaduk,  S. Kaehler,  
 K. Khistyaev,  Jaehoon Kim,  P. Klunzinger,  Z. Koczor-Benda,  
 Joong Hoon Koh,  D. Kosenkov,  L. Koulias,  T. Kowalczyk,  C. M. Krauter,  
 K. Kue,  A. Kunitsa,  T. Kus,  A. Landau,  K. V. Lawler,  D. Lefrancois,  
 S. Lehtola,  Rain Li,  Yi-Pei Li,  Jiashu Liang,  M. Liebenthal,  
 Hung-Hsuan Lin,  You-Sheng Lin,  Fenglai Liu,  Kuan-Yu Liu,  
 M. Loipersberger,  A. Luenser,  A. Manjanath,  P. Manohar,  E. Mansoor,  
 S. F. Manzer,  Shan-Ping Mao,  A. V. Marenich,  T. Markovich,  S. Mason,  
 S. A. Maurer,  P. F. McLaughlin,  M. F. S. J. Menger,  J.-M. Mewes,  
 S. A. Mewes,  P. Morgante,  J. W. Mullinax,  T. S. Nguyen-Beck,  
 K. J. Oosterbaan,  G. Paran,  Alexander C. Paul,  Suranjan K. Paul,  
 F. Pavosevic,  Zheng Pei,  S. Prager,  E. I. Proynov,  E. Ramos,  B. Rana,  
 A. E. Rask,  A. Rettig,  R. M. Richard,  F. Rob,  E. Rossomme,  T. Scheele,  
 M. Scheurer,  M. Schneider,  N. Sergueev,  S. M. Sharada,  W. Skomorowski,  
 D. W. Small,  C. J. Stein,  Yu-Chuan Su,  E. J. Sundstrom,  Zhen Tao,  
 J. Thirman,  T. Tsuchimochi,  N. M. Tubman,  S. P. Veccham,  O. Vydrov,  
 J. Wenzel,  J. Witte,  A. Yamada,  Kun Yao,  S. Yeganeh,  S. R. Yost,  
 A. Zech,  Igor Ying Zhang,  Xing Zhang,  Yu Zhang,  D. Zuev,  
 A. Aspuru-Guzik,  A. T. Bell,  N. A. Besley,  K. B. Bravaya,  B. R. Brooks,  
 D. Casanova,  Jeng-Da Chai,  S. Coriani,  C. J. Cramer,  
 A. E. DePrince, III,  R. A. DiStasio Jr.,  A. Dreuw,  B. D. Dunietz,  
 T. R. Furlani,  W. A. Goddard III,  S. Grimme,  S. Hammes-Schiffer,  
 T. Head-Gordon,  W. J. Hehre,  Chao-Ping Hsu,  T.-C. Jagau,  Yousung Jung,  
 A. Klamt,  Jing Kong,  D. S. Lambrecht,  WanZhen Liang,  N. J. Mayhall,  
 C. W. McCurdy,  J. B. Neaton,  C. Ochsenfeld,  J. A. Parkhill,  R. Peverati,  
 V. A. Rassolov,  Yihan Shao,  L. V. Slipchenko,  T. Stauch,  R. P. Steele,  
 J. E. Subotnik,  A. J. W. Thom,  A. Tkatchenko,  D. G. Truhlar,  
 T. Van Voorhis,  T. A. Wesolowski,  K. B. Whaley,  H. L. Woodcock III,  
 P. M. Zimmerman,  S. Faraji,  P. M. W. Gill,  M. Head-Gordon,  
 J. M. Herbert,  A. I. Krylov

 Contributors to earlier versions of Q-Chem not listed above: 
 R. D. Adamson,  B. Austin,  R. Baer,  J. Baker,  G. J. O. Beran,  
 K. Brandhorst,  S. T. Brown,  E. F. C. Byrd,  A. K. Chakraborty,  
 G. K. L. Chan,  Chun-Min Chang,  Yunqing Chen,  C.-L. Cheng,  
 Siu Hung Chien,  D. M. Chipman,  D. L. Crittenden,  H. Dachsel,  
 R. J. Doerksen,  A. D. Dutoi,  R. G. Edgar,  J. Fosso-Tande,  
 L. Fusti-Molnar,  D. Ghosh,  A. Ghysels,  A. Golubeva-Zadorozhnaya,  
 J. Gonthier,  M. S. Gordon,  S. R. Gwaltney,  G. Hawkins,  J. E. Herr,  
 A. Heyden,  S. Hirata,  E. G. Hohenstein,  G. Kedziora,  F. J. Keil,  
 C. Kelley,  Jihan Kim,  R. A. King,  R. Z. Khaliullin,  P. P. Korambath,  
 W. Kurlancheek,  A. Laurent,  A. M. Lee,  M. S. Lee,  S. V. Levchenko,  
 Ching Yeh Lin,  D. Liotard,  E. Livshits,  R. C. Lochan,  I. Lotan,  
 L. A. Martinez-Martinez,  P. E. Maslen,  N. Nair,  D. P. O'Neill,  
 D. Neuhauser,  E. Neuscamman,  C. M. Oana,  R. Olivares-Amaya,  R. Olson,  
 T. M. Perrine,  B. Peters,  P. A. Pieniazek,  A. Prociuk,  Y. M. Rhee,  
 J. Ritchie,  M. A. Rohrdanz,  E. Rosta,  N. J. Russ,  H. F. Schaefer III,  
 M. W. Schmidt,  N. E. Schultz,  S. Sharma,  N. Shenvi,  C. D. Sherrill,  
 A. C. Simmonett,  A. Sodt,  T. Stein,  D. Stuck,  K. S. Thanthiriwatte,  
 V. Vanovschi,  L. Vogt,  Tao Wang,  A. Warshel,  M. A. Watson,  
 C. F. Williams,  Q. Wu,  X. Xu,  Jun Yang,  W. Zhang,  Yan Zhao

 Please cite Q-Chem as follows:
 Y. Shao et al., Mol. Phys. 113, 184-215 (2015)
 DOI: 10.1080/00268976.2014.952696

 Q-Chem 5.4.0 for Intel X86 EM64T Linux

 Parts of Q-Chem use Armadillo 9.800.1 (Horizon Scraper).
 http://arma.sourceforge.net/

 Q-Chem begins on Tue Jan  9 10:23:18 2024  

 Host: 
0

     Scratch files written to ./qchem2784659//
 May1621 |scratch|qcdevops|jenkins|workspace|build_RNUM    
 Parallel job on  1  processors
 Processing $rem in /cm/shared/apps/spack/cpu/opt/spack/linux-centos8-zen2/gcc-10.2.0/qchem-5.4-akfmr7b3t57bfs6qan3padb2wnb2i7cl/config/preferences:
 Processing $rem in /home/rramji/.qchemrc:
 Symmetry turned off for PCM/SM12/SMD calculation
 Core orbitals will be frozen

 Checking the input file for inconsistencies... 	...done.

 Q-Chem warning in module forms1/BasisType.C, line 2236:

 You are not using the predefined 5D/6D in this basis set.


--------------------------------------------------------------
User input:
--------------------------------------------------------------
$molecule
0 1
C	-0.798667	-0.619704	0.977605
S	-0.105267	-0.038504	2.485105
C	1.098833	0.972896	1.696505
C	-0.105367	-0.038904	-0.090295
C	0.958133	0.856396	0.291205
S	-0.290067	-0.197704	-1.827895
C	1.048233	0.932496	-2.076895
C	1.589233	1.389696	-0.884995
F	2.610033	2.252596	-0.841495
C	1.392633	1.219096	-3.478495
O	0.808033	0.718096	-4.428895
O	2.422433	2.092896	-3.591595
C	2.805033	2.407096	-4.938595
H	3.643933	3.120196	-4.855495
H	1.960333	2.864196	-5.492595
H	3.123333	1.494396	-5.481695
C	-0.798667	-2.054904	0.977605
H	0.023833	-2.062904	0.277705
H	-0.258067	-2.732804	1.621505
H	-1.408267	-2.586004	0.261505
H	1.806033	1.568096	2.284105
$end

$rem
JOBTYPE		SP
EXCHANGE	HF
CORRELATION	pRIMP2
BASIS		cc-pvtz
METHOD		rimp2
AUX_BASIS	rimp2-cc-pvtz
SOLVENT_METHOD	PCM
PURECART	11111
SYMMETRY	false
MEM_TOTAL	110000
SCF_CONVERGENCE = 6
THRESH=10
GUI = 2
$end



$solvent
dielectric 4.90
$end
--------------------------------------------------------------
 ----------------------------------------------------------------
             Standard Nuclear Orientation (Angstroms)
    I     Atom           X                Y                Z
 ----------------------------------------------------------------
    1      C      -0.7986670000    -0.6197040000     0.9776050000
    2      S      -0.1052670000    -0.0385040000     2.4851050000
    3      C       1.0988330000     0.9728960000     1.6965050000
    4      C      -0.1053670000    -0.0389040000    -0.0902950000
    5      C       0.9581330000     0.8563960000     0.2912050000
    6      S      -0.2900670000    -0.1977040000    -1.8278950000
    7      C       1.0482330000     0.9324960000    -2.0768950000
    8      C       1.5892330000     1.3896960000    -0.8849950000
    9      F       2.6100330000     2.2525960000    -0.8414950000
   10      C       1.3926330000     1.2190960000    -3.4784950000
   11      O       0.8080330000     0.7180960000    -4.4288950000
   12      O       2.4224330000     2.0928960000    -3.5915950000
   13      C       2.8050330000     2.4070960000    -4.9385950000
   14      H       3.6439330000     3.1201960000    -4.8554950000
   15      H       1.9603330000     2.8641960000    -5.4925950000
   16      H       3.1233330000     1.4943960000    -5.4816950000
   17      C      -0.7986670000    -2.0549040000     0.9776050000
   18      H       0.0238330000    -2.0629040000     0.2777050000
   19      H      -0.2580670000    -2.7328040000     1.6215050000
   20      H      -1.4082670000    -2.5860040000     0.2615050000
   21      H       1.8060330000     1.5680960000     2.2841050000
 ----------------------------------------------------------------
 Nuclear Repulsion Energy =        1090.83522972 hartrees
 There are       59 alpha and       59 beta electrons
 Requested basis set is cc-pVTZ
 There are 186 shells and 526 basis functions

 Total QAlloc Memory Limit 110000 MB
 Mega-Array Size       188 MB
 MEM_STATIC part       192 MB
 Discretize the solute cavity surface with Lebedev spheres
	Using 110 Lebedev grid points for each H atom
	Using 194 Lebedev grid points for other atoms
	Atomic van der Waals radii will be scaled by 1.20
 Remove points where switching function is < 1.0e-08
 Keep 1528 surface tesserae and discard 1958 interior tesserae
 Molecular Surface Area = 240.478 Angst**2
 Requested basis set is rimp2-cc-pVTZ
 There are 410 shells and 1426 basis functions
 A cutoff of  1.0D-10 yielded  11748 shell pairs
 There are     91914 function pairs (    120191 Cartesian)
 Smallest overlap matrix eigenvalue = 6.68E-05

 Scale SEOQF with 1.000000e-01/1.000000e-01/1.000000e-02

 Standard Electronic Orientation quadrupole field applied
 Nucleus-field energy     =     0.0000000165 hartrees
 Guess from superposition of atomic densities
 Warning:  Energy on first SCF cycle will be non-variational
 SAD guess density has 118.000000 electrons

 -----------------------------------------------------------------------
  General SCF calculation program by
  Eric Jon Sundstrom, Paul Horn, Yuezhi Mao, Dmitri Zuev, Alec White,
  David Stuck, Shaama M.S., Shane Yost, Joonho Lee, David Small,
  Daniel Levine, Susi Lehtola, Hugh Burton, Evgeny Epifanovsky,
  Bang C. Huynh
 -----------------------------------------------------------------------
 Hartree-Fock
 using 64 threads for integral computing
 -------------------------------------------------------
 OpenMP Integral computing Module                
 Release: version 1.0, May 2013, Q-Chem Inc. Pittsburgh 
 -------------------------------------------------------
 A restricted SCF calculation will be
 performed using DIIS
 SCF converges when DIIS error is below 1.0e-06
 ---------------------------------------
  Cycle       Energy         DIIS error
 ---------------------------------------
    1   -1394.3369756504      2.48e-02  
    2   -1388.9751763599      2.49e-03  
    3   -1389.1467278498      1.56e-03  
    4   -1389.2081840194      3.55e-04  
    5   -1389.2140587971      1.12e-04  
    6   -1389.2147496150      3.64e-05  
    7   -1389.2148973248      1.84e-05  
    8   -1389.2149495036      7.34e-06  
    9   -1389.2149614922      3.21e-06  
   10   -1389.2149633970      1.28e-06  
   11   -1389.2149637197      5.23e-07  Convergence criterion met
 ---------------------------------------
 SCF time:   CPU 1775.21s  wall 55.00s 

************** Final PCM Free Energy Summary **************
 G_electrostatic  =      -0.01161592 hartree =      -7.28909786 kcal/mol
 G_cavitation     =       0.00000000 hartree =       0.00000000 kcal/mol
 G_dispersion     =       0.00000000 hartree =       0.00000000 kcal/mol
 G_repulsion      =       0.00000000 hartree =       0.00000000 kcal/mol
 --------------------------------------------------
 Non-electrostatic Free Energy =       0.00000000 hartree =       0.00000000 kcal/mol
 Total                         =      -0.01161592 hartree =      -7.28909786 kcal/mol
 --------------------------------------------------
 SCF Energy (H0 + V/2)                       =   -1389.21496372 
 Solute Internal Energy (H0)                 =   -1389.20334780 
 Total Free Energy (H0 + V/2 + non-elec)     =   -1389.21496372 hartree
                                             = -871745.54698906 kcal/mol
***********************************************************

 SCF   energy in the final basis set =    -1389.2149637197
 Total energy in the final basis set =    -1389.2149637197


 --------------------------------------------------------------
  Generalized many-body perturbation theory program
  by Joonho Lee, Fazle Rob, Xintian Feng, Evgeny Epifanovsky

 No regularization used 
 (reg. param. = 0.0000e+00)
  (P|Q)^-1/2 Time:  CPU 29.95 s  wall 0.48 s

 In RI-MP2 calculation: 
 # of frozen core orbitals: 22

 Components of the RIMP2 correlation energy:
        aaaa    correlation energy =        -0.3308276570 a.u.
        abab    correlation energy =        -1.8561473490 a.u.
        bbbb    correlation energy =        -0.3308276570 a.u.
        non-Brillouin singles      =        -0.0000000000 a.u.
        total same-spin energy     =        -0.6616553140 a.u.
        total opposite-spin energy =        -1.8561473490 a.u.

 Total  RIMP2   correlation energy =        -2.5178026630 a.u.
        RIMP2         total energy =     -1391.7327663827 a.u.

 RI-MP2 Energy Time:  CPU 219.63 s  wall 3.69 s
 
 --------------------------------------------------------------
 
                    Orbital Energies (a.u.)
 --------------------------------------------------------------
 
 Alpha MOs
 -- Occupied --
-92.0065 -92.0010 -26.3429 -20.6142 -20.5601 -11.4085 -11.3821 -11.3112
-11.2950 -11.2949 -11.2887 -11.2811 -11.2761 -11.2181  -9.0056  -9.0008
 -6.6863  -6.6855  -6.6852  -6.6818  -6.6811  -6.6800  -1.6601  -1.4666
 -1.3693  -1.2203  -1.1418  -1.0706  -1.0211  -0.9913  -0.9599  -0.9069
 -0.8655  -0.8079  -0.7909  -0.7604  -0.7315  -0.7248  -0.6968  -0.6841
 -0.6735  -0.6614  -0.6102  -0.5992  -0.5946  -0.5817  -0.5650  -0.5622
 -0.5308  -0.5202  -0.5105  -0.4914  -0.4741  -0.4724  -0.4695  -0.4553
 -0.3804  -0.3407  -0.2898
 -- Virtual --
  0.0337   0.0868   0.1434   0.1502   0.1570   0.1743   0.1854   0.1899
  0.2044   0.2119   0.2153   0.2284   0.2294   0.2417   0.2540   0.2670
  0.2845   0.2948   0.3086   0.3287   0.3440   0.3501   0.3705   0.3845
  0.3908   0.3943   0.4001   0.4185   0.4216   0.4229   0.4343   0.4377
  0.4518   0.4662   0.4719   0.4797   0.4917   0.5007   0.5063   0.5085
  0.5222   0.5322   0.5339   0.5437   0.5510   0.5541   0.5634   0.5812
  0.5885   0.5968   0.6106   0.6116   0.6133   0.6170   0.6206   0.6289
  0.6401   0.6459   0.6555   0.6596   0.6717   0.6843   0.6958   0.7101
  0.7161   0.7202   0.7264   0.7398   0.7531   0.7710   0.7783   0.7998
  0.8064   0.8128   0.8220   0.8371   0.8446   0.8594   0.8709   0.8739
  0.8802   0.8899   0.9015   0.9183   0.9393   0.9492   0.9672   0.9699
  0.9823   0.9888   1.0063   1.0153   1.0225   1.0389   1.0572   1.0589
  1.0606   1.0826   1.0913   1.0983   1.1087   1.1120   1.1232   1.1289
  1.1386   1.1502   1.1672   1.1741   1.1838   1.1949   1.2009   1.2165
  1.2220   1.2382   1.2452   1.2622   1.2741   1.2760   1.2877   1.2891
  1.3290   1.3373   1.3408   1.3588   1.3721   1.3762   1.3950   1.4125
  1.4150   1.4227   1.4324   1.4579   1.4865   1.4960   1.5018   1.5098
  1.5162   1.5334   1.5357   1.5438   1.5532   1.5739   1.5759   1.5987
  1.6135   1.6305   1.6500   1.6546   1.6778   1.6932   1.7114   1.7440
  1.7470   1.7684   1.7862   1.7936   1.8202   1.8244   1.8406   1.8493
  1.8652   1.8733   1.8958   1.9139   1.9311   1.9456   1.9537   1.9629
  1.9853   1.9982   2.0067   2.0279   2.0563   2.0748   2.0929   2.0968
  2.1152   2.1465   2.1636   2.1710   2.1885   2.1955   2.2220   2.2289
  2.2396   2.2442   2.2633   2.2732   2.2945   2.2979   2.3315   2.3444
  2.3562   2.3723   2.3830   2.4097   2.4213   2.4289   2.4774   2.4829
  2.5022   2.5202   2.5348   2.5578   2.5718   2.6011   2.6152   2.6271
  2.6364   2.6447   2.6554   2.6707   2.6799   2.7021   2.7169   2.7279
  2.7535   2.7663   2.7835   2.7851   2.7998   2.8119   2.8218   2.8314
  2.8327   2.8599   2.8743   2.8884   2.8974   2.9303   2.9455   2.9480
  2.9677   2.9737   2.9831   3.0197   3.0245   3.0418   3.0571   3.0693
  3.0743   3.0871   3.0976   3.1037   3.1141   3.1259   3.1320   3.1430
  3.1507   3.1677   3.1870   3.2026   3.2125   3.2188   3.2241   3.2400
  3.2484   3.2668   3.2753   3.2761   3.2974   3.3128   3.3224   3.3354
  3.3589   3.3623   3.3673   3.3743   3.3837   3.3985   3.4019   3.4106
  3.4226   3.4347   3.4441   3.4498   3.4700   3.4765   3.4825   3.4922
  3.5068   3.5157   3.5263   3.5408   3.5524   3.5627   3.5716   3.5818
  3.5981   3.6022   3.6050   3.6087   3.6197   3.6460   3.6569   3.6713
  3.6801   3.6924   3.7049   3.7073   3.7153   3.7334   3.7431   3.7609
  3.7679   3.7862   3.7990   3.8054   3.8097   3.8198   3.8298   3.8453
  3.8504   3.8678   3.8855   3.8952   3.9105   3.9153   3.9319   3.9373
  3.9523   3.9779   3.9955   4.0101   4.0236   4.0420   4.0553   4.0638
  4.0704   4.0846   4.0957   4.1216   4.1510   4.1637   4.1659   4.1891
  4.2021   4.2132   4.2203   4.2376   4.2664   4.2933   4.3420   4.3462
  4.3568   4.3594   4.3728   4.3854   4.3951   4.4179   4.4293   4.4507
  4.4664   4.5164   4.5198   4.5449   4.5504   4.5715   4.5846   4.5928
  4.6212   4.6368   4.6538   4.6809   4.6933   4.7150   4.7545   4.7652
  4.7801   4.7979   4.8017   4.8216   4.8447   4.8642   4.9133   4.9294
  4.9341   4.9604   4.9872   5.0092   5.0230   5.0889   5.1189   5.1425
  5.1622   5.1857   5.2031   5.2506   5.2550   5.2588   5.2842   5.3516
  5.3577   5.3942   5.4116   5.4264   5.4360   5.4852   5.4999   5.5099
  5.5344   5.5815   5.6038   5.6225   5.6572   5.6828   5.7256   5.7493
  5.8006   5.8080   5.8559   5.8810   5.9166   5.9299   5.9539   5.9826
  6.0055   6.0430   6.1405   6.1508   6.1834   6.2477   6.2619   6.4051
  6.4507   6.4694   6.5381   6.5985   6.6616   6.6721   6.7458   6.8301
  6.8604   6.9788   7.2041   7.2046   7.3107   7.3631   7.3635   7.4056
  7.4139   7.4860   7.5178   7.5505   7.6150   7.7734   7.7883   7.8853
  7.9510   8.1321   8.1720   8.9224   9.0224   9.3635   9.4746   9.6579
 10.1799  11.2005  11.7384  11.8851  12.4250  12.8966  13.0887  13.3891
 13.7844  14.0336  14.3230
 --------------------------------------------------------------
 
          Ground-State Mulliken Net Atomic Charges

     Atom                 Charge (a.u.)
  ----------------------------------------
      1 C                    -0.079384
      2 S                     0.100077
      3 C                    -0.182502
      4 C                     0.037857
      5 C                    -0.105499
      6 S                     0.026388
      7 C                    -0.154760
      8 C                     0.389792
      9 F                    -0.206740
     10 C                     0.448850
     11 O                    -0.463644
     12 O                    -0.301312
     13 C                    -0.058321
     14 H                     0.121184
     15 H                     0.094955
     16 H                     0.094747
     17 C                    -0.379609
     18 H                     0.122055
     19 H                     0.156183
     20 H                     0.125872
     21 H                     0.213812
  ----------------------------------------
  Sum of atomic charges =     0.000000

 -----------------------------------------------------------------
                    Cartesian Multipole Moments
 -----------------------------------------------------------------
    Charge (ESU x 10^10)
                -0.0000
    Dipole Moment (Debye)
         X       2.7479      Y       0.4976      Z       2.6069
       Tot       3.8202
    Quadrupole Moments (Debye-Ang)
        XX     -91.9414     XY       4.5785     YY     -89.3521
        XZ      -4.4933     YZ      -5.5075     ZZ     -96.1407
    Octopole Moments (Debye-Ang^2)
       XXX    -188.9301    XXY     -40.5384    XYY     -58.8519
       YYY    -148.8124    XXZ      57.6480    XYZ     -19.5562
       YYZ      67.2331    XZZ      -5.0256    YZZ       1.5119
       ZZZ     270.2776
    Hexadecapole Moments (Debye-Ang^3)
      XXXX   -1142.2008   XXXY    -450.0759   XXYY    -355.0531
      XYYY    -462.3286   YYYY   -1059.8456   XXXZ     551.9779
      XXYZ     132.3479   XYYZ     161.8877   YYYZ     513.7984
      XXZZ    -612.7692   XYZZ       8.3399   YYZZ    -648.3025
      XZZZ     370.0424   YZZZ     349.2636   ZZZZ   -3693.3732
 -----------------------------------------------------------------
 Total job time:  61.83s(wall), 2073.47s(cpu) 
 Tue Jan  9 10:24:20 2024

        *************************************************************
        *                                                           *
        *  Thank you very much for using Q-Chem.  Have a nice day.  *
        *                                                           *
        *************************************************************


0 sent ACK to 0 
now end server 0 ... 
cleanup process ... done
remove work dirs ./qchem2784659.0 -- ./qchem2784659.0
rm -rf ./qchem2784659.0
rm -rf ./qchem2784659
