You are running Q-Chem version: 5.4.0

#
# job setting
#
local host:  exp-7-25
current dir: /home/rramji/project-csd799/aromodel/ptb7fout-qchem/methylated-rotation-run
input file:  Dimethoxy_Benzodithiophene_Phi_30_Theta_280_Methylcarbonyl_3_Fluoro_Thienothiophene_Hydrogenated_Improper.qcin
output file: 
nprocs     : 1
nthreads   : 64
#
# qchem installation setting
#
QC:          /cm/shared/apps/spack/cpu/opt/spack/linux-centos8-zen2/gcc-10.2.0/qchem-5.4-akfmr7b3t57bfs6qan3padb2wnb2i7cl
QCAUX:       /cm/shared/apps/spack/cpu/opt/spack/linux-centos8-zen2/gcc-10.2.0/qchem-5.4-akfmr7b3t57bfs6qan3padb2wnb2i7cl/qcaux
QCPROG:      /cm/shared/apps/spack/cpu/opt/spack/linux-centos8-zen2/gcc-10.2.0/qchem-5.4-akfmr7b3t57bfs6qan3padb2wnb2i7cl/exe/qcprog.exe
QCPROG_S:    /cm/shared/apps/spack/cpu/opt/spack/linux-centos8-zen2/gcc-10.2.0/qchem-5.4-akfmr7b3t57bfs6qan3padb2wnb2i7cl/exe/qcprog.exe_s
PARALLEL:    -DPARALLEL
QCMPI:       mpich
#
# qchem directory setting
#
qcrun:       qchem965848
QCSCRATCH:   .
QCLOCALSCR:  
QCTMPDIR:    .
QCFILEPREF:  ./qchem965848
QCSAVEDIR:   
workdirs:    ./qchem965848
workdir0:    ./qchem965848
partmpdirs =  
#
# parallel setting
#
QCRSH:           ssh
QCMPI:           mpich
QCMPIRUN:        /cm/shared/apps/spack/cpu/opt/spack/linux-centos8-zen2/gcc-10.2.0/qchem-5.4-akfmr7b3t57bfs6qan3padb2wnb2i7cl/bin/mpi/mpirun_qchem
QCMACHINEFILE:   ./qchem965848/hostfile
exp-7-25

#
# env setting
#
exported envs:   QC QCAUX QCSCRATCH QCRUNNAME QCFILEPREF QCPROG QCPROG_S GUIFILE

Running Job 1 of 1 Dimethoxy_Benzodithiophene_Phi_30_Theta_280_Methylcarbonyl_3_Fluoro_Thienothiophene_Hydrogenated_Improper.qcin
qchem Dimethoxy_Benzodithiophene_Phi_30_Theta_280_Methylcarbonyl_3_Fluoro_Thienothiophene_Hydrogenated_Improper.qcin_965848.0 ./qchem965848/ 1
/cm/shared/apps/spack/cpu/opt/spack/linux-centos8-zen2/gcc-10.2.0/qchem-5.4-akfmr7b3t57bfs6qan3padb2wnb2i7cl/bin/mpi/mpirun_qchem -machinefile ./qchem965848/hostfile -np 1 /cm/shared/apps/spack/cpu/opt/spack/linux-centos8-zen2/gcc-10.2.0/qchem-5.4-akfmr7b3t57bfs6qan3padb2wnb2i7cl/exe/qcprog.exe Dimethoxy_Benzodithiophene_Phi_30_Theta_280_Methylcarbonyl_3_Fluoro_Thienothiophene_Hydrogenated_Improper.qcin_965848.0 ./qchem965848/

Process 0 of 1 is on exp-7-25 - thread support 0
initial socket setup ...start
initial socket setup ...done 
now start server 0 ... 
                  Welcome to Q-Chem
     A Quantum Leap Into The Future Of Chemistry


 Q-Chem 5.4, Q-Chem, Inc., Pleasanton, CA (2021)

 License issued to: University of California, San Diego (site)

 E. Epifanovsky,  A. T. B. Gilbert,  Xintian Feng,  Joonho Lee,  Yuezhi Mao,  
 N. Mardirossian,  P. Pokhilko,  A. White,  M. Wormit,  M. P. Coons,  
 A. L. Dempwolff,  Zhengting Gan,  D. Hait,  P. R. Horn,  L. D. Jacobson,  
 I. Kaliman,  J. Kussmann,  A. W. Lange,  Ka Un Lao,  D. S. Levine,  Jie Liu,  
 S. C. McKenzie,  A. F. Morrison,  K. Nanda,  F. Plasser,  D. R. Rehn,  
 M. L. Vidal,  Zhi-Qiang You,  Ying Zhu,  B. Alam,  B. Albrecht,  
 A. Aldossary,  E. Alguire,  J. H. Andersen,  D. Barton,  K. Begam,  A. Behn,  
 Y. A. Bernard,  E. J. Berquist,  H. Burton,  A. Carreras,  K. Carter-Fenk,  
 R. Chakraborty,  A. D. Chien,  K. D. Closser,  V. Cofer-Shabica,  
 S. Dasgupta,  Jia Deng,  M. de Wergifosse,  M. Diedenhofen,  Hainam Do,  
 S. Ehlert,  Po-Tung Fang,  S. Fatehi,  Qingguo Feng,  J. Gayvert,  
 Qinghui Ge,  G. Gidofalvi,  M. Goldey,  J. Gomes,  C. Gonzalez-Espinoza,  
 S. Gulania,  A. Gunina,  M. W. D. Hanson-Heine,  P. H. P. Harbach,  
 A. W. Hauser,  M. F. Herbst,  M. Hernandez Vera,  M. Hodecker,  
 Z. C. Holden,  S. Houck,  Xunkun Huang,  Kerwin Hui,  B. C. Huynh,  
 M. Ivanov,  Hyunjun Ji,  Hanjie Jiang,  B. Kaduk,  S. Kaehler,  
 K. Khistyaev,  Jaehoon Kim,  P. Klunzinger,  Z. Koczor-Benda,  
 Joong Hoon Koh,  D. Kosenkov,  L. Koulias,  T. Kowalczyk,  C. M. Krauter,  
 K. Kue,  A. Kunitsa,  T. Kus,  A. Landau,  K. V. Lawler,  D. Lefrancois,  
 S. Lehtola,  Rain Li,  Yi-Pei Li,  Jiashu Liang,  M. Liebenthal,  
 Hung-Hsuan Lin,  You-Sheng Lin,  Fenglai Liu,  Kuan-Yu Liu,  
 M. Loipersberger,  A. Luenser,  A. Manjanath,  P. Manohar,  E. Mansoor,  
 S. F. Manzer,  Shan-Ping Mao,  A. V. Marenich,  T. Markovich,  S. Mason,  
 S. A. Maurer,  P. F. McLaughlin,  M. F. S. J. Menger,  J.-M. Mewes,  
 S. A. Mewes,  P. Morgante,  J. W. Mullinax,  T. S. Nguyen-Beck,  
 K. J. Oosterbaan,  G. Paran,  Alexander C. Paul,  Suranjan K. Paul,  
 F. Pavosevic,  Zheng Pei,  S. Prager,  E. I. Proynov,  E. Ramos,  B. Rana,  
 A. E. Rask,  A. Rettig,  R. M. Richard,  F. Rob,  E. Rossomme,  T. Scheele,  
 M. Scheurer,  M. Schneider,  N. Sergueev,  S. M. Sharada,  W. Skomorowski,  
 D. W. Small,  C. J. Stein,  Yu-Chuan Su,  E. J. Sundstrom,  Zhen Tao,  
 J. Thirman,  T. Tsuchimochi,  N. M. Tubman,  S. P. Veccham,  O. Vydrov,  
 J. Wenzel,  J. Witte,  A. Yamada,  Kun Yao,  S. Yeganeh,  S. R. Yost,  
 A. Zech,  Igor Ying Zhang,  Xing Zhang,  Yu Zhang,  D. Zuev,  
 A. Aspuru-Guzik,  A. T. Bell,  N. A. Besley,  K. B. Bravaya,  B. R. Brooks,  
 D. Casanova,  Jeng-Da Chai,  S. Coriani,  C. J. Cramer,  
 A. E. DePrince, III,  R. A. DiStasio Jr.,  A. Dreuw,  B. D. Dunietz,  
 T. R. Furlani,  W. A. Goddard III,  S. Grimme,  S. Hammes-Schiffer,  
 T. Head-Gordon,  W. J. Hehre,  Chao-Ping Hsu,  T.-C. Jagau,  Yousung Jung,  
 A. Klamt,  Jing Kong,  D. S. Lambrecht,  WanZhen Liang,  N. J. Mayhall,  
 C. W. McCurdy,  J. B. Neaton,  C. Ochsenfeld,  J. A. Parkhill,  R. Peverati,  
 V. A. Rassolov,  Yihan Shao,  L. V. Slipchenko,  T. Stauch,  R. P. Steele,  
 J. E. Subotnik,  A. J. W. Thom,  A. Tkatchenko,  D. G. Truhlar,  
 T. Van Voorhis,  T. A. Wesolowski,  K. B. Whaley,  H. L. Woodcock III,  
 P. M. Zimmerman,  S. Faraji,  P. M. W. Gill,  M. Head-Gordon,  
 J. M. Herbert,  A. I. Krylov

 Contributors to earlier versions of Q-Chem not listed above: 
 R. D. Adamson,  B. Austin,  R. Baer,  J. Baker,  G. J. O. Beran,  
 K. Brandhorst,  S. T. Brown,  E. F. C. Byrd,  A. K. Chakraborty,  
 G. K. L. Chan,  Chun-Min Chang,  Yunqing Chen,  C.-L. Cheng,  
 Siu Hung Chien,  D. M. Chipman,  D. L. Crittenden,  H. Dachsel,  
 R. J. Doerksen,  A. D. Dutoi,  R. G. Edgar,  J. Fosso-Tande,  
 L. Fusti-Molnar,  D. Ghosh,  A. Ghysels,  A. Golubeva-Zadorozhnaya,  
 J. Gonthier,  M. S. Gordon,  S. R. Gwaltney,  G. Hawkins,  J. E. Herr,  
 A. Heyden,  S. Hirata,  E. G. Hohenstein,  G. Kedziora,  F. J. Keil,  
 C. Kelley,  Jihan Kim,  R. A. King,  R. Z. Khaliullin,  P. P. Korambath,  
 W. Kurlancheek,  A. Laurent,  A. M. Lee,  M. S. Lee,  S. V. Levchenko,  
 Ching Yeh Lin,  D. Liotard,  E. Livshits,  R. C. Lochan,  I. Lotan,  
 L. A. Martinez-Martinez,  P. E. Maslen,  N. Nair,  D. P. O'Neill,  
 D. Neuhauser,  E. Neuscamman,  C. M. Oana,  R. Olivares-Amaya,  R. Olson,  
 T. M. Perrine,  B. Peters,  P. A. Pieniazek,  A. Prociuk,  Y. M. Rhee,  
 J. Ritchie,  M. A. Rohrdanz,  E. Rosta,  N. J. Russ,  H. F. Schaefer III,  
 M. W. Schmidt,  N. E. Schultz,  S. Sharma,  N. Shenvi,  C. D. Sherrill,  
 A. C. Simmonett,  A. Sodt,  T. Stein,  D. Stuck,  K. S. Thanthiriwatte,  
 V. Vanovschi,  L. Vogt,  Tao Wang,  A. Warshel,  M. A. Watson,  
 C. F. Williams,  Q. Wu,  X. Xu,  Jun Yang,  W. Zhang,  Yan Zhao

 Please cite Q-Chem as follows:
 Y. Shao et al., Mol. Phys. 113, 184-215 (2015)
 DOI: 10.1080/00268976.2014.952696

 Q-Chem 5.4.0 for Intel X86 EM64T Linux

 Parts of Q-Chem use Armadillo 9.800.1 (Horizon Scraper).
 http://arma.sourceforge.net/

 Q-Chem begins on Tue Jan  9 10:18:03 2024  

 Host: 
0

     Scratch files written to ./qchem965848//
 May1621 |scratch|qcdevops|jenkins|workspace|build_RNUM    
 Parallel job on  1  processors
 Processing $rem in /cm/shared/apps/spack/cpu/opt/spack/linux-centos8-zen2/gcc-10.2.0/qchem-5.4-akfmr7b3t57bfs6qan3padb2wnb2i7cl/config/preferences:
 Processing $rem in /home/rramji/.qchemrc:
 Symmetry turned off for PCM/SM12/SMD calculation
 Core orbitals will be frozen

 Checking the input file for inconsistencies... 	...done.

 Q-Chem warning in module forms1/BasisType.C, line 2236:

 You are not using the predefined 5D/6D in this basis set.


--------------------------------------------------------------
User input:
--------------------------------------------------------------
$molecule
0 1
C	-0.520238	-0.851940	0.978269
S	-0.067438	-0.068640	2.485769
C	0.718162	1.293660	1.697169
C	-0.067338	-0.069040	-0.089631
C	0.625662	1.136060	0.291869
S	-0.186638	-0.281440	-1.827231
C	0.684362	1.238360	-2.076231
C	1.036362	1.852960	-0.884331
F	1.700562	3.012960	-0.840831
C	0.910062	1.625360	-3.477831
O	0.531962	0.954660	-4.428231
O	1.578762	2.798760	-3.590931
C	1.830862	3.224860	-4.937931
H	2.375362	4.181860	-4.854831
H	0.880762	3.365460	-5.491931
H	2.442162	2.476060	-5.481031
C	-0.520238	-2.287140	0.978269
H	-0.340038	-2.295140	-0.086531
H	0.307762	-2.965040	1.123969
H	-1.447438	-2.818240	0.821569
H	1.179062	2.094760	2.284769
$end

$rem
JOBTYPE		SP
EXCHANGE	HF
CORRELATION	pRIMP2
BASIS		cc-pvtz
METHOD		rimp2
AUX_BASIS	rimp2-cc-pvtz
SOLVENT_METHOD	PCM
PURECART	11111
SYMMETRY	false
MEM_TOTAL	110000
SCF_CONVERGENCE = 6
THRESH=10
GUI = 2
$end



$solvent
dielectric 4.90
$end
--------------------------------------------------------------
 ----------------------------------------------------------------
             Standard Nuclear Orientation (Angstroms)
    I     Atom           X                Y                Z
 ----------------------------------------------------------------
    1      C      -0.5202380000    -0.8519400000     0.9782690000
    2      S      -0.0674380000    -0.0686400000     2.4857690000
    3      C       0.7181620000     1.2936600000     1.6971690000
    4      C      -0.0673380000    -0.0690400000    -0.0896310000
    5      C       0.6256620000     1.1360600000     0.2918690000
    6      S      -0.1866380000    -0.2814400000    -1.8272310000
    7      C       0.6843620000     1.2383600000    -2.0762310000
    8      C       1.0363620000     1.8529600000    -0.8843310000
    9      F       1.7005620000     3.0129600000    -0.8408310000
   10      C       0.9100620000     1.6253600000    -3.4778310000
   11      O       0.5319620000     0.9546600000    -4.4282310000
   12      O       1.5787620000     2.7987600000    -3.5909310000
   13      C       1.8308620000     3.2248600000    -4.9379310000
   14      H       2.3753620000     4.1818600000    -4.8548310000
   15      H       0.8807620000     3.3654600000    -5.4919310000
   16      H       2.4421620000     2.4760600000    -5.4810310000
   17      C      -0.5202380000    -2.2871400000     0.9782690000
   18      H      -0.3400380000    -2.2951400000    -0.0865310000
   19      H       0.3077620000    -2.9650400000     1.1239690000
   20      H      -1.4474380000    -2.8182400000     0.8215690000
   21      H       1.1790620000     2.0947600000     2.2847690000
 ----------------------------------------------------------------
 Nuclear Repulsion Energy =        1085.95443584 hartrees
 There are       59 alpha and       59 beta electrons
 Requested basis set is cc-pVTZ
 There are 186 shells and 526 basis functions

 Total QAlloc Memory Limit 110000 MB
 Mega-Array Size       188 MB
 MEM_STATIC part       192 MB
 Discretize the solute cavity surface with Lebedev spheres
	Using 110 Lebedev grid points for each H atom
	Using 194 Lebedev grid points for other atoms
	Atomic van der Waals radii will be scaled by 1.20
 Remove points where switching function is < 1.0e-08
 Keep 1537 surface tesserae and discard 1949 interior tesserae
 Molecular Surface Area = 241.331 Angst**2
 Requested basis set is rimp2-cc-pVTZ
 There are 410 shells and 1426 basis functions
 A cutoff of  1.0D-10 yielded  11628 shell pairs
 There are     91040 function pairs (    119100 Cartesian)
 Smallest overlap matrix eigenvalue = 6.27E-05

 Scale SEOQF with 1.000000e-01/1.000000e-01/1.000000e-02

 Standard Electronic Orientation quadrupole field applied
 Nucleus-field energy     =     0.0000000223 hartrees
 Guess from superposition of atomic densities
 Warning:  Energy on first SCF cycle will be non-variational
 SAD guess density has 118.000000 electrons

 -----------------------------------------------------------------------
  General SCF calculation program by
  Eric Jon Sundstrom, Paul Horn, Yuezhi Mao, Dmitri Zuev, Alec White,
  David Stuck, Shaama M.S., Shane Yost, Joonho Lee, David Small,
  Daniel Levine, Susi Lehtola, Hugh Burton, Evgeny Epifanovsky,
  Bang C. Huynh
 -----------------------------------------------------------------------
 Hartree-Fock
 using 64 threads for integral computing
 -------------------------------------------------------
 OpenMP Integral computing Module                
 Release: version 1.0, May 2013, Q-Chem Inc. Pittsburgh 
 -------------------------------------------------------
 A restricted SCF calculation will be
 performed using DIIS
 SCF converges when DIIS error is below 1.0e-06
 ---------------------------------------
  Cycle       Energy         DIIS error
 ---------------------------------------
    1   -1394.2744378725      2.47e-02  
    2   -1389.0161621577      2.48e-03  
    3   -1389.1865431705      1.55e-03  
    4   -1389.2472295052      3.53e-04  
    5   -1389.2530281394      1.12e-04  
    6   -1389.2537055272      3.60e-05  
    7   -1389.2538492623      1.82e-05  
    8   -1389.2538987745      7.05e-06  
    9   -1389.2539094608      3.02e-06  
   10   -1389.2539109584      1.13e-06  
   11   -1389.2539111796      4.65e-07  Convergence criterion met
 ---------------------------------------
 SCF time:   CPU 1790.07s  wall 58.00s 

************** Final PCM Free Energy Summary **************
 G_electrostatic  =      -0.01123055 hartree =      -7.04727708 kcal/mol
 G_cavitation     =       0.00000000 hartree =       0.00000000 kcal/mol
 G_dispersion     =       0.00000000 hartree =       0.00000000 kcal/mol
 G_repulsion      =       0.00000000 hartree =       0.00000000 kcal/mol
 --------------------------------------------------
 Non-electrostatic Free Energy =       0.00000000 hartree =       0.00000000 kcal/mol
 Total                         =      -0.01123055 hartree =      -7.04727708 kcal/mol
 --------------------------------------------------
 SCF Energy (H0 + V/2)                       =   -1389.25391118 
 Solute Internal Energy (H0)                 =   -1389.24268063 
 Total Free Energy (H0 + V/2 + non-elec)     =   -1389.25391118 hartree
                                             = -871769.98688900 kcal/mol
***********************************************************

 SCF   energy in the final basis set =    -1389.2539111796
 Total energy in the final basis set =    -1389.2539111796


 --------------------------------------------------------------
  Generalized many-body perturbation theory program
  by Joonho Lee, Fazle Rob, Xintian Feng, Evgeny Epifanovsky

 No regularization used 
 (reg. param. = 0.0000e+00)
  (P|Q)^-1/2 Time:  CPU 31.48 s  wall 0.51 s

 In RI-MP2 calculation: 
 # of frozen core orbitals: 22

 Components of the RIMP2 correlation energy:
        aaaa    correlation energy =        -0.3293498319 a.u.
        abab    correlation energy =        -1.8512207487 a.u.
        bbbb    correlation energy =        -0.3293498319 a.u.
        non-Brillouin singles      =        -0.0000000000 a.u.
        total same-spin energy     =        -0.6586996637 a.u.
        total opposite-spin energy =        -1.8512207487 a.u.

 Total  RIMP2   correlation energy =        -2.5099204125 a.u.
        RIMP2         total energy =     -1391.7638315921 a.u.

 RI-MP2 Energy Time:  CPU 188.71 s  wall 3.65 s
 
 --------------------------------------------------------------
 
                    Orbital Energies (a.u.)
 --------------------------------------------------------------
 
 Alpha MOs
 -- Occupied --
-92.0025 -91.9967 -26.3421 -20.6139 -20.5599 -11.4081 -11.3811 -11.3061
-11.2947 -11.2940 -11.2884 -11.2852 -11.2794 -11.2221  -9.0018  -8.9968
 -6.6825  -6.6818  -6.6815  -6.6778  -6.6771  -6.6760  -1.6592  -1.4663
 -1.3689  -1.2158  -1.1368  -1.0687  -1.0196  -0.9932  -0.9588  -0.9125
 -0.8642  -0.8064  -0.7898  -0.7598  -0.7302  -0.7240  -0.6955  -0.6837
 -0.6731  -0.6613  -0.6058  -0.6047  -0.5919  -0.5849  -0.5648  -0.5582
 -0.5317  -0.5304  -0.5084  -0.4872  -0.4738  -0.4722  -0.4659  -0.4469
 -0.3909  -0.3441  -0.2948
 -- Virtual --
  0.0377   0.1033   0.1382   0.1514   0.1573   0.1748   0.1862   0.1942
  0.2140   0.2153   0.2203   0.2271   0.2316   0.2428   0.2523   0.2704
  0.2921   0.3037   0.3189   0.3391   0.3445   0.3567   0.3784   0.3810
  0.3844   0.3922   0.4029   0.4127   0.4230   0.4298   0.4415   0.4454
  0.4566   0.4601   0.4713   0.4790   0.4988   0.5074   0.5108   0.5135
  0.5229   0.5329   0.5432   0.5457   0.5546   0.5572   0.5677   0.5828
  0.5881   0.6006   0.6066   0.6151   0.6155   0.6203   0.6238   0.6328
  0.6350   0.6489   0.6543   0.6601   0.6735   0.6871   0.6934   0.7054
  0.7134   0.7170   0.7316   0.7433   0.7561   0.7660   0.7694   0.8054
  0.8125   0.8201   0.8296   0.8385   0.8499   0.8576   0.8706   0.8777
  0.8845   0.8911   0.9004   0.9233   0.9427   0.9445   0.9543   0.9725
  0.9804   0.9897   0.9998   1.0100   1.0242   1.0328   1.0398   1.0575
  1.0680   1.0719   1.0879   1.0957   1.1052   1.1096   1.1176   1.1262
  1.1294   1.1560   1.1675   1.1711   1.1840   1.1954   1.2034   1.2077
  1.2159   1.2315   1.2414   1.2464   1.2563   1.2775   1.2909   1.2982
  1.3099   1.3262   1.3396   1.3549   1.3565   1.3743   1.3890   1.4016
  1.4115   1.4195   1.4390   1.4570   1.4765   1.4846   1.5028   1.5118
  1.5134   1.5372   1.5467   1.5517   1.5550   1.5709   1.5867   1.5961
  1.6166   1.6420   1.6465   1.6512   1.6679   1.6900   1.7039   1.7394
  1.7456   1.7782   1.7923   1.8042   1.8111   1.8265   1.8312   1.8577
  1.8736   1.8794   1.9064   1.9152   1.9385   1.9455   1.9616   1.9707
  1.9858   1.9983   2.0062   2.0358   2.0445   2.0789   2.0874   2.1024
  2.1130   2.1560   2.1676   2.1875   2.1979   2.1994   2.2145   2.2293
  2.2329   2.2400   2.2595   2.2823   2.2903   2.3043   2.3248   2.3352
  2.3621   2.3712   2.3942   2.4141   2.4327   2.4426   2.4867   2.4892
  2.5170   2.5373   2.5480   2.5647   2.5804   2.5985   2.6220   2.6294
  2.6432   2.6462   2.6562   2.6741   2.6814   2.6970   2.7051   2.7147
  2.7297   2.7514   2.7593   2.7825   2.7910   2.8061   2.8158   2.8203
  2.8377   2.8572   2.8775   2.8817   2.8867   2.9087   2.9359   2.9493
  2.9549   2.9606   2.9730   2.9933   3.0139   3.0237   3.0492   3.0566
  3.0631   3.0894   3.0967   3.1129   3.1188   3.1277   3.1345   3.1456
  3.1531   3.1628   3.1945   3.2166   3.2193   3.2287   3.2443   3.2498
  3.2632   3.2685   3.2814   3.2837   3.3028   3.3135   3.3202   3.3312
  3.3406   3.3511   3.3599   3.3673   3.3784   3.3950   3.4087   3.4139
  3.4235   3.4317   3.4428   3.4478   3.4661   3.4711   3.4760   3.4903
  3.4988   3.5136   3.5282   3.5428   3.5534   3.5573   3.5728   3.5845
  3.5929   3.6003   3.6051   3.6171   3.6382   3.6513   3.6543   3.6787
  3.6810   3.6917   3.6981   3.7060   3.7111   3.7333   3.7419   3.7520
  3.7551   3.7793   3.7921   3.8010   3.8072   3.8144   3.8225   3.8307
  3.8455   3.8652   3.8812   3.8852   3.8940   3.8950   3.9202   3.9285
  3.9351   3.9495   3.9595   3.9919   4.0028   4.0176   4.0319   4.0505
  4.0621   4.0688   4.0876   4.1004   4.1298   4.1536   4.1652   4.1675
  4.1840   4.1956   4.2104   4.2321   4.2562   4.2863   4.3082   4.3422
  4.3518   4.3595   4.3665   4.3801   4.3865   4.4080   4.4224   4.4293
  4.4508   4.4820   4.5134   4.5255   4.5517   4.5648   4.5848   4.5980
  4.6239   4.6357   4.6537   4.6639   4.6758   4.7122   4.7317   4.7504
  4.7714   4.7836   4.8292   4.8425   4.8471   4.8618   4.8872   4.9022
  4.9214   4.9753   5.0093   5.0152   5.0342   5.0723   5.1073   5.1152
  5.1492   5.1691   5.1987   5.2520   5.2556   5.2608   5.3193   5.3522
  5.3601   5.3944   5.4150   5.4246   5.4266   5.4671   5.4853   5.5185
  5.5353   5.5820   5.6226   5.6268   5.6596   5.7074   5.7297   5.7630
  5.7968   5.8083   5.8293   5.8689   5.8999   5.9301   5.9468   5.9829
  6.0423   6.0615   6.1510   6.1536   6.1866   6.2622   6.2759   6.3677
  6.4362   6.4510   6.5379   6.6003   6.6617   6.6723   6.7463   6.8306
  6.8607   6.9789   7.2048   7.2055   7.3110   7.3641   7.3643   7.4066
  7.4142   7.4868   7.5215   7.5508   7.6156   7.7741   7.7893   7.8893
  7.9542   8.1332   8.1745   8.9231   9.0144   9.3640   9.4671   9.6544
 10.1136  11.1205  11.6700  11.8292  12.4104  12.8660  13.0863  13.3864
 13.7718  14.0300  14.3696
 --------------------------------------------------------------
 
          Ground-State Mulliken Net Atomic Charges

     Atom                 Charge (a.u.)
  ----------------------------------------
      1 C                    -0.014700
      2 S                     0.080576
      3 C                    -0.191048
      4 C                    -0.012514
      5 C                    -0.086259
      6 S                     0.003836
      7 C                    -0.157369
      8 C                     0.389687
      9 F                    -0.206884
     10 C                     0.446314
     11 O                    -0.463127
     12 O                    -0.301296
     13 C                    -0.058435
     14 H                     0.121179
     15 H                     0.094844
     16 H                     0.094720
     17 C                    -0.352449
     18 H                     0.112732
     19 H                     0.157859
     20 H                     0.129491
     21 H                     0.212842
  ----------------------------------------
  Sum of atomic charges =     0.000000

 -----------------------------------------------------------------
                    Cartesian Multipole Moments
 -----------------------------------------------------------------
    Charge (ESU x 10^10)
                -0.0000
    Dipole Moment (Debye)
         X       1.4274      Y       0.7615      Z       2.4809
       Tot       2.9618
    Quadrupole Moments (Debye-Ang)
        XX     -93.8787     XY       4.4909     YY     -84.6957
        XZ      -3.3502     YZ      -6.8880     ZZ     -97.7732
    Octopole Moments (Debye-Ang^2)
       XXX    -128.0801    XXY     -66.0987    XYY     -36.0324
       YYY    -205.1280    XXZ      71.4531    XYZ     -16.3843
       YYZ      54.0991    XZZ      -3.2448    YZZ       2.0626
       ZZZ     268.0178
    Hexadecapole Moments (Debye-Ang^3)
      XXXX    -563.9143   XXXY    -400.9476   XXYY    -360.1537
      XYYY    -380.5281   YYYY   -1651.7197   XXXZ     384.3194
      XXYZ     212.9340   XYYZ      78.8488   YYYZ     634.7935
      XXZZ    -626.2922   XYZZ       9.0477   YYZZ    -648.8791
      XZZZ     243.1454   YZZZ     461.9846   ZZZZ   -3701.7080
 -----------------------------------------------------------------
 Total job time:  65.80s(wall), 2124.41s(cpu) 
 Tue Jan  9 10:19:09 2024

        *************************************************************
        *                                                           *
        *  Thank you very much for using Q-Chem.  Have a nice day.  *
        *                                                           *
        *************************************************************


0 sent ACK to 0 
now end server 0 ... 
cleanup process ... done
remove work dirs ./qchem965848.0 -- ./qchem965848.0
rm -rf ./qchem965848.0
rm -rf ./qchem965848
