You are running Q-Chem version: 5.4.0

#
# job setting
#
local host:  exp-14-37
current dir: /home/rramji/project-csd799/aromodel/ptb7fout-qchem/methylated-rotation-run
input file:  Dimethoxy_Benzodithiophene_Phi_40_Theta_350_Methylcarbonyl_3_Fluoro_Thienothiophene_Hydrogenated_Improper.qcin
output file: 
nprocs     : 1
nthreads   : 64
#
# qchem installation setting
#
QC:          /cm/shared/apps/spack/cpu/opt/spack/linux-centos8-zen2/gcc-10.2.0/qchem-5.4-akfmr7b3t57bfs6qan3padb2wnb2i7cl
QCAUX:       /cm/shared/apps/spack/cpu/opt/spack/linux-centos8-zen2/gcc-10.2.0/qchem-5.4-akfmr7b3t57bfs6qan3padb2wnb2i7cl/qcaux
QCPROG:      /cm/shared/apps/spack/cpu/opt/spack/linux-centos8-zen2/gcc-10.2.0/qchem-5.4-akfmr7b3t57bfs6qan3padb2wnb2i7cl/exe/qcprog.exe
QCPROG_S:    /cm/shared/apps/spack/cpu/opt/spack/linux-centos8-zen2/gcc-10.2.0/qchem-5.4-akfmr7b3t57bfs6qan3padb2wnb2i7cl/exe/qcprog.exe_s
PARALLEL:    -DPARALLEL
QCMPI:       mpich
#
# qchem directory setting
#
qcrun:       qchem4068638
QCSCRATCH:   .
QCLOCALSCR:  
QCTMPDIR:    .
QCFILEPREF:  ./qchem4068638
QCSAVEDIR:   
workdirs:    ./qchem4068638
workdir0:    ./qchem4068638
partmpdirs =  
#
# parallel setting
#
QCRSH:           ssh
QCMPI:           mpich
QCMPIRUN:        /cm/shared/apps/spack/cpu/opt/spack/linux-centos8-zen2/gcc-10.2.0/qchem-5.4-akfmr7b3t57bfs6qan3padb2wnb2i7cl/bin/mpi/mpirun_qchem
QCMACHINEFILE:   ./qchem4068638/hostfile
exp-14-37

#
# env setting
#
exported envs:   QC QCAUX QCSCRATCH QCRUNNAME QCFILEPREF QCPROG QCPROG_S GUIFILE

Running Job 1 of 1 Dimethoxy_Benzodithiophene_Phi_40_Theta_350_Methylcarbonyl_3_Fluoro_Thienothiophene_Hydrogenated_Improper.qcin
qchem Dimethoxy_Benzodithiophene_Phi_40_Theta_350_Methylcarbonyl_3_Fluoro_Thienothiophene_Hydrogenated_Improper.qcin_4068638.0 ./qchem4068638/ 1
/cm/shared/apps/spack/cpu/opt/spack/linux-centos8-zen2/gcc-10.2.0/qchem-5.4-akfmr7b3t57bfs6qan3padb2wnb2i7cl/bin/mpi/mpirun_qchem -machinefile ./qchem4068638/hostfile -np 1 /cm/shared/apps/spack/cpu/opt/spack/linux-centos8-zen2/gcc-10.2.0/qchem-5.4-akfmr7b3t57bfs6qan3padb2wnb2i7cl/exe/qcprog.exe Dimethoxy_Benzodithiophene_Phi_40_Theta_350_Methylcarbonyl_3_Fluoro_Thienothiophene_Hydrogenated_Improper.qcin_4068638.0 ./qchem4068638/

Process 0 of 1 is on exp-14-37 - thread support 0
initial socket setup ...start
initial socket setup ...done 
now start server 0 ... 
                  Welcome to Q-Chem
     A Quantum Leap Into The Future Of Chemistry


 Q-Chem 5.4, Q-Chem, Inc., Pleasanton, CA (2021)

 License issued to: University of California, San Diego (site)

 E. Epifanovsky,  A. T. B. Gilbert,  Xintian Feng,  Joonho Lee,  Yuezhi Mao,  
 N. Mardirossian,  P. Pokhilko,  A. White,  M. Wormit,  M. P. Coons,  
 A. L. Dempwolff,  Zhengting Gan,  D. Hait,  P. R. Horn,  L. D. Jacobson,  
 I. Kaliman,  J. Kussmann,  A. W. Lange,  Ka Un Lao,  D. S. Levine,  Jie Liu,  
 S. C. McKenzie,  A. F. Morrison,  K. Nanda,  F. Plasser,  D. R. Rehn,  
 M. L. Vidal,  Zhi-Qiang You,  Ying Zhu,  B. Alam,  B. Albrecht,  
 A. Aldossary,  E. Alguire,  J. H. Andersen,  D. Barton,  K. Begam,  A. Behn,  
 Y. A. Bernard,  E. J. Berquist,  H. Burton,  A. Carreras,  K. Carter-Fenk,  
 R. Chakraborty,  A. D. Chien,  K. D. Closser,  V. Cofer-Shabica,  
 S. Dasgupta,  Jia Deng,  M. de Wergifosse,  M. Diedenhofen,  Hainam Do,  
 S. Ehlert,  Po-Tung Fang,  S. Fatehi,  Qingguo Feng,  J. Gayvert,  
 Qinghui Ge,  G. Gidofalvi,  M. Goldey,  J. Gomes,  C. Gonzalez-Espinoza,  
 S. Gulania,  A. Gunina,  M. W. D. Hanson-Heine,  P. H. P. Harbach,  
 A. W. Hauser,  M. F. Herbst,  M. Hernandez Vera,  M. Hodecker,  
 Z. C. Holden,  S. Houck,  Xunkun Huang,  Kerwin Hui,  B. C. Huynh,  
 M. Ivanov,  Hyunjun Ji,  Hanjie Jiang,  B. Kaduk,  S. Kaehler,  
 K. Khistyaev,  Jaehoon Kim,  P. Klunzinger,  Z. Koczor-Benda,  
 Joong Hoon Koh,  D. Kosenkov,  L. Koulias,  T. Kowalczyk,  C. M. Krauter,  
 K. Kue,  A. Kunitsa,  T. Kus,  A. Landau,  K. V. Lawler,  D. Lefrancois,  
 S. Lehtola,  Rain Li,  Yi-Pei Li,  Jiashu Liang,  M. Liebenthal,  
 Hung-Hsuan Lin,  You-Sheng Lin,  Fenglai Liu,  Kuan-Yu Liu,  
 M. Loipersberger,  A. Luenser,  A. Manjanath,  P. Manohar,  E. Mansoor,  
 S. F. Manzer,  Shan-Ping Mao,  A. V. Marenich,  T. Markovich,  S. Mason,  
 S. A. Maurer,  P. F. McLaughlin,  M. F. S. J. Menger,  J.-M. Mewes,  
 S. A. Mewes,  P. Morgante,  J. W. Mullinax,  T. S. Nguyen-Beck,  
 K. J. Oosterbaan,  G. Paran,  Alexander C. Paul,  Suranjan K. Paul,  
 F. Pavosevic,  Zheng Pei,  S. Prager,  E. I. Proynov,  E. Ramos,  B. Rana,  
 A. E. Rask,  A. Rettig,  R. M. Richard,  F. Rob,  E. Rossomme,  T. Scheele,  
 M. Scheurer,  M. Schneider,  N. Sergueev,  S. M. Sharada,  W. Skomorowski,  
 D. W. Small,  C. J. Stein,  Yu-Chuan Su,  E. J. Sundstrom,  Zhen Tao,  
 J. Thirman,  T. Tsuchimochi,  N. M. Tubman,  S. P. Veccham,  O. Vydrov,  
 J. Wenzel,  J. Witte,  A. Yamada,  Kun Yao,  S. Yeganeh,  S. R. Yost,  
 A. Zech,  Igor Ying Zhang,  Xing Zhang,  Yu Zhang,  D. Zuev,  
 A. Aspuru-Guzik,  A. T. Bell,  N. A. Besley,  K. B. Bravaya,  B. R. Brooks,  
 D. Casanova,  Jeng-Da Chai,  S. Coriani,  C. J. Cramer,  
 A. E. DePrince, III,  R. A. DiStasio Jr.,  A. Dreuw,  B. D. Dunietz,  
 T. R. Furlani,  W. A. Goddard III,  S. Grimme,  S. Hammes-Schiffer,  
 T. Head-Gordon,  W. J. Hehre,  Chao-Ping Hsu,  T.-C. Jagau,  Yousung Jung,  
 A. Klamt,  Jing Kong,  D. S. Lambrecht,  WanZhen Liang,  N. J. Mayhall,  
 C. W. McCurdy,  J. B. Neaton,  C. Ochsenfeld,  J. A. Parkhill,  R. Peverati,  
 V. A. Rassolov,  Yihan Shao,  L. V. Slipchenko,  T. Stauch,  R. P. Steele,  
 J. E. Subotnik,  A. J. W. Thom,  A. Tkatchenko,  D. G. Truhlar,  
 T. Van Voorhis,  T. A. Wesolowski,  K. B. Whaley,  H. L. Woodcock III,  
 P. M. Zimmerman,  S. Faraji,  P. M. W. Gill,  M. Head-Gordon,  
 J. M. Herbert,  A. I. Krylov

 Contributors to earlier versions of Q-Chem not listed above: 
 R. D. Adamson,  B. Austin,  R. Baer,  J. Baker,  G. J. O. Beran,  
 K. Brandhorst,  S. T. Brown,  E. F. C. Byrd,  A. K. Chakraborty,  
 G. K. L. Chan,  Chun-Min Chang,  Yunqing Chen,  C.-L. Cheng,  
 Siu Hung Chien,  D. M. Chipman,  D. L. Crittenden,  H. Dachsel,  
 R. J. Doerksen,  A. D. Dutoi,  R. G. Edgar,  J. Fosso-Tande,  
 L. Fusti-Molnar,  D. Ghosh,  A. Ghysels,  A. Golubeva-Zadorozhnaya,  
 J. Gonthier,  M. S. Gordon,  S. R. Gwaltney,  G. Hawkins,  J. E. Herr,  
 A. Heyden,  S. Hirata,  E. G. Hohenstein,  G. Kedziora,  F. J. Keil,  
 C. Kelley,  Jihan Kim,  R. A. King,  R. Z. Khaliullin,  P. P. Korambath,  
 W. Kurlancheek,  A. Laurent,  A. M. Lee,  M. S. Lee,  S. V. Levchenko,  
 Ching Yeh Lin,  D. Liotard,  E. Livshits,  R. C. Lochan,  I. Lotan,  
 L. A. Martinez-Martinez,  P. E. Maslen,  N. Nair,  D. P. O'Neill,  
 D. Neuhauser,  E. Neuscamman,  C. M. Oana,  R. Olivares-Amaya,  R. Olson,  
 T. M. Perrine,  B. Peters,  P. A. Pieniazek,  A. Prociuk,  Y. M. Rhee,  
 J. Ritchie,  M. A. Rohrdanz,  E. Rosta,  N. J. Russ,  H. F. Schaefer III,  
 M. W. Schmidt,  N. E. Schultz,  S. Sharma,  N. Shenvi,  C. D. Sherrill,  
 A. C. Simmonett,  A. Sodt,  T. Stein,  D. Stuck,  K. S. Thanthiriwatte,  
 V. Vanovschi,  L. Vogt,  Tao Wang,  A. Warshel,  M. A. Watson,  
 C. F. Williams,  Q. Wu,  X. Xu,  Jun Yang,  W. Zhang,  Yan Zhao

 Please cite Q-Chem as follows:
 Y. Shao et al., Mol. Phys. 113, 184-215 (2015)
 DOI: 10.1080/00268976.2014.952696

 Q-Chem 5.4.0 for Intel X86 EM64T Linux

 Parts of Q-Chem use Armadillo 9.800.1 (Horizon Scraper).
 http://arma.sourceforge.net/

 Q-Chem begins on Tue Jan  9 10:26:16 2024  

 Host: 
0

     Scratch files written to ./qchem4068638//
 May1621 |scratch|qcdevops|jenkins|workspace|build_RNUM    
 Parallel job on  1  processors
 Processing $rem in /cm/shared/apps/spack/cpu/opt/spack/linux-centos8-zen2/gcc-10.2.0/qchem-5.4-akfmr7b3t57bfs6qan3padb2wnb2i7cl/config/preferences:
 Processing $rem in /home/rramji/.qchemrc:
 Symmetry turned off for PCM/SM12/SMD calculation
 Core orbitals will be frozen

 Checking the input file for inconsistencies... 	...done.

 Q-Chem warning in module forms1/BasisType.C, line 2236:

 You are not using the predefined 5D/6D in this basis set.


--------------------------------------------------------------
User input:
--------------------------------------------------------------
$molecule
0 1
C	-0.670971	-0.747937	0.976554
S	-0.089071	-0.055137	2.484054
C	0.921229	1.149963	1.695454
C	-0.089071	-0.055537	-0.091346
C	0.802729	1.010863	0.290154
S	-0.243371	-0.244037	-1.828946
C	0.878329	1.101463	-2.077946
C	1.331729	1.645563	-0.886046
F	2.187229	2.672563	-0.842546
C	1.167729	1.443363	-3.479546
O	0.679029	0.848563	-4.429946
O	2.030129	2.482763	-3.592646
C	2.352329	2.858663	-4.939646
H	3.054729	3.706563	-4.856546
H	1.441129	3.162063	-5.493646
H	2.824329	2.015063	-5.482746
C	-0.670971	-2.183137	0.976554
H	0.391229	-2.191137	0.781654
H	-0.524671	-2.861037	1.804454
H	-0.840771	-2.714237	0.051654
H	1.514229	1.858863	2.283054
$end

$rem
JOBTYPE		SP
EXCHANGE	HF
CORRELATION	pRIMP2
BASIS		cc-pvtz
METHOD		rimp2
AUX_BASIS	rimp2-cc-pvtz
SOLVENT_METHOD	PCM
PURECART	11111
SYMMETRY	false
MEM_TOTAL	110000
SCF_CONVERGENCE = 6
THRESH=10
GUI = 2
$end



$solvent
dielectric 4.90
$end
--------------------------------------------------------------
 ----------------------------------------------------------------
             Standard Nuclear Orientation (Angstroms)
    I     Atom           X                Y                Z
 ----------------------------------------------------------------
    1      C      -0.6709710000    -0.7479370000     0.9765540000
    2      S      -0.0890710000    -0.0551370000     2.4840540000
    3      C       0.9212290000     1.1499630000     1.6954540000
    4      C      -0.0890710000    -0.0555370000    -0.0913460000
    5      C       0.8027290000     1.0108630000     0.2901540000
    6      S      -0.2433710000    -0.2440370000    -1.8289460000
    7      C       0.8783290000     1.1014630000    -2.0779460000
    8      C       1.3317290000     1.6455630000    -0.8860460000
    9      F       2.1872290000     2.6725630000    -0.8425460000
   10      C       1.1677290000     1.4433630000    -3.4795460000
   11      O       0.6790290000     0.8485630000    -4.4299460000
   12      O       2.0301290000     2.4827630000    -3.5926460000
   13      C       2.3523290000     2.8586630000    -4.9396460000
   14      H       3.0547290000     3.7065630000    -4.8565460000
   15      H       1.4411290000     3.1620630000    -5.4936460000
   16      H       2.8243290000     2.0150630000    -5.4827460000
   17      C      -0.6709710000    -2.1831370000     0.9765540000
   18      H       0.3912290000    -2.1911370000     0.7816540000
   19      H      -0.5246710000    -2.8610370000     1.8044540000
   20      H      -0.8407710000    -2.7142370000     0.0516540000
   21      H       1.5142290000     1.8588630000     2.2830540000
 ----------------------------------------------------------------
 Nuclear Repulsion Energy =        1088.07478132 hartrees
 There are       59 alpha and       59 beta electrons
 Requested basis set is cc-pVTZ
 There are 186 shells and 526 basis functions

 Total QAlloc Memory Limit 110000 MB
 Mega-Array Size       188 MB
 MEM_STATIC part       192 MB
 Discretize the solute cavity surface with Lebedev spheres
	Using 110 Lebedev grid points for each H atom
	Using 194 Lebedev grid points for other atoms
	Atomic van der Waals radii will be scaled by 1.20
 Remove points where switching function is < 1.0e-08
 Keep 1528 surface tesserae and discard 1958 interior tesserae
 Molecular Surface Area = 241.539 Angst**2
 Requested basis set is rimp2-cc-pVTZ
 There are 410 shells and 1426 basis functions
 A cutoff of  1.0D-10 yielded  11683 shell pairs
 There are     91569 function pairs (    119809 Cartesian)
 Smallest overlap matrix eigenvalue = 6.49E-05

 Scale SEOQF with 1.000000e-01/1.000000e-01/1.000000e-02

 Standard Electronic Orientation quadrupole field applied
 Nucleus-field energy     =     0.0000000194 hartrees
 Guess from superposition of atomic densities
 Warning:  Energy on first SCF cycle will be non-variational
 SAD guess density has 118.000000 electrons

 -----------------------------------------------------------------------
  General SCF calculation program by
  Eric Jon Sundstrom, Paul Horn, Yuezhi Mao, Dmitri Zuev, Alec White,
  David Stuck, Shaama M.S., Shane Yost, Joonho Lee, David Small,
  Daniel Levine, Susi Lehtola, Hugh Burton, Evgeny Epifanovsky,
  Bang C. Huynh
 -----------------------------------------------------------------------
 Hartree-Fock
 using 64 threads for integral computing
 -------------------------------------------------------
 OpenMP Integral computing Module                
 Release: version 1.0, May 2013, Q-Chem Inc. Pittsburgh 
 -------------------------------------------------------
 A restricted SCF calculation will be
 performed using DIIS
 SCF converges when DIIS error is below 1.0e-06
 ---------------------------------------
  Cycle       Energy         DIIS error
 ---------------------------------------
    1   -1394.2910451872      2.47e-02  
    2   -1389.0057624368      2.47e-03  
    3   -1389.1759900114      1.54e-03  
    4   -1389.2355422498      3.53e-04  
    5   -1389.2413310932      1.12e-04  
    6   -1389.2420139238      3.64e-05  
    7   -1389.2421617302      1.83e-05  
    8   -1389.2422134451      7.16e-06  
    9   -1389.2422247547      3.10e-06  
   10   -1389.2422263847      1.19e-06  
   11   -1389.2422266460      5.08e-07  Convergence criterion met
 ---------------------------------------
 SCF time:   CPU 1783.01s  wall 54.00s 

************** Final PCM Free Energy Summary **************
 G_electrostatic  =      -0.01193932 hartree =      -7.49203648 kcal/mol
 G_cavitation     =       0.00000000 hartree =       0.00000000 kcal/mol
 G_dispersion     =       0.00000000 hartree =       0.00000000 kcal/mol
 G_repulsion      =       0.00000000 hartree =       0.00000000 kcal/mol
 --------------------------------------------------
 Non-electrostatic Free Energy =       0.00000000 hartree =       0.00000000 kcal/mol
 Total                         =      -0.01193932 hartree =      -7.49203648 kcal/mol
 --------------------------------------------------
 SCF Energy (H0 + V/2)                       =   -1389.24222665 
 Solute Internal Energy (H0)                 =   -1389.23028733 
 Total Free Energy (H0 + V/2 + non-elec)     =   -1389.24222665 hartree
                                             = -871762.65473349 kcal/mol
***********************************************************

 SCF   energy in the final basis set =    -1389.2422266460
 Total energy in the final basis set =    -1389.2422266460


 --------------------------------------------------------------
  Generalized many-body perturbation theory program
  by Joonho Lee, Fazle Rob, Xintian Feng, Evgeny Epifanovsky

 No regularization used 
 (reg. param. = 0.0000e+00)
  (P|Q)^-1/2 Time:  CPU 38.87 s  wall 0.62 s

 In RI-MP2 calculation: 
 # of frozen core orbitals: 22

 Components of the RIMP2 correlation energy:
        aaaa    correlation energy =        -0.3295727071 a.u.
        abab    correlation energy =        -1.8525539940 a.u.
        bbbb    correlation energy =        -0.3295727071 a.u.
        non-Brillouin singles      =        -0.0000000000 a.u.
        total same-spin energy     =        -0.6591454142 a.u.
        total opposite-spin energy =        -1.8525539940 a.u.

 Total  RIMP2   correlation energy =        -2.5116994081 a.u.
        RIMP2         total energy =     -1391.7539260541 a.u.

 RI-MP2 Energy Time:  CPU 202.57 s  wall 3.77 s
 
 --------------------------------------------------------------
 
                    Orbital Energies (a.u.)
 --------------------------------------------------------------
 
 Alpha MOs
 -- Occupied --
-92.0050 -91.9951 -26.3412 -20.6139 -20.5600 -11.4080 -11.3795 -11.3013
-11.2950 -11.2920 -11.2884 -11.2861 -11.2805 -11.2274  -9.0042  -8.9951
 -6.6849  -6.6842  -6.6838  -6.6761  -6.6754  -6.6743  -1.6585  -1.4663
 -1.3689  -1.2163  -1.1404  -1.0686  -1.0196  -0.9926  -0.9589  -0.9092
 -0.8643  -0.8062  -0.7894  -0.7594  -0.7314  -0.7233  -0.6942  -0.6837
 -0.6731  -0.6606  -0.6122  -0.5974  -0.5951  -0.5771  -0.5632  -0.5607
 -0.5309  -0.5229  -0.5123  -0.5018  -0.4731  -0.4721  -0.4713  -0.4577
 -0.3820  -0.3450  -0.2821
 -- Virtual --
  0.0378   0.0984   0.1408   0.1528   0.1574   0.1731   0.1873   0.1929
  0.2066   0.2152   0.2184   0.2226   0.2290   0.2445   0.2584   0.2662
  0.2869   0.3088   0.3211   0.3263   0.3437   0.3515   0.3715   0.3823
  0.3861   0.4016   0.4070   0.4153   0.4210   0.4242   0.4339   0.4418
  0.4555   0.4595   0.4705   0.4854   0.4905   0.5013   0.5089   0.5189
  0.5266   0.5364   0.5433   0.5451   0.5555   0.5570   0.5622   0.5717
  0.5871   0.5914   0.5985   0.6089   0.6147   0.6157   0.6214   0.6240
  0.6386   0.6449   0.6603   0.6622   0.6731   0.6872   0.6931   0.7019
  0.7178   0.7245   0.7270   0.7359   0.7521   0.7660   0.7835   0.7962
  0.8077   0.8085   0.8234   0.8450   0.8486   0.8602   0.8688   0.8748
  0.8799   0.8914   0.9009   0.9248   0.9288   0.9544   0.9640   0.9724
  0.9798   0.9935   1.0139   1.0230   1.0298   1.0410   1.0446   1.0579
  1.0632   1.0792   1.0935   1.0998   1.1085   1.1147   1.1189   1.1225
  1.1380   1.1530   1.1587   1.1705   1.1771   1.1828   1.2051   1.2143
  1.2279   1.2300   1.2450   1.2518   1.2627   1.2809   1.2909   1.3031
  1.3055   1.3335   1.3367   1.3559   1.3640   1.3832   1.3879   1.4121
  1.4189   1.4382   1.4413   1.4688   1.4694   1.4840   1.5001   1.5059
  1.5106   1.5262   1.5347   1.5428   1.5467   1.5759   1.5867   1.5892
  1.6146   1.6216   1.6544   1.6643   1.6746   1.6970   1.7183   1.7286
  1.7567   1.7779   1.7940   1.8018   1.8203   1.8256   1.8375   1.8642
  1.8679   1.8775   1.9010   1.9135   1.9323   1.9350   1.9625   1.9679
  1.9753   2.0029   2.0093   2.0371   2.0655   2.0797   2.0852   2.0997
  2.1442   2.1498   2.1685   2.1798   2.1988   2.2002   2.2185   2.2317
  2.2372   2.2479   2.2651   2.2670   2.2973   2.3012   2.3312   2.3490
  2.3674   2.3771   2.3967   2.4062   2.4212   2.4316   2.4802   2.4845
  2.4938   2.5111   2.5431   2.5568   2.5773   2.5943   2.6026   2.6252
  2.6416   2.6456   2.6635   2.6846   2.6914   2.7036   2.7129   2.7159
  2.7282   2.7413   2.7687   2.7829   2.7902   2.8044   2.8109   2.8248
  2.8418   2.8556   2.8737   2.8817   2.9058   2.9418   2.9546   2.9578
  2.9656   2.9783   2.9994   3.0171   3.0244   3.0375   3.0555   3.0599
  3.0798   3.1022   3.1067   3.1123   3.1169   3.1244   3.1303   3.1364
  3.1467   3.1572   3.1885   3.2050   3.2074   3.2198   3.2312   3.2407
  3.2541   3.2597   3.2782   3.2795   3.3025   3.3133   3.3173   3.3349
  3.3493   3.3577   3.3657   3.3719   3.3833   3.3973   3.4017   3.4211
  3.4242   3.4274   3.4459   3.4555   3.4630   3.4698   3.4800   3.4933
  3.5039   3.5107   3.5209   3.5410   3.5435   3.5599   3.5642   3.5719
  3.5888   3.6017   3.6043   3.6121   3.6260   3.6340   3.6469   3.6565
  3.6775   3.6889   3.6924   3.7016   3.7069   3.7205   3.7374   3.7431
  3.7514   3.7722   3.7969   3.8040   3.8051   3.8158   3.8215   3.8347
  3.8534   3.8719   3.8758   3.8861   3.9005   3.9126   3.9337   3.9474
  3.9549   3.9595   3.9868   3.9943   4.0207   4.0300   4.0512   4.0625
  4.0699   4.0789   4.1047   4.1205   4.1458   4.1644   4.1662   4.1810
  4.1946   4.2047   4.2254   4.2491   4.2659   4.2726   4.3108   4.3372
  4.3424   4.3592   4.3659   4.3746   4.4175   4.4313   4.4377   4.4461
  4.4740   4.4902   4.5168   4.5259   4.5469   4.5578   4.5813   4.5889
  4.6140   4.6267   4.6478   4.6634   4.6667   4.6874   4.7337   4.7448
  4.7723   4.7886   4.8015   4.8385   4.8546   4.8571   4.8887   4.9073
  4.9183   4.9694   5.0094   5.0321   5.0436   5.0754   5.1169   5.1220
  5.1332   5.1824   5.2061   5.2504   5.2556   5.2602   5.2991   5.3525
  5.3569   5.4020   5.4051   5.4266   5.4580   5.4854   5.4996   5.5239
  5.5385   5.5796   5.6024   5.6227   5.6471   5.6621   5.7303   5.7507
  5.8047   5.8084   5.8352   5.8756   5.8969   5.9302   5.9451   6.0169
  6.0420   6.0549   6.1482   6.1511   6.1856   6.2539   6.2622   6.3911
  6.4511   6.4693   6.5381   6.6001   6.6619   6.6724   6.7468   6.8307
  6.8606   6.9791   7.2047   7.2050   7.3109   7.3646   7.3650   7.4063
  7.4142   7.4875   7.5200   7.5508   7.6153   7.7750   7.7889   7.8886
  7.9523   8.1337   8.1806   8.9239   9.0220   9.3649   9.4769   9.6587
 10.1710  11.1719  11.7007  11.8404  12.4198  12.7817  13.0508  13.3871
 13.7755  14.0311  14.4141
 --------------------------------------------------------------
 
          Ground-State Mulliken Net Atomic Charges

     Atom                 Charge (a.u.)
  ----------------------------------------
      1 C                    -0.007063
      2 S                     0.087246
      3 C                    -0.211629
      4 C                    -0.018248
      5 C                    -0.085200
      6 S                     0.003669
      7 C                    -0.152782
      8 C                     0.389034
      9 F                    -0.208024
     10 C                     0.447820
     11 O                    -0.462123
     12 O                    -0.300993
     13 C                    -0.058451
     14 H                     0.121142
     15 H                     0.094981
     16 H                     0.094644
     17 C                    -0.383113
     18 H                     0.138211
     19 H                     0.161054
     20 H                     0.137229
     21 H                     0.212594
  ----------------------------------------
  Sum of atomic charges =     0.000000

 -----------------------------------------------------------------
                    Cartesian Multipole Moments
 -----------------------------------------------------------------
    Charge (ESU x 10^10)
                -0.0000
    Dipole Moment (Debye)
         X       2.1276      Y       0.1292      Z       2.9811
       Tot       3.6648
    Quadrupole Moments (Debye-Ang)
        XX     -93.7901     XY       4.4652     YY     -86.2223
        XZ      -4.4873     YZ      -7.8346     ZZ     -96.1744
    Octopole Moments (Debye-Ang^2)
       XXX    -162.0677    XXY     -52.4745    XYY     -48.0328
       YYY    -183.8851    XXZ      64.0323    XYZ     -18.6721
       YYZ      63.1954    XZZ      -5.2588    YZZ      -2.2625
       ZZZ     270.8357
    Hexadecapole Moments (Debye-Ang^3)
      XXXX    -844.9271   XXXY    -453.2416   XXYY    -360.7845
      XYYY    -443.1919   YYYY   -1362.4526   XXXZ     477.8219
      XXYZ     174.0687   XYYZ     115.3984   YYYZ     576.9189
      XXZZ    -621.4777   XYZZ      12.7931   YYZZ    -638.3515
      XZZZ     308.6312   YZZZ     404.3308   ZZZZ   -3700.5083
 -----------------------------------------------------------------
 Total job time:  61.84s(wall), 2089.78s(cpu) 
 Tue Jan  9 10:27:18 2024

        *************************************************************
        *                                                           *
        *  Thank you very much for using Q-Chem.  Have a nice day.  *
        *                                                           *
        *************************************************************


0 sent ACK to 0 
now end server 0 ... 
cleanup process ... done
remove work dirs ./qchem4068638.0 -- ./qchem4068638.0
rm -rf ./qchem4068638.0
rm -rf ./qchem4068638
