You are running Q-Chem version: 5.4.0

#
# job setting
#
local host:  exp-7-25
current dir: /home/rramji/project-csd799/aromodel/ptb7fout-qchem/methylated-rotation-run
input file:  Dimethoxy_Benzodithiophene_Phi_30_Theta_240_Methylcarbonyl_3_Fluoro_Thienothiophene_Hydrogenated_Improper.qcin
output file: 
nprocs     : 1
nthreads   : 64
#
# qchem installation setting
#
QC:          /cm/shared/apps/spack/cpu/opt/spack/linux-centos8-zen2/gcc-10.2.0/qchem-5.4-akfmr7b3t57bfs6qan3padb2wnb2i7cl
QCAUX:       /cm/shared/apps/spack/cpu/opt/spack/linux-centos8-zen2/gcc-10.2.0/qchem-5.4-akfmr7b3t57bfs6qan3padb2wnb2i7cl/qcaux
QCPROG:      /cm/shared/apps/spack/cpu/opt/spack/linux-centos8-zen2/gcc-10.2.0/qchem-5.4-akfmr7b3t57bfs6qan3padb2wnb2i7cl/exe/qcprog.exe
QCPROG_S:    /cm/shared/apps/spack/cpu/opt/spack/linux-centos8-zen2/gcc-10.2.0/qchem-5.4-akfmr7b3t57bfs6qan3padb2wnb2i7cl/exe/qcprog.exe_s
PARALLEL:    -DPARALLEL
QCMPI:       mpich
#
# qchem directory setting
#
qcrun:       qchem964681
QCSCRATCH:   .
QCLOCALSCR:  
QCTMPDIR:    .
QCFILEPREF:  ./qchem964681
QCSAVEDIR:   
workdirs:    ./qchem964681
workdir0:    ./qchem964681
partmpdirs =  
#
# parallel setting
#
QCRSH:           ssh
QCMPI:           mpich
QCMPIRUN:        /cm/shared/apps/spack/cpu/opt/spack/linux-centos8-zen2/gcc-10.2.0/qchem-5.4-akfmr7b3t57bfs6qan3padb2wnb2i7cl/bin/mpi/mpirun_qchem
QCMACHINEFILE:   ./qchem964681/hostfile
exp-7-25

#
# env setting
#
exported envs:   QC QCAUX QCSCRATCH QCRUNNAME QCFILEPREF QCPROG QCPROG_S GUIFILE

Running Job 1 of 1 Dimethoxy_Benzodithiophene_Phi_30_Theta_240_Methylcarbonyl_3_Fluoro_Thienothiophene_Hydrogenated_Improper.qcin
qchem Dimethoxy_Benzodithiophene_Phi_30_Theta_240_Methylcarbonyl_3_Fluoro_Thienothiophene_Hydrogenated_Improper.qcin_964681.0 ./qchem964681/ 1
/cm/shared/apps/spack/cpu/opt/spack/linux-centos8-zen2/gcc-10.2.0/qchem-5.4-akfmr7b3t57bfs6qan3padb2wnb2i7cl/bin/mpi/mpirun_qchem -machinefile ./qchem964681/hostfile -np 1 /cm/shared/apps/spack/cpu/opt/spack/linux-centos8-zen2/gcc-10.2.0/qchem-5.4-akfmr7b3t57bfs6qan3padb2wnb2i7cl/exe/qcprog.exe Dimethoxy_Benzodithiophene_Phi_30_Theta_240_Methylcarbonyl_3_Fluoro_Thienothiophene_Hydrogenated_Improper.qcin_964681.0 ./qchem964681/

Process 0 of 1 is on exp-7-25 - thread support 0
initial socket setup ...start
initial socket setup ...done 
now start server 0 ... 
                  Welcome to Q-Chem
     A Quantum Leap Into The Future Of Chemistry


 Q-Chem 5.4, Q-Chem, Inc., Pleasanton, CA (2021)

 License issued to: University of California, San Diego (site)

 E. Epifanovsky,  A. T. B. Gilbert,  Xintian Feng,  Joonho Lee,  Yuezhi Mao,  
 N. Mardirossian,  P. Pokhilko,  A. White,  M. Wormit,  M. P. Coons,  
 A. L. Dempwolff,  Zhengting Gan,  D. Hait,  P. R. Horn,  L. D. Jacobson,  
 I. Kaliman,  J. Kussmann,  A. W. Lange,  Ka Un Lao,  D. S. Levine,  Jie Liu,  
 S. C. McKenzie,  A. F. Morrison,  K. Nanda,  F. Plasser,  D. R. Rehn,  
 M. L. Vidal,  Zhi-Qiang You,  Ying Zhu,  B. Alam,  B. Albrecht,  
 A. Aldossary,  E. Alguire,  J. H. Andersen,  D. Barton,  K. Begam,  A. Behn,  
 Y. A. Bernard,  E. J. Berquist,  H. Burton,  A. Carreras,  K. Carter-Fenk,  
 R. Chakraborty,  A. D. Chien,  K. D. Closser,  V. Cofer-Shabica,  
 S. Dasgupta,  Jia Deng,  M. de Wergifosse,  M. Diedenhofen,  Hainam Do,  
 S. Ehlert,  Po-Tung Fang,  S. Fatehi,  Qingguo Feng,  J. Gayvert,  
 Qinghui Ge,  G. Gidofalvi,  M. Goldey,  J. Gomes,  C. Gonzalez-Espinoza,  
 S. Gulania,  A. Gunina,  M. W. D. Hanson-Heine,  P. H. P. Harbach,  
 A. W. Hauser,  M. F. Herbst,  M. Hernandez Vera,  M. Hodecker,  
 Z. C. Holden,  S. Houck,  Xunkun Huang,  Kerwin Hui,  B. C. Huynh,  
 M. Ivanov,  Hyunjun Ji,  Hanjie Jiang,  B. Kaduk,  S. Kaehler,  
 K. Khistyaev,  Jaehoon Kim,  P. Klunzinger,  Z. Koczor-Benda,  
 Joong Hoon Koh,  D. Kosenkov,  L. Koulias,  T. Kowalczyk,  C. M. Krauter,  
 K. Kue,  A. Kunitsa,  T. Kus,  A. Landau,  K. V. Lawler,  D. Lefrancois,  
 S. Lehtola,  Rain Li,  Yi-Pei Li,  Jiashu Liang,  M. Liebenthal,  
 Hung-Hsuan Lin,  You-Sheng Lin,  Fenglai Liu,  Kuan-Yu Liu,  
 M. Loipersberger,  A. Luenser,  A. Manjanath,  P. Manohar,  E. Mansoor,  
 S. F. Manzer,  Shan-Ping Mao,  A. V. Marenich,  T. Markovich,  S. Mason,  
 S. A. Maurer,  P. F. McLaughlin,  M. F. S. J. Menger,  J.-M. Mewes,  
 S. A. Mewes,  P. Morgante,  J. W. Mullinax,  T. S. Nguyen-Beck,  
 K. J. Oosterbaan,  G. Paran,  Alexander C. Paul,  Suranjan K. Paul,  
 F. Pavosevic,  Zheng Pei,  S. Prager,  E. I. Proynov,  E. Ramos,  B. Rana,  
 A. E. Rask,  A. Rettig,  R. M. Richard,  F. Rob,  E. Rossomme,  T. Scheele,  
 M. Scheurer,  M. Schneider,  N. Sergueev,  S. M. Sharada,  W. Skomorowski,  
 D. W. Small,  C. J. Stein,  Yu-Chuan Su,  E. J. Sundstrom,  Zhen Tao,  
 J. Thirman,  T. Tsuchimochi,  N. M. Tubman,  S. P. Veccham,  O. Vydrov,  
 J. Wenzel,  J. Witte,  A. Yamada,  Kun Yao,  S. Yeganeh,  S. R. Yost,  
 A. Zech,  Igor Ying Zhang,  Xing Zhang,  Yu Zhang,  D. Zuev,  
 A. Aspuru-Guzik,  A. T. Bell,  N. A. Besley,  K. B. Bravaya,  B. R. Brooks,  
 D. Casanova,  Jeng-Da Chai,  S. Coriani,  C. J. Cramer,  
 A. E. DePrince, III,  R. A. DiStasio Jr.,  A. Dreuw,  B. D. Dunietz,  
 T. R. Furlani,  W. A. Goddard III,  S. Grimme,  S. Hammes-Schiffer,  
 T. Head-Gordon,  W. J. Hehre,  Chao-Ping Hsu,  T.-C. Jagau,  Yousung Jung,  
 A. Klamt,  Jing Kong,  D. S. Lambrecht,  WanZhen Liang,  N. J. Mayhall,  
 C. W. McCurdy,  J. B. Neaton,  C. Ochsenfeld,  J. A. Parkhill,  R. Peverati,  
 V. A. Rassolov,  Yihan Shao,  L. V. Slipchenko,  T. Stauch,  R. P. Steele,  
 J. E. Subotnik,  A. J. W. Thom,  A. Tkatchenko,  D. G. Truhlar,  
 T. Van Voorhis,  T. A. Wesolowski,  K. B. Whaley,  H. L. Woodcock III,  
 P. M. Zimmerman,  S. Faraji,  P. M. W. Gill,  M. Head-Gordon,  
 J. M. Herbert,  A. I. Krylov

 Contributors to earlier versions of Q-Chem not listed above: 
 R. D. Adamson,  B. Austin,  R. Baer,  J. Baker,  G. J. O. Beran,  
 K. Brandhorst,  S. T. Brown,  E. F. C. Byrd,  A. K. Chakraborty,  
 G. K. L. Chan,  Chun-Min Chang,  Yunqing Chen,  C.-L. Cheng,  
 Siu Hung Chien,  D. M. Chipman,  D. L. Crittenden,  H. Dachsel,  
 R. J. Doerksen,  A. D. Dutoi,  R. G. Edgar,  J. Fosso-Tande,  
 L. Fusti-Molnar,  D. Ghosh,  A. Ghysels,  A. Golubeva-Zadorozhnaya,  
 J. Gonthier,  M. S. Gordon,  S. R. Gwaltney,  G. Hawkins,  J. E. Herr,  
 A. Heyden,  S. Hirata,  E. G. Hohenstein,  G. Kedziora,  F. J. Keil,  
 C. Kelley,  Jihan Kim,  R. A. King,  R. Z. Khaliullin,  P. P. Korambath,  
 W. Kurlancheek,  A. Laurent,  A. M. Lee,  M. S. Lee,  S. V. Levchenko,  
 Ching Yeh Lin,  D. Liotard,  E. Livshits,  R. C. Lochan,  I. Lotan,  
 L. A. Martinez-Martinez,  P. E. Maslen,  N. Nair,  D. P. O'Neill,  
 D. Neuhauser,  E. Neuscamman,  C. M. Oana,  R. Olivares-Amaya,  R. Olson,  
 T. M. Perrine,  B. Peters,  P. A. Pieniazek,  A. Prociuk,  Y. M. Rhee,  
 J. Ritchie,  M. A. Rohrdanz,  E. Rosta,  N. J. Russ,  H. F. Schaefer III,  
 M. W. Schmidt,  N. E. Schultz,  S. Sharma,  N. Shenvi,  C. D. Sherrill,  
 A. C. Simmonett,  A. Sodt,  T. Stein,  D. Stuck,  K. S. Thanthiriwatte,  
 V. Vanovschi,  L. Vogt,  Tao Wang,  A. Warshel,  M. A. Watson,  
 C. F. Williams,  Q. Wu,  X. Xu,  Jun Yang,  W. Zhang,  Yan Zhao

 Please cite Q-Chem as follows:
 Y. Shao et al., Mol. Phys. 113, 184-215 (2015)
 DOI: 10.1080/00268976.2014.952696

 Q-Chem 5.4.0 for Intel X86 EM64T Linux

 Parts of Q-Chem use Armadillo 9.800.1 (Horizon Scraper).
 http://arma.sourceforge.net/

 Q-Chem begins on Tue Jan  9 10:13:52 2024  

 Host: 
0

     Scratch files written to ./qchem964681//
 May1621 |scratch|qcdevops|jenkins|workspace|build_RNUM    
 Parallel job on  1  processors
 Processing $rem in /cm/shared/apps/spack/cpu/opt/spack/linux-centos8-zen2/gcc-10.2.0/qchem-5.4-akfmr7b3t57bfs6qan3padb2wnb2i7cl/config/preferences:
 Processing $rem in /home/rramji/.qchemrc:
 Symmetry turned off for PCM/SM12/SMD calculation
 Core orbitals will be frozen

 Checking the input file for inconsistencies... 	...done.

 Q-Chem warning in module forms1/BasisType.C, line 2236:

 You are not using the predefined 5D/6D in this basis set.


--------------------------------------------------------------
User input:
--------------------------------------------------------------
$molecule
0 1
C	-0.518683	-0.851940	0.977832
S	-0.065883	-0.068640	2.485332
C	0.719717	1.293660	1.696732
C	-0.065783	-0.069040	-0.090068
C	0.627217	1.136060	0.291432
S	-0.185083	-0.281440	-1.827668
C	0.685917	1.238360	-2.076668
C	1.037917	1.852960	-0.884768
F	1.702117	3.012960	-0.841268
C	0.911617	1.625360	-3.478268
O	0.533517	0.954660	-4.428668
O	1.580317	2.798760	-3.591368
C	1.832417	3.224860	-4.938368
H	2.376917	4.181860	-4.855268
H	0.882317	3.365460	-5.492368
H	2.443717	2.476060	-5.481468
C	-0.518683	-2.287140	0.977832
H	-1.065083	-2.295140	0.046332
H	0.209217	-2.965040	0.557232
H	-1.329683	-2.818240	1.453732
H	1.180617	2.094760	2.284332
$end

$rem
JOBTYPE		SP
EXCHANGE	HF
CORRELATION	pRIMP2
BASIS		cc-pvtz
METHOD		rimp2
AUX_BASIS	rimp2-cc-pvtz
SOLVENT_METHOD	PCM
PURECART	11111
SYMMETRY	false
MEM_TOTAL	110000
SCF_CONVERGENCE = 6
THRESH=10
GUI = 2
$end



$solvent
dielectric 4.90
$end
--------------------------------------------------------------
 ----------------------------------------------------------------
             Standard Nuclear Orientation (Angstroms)
    I     Atom           X                Y                Z
 ----------------------------------------------------------------
    1      C      -0.5186830000    -0.8519400000     0.9778320000
    2      S      -0.0658830000    -0.0686400000     2.4853320000
    3      C       0.7197170000     1.2936600000     1.6967320000
    4      C      -0.0657830000    -0.0690400000    -0.0900680000
    5      C       0.6272170000     1.1360600000     0.2914320000
    6      S      -0.1850830000    -0.2814400000    -1.8276680000
    7      C       0.6859170000     1.2383600000    -2.0766680000
    8      C       1.0379170000     1.8529600000    -0.8847680000
    9      F       1.7021170000     3.0129600000    -0.8412680000
   10      C       0.9116170000     1.6253600000    -3.4782680000
   11      O       0.5335170000     0.9546600000    -4.4286680000
   12      O       1.5803170000     2.7987600000    -3.5913680000
   13      C       1.8324170000     3.2248600000    -4.9383680000
   14      H       2.3769170000     4.1818600000    -4.8552680000
   15      H       0.8823170000     3.3654600000    -5.4923680000
   16      H       2.4437170000     2.4760600000    -5.4814680000
   17      C      -0.5186830000    -2.2871400000     0.9778320000
   18      H      -1.0650830000    -2.2951400000     0.0463320000
   19      H       0.2092170000    -2.9650400000     0.5572320000
   20      H      -1.3296830000    -2.8182400000     1.4537320000
   21      H       1.1806170000     2.0947600000     2.2843320000
 ----------------------------------------------------------------
 Nuclear Repulsion Energy =        1085.28694644 hartrees
 There are       59 alpha and       59 beta electrons
 Requested basis set is cc-pVTZ
 There are 186 shells and 526 basis functions

 Total QAlloc Memory Limit 110000 MB
 Mega-Array Size       188 MB
 MEM_STATIC part       192 MB
 Discretize the solute cavity surface with Lebedev spheres
	Using 110 Lebedev grid points for each H atom
	Using 194 Lebedev grid points for other atoms
	Atomic van der Waals radii will be scaled by 1.20
 Remove points where switching function is < 1.0e-08
 Keep 1550 surface tesserae and discard 1936 interior tesserae
 Molecular Surface Area = 241.902 Angst**2
 Requested basis set is rimp2-cc-pVTZ
 There are 410 shells and 1426 basis functions
 A cutoff of  1.0D-10 yielded  11589 shell pairs
 There are     90887 function pairs (    118927 Cartesian)
 Smallest overlap matrix eigenvalue = 6.38E-05

 Scale SEOQF with 1.000000e-01/1.000000e-01/1.000000e-02

 Standard Electronic Orientation quadrupole field applied
 Nucleus-field energy     =     0.0000000223 hartrees
 Guess from superposition of atomic densities
 Warning:  Energy on first SCF cycle will be non-variational
 SAD guess density has 118.000000 electrons

 -----------------------------------------------------------------------
  General SCF calculation program by
  Eric Jon Sundstrom, Paul Horn, Yuezhi Mao, Dmitri Zuev, Alec White,
  David Stuck, Shaama M.S., Shane Yost, Joonho Lee, David Small,
  Daniel Levine, Susi Lehtola, Hugh Burton, Evgeny Epifanovsky,
  Bang C. Huynh
 -----------------------------------------------------------------------
 Hartree-Fock
 using 64 threads for integral computing
 -------------------------------------------------------
 OpenMP Integral computing Module                
 Release: version 1.0, May 2013, Q-Chem Inc. Pittsburgh 
 -------------------------------------------------------
 A restricted SCF calculation will be
 performed using DIIS
 SCF converges when DIIS error is below 1.0e-06
 ---------------------------------------
  Cycle       Energy         DIIS error
 ---------------------------------------
    1   -1394.2580951795      2.47e-02  
    2   -1389.0187732925      2.47e-03  
    3   -1389.1885109667      1.55e-03  
    4   -1389.2491073602      3.53e-04  
    5   -1389.2548816217      1.12e-04  
    6   -1389.2555533188      3.59e-05  
    7   -1389.2556949415      1.80e-05  
    8   -1389.2557433636      6.98e-06  
    9   -1389.2557537681      2.99e-06  
   10   -1389.2557552432      1.13e-06  
   11   -1389.2557554659      4.61e-07  Convergence criterion met
 ---------------------------------------
 SCF time:   CPU 1705.10s  wall 52.00s 

************** Final PCM Free Energy Summary **************
 G_electrostatic  =      -0.01139191 hartree =      -7.14852985 kcal/mol
 G_cavitation     =       0.00000000 hartree =       0.00000000 kcal/mol
 G_dispersion     =       0.00000000 hartree =       0.00000000 kcal/mol
 G_repulsion      =       0.00000000 hartree =       0.00000000 kcal/mol
 --------------------------------------------------
 Non-electrostatic Free Energy =       0.00000000 hartree =       0.00000000 kcal/mol
 Total                         =      -0.01139191 hartree =      -7.14852985 kcal/mol
 --------------------------------------------------
 SCF Energy (H0 + V/2)                       =   -1389.25575547 
 Solute Internal Energy (H0)                 =   -1389.24436356 
 Total Free Energy (H0 + V/2 + non-elec)     =   -1389.25575547 hartree
                                             = -871771.14419610 kcal/mol
***********************************************************

 SCF   energy in the final basis set =    -1389.2557554659
 Total energy in the final basis set =    -1389.2557554659


 --------------------------------------------------------------
  Generalized many-body perturbation theory program
  by Joonho Lee, Fazle Rob, Xintian Feng, Evgeny Epifanovsky

 No regularization used 
 (reg. param. = 0.0000e+00)
  (P|Q)^-1/2 Time:  CPU 31.29 s  wall 0.51 s

 In RI-MP2 calculation: 
 # of frozen core orbitals: 22

 Components of the RIMP2 correlation energy:
        aaaa    correlation energy =        -0.3292300849 a.u.
        abab    correlation energy =        -1.8509878564 a.u.
        bbbb    correlation energy =        -0.3292300849 a.u.
        non-Brillouin singles      =        -0.0000000000 a.u.
        total same-spin energy     =        -0.6584601699 a.u.
        total opposite-spin energy =        -1.8509878564 a.u.

 Total  RIMP2   correlation energy =        -2.5094480262 a.u.
        RIMP2         total energy =     -1391.7652034921 a.u.

 RI-MP2 Energy Time:  CPU 196.26 s  wall 3.28 s
 
 --------------------------------------------------------------
 
                    Orbital Energies (a.u.)
 --------------------------------------------------------------
 
 Alpha MOs
 -- Occupied --
-92.0014 -91.9962 -26.3418 -20.6138 -20.5599 -11.4080 -11.3806 -11.3055
-11.2947 -11.2940 -11.2884 -11.2851 -11.2796 -11.2230  -9.0008  -8.9963
 -6.6816  -6.6808  -6.6805  -6.6773  -6.6766  -6.6755  -1.6589  -1.4662
 -1.3689  -1.2151  -1.1364  -1.0676  -1.0194  -0.9939  -0.9586  -0.9131
 -0.8640  -0.8061  -0.7895  -0.7595  -0.7301  -0.7237  -0.6950  -0.6836
 -0.6731  -0.6612  -0.6102  -0.5995  -0.5919  -0.5807  -0.5639  -0.5568
 -0.5357  -0.5300  -0.5078  -0.4897  -0.4744  -0.4720  -0.4681  -0.4471
 -0.3887  -0.3449  -0.2916
 -- Virtual --
  0.0381   0.1034   0.1351   0.1514   0.1573   0.1746   0.1865   0.1940
  0.2141   0.2153   0.2210   0.2285   0.2343   0.2408   0.2546   0.2652
  0.2948   0.3014   0.3120   0.3402   0.3445   0.3547   0.3797   0.3848
  0.3861   0.3978   0.4057   0.4155   0.4246   0.4303   0.4365   0.4391
  0.4600   0.4682   0.4724   0.4793   0.4912   0.5025   0.5091   0.5173
  0.5242   0.5327   0.5367   0.5429   0.5442   0.5604   0.5673   0.5832
  0.5892   0.5957   0.6011   0.6109   0.6150   0.6194   0.6237   0.6262
  0.6370   0.6485   0.6585   0.6660   0.6719   0.6827   0.6956   0.7081
  0.7141   0.7153   0.7254   0.7441   0.7524   0.7632   0.7754   0.8043
  0.8137   0.8177   0.8344   0.8458   0.8536   0.8681   0.8723   0.8810
  0.8848   0.8956   0.9119   0.9177   0.9406   0.9513   0.9559   0.9676
  0.9818   0.9926   1.0037   1.0090   1.0217   1.0258   1.0410   1.0566
  1.0583   1.0672   1.0937   1.0966   1.1034   1.1077   1.1169   1.1182
  1.1347   1.1478   1.1600   1.1668   1.1775   1.1881   1.2049   1.2093
  1.2281   1.2362   1.2419   1.2552   1.2673   1.2702   1.2947   1.2974
  1.3138   1.3232   1.3424   1.3569   1.3588   1.3853   1.3948   1.4033
  1.4096   1.4337   1.4372   1.4559   1.4769   1.4904   1.4955   1.5038
  1.5151   1.5266   1.5409   1.5519   1.5614   1.5798   1.5891   1.6048
  1.6187   1.6356   1.6568   1.6764   1.6799   1.6953   1.7020   1.7266
  1.7481   1.7697   1.7858   1.7943   1.8184   1.8242   1.8274   1.8594
  1.8767   1.8817   1.8949   1.9226   1.9360   1.9423   1.9571   1.9606
  1.9895   1.9947   2.0145   2.0320   2.0492   2.0842   2.0894   2.1052
  2.1079   2.1559   2.1656   2.1812   2.1969   2.1989   2.2127   2.2245
  2.2320   2.2407   2.2569   2.2732   2.2886   2.2988   2.3320   2.3402
  2.3609   2.3730   2.3814   2.4156   2.4315   2.4491   2.4752   2.4854
  2.5042   2.5353   2.5496   2.5557   2.5849   2.6001   2.6267   2.6399
  2.6428   2.6526   2.6649   2.6773   2.6796   2.6921   2.7019   2.7149
  2.7278   2.7475   2.7553   2.7693   2.7859   2.8030   2.8103   2.8269
  2.8426   2.8490   2.8719   2.8825   2.9006   2.9164   2.9241   2.9501
  2.9665   2.9786   2.9896   2.9974   3.0237   3.0277   3.0371   3.0714
  3.0749   3.0849   3.0913   3.1018   3.1050   3.1134   3.1274   3.1438
  3.1561   3.1810   3.1928   3.2069   3.2148   3.2187   3.2390   3.2482
  3.2646   3.2699   3.2715   3.2768   3.2862   3.3152   3.3265   3.3349
  3.3430   3.3497   3.3576   3.3712   3.3805   3.3931   3.4054   3.4155
  3.4232   3.4261   3.4392   3.4465   3.4638   3.4732   3.4767   3.4838
  3.5043   3.5172   3.5321   3.5410   3.5542   3.5603   3.5693   3.5828
  3.5942   3.5990   3.6036   3.6130   3.6362   3.6462   3.6527   3.6732
  3.6860   3.6953   3.6986   3.7061   3.7228   3.7297   3.7396   3.7506
  3.7658   3.7763   3.7807   3.7989   3.8069   3.8093   3.8301   3.8361
  3.8466   3.8608   3.8719   3.8817   3.8902   3.8978   3.9166   3.9192
  3.9491   3.9571   3.9676   3.9852   4.0039   4.0084   4.0358   4.0671
  4.0690   4.0716   4.0851   4.1158   4.1247   4.1487   4.1588   4.1670
  4.1767   4.2072   4.2106   4.2248   4.2484   4.2978   4.3306   4.3422
  4.3560   4.3603   4.3653   4.3811   4.3982   4.4164   4.4227   4.4367
  4.4517   4.4723   4.5112   4.5205   4.5386   4.5769   4.5810   4.5942
  4.6176   4.6425   4.6447   4.6550   4.6759   4.6834   4.7288   4.7389
  4.7672   4.7759   4.8212   4.8285   4.8458   4.8837   4.9009   4.9205
  4.9284   4.9675   4.9934   5.0094   5.0252   5.0715   5.0967   5.1177
  5.1485   5.1640   5.1967   5.2445   5.2529   5.2574   5.2711   5.3513
  5.3572   5.4017   5.4176   5.4267   5.4618   5.4854   5.5185   5.5278
  5.5385   5.5814   5.6029   5.6228   5.6620   5.6852   5.7283   5.7542
  5.8082   5.8084   5.8291   5.8910   5.9296   5.9326   5.9549   5.9822
  6.0426   6.1035   6.1511   6.1600   6.1864   6.2622   6.2782   6.4067
  6.4511   6.4540   6.5383   6.6016   6.6617   6.6724   6.7463   6.8307
  6.8607   6.9791   7.2049   7.2060   7.3110   7.3643   7.3645   7.4065
  7.4142   7.4870   7.5234   7.5508   7.6159   7.7743   7.7897   7.8947
  7.9581   8.1345   8.2186   8.9233   9.0149   9.3643   9.4680   9.6552
 10.1238  11.1015  11.6446  11.8253  12.4080  12.8075  13.0736  13.3854
 13.7695  14.0289  14.4818
 --------------------------------------------------------------
 
          Ground-State Mulliken Net Atomic Charges

     Atom                 Charge (a.u.)
  ----------------------------------------
      1 C                    -0.004373
      2 S                     0.080211
      3 C                    -0.191723
      4 C                    -0.020066
      5 C                    -0.091618
      6 S                     0.005965
      7 C                    -0.157812
      8 C                     0.390280
      9 F                    -0.207202
     10 C                     0.446634
     11 O                    -0.462926
     12 O                    -0.301177
     13 C                    -0.058437
     14 H                     0.121177
     15 H                     0.094815
     16 H                     0.094718
     17 C                    -0.362290
     18 H                     0.114692
     19 H                     0.156085
     20 H                     0.140275
     21 H                     0.212774
  ----------------------------------------
  Sum of atomic charges =     0.000000

 -----------------------------------------------------------------
                    Cartesian Multipole Moments
 -----------------------------------------------------------------
    Charge (ESU x 10^10)
                -0.0000
    Dipole Moment (Debye)
         X       0.9562      Y       0.6872      Z       2.5294
       Tot       2.7900
    Quadrupole Moments (Debye-Ang)
        XX     -93.5710     XY       5.7689     YY     -84.5268
        XZ      -4.2700     YZ      -7.0696     ZZ     -97.6544
    Octopole Moments (Debye-Ang^2)
       XXX    -127.5938    XXY     -66.7713    XYY     -39.2420
       YYY    -206.0801    XXZ      72.2536    XYZ     -13.4766
       YYZ      54.1814    XZZ      -4.4829    YZZ       1.2512
       ZZZ     268.1741
    Hexadecapole Moments (Debye-Ang^3)
      XXXX    -567.2400   XXXY    -403.1434   XXYY    -359.3297
      XYYY    -374.2086   YYYY   -1649.6053   XXXZ     384.8091
      XXYZ     210.3464   XYYZ      70.4137   YYYZ     635.5606
      XXZZ    -625.1010   XYZZ      13.0785   YYZZ    -647.0259
      XZZZ     243.7535   YZZZ     460.4033   ZZZZ   -3704.6912
 -----------------------------------------------------------------
 Total job time:  59.32s(wall), 1973.86s(cpu) 
 Tue Jan  9 10:14:51 2024

        *************************************************************
        *                                                           *
        *  Thank you very much for using Q-Chem.  Have a nice day.  *
        *                                                           *
        *************************************************************


0 sent ACK to 0 
now end server 0 ... 
cleanup process ... done
remove work dirs ./qchem964681.0 -- ./qchem964681.0
rm -rf ./qchem964681.0
rm -rf ./qchem964681
