You are running Q-Chem version: 5.4.0

#
# job setting
#
local host:  exp-7-24
current dir: /home/rramji/project-csd799/aromodel/ptb7fout-qchem/methylated-rotation-run
input file:  Dimethoxy_Benzodithiophene_Phi_25_Theta_300_Methylcarbonyl_3_Fluoro_Thienothiophene_Hydrogenated_Improper.qcin
output file: 
nprocs     : 1
nthreads   : 64
#
# qchem installation setting
#
QC:          /cm/shared/apps/spack/cpu/opt/spack/linux-centos8-zen2/gcc-10.2.0/qchem-5.4-akfmr7b3t57bfs6qan3padb2wnb2i7cl
QCAUX:       /cm/shared/apps/spack/cpu/opt/spack/linux-centos8-zen2/gcc-10.2.0/qchem-5.4-akfmr7b3t57bfs6qan3padb2wnb2i7cl/qcaux
QCPROG:      /cm/shared/apps/spack/cpu/opt/spack/linux-centos8-zen2/gcc-10.2.0/qchem-5.4-akfmr7b3t57bfs6qan3padb2wnb2i7cl/exe/qcprog.exe
QCPROG_S:    /cm/shared/apps/spack/cpu/opt/spack/linux-centos8-zen2/gcc-10.2.0/qchem-5.4-akfmr7b3t57bfs6qan3padb2wnb2i7cl/exe/qcprog.exe_s
PARALLEL:    -DPARALLEL
QCMPI:       mpich
#
# qchem directory setting
#
qcrun:       qchem1275603
QCSCRATCH:   .
QCLOCALSCR:  
QCTMPDIR:    .
QCFILEPREF:  ./qchem1275603
QCSAVEDIR:   
workdirs:    ./qchem1275603
workdir0:    ./qchem1275603
partmpdirs =  
#
# parallel setting
#
QCRSH:           ssh
QCMPI:           mpich
QCMPIRUN:        /cm/shared/apps/spack/cpu/opt/spack/linux-centos8-zen2/gcc-10.2.0/qchem-5.4-akfmr7b3t57bfs6qan3padb2wnb2i7cl/bin/mpi/mpirun_qchem
QCMACHINEFILE:   ./qchem1275603/hostfile
exp-7-24

#
# env setting
#
exported envs:   QC QCAUX QCSCRATCH QCRUNNAME QCFILEPREF QCPROG QCPROG_S GUIFILE

Running Job 1 of 1 Dimethoxy_Benzodithiophene_Phi_25_Theta_300_Methylcarbonyl_3_Fluoro_Thienothiophene_Hydrogenated_Improper.qcin
qchem Dimethoxy_Benzodithiophene_Phi_25_Theta_300_Methylcarbonyl_3_Fluoro_Thienothiophene_Hydrogenated_Improper.qcin_1275603.0 ./qchem1275603/ 1
/cm/shared/apps/spack/cpu/opt/spack/linux-centos8-zen2/gcc-10.2.0/qchem-5.4-akfmr7b3t57bfs6qan3padb2wnb2i7cl/bin/mpi/mpirun_qchem -machinefile ./qchem1275603/hostfile -np 1 /cm/shared/apps/spack/cpu/opt/spack/linux-centos8-zen2/gcc-10.2.0/qchem-5.4-akfmr7b3t57bfs6qan3padb2wnb2i7cl/exe/qcprog.exe Dimethoxy_Benzodithiophene_Phi_25_Theta_300_Methylcarbonyl_3_Fluoro_Thienothiophene_Hydrogenated_Improper.qcin_1275603.0 ./qchem1275603/

Process 0 of 1 is on exp-7-24 - thread support 0
initial socket setup ...start
initial socket setup ...done 
now start server 0 ... 
                  Welcome to Q-Chem
     A Quantum Leap Into The Future Of Chemistry


 Q-Chem 5.4, Q-Chem, Inc., Pleasanton, CA (2021)

 License issued to: University of California, San Diego (site)

 E. Epifanovsky,  A. T. B. Gilbert,  Xintian Feng,  Joonho Lee,  Yuezhi Mao,  
 N. Mardirossian,  P. Pokhilko,  A. White,  M. Wormit,  M. P. Coons,  
 A. L. Dempwolff,  Zhengting Gan,  D. Hait,  P. R. Horn,  L. D. Jacobson,  
 I. Kaliman,  J. Kussmann,  A. W. Lange,  Ka Un Lao,  D. S. Levine,  Jie Liu,  
 S. C. McKenzie,  A. F. Morrison,  K. Nanda,  F. Plasser,  D. R. Rehn,  
 M. L. Vidal,  Zhi-Qiang You,  Ying Zhu,  B. Alam,  B. Albrecht,  
 A. Aldossary,  E. Alguire,  J. H. Andersen,  D. Barton,  K. Begam,  A. Behn,  
 Y. A. Bernard,  E. J. Berquist,  H. Burton,  A. Carreras,  K. Carter-Fenk,  
 R. Chakraborty,  A. D. Chien,  K. D. Closser,  V. Cofer-Shabica,  
 S. Dasgupta,  Jia Deng,  M. de Wergifosse,  M. Diedenhofen,  Hainam Do,  
 S. Ehlert,  Po-Tung Fang,  S. Fatehi,  Qingguo Feng,  J. Gayvert,  
 Qinghui Ge,  G. Gidofalvi,  M. Goldey,  J. Gomes,  C. Gonzalez-Espinoza,  
 S. Gulania,  A. Gunina,  M. W. D. Hanson-Heine,  P. H. P. Harbach,  
 A. W. Hauser,  M. F. Herbst,  M. Hernandez Vera,  M. Hodecker,  
 Z. C. Holden,  S. Houck,  Xunkun Huang,  Kerwin Hui,  B. C. Huynh,  
 M. Ivanov,  Hyunjun Ji,  Hanjie Jiang,  B. Kaduk,  S. Kaehler,  
 K. Khistyaev,  Jaehoon Kim,  P. Klunzinger,  Z. Koczor-Benda,  
 Joong Hoon Koh,  D. Kosenkov,  L. Koulias,  T. Kowalczyk,  C. M. Krauter,  
 K. Kue,  A. Kunitsa,  T. Kus,  A. Landau,  K. V. Lawler,  D. Lefrancois,  
 S. Lehtola,  Rain Li,  Yi-Pei Li,  Jiashu Liang,  M. Liebenthal,  
 Hung-Hsuan Lin,  You-Sheng Lin,  Fenglai Liu,  Kuan-Yu Liu,  
 M. Loipersberger,  A. Luenser,  A. Manjanath,  P. Manohar,  E. Mansoor,  
 S. F. Manzer,  Shan-Ping Mao,  A. V. Marenich,  T. Markovich,  S. Mason,  
 S. A. Maurer,  P. F. McLaughlin,  M. F. S. J. Menger,  J.-M. Mewes,  
 S. A. Mewes,  P. Morgante,  J. W. Mullinax,  T. S. Nguyen-Beck,  
 K. J. Oosterbaan,  G. Paran,  Alexander C. Paul,  Suranjan K. Paul,  
 F. Pavosevic,  Zheng Pei,  S. Prager,  E. I. Proynov,  E. Ramos,  B. Rana,  
 A. E. Rask,  A. Rettig,  R. M. Richard,  F. Rob,  E. Rossomme,  T. Scheele,  
 M. Scheurer,  M. Schneider,  N. Sergueev,  S. M. Sharada,  W. Skomorowski,  
 D. W. Small,  C. J. Stein,  Yu-Chuan Su,  E. J. Sundstrom,  Zhen Tao,  
 J. Thirman,  T. Tsuchimochi,  N. M. Tubman,  S. P. Veccham,  O. Vydrov,  
 J. Wenzel,  J. Witte,  A. Yamada,  Kun Yao,  S. Yeganeh,  S. R. Yost,  
 A. Zech,  Igor Ying Zhang,  Xing Zhang,  Yu Zhang,  D. Zuev,  
 A. Aspuru-Guzik,  A. T. Bell,  N. A. Besley,  K. B. Bravaya,  B. R. Brooks,  
 D. Casanova,  Jeng-Da Chai,  S. Coriani,  C. J. Cramer,  
 A. E. DePrince, III,  R. A. DiStasio Jr.,  A. Dreuw,  B. D. Dunietz,  
 T. R. Furlani,  W. A. Goddard III,  S. Grimme,  S. Hammes-Schiffer,  
 T. Head-Gordon,  W. J. Hehre,  Chao-Ping Hsu,  T.-C. Jagau,  Yousung Jung,  
 A. Klamt,  Jing Kong,  D. S. Lambrecht,  WanZhen Liang,  N. J. Mayhall,  
 C. W. McCurdy,  J. B. Neaton,  C. Ochsenfeld,  J. A. Parkhill,  R. Peverati,  
 V. A. Rassolov,  Yihan Shao,  L. V. Slipchenko,  T. Stauch,  R. P. Steele,  
 J. E. Subotnik,  A. J. W. Thom,  A. Tkatchenko,  D. G. Truhlar,  
 T. Van Voorhis,  T. A. Wesolowski,  K. B. Whaley,  H. L. Woodcock III,  
 P. M. Zimmerman,  S. Faraji,  P. M. W. Gill,  M. Head-Gordon,  
 J. M. Herbert,  A. I. Krylov

 Contributors to earlier versions of Q-Chem not listed above: 
 R. D. Adamson,  B. Austin,  R. Baer,  J. Baker,  G. J. O. Beran,  
 K. Brandhorst,  S. T. Brown,  E. F. C. Byrd,  A. K. Chakraborty,  
 G. K. L. Chan,  Chun-Min Chang,  Yunqing Chen,  C.-L. Cheng,  
 Siu Hung Chien,  D. M. Chipman,  D. L. Crittenden,  H. Dachsel,  
 R. J. Doerksen,  A. D. Dutoi,  R. G. Edgar,  J. Fosso-Tande,  
 L. Fusti-Molnar,  D. Ghosh,  A. Ghysels,  A. Golubeva-Zadorozhnaya,  
 J. Gonthier,  M. S. Gordon,  S. R. Gwaltney,  G. Hawkins,  J. E. Herr,  
 A. Heyden,  S. Hirata,  E. G. Hohenstein,  G. Kedziora,  F. J. Keil,  
 C. Kelley,  Jihan Kim,  R. A. King,  R. Z. Khaliullin,  P. P. Korambath,  
 W. Kurlancheek,  A. Laurent,  A. M. Lee,  M. S. Lee,  S. V. Levchenko,  
 Ching Yeh Lin,  D. Liotard,  E. Livshits,  R. C. Lochan,  I. Lotan,  
 L. A. Martinez-Martinez,  P. E. Maslen,  N. Nair,  D. P. O'Neill,  
 D. Neuhauser,  E. Neuscamman,  C. M. Oana,  R. Olivares-Amaya,  R. Olson,  
 T. M. Perrine,  B. Peters,  P. A. Pieniazek,  A. Prociuk,  Y. M. Rhee,  
 J. Ritchie,  M. A. Rohrdanz,  E. Rosta,  N. J. Russ,  H. F. Schaefer III,  
 M. W. Schmidt,  N. E. Schultz,  S. Sharma,  N. Shenvi,  C. D. Sherrill,  
 A. C. Simmonett,  A. Sodt,  T. Stein,  D. Stuck,  K. S. Thanthiriwatte,  
 V. Vanovschi,  L. Vogt,  Tao Wang,  A. Warshel,  M. A. Watson,  
 C. F. Williams,  Q. Wu,  X. Xu,  Jun Yang,  W. Zhang,  Yan Zhao

 Please cite Q-Chem as follows:
 Y. Shao et al., Mol. Phys. 113, 184-215 (2015)
 DOI: 10.1080/00268976.2014.952696

 Q-Chem 5.4.0 for Intel X86 EM64T Linux

 Parts of Q-Chem use Armadillo 9.800.1 (Horizon Scraper).
 http://arma.sourceforge.net/

 Q-Chem begins on Tue Jan  9 10:22:35 2024  

 Host: 
0

     Scratch files written to ./qchem1275603//
 May1621 |scratch|qcdevops|jenkins|workspace|build_RNUM    
 Parallel job on  1  processors
 Processing $rem in /cm/shared/apps/spack/cpu/opt/spack/linux-centos8-zen2/gcc-10.2.0/qchem-5.4-akfmr7b3t57bfs6qan3padb2wnb2i7cl/config/preferences:
 Processing $rem in /home/rramji/.qchemrc:
 Symmetry turned off for PCM/SM12/SMD calculation
 Core orbitals will be frozen

 Checking the input file for inconsistencies... 	...done.

 Q-Chem warning in module forms1/BasisType.C, line 2236:

 You are not using the predefined 5D/6D in this basis set.


--------------------------------------------------------------
User input:
--------------------------------------------------------------
$molecule
0 1
C	-0.440491	-0.893839	0.978067
S	-0.057691	-0.074039	2.485567
C	0.606209	1.351461	1.696967
C	-0.057591	-0.074439	-0.089833
C	0.527809	1.186461	0.291667
S	-0.157891	-0.296439	-1.827433
C	0.577309	1.293461	-2.076433
C	0.874509	1.936461	-0.884533
F	1.435009	3.149961	-0.841033
C	0.768409	1.698761	-3.478033
O	0.450309	0.997661	-4.428433
O	1.332409	2.925861	-3.591133
C	1.546409	3.372361	-4.938133
H	2.005309	4.373161	-4.855033
H	0.587609	3.429561	-5.492133
H	2.220609	2.679661	-5.481233
C	-0.440491	-2.329039	0.978067
H	0.093009	-2.337039	0.039067
H	0.287709	-3.006939	1.398167
H	-1.258191	-2.860139	0.513667
H	0.995509	2.189761	2.284567
$end

$rem
JOBTYPE		SP
EXCHANGE	HF
CORRELATION	pRIMP2
BASIS		cc-pvtz
METHOD		rimp2
AUX_BASIS	rimp2-cc-pvtz
SOLVENT_METHOD	PCM
PURECART	11111
SYMMETRY	false
MEM_TOTAL	110000
SCF_CONVERGENCE = 6
THRESH=10
GUI = 2
$end



$solvent
dielectric 4.90
$end
--------------------------------------------------------------
 ----------------------------------------------------------------
             Standard Nuclear Orientation (Angstroms)
    I     Atom           X                Y                Z
 ----------------------------------------------------------------
    1      C      -0.4404910000    -0.8938390000     0.9780670000
    2      S      -0.0576910000    -0.0740390000     2.4855670000
    3      C       0.6062090000     1.3514610000     1.6969670000
    4      C      -0.0575910000    -0.0744390000    -0.0898330000
    5      C       0.5278090000     1.1864610000     0.2916670000
    6      S      -0.1578910000    -0.2964390000    -1.8274330000
    7      C       0.5773090000     1.2934610000    -2.0764330000
    8      C       0.8745090000     1.9364610000    -0.8845330000
    9      F       1.4350090000     3.1499610000    -0.8410330000
   10      C       0.7684090000     1.6987610000    -3.4780330000
   11      O       0.4503090000     0.9976610000    -4.4284330000
   12      O       1.3324090000     2.9258610000    -3.5911330000
   13      C       1.5464090000     3.3723610000    -4.9381330000
   14      H       2.0053090000     4.3731610000    -4.8550330000
   15      H       0.5876090000     3.4295610000    -5.4921330000
   16      H       2.2206090000     2.6796610000    -5.4812330000
   17      C      -0.4404910000    -2.3290390000     0.9780670000
   18      H       0.0930090000    -2.3370390000     0.0390670000
   19      H       0.2877090000    -3.0069390000     1.3981670000
   20      H      -1.2581910000    -2.8601390000     0.5136670000
   21      H       0.9955090000     2.1897610000     2.2845670000
 ----------------------------------------------------------------
 Nuclear Repulsion Energy =        1085.31526162 hartrees
 There are       59 alpha and       59 beta electrons
 Requested basis set is cc-pVTZ
 There are 186 shells and 526 basis functions

 Total QAlloc Memory Limit 110000 MB
 Mega-Array Size       188 MB
 MEM_STATIC part       192 MB
 Discretize the solute cavity surface with Lebedev spheres
	Using 110 Lebedev grid points for each H atom
	Using 194 Lebedev grid points for other atoms
	Atomic van der Waals radii will be scaled by 1.20
 Remove points where switching function is < 1.0e-08
 Keep 1548 surface tesserae and discard 1938 interior tesserae
 Molecular Surface Area = 241.965 Angst**2
 Requested basis set is rimp2-cc-pVTZ
 There are 410 shells and 1426 basis functions
 A cutoff of  1.0D-10 yielded  11599 shell pairs
 There are     90893 function pairs (    118917 Cartesian)
 Smallest overlap matrix eigenvalue = 6.23E-05

 Scale SEOQF with 1.000000e-01/1.000000e-01/1.000000e-02

 Standard Electronic Orientation quadrupole field applied
 Nucleus-field energy     =     0.0000000234 hartrees
 Guess from superposition of atomic densities
 Warning:  Energy on first SCF cycle will be non-variational
 SAD guess density has 118.000000 electrons

 -----------------------------------------------------------------------
  General SCF calculation program by
  Eric Jon Sundstrom, Paul Horn, Yuezhi Mao, Dmitri Zuev, Alec White,
  David Stuck, Shaama M.S., Shane Yost, Joonho Lee, David Small,
  Daniel Levine, Susi Lehtola, Hugh Burton, Evgeny Epifanovsky,
  Bang C. Huynh
 -----------------------------------------------------------------------
 Hartree-Fock
 using 64 threads for integral computing
 -------------------------------------------------------
 OpenMP Integral computing Module                
 Release: version 1.0, May 2013, Q-Chem Inc. Pittsburgh 
 -------------------------------------------------------
 A restricted SCF calculation will be
 performed using DIIS
 SCF converges when DIIS error is below 1.0e-06
 ---------------------------------------
  Cycle       Energy         DIIS error
 ---------------------------------------
    1   -1394.2645579780      2.47e-02  
    2   -1389.0224127974      2.47e-03  
    3   -1389.1923698277      1.54e-03  
    4   -1389.2522340094      3.53e-04  
    5   -1389.2579982427      1.12e-04  
    6   -1389.2586730729      3.61e-05  
    7   -1389.2588173219      1.82e-05  
    8   -1389.2588673106      7.06e-06  
    9   -1389.2588780825      3.03e-06  
   10   -1389.2588795720      1.14e-06  
   11   -1389.2588797961      4.73e-07  Convergence criterion met
 ---------------------------------------
 SCF time:   CPU 1702.74s  wall 50.00s 

************** Final PCM Free Energy Summary **************
 G_electrostatic  =      -0.01144159 hartree =      -7.17970421 kcal/mol
 G_cavitation     =       0.00000000 hartree =       0.00000000 kcal/mol
 G_dispersion     =       0.00000000 hartree =       0.00000000 kcal/mol
 G_repulsion      =       0.00000000 hartree =       0.00000000 kcal/mol
 --------------------------------------------------
 Non-electrostatic Free Energy =       0.00000000 hartree =       0.00000000 kcal/mol
 Total                         =      -0.01144159 hartree =      -7.17970421 kcal/mol
 --------------------------------------------------
 SCF Energy (H0 + V/2)                       =   -1389.25887980 
 Solute Internal Energy (H0)                 =   -1389.24743821 
 Total Free Energy (H0 + V/2 + non-elec)     =   -1389.25887980 hartree
                                             = -871773.10474289 kcal/mol
***********************************************************

 SCF   energy in the final basis set =    -1389.2588797961
 Total energy in the final basis set =    -1389.2588797961


 --------------------------------------------------------------
  Generalized many-body perturbation theory program
  by Joonho Lee, Fazle Rob, Xintian Feng, Evgeny Epifanovsky

 No regularization used 
 (reg. param. = 0.0000e+00)
  (P|Q)^-1/2 Time:  CPU 54.22 s  wall 0.97 s

 In RI-MP2 calculation: 
 # of frozen core orbitals: 22

 Components of the RIMP2 correlation energy:
        aaaa    correlation energy =        -0.3291948472 a.u.
        abab    correlation energy =        -1.8505424474 a.u.
        bbbb    correlation energy =        -0.3291948472 a.u.
        non-Brillouin singles      =        -0.0000000000 a.u.
        total same-spin energy     =        -0.6583896943 a.u.
        total opposite-spin energy =        -1.8505424474 a.u.

 Total  RIMP2   correlation energy =        -2.5089321417 a.u.
        RIMP2         total energy =     -1391.7678119378 a.u.

 RI-MP2 Energy Time:  CPU 223.92 s  wall 4.25 s
 
 --------------------------------------------------------------
 
                    Orbital Energies (a.u.)
 --------------------------------------------------------------
 
 Alpha MOs
 -- Occupied --
-92.0045 -91.9954 -26.3416 -20.6138 -20.5598 -11.4079 -11.3802 -11.3009
-11.2947 -11.2915 -11.2889 -11.2883 -11.2792 -11.2241  -9.0034  -8.9955
 -6.6842  -6.6835  -6.6831  -6.6766  -6.6759  -6.6747  -1.6587  -1.4662
 -1.3688  -1.2146  -1.1367  -1.0683  -1.0191  -0.9938  -0.9585  -0.9124
 -0.8638  -0.8056  -0.7894  -0.7594  -0.7300  -0.7235  -0.6946  -0.6836
 -0.6730  -0.6610  -0.6076  -0.6013  -0.5915  -0.5863  -0.5648  -0.5588
 -0.5319  -0.5301  -0.5080  -0.4882  -0.4734  -0.4719  -0.4648  -0.4572
 -0.3872  -0.3438  -0.2912
 -- Virtual --
  0.0392   0.1089   0.1401   0.1517   0.1574   0.1770   0.1859   0.1934
  0.2080   0.2149   0.2166   0.2272   0.2337   0.2398   0.2504   0.2740
  0.2937   0.3040   0.3092   0.3390   0.3433   0.3549   0.3791   0.3820
  0.3851   0.3956   0.4054   0.4116   0.4213   0.4304   0.4413   0.4455
  0.4607   0.4621   0.4750   0.4832   0.5009   0.5056   0.5074   0.5105
  0.5286   0.5351   0.5417   0.5447   0.5509   0.5648   0.5667   0.5775
  0.5889   0.6016   0.6025   0.6104   0.6157   0.6214   0.6228   0.6321
  0.6420   0.6455   0.6550   0.6590   0.6684   0.6885   0.6896   0.7072
  0.7146   0.7195   0.7335   0.7361   0.7525   0.7644   0.7742   0.8056
  0.8111   0.8206   0.8268   0.8438   0.8442   0.8638   0.8721   0.8786
  0.8839   0.8875   0.8972   0.9223   0.9436   0.9507   0.9562   0.9745
  0.9786   0.9874   1.0006   1.0115   1.0225   1.0368   1.0436   1.0576
  1.0740   1.0798   1.0814   1.0964   1.1025   1.1090   1.1133   1.1254
  1.1309   1.1555   1.1692   1.1758   1.1874   1.1915   1.2057   1.2150
  1.2184   1.2332   1.2436   1.2521   1.2568   1.2796   1.2810   1.2980
  1.3092   1.3285   1.3319   1.3546   1.3690   1.3785   1.3932   1.4036
  1.4151   1.4232   1.4475   1.4509   1.4734   1.4930   1.5028   1.5086
  1.5135   1.5358   1.5434   1.5545   1.5620   1.5678   1.5815   1.6011
  1.6114   1.6415   1.6487   1.6591   1.6689   1.6792   1.7085   1.7339
  1.7451   1.7870   1.7923   1.8068   1.8149   1.8299   1.8362   1.8525
  1.8756   1.8797   1.9013   1.9196   1.9316   1.9432   1.9514   1.9616
  1.9856   2.0026   2.0125   2.0397   2.0558   2.0748   2.0887   2.1062
  2.1190   2.1578   2.1718   2.1875   2.1936   2.1991   2.2184   2.2329
  2.2363   2.2440   2.2604   2.2846   2.2942   2.3145   2.3221   2.3365
  2.3670   2.3715   2.4012   2.4094   2.4327   2.4402   2.4842   2.4914
  2.5279   2.5403   2.5506   2.5623   2.5777   2.6011   2.6222   2.6285
  2.6411   2.6486   2.6591   2.6705   2.6848   2.7012   2.7071   2.7170
  2.7314   2.7521   2.7621   2.7795   2.7872   2.7888   2.8107   2.8186
  2.8361   2.8561   2.8593   2.8646   2.8869   2.9129   2.9335   2.9508
  2.9559   2.9611   2.9786   2.9889   3.0206   3.0239   3.0487   3.0545
  3.0758   3.0887   3.0938   3.1020   3.1204   3.1279   3.1334   3.1417
  3.1535   3.1689   3.1972   3.2149   3.2191   3.2231   3.2414   3.2490
  3.2646   3.2698   3.2792   3.2810   3.3106   3.3137   3.3182   3.3295
  3.3321   3.3525   3.3613   3.3661   3.3793   3.4008   3.4040   3.4167
  3.4249   3.4337   3.4459   3.4505   3.4679   3.4805   3.4866   3.4982
  3.5017   3.5116   3.5183   3.5505   3.5536   3.5592   3.5746   3.5784
  3.5939   3.5999   3.6066   3.6164   3.6369   3.6431   3.6562   3.6593
  3.6818   3.6872   3.6925   3.7059   3.7099   3.7306   3.7326   3.7418
  3.7617   3.7783   3.7834   3.7995   3.8058   3.8186   3.8231   3.8399
  3.8480   3.8712   3.8775   3.8797   3.8917   3.9124   3.9172   3.9356
  3.9403   3.9530   3.9609   3.9944   4.0081   4.0204   4.0280   4.0362
  4.0687   4.0790   4.0891   4.0988   4.1265   4.1513   4.1669   4.1692
  4.1909   4.2001   4.2074   4.2375   4.2598   4.2789   4.3120   4.3385
  4.3423   4.3595   4.3638   4.3685   4.3839   4.3962   4.4089   4.4246
  4.4370   4.4885   4.5151   4.5316   4.5437   4.5640   4.5877   4.5955
  4.6041   4.6408   4.6494   4.6650   4.6799   4.7174   4.7378   4.7542
  4.7782   4.7843   4.8129   4.8332   4.8555   4.8621   4.9067   4.9164
  4.9350   4.9789   4.9976   5.0094   5.0450   5.0598   5.1078   5.1156
  5.1489   5.1593   5.2032   5.2520   5.2556   5.2608   5.3248   5.3519
  5.3568   5.3831   5.4036   5.4268   5.4341   5.4854   5.4909   5.5215
  5.5370   5.5823   5.5980   5.6229   5.6568   5.7005   5.7318   5.7655
  5.8085   5.8119   5.8482   5.8558   5.9123   5.9303   5.9768   5.9951
  6.0431   6.0518   6.1511   6.1590   6.1877   6.2622   6.2831   6.3645
  6.4345   6.4513   6.5385   6.6018   6.6619   6.6725   6.7466   6.8308
  6.8608   6.9791   7.2049   7.2059   7.3111   7.3643   7.3647   7.4069
  7.4143   7.4873   7.5225   7.5511   7.6156   7.7746   7.7888   7.8877
  7.9515   8.1329   8.1636   8.9236   9.0121   9.3645   9.4623   9.6492
 10.0832  11.0934  11.6293  11.8112  12.4066  12.9222  13.0974  13.3857
 13.7724  14.0309  14.3944
 --------------------------------------------------------------
 
          Ground-State Mulliken Net Atomic Charges

     Atom                 Charge (a.u.)
  ----------------------------------------
      1 C                     0.009991
      2 S                     0.080461
      3 C                    -0.203720
      4 C                    -0.017314
      5 C                    -0.087346
      6 S                     0.000316
      7 C                    -0.157325
      8 C                     0.387664
      9 F                    -0.207292
     10 C                     0.446731
     11 O                    -0.462864
     12 O                    -0.301125
     13 C                    -0.058471
     14 H                     0.121174
     15 H                     0.094840
     16 H                     0.094687
     17 C                    -0.375279
     18 H                     0.122358
     19 H                     0.163105
     20 H                     0.137204
     21 H                     0.212205
  ----------------------------------------
  Sum of atomic charges =     0.000000

 -----------------------------------------------------------------
                    Cartesian Multipole Moments
 -----------------------------------------------------------------
    Charge (ESU x 10^10)
                -0.0000
    Dipole Moment (Debye)
         X       1.3147      Y       0.5550      Z       2.6113
       Tot       2.9758
    Quadrupole Moments (Debye-Ang)
        XX     -94.9070     XY       3.4129     YY     -83.5961
        XZ      -2.5971     YZ      -7.8319     ZZ     -97.5505
    Octopole Moments (Debye-Ang^2)
       XXX    -109.1983    XXY     -70.0876    XYY     -28.7964
       YYY    -216.2770    XXZ      73.5192    XYZ     -15.8510
       YYZ      52.4138    XZZ      -2.6759    YZZ       0.3629
       ZZZ     269.1686
    Hexadecapole Moments (Debye-Ang^3)
      XXXX    -437.8493   XXXY    -356.4429   XXYY    -368.3975
      XYYY    -334.4521   YYYY   -1770.4605   XXXZ     328.6906
      XXYZ     233.1898   XYYZ      65.4912   YYYZ     647.5835
      XXZZ    -629.4707   XYZZ       6.9399   YYZZ    -644.0679
      XZZZ     204.7406   YZZZ     478.7500   ZZZZ   -3701.3377
 -----------------------------------------------------------------
 Total job time:  57.25s(wall), 2017.74s(cpu) 
 Tue Jan  9 10:23:32 2024

        *************************************************************
        *                                                           *
        *  Thank you very much for using Q-Chem.  Have a nice day.  *
        *                                                           *
        *************************************************************


0 sent ACK to 0 
now end server 0 ... 
cleanup process ... done
remove work dirs ./qchem1275603.0 -- ./qchem1275603.0
rm -rf ./qchem1275603.0
rm -rf ./qchem1275603
