You are running Q-Chem version: 5.4.0

#
# job setting
#
local host:  exp-14-05
current dir: /home/rramji/project-csd799/aromodel/ptb7fout-qchem/methylated-rotation-run
input file:  Dimethoxy_Benzodithiophene_Phi_60_Theta_320_Methylcarbonyl_3_Fluoro_Thienothiophene_Hydrogenated_Improper.qcin
output file: 
nprocs     : 1
nthreads   : 64
#
# qchem installation setting
#
QC:          /cm/shared/apps/spack/cpu/opt/spack/linux-centos8-zen2/gcc-10.2.0/qchem-5.4-akfmr7b3t57bfs6qan3padb2wnb2i7cl
QCAUX:       /cm/shared/apps/spack/cpu/opt/spack/linux-centos8-zen2/gcc-10.2.0/qchem-5.4-akfmr7b3t57bfs6qan3padb2wnb2i7cl/qcaux
QCPROG:      /cm/shared/apps/spack/cpu/opt/spack/linux-centos8-zen2/gcc-10.2.0/qchem-5.4-akfmr7b3t57bfs6qan3padb2wnb2i7cl/exe/qcprog.exe
QCPROG_S:    /cm/shared/apps/spack/cpu/opt/spack/linux-centos8-zen2/gcc-10.2.0/qchem-5.4-akfmr7b3t57bfs6qan3padb2wnb2i7cl/exe/qcprog.exe_s
PARALLEL:    -DPARALLEL
QCMPI:       mpich
#
# qchem directory setting
#
qcrun:       qchem2536025
QCSCRATCH:   .
QCLOCALSCR:  
QCTMPDIR:    .
QCFILEPREF:  ./qchem2536025
QCSAVEDIR:   
workdirs:    ./qchem2536025
workdir0:    ./qchem2536025
partmpdirs =  
#
# parallel setting
#
QCRSH:           ssh
QCMPI:           mpich
QCMPIRUN:        /cm/shared/apps/spack/cpu/opt/spack/linux-centos8-zen2/gcc-10.2.0/qchem-5.4-akfmr7b3t57bfs6qan3padb2wnb2i7cl/bin/mpi/mpirun_qchem
QCMACHINEFILE:   ./qchem2536025/hostfile
exp-14-05

#
# env setting
#
exported envs:   QC QCAUX QCSCRATCH QCRUNNAME QCFILEPREF QCPROG QCPROG_S GUIFILE

Running Job 1 of 1 Dimethoxy_Benzodithiophene_Phi_60_Theta_320_Methylcarbonyl_3_Fluoro_Thienothiophene_Hydrogenated_Improper.qcin
qchem Dimethoxy_Benzodithiophene_Phi_60_Theta_320_Methylcarbonyl_3_Fluoro_Thienothiophene_Hydrogenated_Improper.qcin_2536025.0 ./qchem2536025/ 1
/cm/shared/apps/spack/cpu/opt/spack/linux-centos8-zen2/gcc-10.2.0/qchem-5.4-akfmr7b3t57bfs6qan3padb2wnb2i7cl/bin/mpi/mpirun_qchem -machinefile ./qchem2536025/hostfile -np 1 /cm/shared/apps/spack/cpu/opt/spack/linux-centos8-zen2/gcc-10.2.0/qchem-5.4-akfmr7b3t57bfs6qan3padb2wnb2i7cl/exe/qcprog.exe Dimethoxy_Benzodithiophene_Phi_60_Theta_320_Methylcarbonyl_3_Fluoro_Thienothiophene_Hydrogenated_Improper.qcin_2536025.0 ./qchem2536025/

Process 0 of 1 is on exp-14-05 - thread support 0
initial socket setup ...start
initial socket setup ...done 
now start server 0 ... 
                  Welcome to Q-Chem
     A Quantum Leap Into The Future Of Chemistry


 Q-Chem 5.4, Q-Chem, Inc., Pleasanton, CA (2021)

 License issued to: University of California, San Diego (site)

 E. Epifanovsky,  A. T. B. Gilbert,  Xintian Feng,  Joonho Lee,  Yuezhi Mao,  
 N. Mardirossian,  P. Pokhilko,  A. White,  M. Wormit,  M. P. Coons,  
 A. L. Dempwolff,  Zhengting Gan,  D. Hait,  P. R. Horn,  L. D. Jacobson,  
 I. Kaliman,  J. Kussmann,  A. W. Lange,  Ka Un Lao,  D. S. Levine,  Jie Liu,  
 S. C. McKenzie,  A. F. Morrison,  K. Nanda,  F. Plasser,  D. R. Rehn,  
 M. L. Vidal,  Zhi-Qiang You,  Ying Zhu,  B. Alam,  B. Albrecht,  
 A. Aldossary,  E. Alguire,  J. H. Andersen,  D. Barton,  K. Begam,  A. Behn,  
 Y. A. Bernard,  E. J. Berquist,  H. Burton,  A. Carreras,  K. Carter-Fenk,  
 R. Chakraborty,  A. D. Chien,  K. D. Closser,  V. Cofer-Shabica,  
 S. Dasgupta,  Jia Deng,  M. de Wergifosse,  M. Diedenhofen,  Hainam Do,  
 S. Ehlert,  Po-Tung Fang,  S. Fatehi,  Qingguo Feng,  J. Gayvert,  
 Qinghui Ge,  G. Gidofalvi,  M. Goldey,  J. Gomes,  C. Gonzalez-Espinoza,  
 S. Gulania,  A. Gunina,  M. W. D. Hanson-Heine,  P. H. P. Harbach,  
 A. W. Hauser,  M. F. Herbst,  M. Hernandez Vera,  M. Hodecker,  
 Z. C. Holden,  S. Houck,  Xunkun Huang,  Kerwin Hui,  B. C. Huynh,  
 M. Ivanov,  Hyunjun Ji,  Hanjie Jiang,  B. Kaduk,  S. Kaehler,  
 K. Khistyaev,  Jaehoon Kim,  P. Klunzinger,  Z. Koczor-Benda,  
 Joong Hoon Koh,  D. Kosenkov,  L. Koulias,  T. Kowalczyk,  C. M. Krauter,  
 K. Kue,  A. Kunitsa,  T. Kus,  A. Landau,  K. V. Lawler,  D. Lefrancois,  
 S. Lehtola,  Rain Li,  Yi-Pei Li,  Jiashu Liang,  M. Liebenthal,  
 Hung-Hsuan Lin,  You-Sheng Lin,  Fenglai Liu,  Kuan-Yu Liu,  
 M. Loipersberger,  A. Luenser,  A. Manjanath,  P. Manohar,  E. Mansoor,  
 S. F. Manzer,  Shan-Ping Mao,  A. V. Marenich,  T. Markovich,  S. Mason,  
 S. A. Maurer,  P. F. McLaughlin,  M. F. S. J. Menger,  J.-M. Mewes,  
 S. A. Mewes,  P. Morgante,  J. W. Mullinax,  T. S. Nguyen-Beck,  
 K. J. Oosterbaan,  G. Paran,  Alexander C. Paul,  Suranjan K. Paul,  
 F. Pavosevic,  Zheng Pei,  S. Prager,  E. I. Proynov,  E. Ramos,  B. Rana,  
 A. E. Rask,  A. Rettig,  R. M. Richard,  F. Rob,  E. Rossomme,  T. Scheele,  
 M. Scheurer,  M. Schneider,  N. Sergueev,  S. M. Sharada,  W. Skomorowski,  
 D. W. Small,  C. J. Stein,  Yu-Chuan Su,  E. J. Sundstrom,  Zhen Tao,  
 J. Thirman,  T. Tsuchimochi,  N. M. Tubman,  S. P. Veccham,  O. Vydrov,  
 J. Wenzel,  J. Witte,  A. Yamada,  Kun Yao,  S. Yeganeh,  S. R. Yost,  
 A. Zech,  Igor Ying Zhang,  Xing Zhang,  Yu Zhang,  D. Zuev,  
 A. Aspuru-Guzik,  A. T. Bell,  N. A. Besley,  K. B. Bravaya,  B. R. Brooks,  
 D. Casanova,  Jeng-Da Chai,  S. Coriani,  C. J. Cramer,  
 A. E. DePrince, III,  R. A. DiStasio Jr.,  A. Dreuw,  B. D. Dunietz,  
 T. R. Furlani,  W. A. Goddard III,  S. Grimme,  S. Hammes-Schiffer,  
 T. Head-Gordon,  W. J. Hehre,  Chao-Ping Hsu,  T.-C. Jagau,  Yousung Jung,  
 A. Klamt,  Jing Kong,  D. S. Lambrecht,  WanZhen Liang,  N. J. Mayhall,  
 C. W. McCurdy,  J. B. Neaton,  C. Ochsenfeld,  J. A. Parkhill,  R. Peverati,  
 V. A. Rassolov,  Yihan Shao,  L. V. Slipchenko,  T. Stauch,  R. P. Steele,  
 J. E. Subotnik,  A. J. W. Thom,  A. Tkatchenko,  D. G. Truhlar,  
 T. Van Voorhis,  T. A. Wesolowski,  K. B. Whaley,  H. L. Woodcock III,  
 P. M. Zimmerman,  S. Faraji,  P. M. W. Gill,  M. Head-Gordon,  
 J. M. Herbert,  A. I. Krylov

 Contributors to earlier versions of Q-Chem not listed above: 
 R. D. Adamson,  B. Austin,  R. Baer,  J. Baker,  G. J. O. Beran,  
 K. Brandhorst,  S. T. Brown,  E. F. C. Byrd,  A. K. Chakraborty,  
 G. K. L. Chan,  Chun-Min Chang,  Yunqing Chen,  C.-L. Cheng,  
 Siu Hung Chien,  D. M. Chipman,  D. L. Crittenden,  H. Dachsel,  
 R. J. Doerksen,  A. D. Dutoi,  R. G. Edgar,  J. Fosso-Tande,  
 L. Fusti-Molnar,  D. Ghosh,  A. Ghysels,  A. Golubeva-Zadorozhnaya,  
 J. Gonthier,  M. S. Gordon,  S. R. Gwaltney,  G. Hawkins,  J. E. Herr,  
 A. Heyden,  S. Hirata,  E. G. Hohenstein,  G. Kedziora,  F. J. Keil,  
 C. Kelley,  Jihan Kim,  R. A. King,  R. Z. Khaliullin,  P. P. Korambath,  
 W. Kurlancheek,  A. Laurent,  A. M. Lee,  M. S. Lee,  S. V. Levchenko,  
 Ching Yeh Lin,  D. Liotard,  E. Livshits,  R. C. Lochan,  I. Lotan,  
 L. A. Martinez-Martinez,  P. E. Maslen,  N. Nair,  D. P. O'Neill,  
 D. Neuhauser,  E. Neuscamman,  C. M. Oana,  R. Olivares-Amaya,  R. Olson,  
 T. M. Perrine,  B. Peters,  P. A. Pieniazek,  A. Prociuk,  Y. M. Rhee,  
 J. Ritchie,  M. A. Rohrdanz,  E. Rosta,  N. J. Russ,  H. F. Schaefer III,  
 M. W. Schmidt,  N. E. Schultz,  S. Sharma,  N. Shenvi,  C. D. Sherrill,  
 A. C. Simmonett,  A. Sodt,  T. Stein,  D. Stuck,  K. S. Thanthiriwatte,  
 V. Vanovschi,  L. Vogt,  Tao Wang,  A. Warshel,  M. A. Watson,  
 C. F. Williams,  Q. Wu,  X. Xu,  Jun Yang,  W. Zhang,  Yan Zhao

 Please cite Q-Chem as follows:
 Y. Shao et al., Mol. Phys. 113, 184-215 (2015)
 DOI: 10.1080/00268976.2014.952696

 Q-Chem 5.4.0 for Intel X86 EM64T Linux

 Parts of Q-Chem use Armadillo 9.800.1 (Horizon Scraper).
 http://arma.sourceforge.net/

 Q-Chem begins on Tue Jan  9 10:21:41 2024  

 Host: 
0

     Scratch files written to ./qchem2536025//
 May1621 |scratch|qcdevops|jenkins|workspace|build_RNUM    
 Parallel job on  1  processors
 Processing $rem in /cm/shared/apps/spack/cpu/opt/spack/linux-centos8-zen2/gcc-10.2.0/qchem-5.4-akfmr7b3t57bfs6qan3padb2wnb2i7cl/config/preferences:
 Processing $rem in /home/rramji/.qchemrc:
 Symmetry turned off for PCM/SM12/SMD calculation
 Core orbitals will be frozen

 Checking the input file for inconsistencies... 	...done.

 Q-Chem warning in module forms1/BasisType.C, line 2236:

 You are not using the predefined 5D/6D in this basis set.


--------------------------------------------------------------
User input:
--------------------------------------------------------------
$molecule
0 1
C	-0.902766	-0.471137	0.977605
S	-0.118966	-0.019137	2.485105
C	1.242534	0.767763	1.696505
C	-0.119066	-0.019537	-0.090295
C	1.083634	0.677463	0.291205
S	-0.328666	-0.143837	-1.827895
C	1.185634	0.736763	-2.076895
C	1.797734	1.093063	-0.884995
F	2.952934	1.765563	-0.841495
C	1.574534	0.959163	-3.478495
O	0.911834	0.567363	-4.428895
O	2.740434	1.640863	-3.591595
C	3.171734	1.883963	-4.938595
H	4.121834	2.440463	-4.855495
H	2.419234	2.480763	-5.492595
H	3.326734	0.929763	-5.481695
C	-0.902766	-1.906337	0.977605
H	-0.080266	-1.914337	0.277705
H	-0.362166	-2.584237	1.621505
H	-1.512366	-2.437437	0.261505
H	2.042234	1.231163	2.284105
$end

$rem
JOBTYPE		SP
EXCHANGE	HF
CORRELATION	pRIMP2
BASIS		cc-pvtz
METHOD		rimp2
AUX_BASIS	rimp2-cc-pvtz
SOLVENT_METHOD	PCM
PURECART	11111
SYMMETRY	false
MEM_TOTAL	110000
SCF_CONVERGENCE = 6
THRESH=10
GUI = 2
$end



$solvent
dielectric 4.90
$end
--------------------------------------------------------------
 ----------------------------------------------------------------
             Standard Nuclear Orientation (Angstroms)
    I     Atom           X                Y                Z
 ----------------------------------------------------------------
    1      C      -0.9027660000    -0.4711370000     0.9776050000
    2      S      -0.1189660000    -0.0191370000     2.4851050000
    3      C       1.2425340000     0.7677630000     1.6965050000
    4      C      -0.1190660000    -0.0195370000    -0.0902950000
    5      C       1.0836340000     0.6774630000     0.2912050000
    6      S      -0.3286660000    -0.1438370000    -1.8278950000
    7      C       1.1856340000     0.7367630000    -2.0768950000
    8      C       1.7977340000     1.0930630000    -0.8849950000
    9      F       2.9529340000     1.7655630000    -0.8414950000
   10      C       1.5745340000     0.9591630000    -3.4784950000
   11      O       0.9118340000     0.5673630000    -4.4288950000
   12      O       2.7404340000     1.6408630000    -3.5915950000
   13      C       3.1717340000     1.8839630000    -4.9385950000
   14      H       4.1218340000     2.4404630000    -4.8554950000
   15      H       2.4192340000     2.4807630000    -5.4925950000
   16      H       3.3267340000     0.9297630000    -5.4816950000
   17      C      -0.9027660000    -1.9063370000     0.9776050000
   18      H      -0.0802660000    -1.9143370000     0.2777050000
   19      H      -0.3621660000    -2.5842370000     1.6215050000
   20      H      -1.5123660000    -2.4374370000     0.2615050000
   21      H       2.0422340000     1.2311630000     2.2841050000
 ----------------------------------------------------------------
 Nuclear Repulsion Energy =        1094.14557404 hartrees
 There are       59 alpha and       59 beta electrons
 Requested basis set is cc-pVTZ
 There are 186 shells and 526 basis functions

 Total QAlloc Memory Limit 110000 MB
 Mega-Array Size       188 MB
 MEM_STATIC part       192 MB
 Discretize the solute cavity surface with Lebedev spheres
	Using 110 Lebedev grid points for each H atom
	Using 194 Lebedev grid points for other atoms
	Atomic van der Waals radii will be scaled by 1.20
 Remove points where switching function is < 1.0e-08
 Keep 1530 surface tesserae and discard 1956 interior tesserae
 Molecular Surface Area = 239.765 Angst**2
 Requested basis set is rimp2-cc-pVTZ
 There are 410 shells and 1426 basis functions
 A cutoff of  1.0D-10 yielded  11822 shell pairs
 There are     92536 function pairs (    121013 Cartesian)
 Smallest overlap matrix eigenvalue = 6.67E-05

 Scale SEOQF with 1.000000e-01/1.000000e-01/1.000000e-02

 Standard Electronic Orientation quadrupole field applied
 Nucleus-field energy     =     0.0000000136 hartrees
 Guess from superposition of atomic densities
 Warning:  Energy on first SCF cycle will be non-variational
 SAD guess density has 118.000000 electrons

 -----------------------------------------------------------------------
  General SCF calculation program by
  Eric Jon Sundstrom, Paul Horn, Yuezhi Mao, Dmitri Zuev, Alec White,
  David Stuck, Shaama M.S., Shane Yost, Joonho Lee, David Small,
  Daniel Levine, Susi Lehtola, Hugh Burton, Evgeny Epifanovsky,
  Bang C. Huynh
 -----------------------------------------------------------------------
 Hartree-Fock
 using 64 threads for integral computing
 -------------------------------------------------------
 OpenMP Integral computing Module                
 Release: version 1.0, May 2013, Q-Chem Inc. Pittsburgh 
 -------------------------------------------------------
 A restricted SCF calculation will be
 performed using DIIS
 SCF converges when DIIS error is below 1.0e-06
 ---------------------------------------
  Cycle       Energy         DIIS error
 ---------------------------------------
    1   -1394.3968152809      2.49e-02  
    2   -1388.9424669163      2.51e-03  
    3   -1389.1158373937      1.58e-03  
    4   -1389.1802303535      3.56e-04  
    5   -1389.1862630798      1.12e-04  
    6   -1389.1869790706      3.71e-05  
    7   -1389.1871339847      1.89e-05  
    8   -1389.1871898331      7.72e-06  
    9   -1389.1872035234      3.52e-06  
   10   -1389.1872059833      1.52e-06  
   11   -1389.1872064763      6.82e-07  Convergence criterion met
 ---------------------------------------
 SCF time:   CPU 1695.43s  wall 49.00s 

************** Final PCM Free Energy Summary **************
 G_electrostatic  =      -0.01217273 hartree =      -7.63850640 kcal/mol
 G_cavitation     =       0.00000000 hartree =       0.00000000 kcal/mol
 G_dispersion     =       0.00000000 hartree =       0.00000000 kcal/mol
 G_repulsion      =       0.00000000 hartree =       0.00000000 kcal/mol
 --------------------------------------------------
 Non-electrostatic Free Energy =       0.00000000 hartree =       0.00000000 kcal/mol
 Total                         =      -0.01217273 hartree =      -7.63850640 kcal/mol
 --------------------------------------------------
 SCF Energy (H0 + V/2)                       =   -1389.18720648 
 Solute Internal Energy (H0)                 =   -1389.17503374 
 Total Free Energy (H0 + V/2 + non-elec)     =   -1389.18720648 hartree
                                             = -871728.12905593 kcal/mol
***********************************************************

 SCF   energy in the final basis set =    -1389.1872064763
 Total energy in the final basis set =    -1389.1872064763


 --------------------------------------------------------------
  Generalized many-body perturbation theory program
  by Joonho Lee, Fazle Rob, Xintian Feng, Evgeny Epifanovsky

 No regularization used 
 (reg. param. = 0.0000e+00)
  (P|Q)^-1/2 Time:  CPU 21.47 s  wall 0.34 s

 In RI-MP2 calculation: 
 # of frozen core orbitals: 22

 Components of the RIMP2 correlation energy:
        aaaa    correlation energy =        -0.3316057438 a.u.
        abab    correlation energy =        -1.8583089914 a.u.
        bbbb    correlation energy =        -0.3316057438 a.u.
        non-Brillouin singles      =        -0.0000000000 a.u.
        total same-spin energy     =        -0.6632114876 a.u.
        total opposite-spin energy =        -1.8583089914 a.u.

 Total  RIMP2   correlation energy =        -2.5215204790 a.u.
        RIMP2         total energy =     -1391.7087269553 a.u.

 RI-MP2 Energy Time:  CPU 171.95 s  wall 3.17 s
 
 --------------------------------------------------------------
 
                    Orbital Energies (a.u.)
 --------------------------------------------------------------
 
 Alpha MOs
 -- Occupied --
-92.0070 -92.0054 -26.3442 -20.6145 -20.5603 -11.4089 -11.3841 -11.3215
-11.3035 -11.2951 -11.2889 -11.2821 -11.2623 -11.2144  -9.0062  -9.0050
 -6.6869  -6.6859  -6.6859  -6.6859  -6.6852  -6.6842  -1.6613  -1.4669
 -1.3695  -1.2254  -1.1451  -1.0734  -1.0228  -0.9909  -0.9609  -0.9041
 -0.8669  -0.8100  -0.7922  -0.7615  -0.7335  -0.7260  -0.6995  -0.6844
 -0.6738  -0.6626  -0.6121  -0.6014  -0.5956  -0.5782  -0.5674  -0.5623
 -0.5311  -0.5190  -0.5110  -0.4911  -0.4752  -0.4727  -0.4708  -0.4498
 -0.3790  -0.3373  -0.2924
 -- Virtual --
  0.0290   0.0795   0.1436   0.1484   0.1567   0.1732   0.1843   0.1895
  0.2020   0.2126   0.2153   0.2270   0.2294   0.2416   0.2541   0.2647
  0.2774   0.2936   0.3069   0.3244   0.3441   0.3482   0.3667   0.3840
  0.3877   0.3929   0.3985   0.4168   0.4216   0.4234   0.4314   0.4368
  0.4504   0.4666   0.4717   0.4780   0.4907   0.5009   0.5042   0.5080
  0.5127   0.5298   0.5346   0.5435   0.5494   0.5524   0.5612   0.5785
  0.5890   0.5964   0.6101   0.6113   0.6126   0.6180   0.6191   0.6319
  0.6386   0.6447   0.6529   0.6658   0.6724   0.6856   0.6986   0.7080
  0.7155   0.7195   0.7333   0.7439   0.7539   0.7722   0.7830   0.7943
  0.8095   0.8163   0.8232   0.8369   0.8449   0.8606   0.8685   0.8743
  0.8772   0.8946   0.9050   0.9177   0.9391   0.9471   0.9642   0.9737
  0.9822   0.9908   1.0056   1.0213   1.0253   1.0370   1.0555   1.0578
  1.0601   1.0871   1.0875   1.1002   1.1094   1.1134   1.1290   1.1329
  1.1470   1.1507   1.1725   1.1754   1.1872   1.1937   1.1993   1.2121
  1.2268   1.2395   1.2430   1.2643   1.2722   1.2770   1.2873   1.2943
  1.3248   1.3397   1.3471   1.3638   1.3719   1.3799   1.3937   1.4089
  1.4253   1.4327   1.4406   1.4611   1.4861   1.4936   1.5019   1.5105
  1.5182   1.5339   1.5393   1.5434   1.5556   1.5739   1.5824   1.5996
  1.6070   1.6298   1.6425   1.6541   1.6772   1.6918   1.7061   1.7303
  1.7446   1.7675   1.7791   1.7923   1.8210   1.8244   1.8400   1.8601
  1.8644   1.8687   1.8949   1.9100   1.9312   1.9453   1.9493   1.9645
  1.9875   1.9995   2.0029   2.0198   2.0491   2.0767   2.0899   2.0940
  2.1046   2.1456   2.1607   2.1688   2.1839   2.1936   2.2194   2.2264
  2.2389   2.2440   2.2623   2.2833   2.2903   2.3024   2.3324   2.3515
  2.3558   2.3747   2.3802   2.4141   2.4164   2.4281   2.4710   2.4800
  2.4943   2.5155   2.5295   2.5597   2.5680   2.6042   2.6193   2.6278
  2.6405   2.6444   2.6613   2.6681   2.6770   2.6977   2.7164   2.7313
  2.7494   2.7648   2.7830   2.7944   2.7994   2.8111   2.8237   2.8481
  2.8519   2.8696   2.8877   2.8893   2.9027   2.9339   2.9406   2.9497
  2.9735   2.9825   2.9921   3.0226   3.0272   3.0444   3.0616   3.0634
  3.0814   3.0902   3.1003   3.1037   3.1098   3.1192   3.1290   3.1471
  3.1599   3.1666   3.1841   3.2009   3.2101   3.2187   3.2233   3.2393
  3.2466   3.2683   3.2701   3.2769   3.2929   3.3114   3.3244   3.3312
  3.3573   3.3647   3.3759   3.3788   3.3992   3.4025   3.4125   3.4158
  3.4252   3.4332   3.4456   3.4644   3.4665   3.4751   3.4817   3.4930
  3.5097   3.5193   3.5299   3.5368   3.5453   3.5600   3.5638   3.5805
  3.5921   3.6015   3.6075   3.6122   3.6231   3.6406   3.6623   3.6779
  3.6849   3.6917   3.7056   3.7169   3.7244   3.7346   3.7631   3.7749
  3.7769   3.7932   3.8001   3.8068   3.8105   3.8221   3.8403   3.8583
  3.8635   3.8728   3.8903   3.9075   3.9127   3.9240   3.9412   3.9475
  3.9583   3.9797   3.9938   4.0130   4.0326   4.0546   4.0664   4.0741
  4.0865   4.0954   4.1163   4.1299   4.1560   4.1640   4.1654   4.1809
  4.2018   4.2072   4.2291   4.2466   4.2697   4.2990   4.3418   4.3492
  4.3585   4.3712   4.3740   4.3912   4.4108   4.4218   4.4299   4.4556
  4.5000   4.5200   4.5221   4.5445   4.5518   4.5816   4.5922   4.6050
  4.6263   4.6367   4.6551   4.6830   4.7038   4.7157   4.7521   4.7648
  4.7754   4.7795   4.8131   4.8254   4.8498   4.8679   4.9280   4.9397
  4.9524   4.9634   4.9840   5.0089   5.0213   5.0937   5.1215   5.1537
  5.1768   5.2003   5.2094   5.2463   5.2568   5.2605   5.2713   5.3508
  5.3576   5.3980   5.4142   5.4261   5.4367   5.4850   5.5025   5.5076
  5.5334   5.5811   5.6120   5.6222   5.6594   5.7017   5.7248   5.7459
  5.8053   5.8078   5.8605   5.8788   5.9149   5.9298   5.9426   5.9858
  6.0087   6.0426   6.1425   6.1505   6.1830   6.2381   6.2617   6.4163
  6.4505   6.4859   6.5377   6.5967   6.6615   6.6720   6.7454   6.8298
  6.8602   6.9787   7.2038   7.2043   7.3106   7.3623   7.3623   7.4052
  7.4137   7.4847   7.5160   7.5503   7.6148   7.7721   7.7884   7.8877
  7.9546   8.1314   8.1873   8.9212   9.0253   9.3622   9.4778   9.6600
 10.2082  11.2278  11.7585  11.9709  12.4357  12.8825  13.0848  13.3917
 13.7926  14.0347  14.4049
 --------------------------------------------------------------
 
          Ground-State Mulliken Net Atomic Charges

     Atom                 Charge (a.u.)
  ----------------------------------------
      1 C                    -0.140200
      2 S                     0.110322
      3 C                    -0.157968
      4 C                     0.085222
      5 C                    -0.125987
      6 S                     0.045026
      7 C                    -0.157708
      8 C                     0.394043
      9 F                    -0.205961
     10 C                     0.449461
     11 O                    -0.464455
     12 O                    -0.301580
     13 C                    -0.058205
     14 H                     0.121223
     15 H                     0.095053
     16 H                     0.094742
     17 C                    -0.372517
     18 H                     0.108602
     19 H                     0.147318
     20 H                     0.117473
     21 H                     0.216098
  ----------------------------------------
  Sum of atomic charges =     0.000000

 -----------------------------------------------------------------
                    Cartesian Multipole Moments
 -----------------------------------------------------------------
    Charge (ESU x 10^10)
                -0.0000
    Dipole Moment (Debye)
         X       3.5240      Y       0.4704      Z       2.5073
       Tot       4.3504
    Quadrupole Moments (Debye-Ang)
        XX     -90.7621     XY       4.1961     YY     -91.7423
        XZ      -4.4559     YZ      -4.0574     ZZ     -95.4737
    Octopole Moments (Debye-Ang^2)
       XXX    -208.2266    XXY     -27.4808    XYY     -68.9311
       YYY    -110.8261    XXZ      51.6426    XYZ     -16.9908
       YYZ      72.6363    XZZ      -5.1604    YZZ       2.8961
       ZZZ     270.3643
    Hexadecapole Moments (Debye-Ang^3)
      XXXX   -1415.1082   XXXY    -397.8089   XXYY    -357.2819
      XYYY    -424.4739   YYYY    -757.0252   XXXZ     605.9462
      XXYZ      94.6246   XYYZ     204.4280   YYYZ     423.9353
      XXZZ    -604.9984   XYZZ       5.4614   YYZZ    -650.8395
      XZZZ     419.3841   YZZZ     280.8041   ZZZZ   -3688.3292
 -----------------------------------------------------------------
 Total job time:  60.17s(wall), 2000.92s(cpu) 
 Tue Jan  9 10:22:41 2024

        *************************************************************
        *                                                           *
        *  Thank you very much for using Q-Chem.  Have a nice day.  *
        *                                                           *
        *************************************************************


0 sent ACK to 0 
now end server 0 ... 
cleanup process ... done
remove work dirs ./qchem2536025.0 -- ./qchem2536025.0
rm -rf ./qchem2536025.0
rm -rf ./qchem2536025
