You are running Q-Chem version: 5.4.0

#
# job setting
#
local host:  exp-14-05
current dir: /home/rramji/project-csd799/aromodel/ptb7fout-qchem/methylated-rotation-run
input file:  Dimethoxy_Benzodithiophene_Phi_5_Theta_20_Methylcarbonyl_3_Fluoro_Thienothiophene_Hydrogenated_Improper.qcin
output file: 
nprocs     : 1
nthreads   : 64
#
# qchem installation setting
#
QC:          /cm/shared/apps/spack/cpu/opt/spack/linux-centos8-zen2/gcc-10.2.0/qchem-5.4-akfmr7b3t57bfs6qan3padb2wnb2i7cl
QCAUX:       /cm/shared/apps/spack/cpu/opt/spack/linux-centos8-zen2/gcc-10.2.0/qchem-5.4-akfmr7b3t57bfs6qan3padb2wnb2i7cl/qcaux
QCPROG:      /cm/shared/apps/spack/cpu/opt/spack/linux-centos8-zen2/gcc-10.2.0/qchem-5.4-akfmr7b3t57bfs6qan3padb2wnb2i7cl/exe/qcprog.exe
QCPROG_S:    /cm/shared/apps/spack/cpu/opt/spack/linux-centos8-zen2/gcc-10.2.0/qchem-5.4-akfmr7b3t57bfs6qan3padb2wnb2i7cl/exe/qcprog.exe_s
PARALLEL:    -DPARALLEL
QCMPI:       mpich
#
# qchem directory setting
#
qcrun:       qchem2522848
QCSCRATCH:   .
QCLOCALSCR:  
QCTMPDIR:    .
QCFILEPREF:  ./qchem2522848
QCSAVEDIR:   
workdirs:    ./qchem2522848
workdir0:    ./qchem2522848
partmpdirs =  
#
# parallel setting
#
QCRSH:           ssh
QCMPI:           mpich
QCMPIRUN:        /cm/shared/apps/spack/cpu/opt/spack/linux-centos8-zen2/gcc-10.2.0/qchem-5.4-akfmr7b3t57bfs6qan3padb2wnb2i7cl/bin/mpi/mpirun_qchem
QCMACHINEFILE:   ./qchem2522848/hostfile
exp-14-05

#
# env setting
#
exported envs:   QC QCAUX QCSCRATCH QCRUNNAME QCFILEPREF QCPROG QCPROG_S GUIFILE

Running Job 1 of 1 Dimethoxy_Benzodithiophene_Phi_5_Theta_20_Methylcarbonyl_3_Fluoro_Thienothiophene_Hydrogenated_Improper.qcin
qchem Dimethoxy_Benzodithiophene_Phi_5_Theta_20_Methylcarbonyl_3_Fluoro_Thienothiophene_Hydrogenated_Improper.qcin_2522848.0 ./qchem2522848/ 1
/cm/shared/apps/spack/cpu/opt/spack/linux-centos8-zen2/gcc-10.2.0/qchem-5.4-akfmr7b3t57bfs6qan3padb2wnb2i7cl/bin/mpi/mpirun_qchem -machinefile ./qchem2522848/hostfile -np 1 /cm/shared/apps/spack/cpu/opt/spack/linux-centos8-zen2/gcc-10.2.0/qchem-5.4-akfmr7b3t57bfs6qan3padb2wnb2i7cl/exe/qcprog.exe Dimethoxy_Benzodithiophene_Phi_5_Theta_20_Methylcarbonyl_3_Fluoro_Thienothiophene_Hydrogenated_Improper.qcin_2522848.0 ./qchem2522848/

Process 0 of 1 is on exp-14-05 - thread support 0
initial socket setup ...start
initial socket setup ...done 
now start server 0 ... 
                  Welcome to Q-Chem
     A Quantum Leap Into The Future Of Chemistry


 Q-Chem 5.4, Q-Chem, Inc., Pleasanton, CA (2021)

 License issued to: University of California, San Diego (site)

 E. Epifanovsky,  A. T. B. Gilbert,  Xintian Feng,  Joonho Lee,  Yuezhi Mao,  
 N. Mardirossian,  P. Pokhilko,  A. White,  M. Wormit,  M. P. Coons,  
 A. L. Dempwolff,  Zhengting Gan,  D. Hait,  P. R. Horn,  L. D. Jacobson,  
 I. Kaliman,  J. Kussmann,  A. W. Lange,  Ka Un Lao,  D. S. Levine,  Jie Liu,  
 S. C. McKenzie,  A. F. Morrison,  K. Nanda,  F. Plasser,  D. R. Rehn,  
 M. L. Vidal,  Zhi-Qiang You,  Ying Zhu,  B. Alam,  B. Albrecht,  
 A. Aldossary,  E. Alguire,  J. H. Andersen,  D. Barton,  K. Begam,  A. Behn,  
 Y. A. Bernard,  E. J. Berquist,  H. Burton,  A. Carreras,  K. Carter-Fenk,  
 R. Chakraborty,  A. D. Chien,  K. D. Closser,  V. Cofer-Shabica,  
 S. Dasgupta,  Jia Deng,  M. de Wergifosse,  M. Diedenhofen,  Hainam Do,  
 S. Ehlert,  Po-Tung Fang,  S. Fatehi,  Qingguo Feng,  J. Gayvert,  
 Qinghui Ge,  G. Gidofalvi,  M. Goldey,  J. Gomes,  C. Gonzalez-Espinoza,  
 S. Gulania,  A. Gunina,  M. W. D. Hanson-Heine,  P. H. P. Harbach,  
 A. W. Hauser,  M. F. Herbst,  M. Hernandez Vera,  M. Hodecker,  
 Z. C. Holden,  S. Houck,  Xunkun Huang,  Kerwin Hui,  B. C. Huynh,  
 M. Ivanov,  Hyunjun Ji,  Hanjie Jiang,  B. Kaduk,  S. Kaehler,  
 K. Khistyaev,  Jaehoon Kim,  P. Klunzinger,  Z. Koczor-Benda,  
 Joong Hoon Koh,  D. Kosenkov,  L. Koulias,  T. Kowalczyk,  C. M. Krauter,  
 K. Kue,  A. Kunitsa,  T. Kus,  A. Landau,  K. V. Lawler,  D. Lefrancois,  
 S. Lehtola,  Rain Li,  Yi-Pei Li,  Jiashu Liang,  M. Liebenthal,  
 Hung-Hsuan Lin,  You-Sheng Lin,  Fenglai Liu,  Kuan-Yu Liu,  
 M. Loipersberger,  A. Luenser,  A. Manjanath,  P. Manohar,  E. Mansoor,  
 S. F. Manzer,  Shan-Ping Mao,  A. V. Marenich,  T. Markovich,  S. Mason,  
 S. A. Maurer,  P. F. McLaughlin,  M. F. S. J. Menger,  J.-M. Mewes,  
 S. A. Mewes,  P. Morgante,  J. W. Mullinax,  T. S. Nguyen-Beck,  
 K. J. Oosterbaan,  G. Paran,  Alexander C. Paul,  Suranjan K. Paul,  
 F. Pavosevic,  Zheng Pei,  S. Prager,  E. I. Proynov,  E. Ramos,  B. Rana,  
 A. E. Rask,  A. Rettig,  R. M. Richard,  F. Rob,  E. Rossomme,  T. Scheele,  
 M. Scheurer,  M. Schneider,  N. Sergueev,  S. M. Sharada,  W. Skomorowski,  
 D. W. Small,  C. J. Stein,  Yu-Chuan Su,  E. J. Sundstrom,  Zhen Tao,  
 J. Thirman,  T. Tsuchimochi,  N. M. Tubman,  S. P. Veccham,  O. Vydrov,  
 J. Wenzel,  J. Witte,  A. Yamada,  Kun Yao,  S. Yeganeh,  S. R. Yost,  
 A. Zech,  Igor Ying Zhang,  Xing Zhang,  Yu Zhang,  D. Zuev,  
 A. Aspuru-Guzik,  A. T. Bell,  N. A. Besley,  K. B. Bravaya,  B. R. Brooks,  
 D. Casanova,  Jeng-Da Chai,  S. Coriani,  C. J. Cramer,  
 A. E. DePrince, III,  R. A. DiStasio Jr.,  A. Dreuw,  B. D. Dunietz,  
 T. R. Furlani,  W. A. Goddard III,  S. Grimme,  S. Hammes-Schiffer,  
 T. Head-Gordon,  W. J. Hehre,  Chao-Ping Hsu,  T.-C. Jagau,  Yousung Jung,  
 A. Klamt,  Jing Kong,  D. S. Lambrecht,  WanZhen Liang,  N. J. Mayhall,  
 C. W. McCurdy,  J. B. Neaton,  C. Ochsenfeld,  J. A. Parkhill,  R. Peverati,  
 V. A. Rassolov,  Yihan Shao,  L. V. Slipchenko,  T. Stauch,  R. P. Steele,  
 J. E. Subotnik,  A. J. W. Thom,  A. Tkatchenko,  D. G. Truhlar,  
 T. Van Voorhis,  T. A. Wesolowski,  K. B. Whaley,  H. L. Woodcock III,  
 P. M. Zimmerman,  S. Faraji,  P. M. W. Gill,  M. Head-Gordon,  
 J. M. Herbert,  A. I. Krylov

 Contributors to earlier versions of Q-Chem not listed above: 
 R. D. Adamson,  B. Austin,  R. Baer,  J. Baker,  G. J. O. Beran,  
 K. Brandhorst,  S. T. Brown,  E. F. C. Byrd,  A. K. Chakraborty,  
 G. K. L. Chan,  Chun-Min Chang,  Yunqing Chen,  C.-L. Cheng,  
 Siu Hung Chien,  D. M. Chipman,  D. L. Crittenden,  H. Dachsel,  
 R. J. Doerksen,  A. D. Dutoi,  R. G. Edgar,  J. Fosso-Tande,  
 L. Fusti-Molnar,  D. Ghosh,  A. Ghysels,  A. Golubeva-Zadorozhnaya,  
 J. Gonthier,  M. S. Gordon,  S. R. Gwaltney,  G. Hawkins,  J. E. Herr,  
 A. Heyden,  S. Hirata,  E. G. Hohenstein,  G. Kedziora,  F. J. Keil,  
 C. Kelley,  Jihan Kim,  R. A. King,  R. Z. Khaliullin,  P. P. Korambath,  
 W. Kurlancheek,  A. Laurent,  A. M. Lee,  M. S. Lee,  S. V. Levchenko,  
 Ching Yeh Lin,  D. Liotard,  E. Livshits,  R. C. Lochan,  I. Lotan,  
 L. A. Martinez-Martinez,  P. E. Maslen,  N. Nair,  D. P. O'Neill,  
 D. Neuhauser,  E. Neuscamman,  C. M. Oana,  R. Olivares-Amaya,  R. Olson,  
 T. M. Perrine,  B. Peters,  P. A. Pieniazek,  A. Prociuk,  Y. M. Rhee,  
 J. Ritchie,  M. A. Rohrdanz,  E. Rosta,  N. J. Russ,  H. F. Schaefer III,  
 M. W. Schmidt,  N. E. Schultz,  S. Sharma,  N. Shenvi,  C. D. Sherrill,  
 A. C. Simmonett,  A. Sodt,  T. Stein,  D. Stuck,  K. S. Thanthiriwatte,  
 V. Vanovschi,  L. Vogt,  Tao Wang,  A. Warshel,  M. A. Watson,  
 C. F. Williams,  Q. Wu,  X. Xu,  Jun Yang,  W. Zhang,  Yan Zhao

 Please cite Q-Chem as follows:
 Y. Shao et al., Mol. Phys. 113, 184-215 (2015)
 DOI: 10.1080/00268976.2014.952696

 Q-Chem 5.4.0 for Intel X86 EM64T Linux

 Parts of Q-Chem use Armadillo 9.800.1 (Horizon Scraper).
 http://arma.sourceforge.net/

 Q-Chem begins on Tue Jan  9 09:50:40 2024  

 Host: 
0

     Scratch files written to ./qchem2522848//
 May1621 |scratch|qcdevops|jenkins|workspace|build_RNUM    
 Parallel job on  1  processors
 Processing $rem in /cm/shared/apps/spack/cpu/opt/spack/linux-centos8-zen2/gcc-10.2.0/qchem-5.4-akfmr7b3t57bfs6qan3padb2wnb2i7cl/config/preferences:
 Processing $rem in /home/rramji/.qchemrc:
 Symmetry turned off for PCM/SM12/SMD calculation
 Core orbitals will be frozen

 Checking the input file for inconsistencies... 	...done.

 Q-Chem warning in module forms1/BasisType.C, line 2236:

 You are not using the predefined 5D/6D in this basis set.


--------------------------------------------------------------
User input:
--------------------------------------------------------------
$molecule
0 1
C	-0.092642	-0.987267	0.975331
S	-0.013342	-0.085967	2.482831
C	0.122958	1.480633	1.694231
C	-0.013042	-0.086367	-0.092569
C	0.105758	1.298733	0.288931
S	-0.031442	-0.329267	-1.830169
C	0.115658	1.416233	-2.079169
C	0.174958	2.122133	-0.887269
F	0.286658	3.454033	-0.843769
C	0.156658	1.862433	-3.480769
O	0.097458	1.094833	-4.431169
O	0.266858	3.208433	-3.593869
C	0.315258	3.701233	-4.940869
H	0.404258	4.798633	-4.857769
H	-0.605242	3.427033	-5.494869
H	1.185758	3.280833	-5.483969
C	-0.092642	-2.422467	0.975331
H	0.924758	-2.430467	1.337731
H	-0.379942	-3.100367	1.765431
H	0.222758	-2.953567	0.089431
H	0.202158	2.401533	2.281831
$end

$rem
JOBTYPE		SP
EXCHANGE	HF
CORRELATION	pRIMP2
BASIS		cc-pvtz
METHOD		rimp2
AUX_BASIS	rimp2-cc-pvtz
SOLVENT_METHOD	PCM
PURECART	11111
SYMMETRY	false
MEM_TOTAL	110000
SCF_CONVERGENCE = 6
THRESH=10
GUI = 2
$end



$solvent
dielectric 4.90
$end
--------------------------------------------------------------
 ----------------------------------------------------------------
             Standard Nuclear Orientation (Angstroms)
    I     Atom           X                Y                Z
 ----------------------------------------------------------------
    1      C      -0.0926420000    -0.9872670000     0.9753310000
    2      S      -0.0133420000    -0.0859670000     2.4828310000
    3      C       0.1229580000     1.4806330000     1.6942310000
    4      C      -0.0130420000    -0.0863670000    -0.0925690000
    5      C       0.1057580000     1.2987330000     0.2889310000
    6      S      -0.0314420000    -0.3292670000    -1.8301690000
    7      C       0.1156580000     1.4162330000    -2.0791690000
    8      C       0.1749580000     2.1221330000    -0.8872690000
    9      F       0.2866580000     3.4540330000    -0.8437690000
   10      C       0.1566580000     1.8624330000    -3.4807690000
   11      O       0.0974580000     1.0948330000    -4.4311690000
   12      O       0.2668580000     3.2084330000    -3.5938690000
   13      C       0.3152580000     3.7012330000    -4.9408690000
   14      H       0.4042580000     4.7986330000    -4.8577690000
   15      H      -0.6052420000     3.4270330000    -5.4948690000
   16      H       1.1857580000     3.2808330000    -5.4839690000
   17      C      -0.0926420000    -2.4224670000     0.9753310000
   18      H       0.9247580000    -2.4304670000     1.3377310000
   19      H      -0.3799420000    -3.1003670000     1.7654310000
   20      H       0.2227580000    -2.9535670000     0.0894310000
   21      H       0.2021580000     2.4015330000     2.2818310000
 ----------------------------------------------------------------
 Nuclear Repulsion Energy =        1082.82338332 hartrees
 There are       59 alpha and       59 beta electrons
 Requested basis set is cc-pVTZ
 There are 186 shells and 526 basis functions

 Total QAlloc Memory Limit 110000 MB
 Mega-Array Size       188 MB
 MEM_STATIC part       192 MB
 Discretize the solute cavity surface with Lebedev spheres
	Using 110 Lebedev grid points for each H atom
	Using 194 Lebedev grid points for other atoms
	Atomic van der Waals radii will be scaled by 1.20
 Remove points where switching function is < 1.0e-08
 Keep 1561 surface tesserae and discard 1925 interior tesserae
 Molecular Surface Area = 243.422 Angst**2
 Requested basis set is rimp2-cc-pVTZ
 There are 410 shells and 1426 basis functions
 A cutoff of  1.0D-10 yielded  11476 shell pairs
 There are     90086 function pairs (    117933 Cartesian)
 Smallest overlap matrix eigenvalue = 5.80E-05

 Scale SEOQF with 1.000000e+00/1.000000e-01/1.000000e-02

 Standard Electronic Orientation quadrupole field applied
 Nucleus-field energy     =     0.0000000281 hartrees
 Guess from superposition of atomic densities
 Warning:  Energy on first SCF cycle will be non-variational
 SAD guess density has 118.000000 electrons

 -----------------------------------------------------------------------
  General SCF calculation program by
  Eric Jon Sundstrom, Paul Horn, Yuezhi Mao, Dmitri Zuev, Alec White,
  David Stuck, Shaama M.S., Shane Yost, Joonho Lee, David Small,
  Daniel Levine, Susi Lehtola, Hugh Burton, Evgeny Epifanovsky,
  Bang C. Huynh
 -----------------------------------------------------------------------
 Hartree-Fock
 using 64 threads for integral computing
 -------------------------------------------------------
 OpenMP Integral computing Module                
 Release: version 1.0, May 2013, Q-Chem Inc. Pittsburgh 
 -------------------------------------------------------
 A restricted SCF calculation will be
 performed using DIIS
 SCF converges when DIIS error is below 1.0e-06
 ---------------------------------------
  Cycle       Energy         DIIS error
 ---------------------------------------
    1   -1394.2364207028      2.47e-02  
    2   -1389.0378666452      2.47e-03  
    3   -1389.2075397376      1.53e-03  
    4   -1389.2664748847      3.53e-04  
    5   -1389.2722511765      1.12e-04  
    6   -1389.2729447058      3.69e-05  
    7   -1389.2730981860      1.84e-05  
    8   -1389.2731513610      7.12e-06  
    9   -1389.2731623255      3.05e-06  
   10   -1389.2731637416      1.13e-06  
   11   -1389.2731639591      5.31e-07  Convergence criterion met
 ---------------------------------------
 SCF time:   CPU 1708.27s  wall 49.00s 

************** Final PCM Free Energy Summary **************
 G_electrostatic  =      -0.01286924 hartree =      -8.07557198 kcal/mol
 G_cavitation     =       0.00000000 hartree =       0.00000000 kcal/mol
 G_dispersion     =       0.00000000 hartree =       0.00000000 kcal/mol
 G_repulsion      =       0.00000000 hartree =       0.00000000 kcal/mol
 --------------------------------------------------
 Non-electrostatic Free Energy =       0.00000000 hartree =       0.00000000 kcal/mol
 Total                         =      -0.01286924 hartree =      -8.07557198 kcal/mol
 --------------------------------------------------
 SCF Energy (H0 + V/2)                       =   -1389.27316396 
 Solute Internal Energy (H0)                 =   -1389.26029472 
 Total Free Energy (H0 + V/2 + non-elec)     =   -1389.27316396 hartree
                                             = -871782.06819046 kcal/mol
***********************************************************

 SCF   energy in the final basis set =    -1389.2731639591
 Total energy in the final basis set =    -1389.2731639591


 --------------------------------------------------------------
  Generalized many-body perturbation theory program
  by Joonho Lee, Fazle Rob, Xintian Feng, Evgeny Epifanovsky

 No regularization used 
 (reg. param. = 0.0000e+00)
  (P|Q)^-1/2 Time:  CPU 30.38 s  wall 0.50 s

 In RI-MP2 calculation: 
 # of frozen core orbitals: 22

 Components of the RIMP2 correlation energy:
        aaaa    correlation energy =        -0.3279847199 a.u.
        abab    correlation energy =        -1.8473217259 a.u.
        bbbb    correlation energy =        -0.3279847199 a.u.
        non-Brillouin singles      =        -0.0000000000 a.u.
        total same-spin energy     =        -0.6559694398 a.u.
        total opposite-spin energy =        -1.8473217259 a.u.

 Total  RIMP2   correlation energy =        -2.5032911657 a.u.
        RIMP2         total energy =     -1391.7764551248 a.u.

 RI-MP2 Energy Time:  CPU 325.59 s  wall 5.56 s
 
 --------------------------------------------------------------
 
                    Orbital Energies (a.u.)
 --------------------------------------------------------------
 
 Alpha MOs
 -- Occupied --
-92.0051 -91.9896 -26.3396 -20.6133 -20.5594 -11.4071 -11.3773 -11.3030
-11.2942 -11.2925 -11.2879 -11.2803 -11.2781 -11.2314  -9.0041  -8.9898
 -6.6850  -6.6844  -6.6838  -6.6708  -6.6701  -6.6690  -1.6569  -1.4656
 -1.3682  -1.2112  -1.1364  -1.0666  -1.0180  -0.9956  -0.9577  -0.9130
 -0.8626  -0.8045  -0.7877  -0.7580  -0.7309  -0.7219  -0.6915  -0.6830
 -0.6724  -0.6598  -0.6118  -0.5968  -0.5918  -0.5807  -0.5626  -0.5570
 -0.5319  -0.5275  -0.5166  -0.4985  -0.4721  -0.4710  -0.4699  -0.4593
 -0.3850  -0.3456  -0.2808
 -- Virtual --
  0.0416   0.1282   0.1339   0.1544   0.1580   0.1729   0.1867   0.2003
  0.2067   0.2126   0.2158   0.2280   0.2296   0.2436   0.2533   0.2679
  0.2840   0.3082   0.3330   0.3404   0.3432   0.3515   0.3720   0.3795
  0.3855   0.4035   0.4069   0.4151   0.4204   0.4331   0.4402   0.4487
  0.4622   0.4639   0.4827   0.4944   0.5041   0.5070   0.5154   0.5193
  0.5230   0.5340   0.5439   0.5446   0.5569   0.5616   0.5727   0.5789
  0.5853   0.5977   0.6066   0.6147   0.6160   0.6174   0.6238   0.6273
  0.6328   0.6441   0.6594   0.6625   0.6719   0.6944   0.7047   0.7111
  0.7196   0.7222   0.7297   0.7444   0.7542   0.7733   0.7868   0.8037
  0.8140   0.8198   0.8329   0.8453   0.8579   0.8668   0.8774   0.8803
  0.8917   0.8999   0.9089   0.9253   0.9435   0.9566   0.9606   0.9736
  0.9834   0.9957   1.0048   1.0088   1.0264   1.0378   1.0487   1.0572
  1.0658   1.0720   1.0806   1.0954   1.1052   1.1105   1.1151   1.1222
  1.1249   1.1491   1.1631   1.1738   1.1771   1.1831   1.2053   1.2129
  1.2219   1.2418   1.2523   1.2586   1.2616   1.2718   1.2798   1.2979
  1.3132   1.3265   1.3550   1.3623   1.3797   1.3944   1.3985   1.4089
  1.4212   1.4270   1.4386   1.4804   1.4968   1.5003   1.5048   1.5102
  1.5113   1.5294   1.5414   1.5449   1.5570   1.5690   1.5771   1.5879
  1.6174   1.6366   1.6590   1.6727   1.6816   1.6882   1.7212   1.7286
  1.7577   1.7888   1.7971   1.8109   1.8210   1.8315   1.8420   1.8672
  1.8721   1.8944   1.8996   1.9032   1.9309   1.9382   1.9546   1.9810
  2.0008   2.0135   2.0158   2.0347   2.0579   2.0807   2.0910   2.1007
  2.1448   2.1609   2.1688   2.1958   2.2000   2.2071   2.2232   2.2357
  2.2429   2.2497   2.2574   2.2799   2.3028   2.3189   2.3392   2.3537
  2.3578   2.3728   2.3892   2.4152   2.4357   2.4583   2.4657   2.4905
  2.4986   2.5476   2.5539   2.5609   2.5833   2.6066   2.6233   2.6362
  2.6369   2.6466   2.6531   2.6817   2.6878   2.7023   2.7044   2.7137
  2.7259   2.7488   2.7596   2.7838   2.7900   2.8034   2.8160   2.8215
  2.8314   2.8496   2.8657   2.8756   2.8880   2.9139   2.9371   2.9539
  2.9693   2.9828   2.9943   3.0046   3.0241   3.0307   3.0427   3.0649
  3.0671   3.0941   3.0960   3.1038   3.1086   3.1212   3.1343   3.1449
  3.1493   3.1731   3.1850   3.2107   3.2126   3.2192   3.2429   3.2462
  3.2604   3.2660   3.2735   3.2816   3.2934   3.3070   3.3205   3.3253
  3.3306   3.3532   3.3661   3.3747   3.3838   3.3889   3.4001   3.4145
  3.4163   3.4414   3.4443   3.4583   3.4685   3.4698   3.4785   3.4862
  3.4887   3.5065   3.5167   3.5352   3.5493   3.5551   3.5671   3.5779
  3.5789   3.5902   3.6008   3.6184   3.6294   3.6385   3.6505   3.6732
  3.6843   3.6884   3.6980   3.7068   3.7128   3.7291   3.7409   3.7510
  3.7553   3.7698   3.7819   3.7889   3.8116   3.8176   3.8195   3.8268
  3.8535   3.8577   3.8816   3.8916   3.8955   3.9094   3.9149   3.9346
  3.9526   3.9626   3.9701   3.9888   4.0019   4.0043   4.0132   4.0508
  4.0688   4.0769   4.1032   4.1090   4.1288   4.1407   4.1562   4.1677
  4.1815   4.1869   4.2128   4.2607   4.2890   4.3070   4.3137   4.3388
  4.3428   4.3596   4.3612   4.3905   4.4003   4.4081   4.4306   4.4333
  4.4436   4.4725   4.5071   4.5257   4.5396   4.5482   4.5854   4.5933
  4.6093   4.6230   4.6310   4.6560   4.6727   4.7087   4.7229   4.7504
  4.7679   4.7830   4.7854   4.8314   4.8531   4.9011   4.9142   4.9359
  4.9586   4.9733   5.0052   5.0098   5.0480   5.0895   5.1020   5.1241
  5.1344   5.1783   5.2069   5.2538   5.2565   5.2628   5.3009   5.3533
  5.3574   5.3937   5.4072   5.4272   5.4555   5.4820   5.4858   5.5292
  5.5467   5.5830   5.5984   5.6233   5.6436   5.6654   5.7360   5.7557
  5.8042   5.8090   5.8317   5.8674   5.9158   5.9308   5.9692   6.0438
  6.0838   6.1374   6.1515   6.1791   6.2371   6.2627   6.3114   6.4399
  6.4518   6.4899   6.5396   6.6061   6.6625   6.6730   6.7485   6.8317
  6.8612   6.9799   7.2054   7.2085   7.3115   7.3663   7.3664   7.4080
  7.4148   7.4890   7.5286   7.5530   7.6167   7.7766   7.7907   7.9009
  7.9651   8.1370   8.3027   8.9253   9.0163   9.3663   9.4672   9.6445
 10.0833  11.0327  11.5820  11.8077  12.4105  13.0121  13.0952  13.3863
 13.7716  14.0311  14.5314
 --------------------------------------------------------------
 
          Ground-State Mulliken Net Atomic Charges

     Atom                 Charge (a.u.)
  ----------------------------------------
      1 C                     0.050748
      2 S                     0.071150
      3 C                    -0.225269
      4 C                    -0.029115
      5 C                    -0.093092
      6 S                    -0.015307
      7 C                    -0.156957
      8 C                     0.389724
      9 F                    -0.209200
     10 C                     0.445423
     11 O                    -0.461960
     12 O                    -0.300676
     13 C                    -0.058721
     14 H                     0.121100
     15 H                     0.094806
     16 H                     0.094594
     17 C                    -0.387749
     18 H                     0.145414
     19 H                     0.163335
     20 H                     0.148782
     21 H                     0.212968
  ----------------------------------------
  Sum of atomic charges =     0.000000

 -----------------------------------------------------------------
                    Cartesian Multipole Moments
 -----------------------------------------------------------------
    Charge (ESU x 10^10)
                -0.0000
    Dipole Moment (Debye)
         X       0.8500      Y      -0.0265      Z       3.5354
       Tot       3.6363
    Quadrupole Moments (Debye-Ang)
        XX     -96.9783     XY      -0.7108     YY     -80.3941
        XZ      -0.2891     YZ     -11.4759     ZZ     -96.1238
    Octopole Moments (Debye-Ang^2)
       XXX     -23.3969    XXY     -80.2074    XYY      -2.4848
       YYY    -243.2295    XXZ      79.6102    XYZ      -3.6626
       YYZ      52.3498    XZZ      -1.2097    YZZ      -7.1584
       ZZZ     272.1416
    Hexadecapole Moments (Debye-Ang^3)
      XXXX    -132.8449   XXXY     -78.0975   XXYY    -391.3428
      XYYY     -76.8347   YYYY   -2041.5184   XXXZ      68.9603
      XXYZ     281.6717   XYYZ       9.2668   YYYZ     665.7897
      XXZZ    -638.6843   XYZZ       3.9765   YYZZ    -623.1273
      XZZZ      41.6249   YZZZ     514.4757   ZZZZ   -3710.6993
 -----------------------------------------------------------------
 Total job time:  56.48s(wall), 2105.40s(cpu) 
 Tue Jan  9 09:51:36 2024

        *************************************************************
        *                                                           *
        *  Thank you very much for using Q-Chem.  Have a nice day.  *
        *                                                           *
        *************************************************************


0 sent ACK to 0 
now end server 0 ... 
cleanup process ... done
remove work dirs ./qchem2522848.0 -- ./qchem2522848.0
rm -rf ./qchem2522848.0
rm -rf ./qchem2522848
