You are running Q-Chem version: 5.4.0

#
# job setting
#
local host:  exp-7-25
current dir: /home/rramji/project-csd799/aromodel/ptb7fout-qchem/methylated-rotation-run
input file:  Dimethoxy_Benzodithiophene_Phi_30_Theta_110_Methylcarbonyl_3_Fluoro_Thienothiophene_Hydrogenated_Improper.qcin
output file: 
nprocs     : 1
nthreads   : 64
#
# qchem installation setting
#
QC:          /cm/shared/apps/spack/cpu/opt/spack/linux-centos8-zen2/gcc-10.2.0/qchem-5.4-akfmr7b3t57bfs6qan3padb2wnb2i7cl
QCAUX:       /cm/shared/apps/spack/cpu/opt/spack/linux-centos8-zen2/gcc-10.2.0/qchem-5.4-akfmr7b3t57bfs6qan3padb2wnb2i7cl/qcaux
QCPROG:      /cm/shared/apps/spack/cpu/opt/spack/linux-centos8-zen2/gcc-10.2.0/qchem-5.4-akfmr7b3t57bfs6qan3padb2wnb2i7cl/exe/qcprog.exe
QCPROG_S:    /cm/shared/apps/spack/cpu/opt/spack/linux-centos8-zen2/gcc-10.2.0/qchem-5.4-akfmr7b3t57bfs6qan3padb2wnb2i7cl/exe/qcprog.exe_s
PARALLEL:    -DPARALLEL
QCMPI:       mpich
#
# qchem directory setting
#
qcrun:       qchem960250
QCSCRATCH:   .
QCLOCALSCR:  
QCTMPDIR:    .
QCFILEPREF:  ./qchem960250
QCSAVEDIR:   
workdirs:    ./qchem960250
workdir0:    ./qchem960250
partmpdirs =  
#
# parallel setting
#
QCRSH:           ssh
QCMPI:           mpich
QCMPIRUN:        /cm/shared/apps/spack/cpu/opt/spack/linux-centos8-zen2/gcc-10.2.0/qchem-5.4-akfmr7b3t57bfs6qan3padb2wnb2i7cl/bin/mpi/mpirun_qchem
QCMACHINEFILE:   ./qchem960250/hostfile
exp-7-25

#
# env setting
#
exported envs:   QC QCAUX QCSCRATCH QCRUNNAME QCFILEPREF QCPROG QCPROG_S GUIFILE

Running Job 1 of 1 Dimethoxy_Benzodithiophene_Phi_30_Theta_110_Methylcarbonyl_3_Fluoro_Thienothiophene_Hydrogenated_Improper.qcin
qchem Dimethoxy_Benzodithiophene_Phi_30_Theta_110_Methylcarbonyl_3_Fluoro_Thienothiophene_Hydrogenated_Improper.qcin_960250.0 ./qchem960250/ 1
/cm/shared/apps/spack/cpu/opt/spack/linux-centos8-zen2/gcc-10.2.0/qchem-5.4-akfmr7b3t57bfs6qan3padb2wnb2i7cl/bin/mpi/mpirun_qchem -machinefile ./qchem960250/hostfile -np 1 /cm/shared/apps/spack/cpu/opt/spack/linux-centos8-zen2/gcc-10.2.0/qchem-5.4-akfmr7b3t57bfs6qan3padb2wnb2i7cl/exe/qcprog.exe Dimethoxy_Benzodithiophene_Phi_30_Theta_110_Methylcarbonyl_3_Fluoro_Thienothiophene_Hydrogenated_Improper.qcin_960250.0 ./qchem960250/

Process 0 of 1 is on exp-7-25 - thread support 0
initial socket setup ...start
initial socket setup ...done 
now start server 0 ... 
                  Welcome to Q-Chem
     A Quantum Leap Into The Future Of Chemistry


 Q-Chem 5.4, Q-Chem, Inc., Pleasanton, CA (2021)

 License issued to: University of California, San Diego (site)

 E. Epifanovsky,  A. T. B. Gilbert,  Xintian Feng,  Joonho Lee,  Yuezhi Mao,  
 N. Mardirossian,  P. Pokhilko,  A. White,  M. Wormit,  M. P. Coons,  
 A. L. Dempwolff,  Zhengting Gan,  D. Hait,  P. R. Horn,  L. D. Jacobson,  
 I. Kaliman,  J. Kussmann,  A. W. Lange,  Ka Un Lao,  D. S. Levine,  Jie Liu,  
 S. C. McKenzie,  A. F. Morrison,  K. Nanda,  F. Plasser,  D. R. Rehn,  
 M. L. Vidal,  Zhi-Qiang You,  Ying Zhu,  B. Alam,  B. Albrecht,  
 A. Aldossary,  E. Alguire,  J. H. Andersen,  D. Barton,  K. Begam,  A. Behn,  
 Y. A. Bernard,  E. J. Berquist,  H. Burton,  A. Carreras,  K. Carter-Fenk,  
 R. Chakraborty,  A. D. Chien,  K. D. Closser,  V. Cofer-Shabica,  
 S. Dasgupta,  Jia Deng,  M. de Wergifosse,  M. Diedenhofen,  Hainam Do,  
 S. Ehlert,  Po-Tung Fang,  S. Fatehi,  Qingguo Feng,  J. Gayvert,  
 Qinghui Ge,  G. Gidofalvi,  M. Goldey,  J. Gomes,  C. Gonzalez-Espinoza,  
 S. Gulania,  A. Gunina,  M. W. D. Hanson-Heine,  P. H. P. Harbach,  
 A. W. Hauser,  M. F. Herbst,  M. Hernandez Vera,  M. Hodecker,  
 Z. C. Holden,  S. Houck,  Xunkun Huang,  Kerwin Hui,  B. C. Huynh,  
 M. Ivanov,  Hyunjun Ji,  Hanjie Jiang,  B. Kaduk,  S. Kaehler,  
 K. Khistyaev,  Jaehoon Kim,  P. Klunzinger,  Z. Koczor-Benda,  
 Joong Hoon Koh,  D. Kosenkov,  L. Koulias,  T. Kowalczyk,  C. M. Krauter,  
 K. Kue,  A. Kunitsa,  T. Kus,  A. Landau,  K. V. Lawler,  D. Lefrancois,  
 S. Lehtola,  Rain Li,  Yi-Pei Li,  Jiashu Liang,  M. Liebenthal,  
 Hung-Hsuan Lin,  You-Sheng Lin,  Fenglai Liu,  Kuan-Yu Liu,  
 M. Loipersberger,  A. Luenser,  A. Manjanath,  P. Manohar,  E. Mansoor,  
 S. F. Manzer,  Shan-Ping Mao,  A. V. Marenich,  T. Markovich,  S. Mason,  
 S. A. Maurer,  P. F. McLaughlin,  M. F. S. J. Menger,  J.-M. Mewes,  
 S. A. Mewes,  P. Morgante,  J. W. Mullinax,  T. S. Nguyen-Beck,  
 K. J. Oosterbaan,  G. Paran,  Alexander C. Paul,  Suranjan K. Paul,  
 F. Pavosevic,  Zheng Pei,  S. Prager,  E. I. Proynov,  E. Ramos,  B. Rana,  
 A. E. Rask,  A. Rettig,  R. M. Richard,  F. Rob,  E. Rossomme,  T. Scheele,  
 M. Scheurer,  M. Schneider,  N. Sergueev,  S. M. Sharada,  W. Skomorowski,  
 D. W. Small,  C. J. Stein,  Yu-Chuan Su,  E. J. Sundstrom,  Zhen Tao,  
 J. Thirman,  T. Tsuchimochi,  N. M. Tubman,  S. P. Veccham,  O. Vydrov,  
 J. Wenzel,  J. Witte,  A. Yamada,  Kun Yao,  S. Yeganeh,  S. R. Yost,  
 A. Zech,  Igor Ying Zhang,  Xing Zhang,  Yu Zhang,  D. Zuev,  
 A. Aspuru-Guzik,  A. T. Bell,  N. A. Besley,  K. B. Bravaya,  B. R. Brooks,  
 D. Casanova,  Jeng-Da Chai,  S. Coriani,  C. J. Cramer,  
 A. E. DePrince, III,  R. A. DiStasio Jr.,  A. Dreuw,  B. D. Dunietz,  
 T. R. Furlani,  W. A. Goddard III,  S. Grimme,  S. Hammes-Schiffer,  
 T. Head-Gordon,  W. J. Hehre,  Chao-Ping Hsu,  T.-C. Jagau,  Yousung Jung,  
 A. Klamt,  Jing Kong,  D. S. Lambrecht,  WanZhen Liang,  N. J. Mayhall,  
 C. W. McCurdy,  J. B. Neaton,  C. Ochsenfeld,  J. A. Parkhill,  R. Peverati,  
 V. A. Rassolov,  Yihan Shao,  L. V. Slipchenko,  T. Stauch,  R. P. Steele,  
 J. E. Subotnik,  A. J. W. Thom,  A. Tkatchenko,  D. G. Truhlar,  
 T. Van Voorhis,  T. A. Wesolowski,  K. B. Whaley,  H. L. Woodcock III,  
 P. M. Zimmerman,  S. Faraji,  P. M. W. Gill,  M. Head-Gordon,  
 J. M. Herbert,  A. I. Krylov

 Contributors to earlier versions of Q-Chem not listed above: 
 R. D. Adamson,  B. Austin,  R. Baer,  J. Baker,  G. J. O. Beran,  
 K. Brandhorst,  S. T. Brown,  E. F. C. Byrd,  A. K. Chakraborty,  
 G. K. L. Chan,  Chun-Min Chang,  Yunqing Chen,  C.-L. Cheng,  
 Siu Hung Chien,  D. M. Chipman,  D. L. Crittenden,  H. Dachsel,  
 R. J. Doerksen,  A. D. Dutoi,  R. G. Edgar,  J. Fosso-Tande,  
 L. Fusti-Molnar,  D. Ghosh,  A. Ghysels,  A. Golubeva-Zadorozhnaya,  
 J. Gonthier,  M. S. Gordon,  S. R. Gwaltney,  G. Hawkins,  J. E. Herr,  
 A. Heyden,  S. Hirata,  E. G. Hohenstein,  G. Kedziora,  F. J. Keil,  
 C. Kelley,  Jihan Kim,  R. A. King,  R. Z. Khaliullin,  P. P. Korambath,  
 W. Kurlancheek,  A. Laurent,  A. M. Lee,  M. S. Lee,  S. V. Levchenko,  
 Ching Yeh Lin,  D. Liotard,  E. Livshits,  R. C. Lochan,  I. Lotan,  
 L. A. Martinez-Martinez,  P. E. Maslen,  N. Nair,  D. P. O'Neill,  
 D. Neuhauser,  E. Neuscamman,  C. M. Oana,  R. Olivares-Amaya,  R. Olson,  
 T. M. Perrine,  B. Peters,  P. A. Pieniazek,  A. Prociuk,  Y. M. Rhee,  
 J. Ritchie,  M. A. Rohrdanz,  E. Rosta,  N. J. Russ,  H. F. Schaefer III,  
 M. W. Schmidt,  N. E. Schultz,  S. Sharma,  N. Shenvi,  C. D. Sherrill,  
 A. C. Simmonett,  A. Sodt,  T. Stein,  D. Stuck,  K. S. Thanthiriwatte,  
 V. Vanovschi,  L. Vogt,  Tao Wang,  A. Warshel,  M. A. Watson,  
 C. F. Williams,  Q. Wu,  X. Xu,  Jun Yang,  W. Zhang,  Yan Zhao

 Please cite Q-Chem as follows:
 Y. Shao et al., Mol. Phys. 113, 184-215 (2015)
 DOI: 10.1080/00268976.2014.952696

 Q-Chem 5.4.0 for Intel X86 EM64T Linux

 Parts of Q-Chem use Armadillo 9.800.1 (Horizon Scraper).
 http://arma.sourceforge.net/

 Q-Chem begins on Tue Jan  9 09:59:52 2024  

 Host: 
0

     Scratch files written to ./qchem960250//
 May1621 |scratch|qcdevops|jenkins|workspace|build_RNUM    
 Parallel job on  1  processors
 Processing $rem in /cm/shared/apps/spack/cpu/opt/spack/linux-centos8-zen2/gcc-10.2.0/qchem-5.4-akfmr7b3t57bfs6qan3padb2wnb2i7cl/config/preferences:
 Processing $rem in /home/rramji/.qchemrc:
 Symmetry turned off for PCM/SM12/SMD calculation
 Core orbitals will be frozen

 Checking the input file for inconsistencies... 	...done.

 Q-Chem warning in module forms1/BasisType.C, line 2236:

 You are not using the predefined 5D/6D in this basis set.


--------------------------------------------------------------
User input:
--------------------------------------------------------------
$molecule
0 1
C	-0.519478	-0.851940	0.973626
S	-0.066678	-0.068640	2.481126
C	0.718922	1.293660	1.692526
C	-0.066578	-0.069040	-0.094274
C	0.626422	1.136060	0.287226
S	-0.185878	-0.281440	-1.831874
C	0.685122	1.238360	-2.080874
C	1.037122	1.852960	-0.888974
F	1.701322	3.012960	-0.845474
C	0.910822	1.625360	-3.482474
O	0.532722	0.954660	-4.432874
O	1.579522	2.798760	-3.595574
C	1.831622	3.224860	-4.942574
H	2.376122	4.181860	-4.859474
H	0.881522	3.365460	-5.496574
H	2.442922	2.476060	-5.485674
C	-0.519478	-2.287140	0.973626
H	-0.881878	-2.295140	1.991026
H	-1.309578	-2.965040	0.686326
H	0.366422	-2.818240	1.289026
H	1.179822	2.094760	2.280126
$end

$rem
JOBTYPE		SP
EXCHANGE	HF
CORRELATION	pRIMP2
BASIS		cc-pvtz
METHOD		rimp2
AUX_BASIS	rimp2-cc-pvtz
SOLVENT_METHOD	PCM
PURECART	11111
SYMMETRY	false
MEM_TOTAL	110000
SCF_CONVERGENCE = 6
THRESH=10
GUI = 2
$end



$solvent
dielectric 4.90
$end
--------------------------------------------------------------
 ----------------------------------------------------------------
             Standard Nuclear Orientation (Angstroms)
    I     Atom           X                Y                Z
 ----------------------------------------------------------------
    1      C      -0.5194780000    -0.8519400000     0.9736260000
    2      S      -0.0666780000    -0.0686400000     2.4811260000
    3      C       0.7189220000     1.2936600000     1.6925260000
    4      C      -0.0665780000    -0.0690400000    -0.0942740000
    5      C       0.6264220000     1.1360600000     0.2872260000
    6      S      -0.1858780000    -0.2814400000    -1.8318740000
    7      C       0.6851220000     1.2383600000    -2.0808740000
    8      C       1.0371220000     1.8529600000    -0.8889740000
    9      F       1.7013220000     3.0129600000    -0.8454740000
   10      C       0.9108220000     1.6253600000    -3.4824740000
   11      O       0.5327220000     0.9546600000    -4.4328740000
   12      O       1.5795220000     2.7987600000    -3.5955740000
   13      C       1.8316220000     3.2248600000    -4.9425740000
   14      H       2.3761220000     4.1818600000    -4.8594740000
   15      H       0.8815220000     3.3654600000    -5.4965740000
   16      H       2.4429220000     2.4760600000    -5.4856740000
   17      C      -0.5194780000    -2.2871400000     0.9736260000
   18      H      -0.8818780000    -2.2951400000     1.9910260000
   19      H      -1.3095780000    -2.9650400000     0.6863260000
   20      H       0.3664220000    -2.8182400000     1.2890260000
   21      H       1.1798220000     2.0947600000     2.2801260000
 ----------------------------------------------------------------
 Nuclear Repulsion Energy =        1084.40380943 hartrees
 There are       59 alpha and       59 beta electrons
 Requested basis set is cc-pVTZ
 There are 186 shells and 526 basis functions

 Total QAlloc Memory Limit 110000 MB
 Mega-Array Size       188 MB
 MEM_STATIC part       192 MB
 Discretize the solute cavity surface with Lebedev spheres
	Using 110 Lebedev grid points for each H atom
	Using 194 Lebedev grid points for other atoms
	Atomic van der Waals radii will be scaled by 1.20
 Remove points where switching function is < 1.0e-08
 Keep 1545 surface tesserae and discard 1941 interior tesserae
 Molecular Surface Area = 242.057 Angst**2
 Requested basis set is rimp2-cc-pVTZ
 There are 410 shells and 1426 basis functions
 A cutoff of  1.0D-10 yielded  11514 shell pairs
 There are     90248 function pairs (    118120 Cartesian)
 Smallest overlap matrix eigenvalue = 6.12E-05

 Scale SEOQF with 1.000000e-01/1.000000e-01/1.000000e-02

 Standard Electronic Orientation quadrupole field applied
 Nucleus-field energy     =     0.0000000222 hartrees
 Guess from superposition of atomic densities
 Warning:  Energy on first SCF cycle will be non-variational
 SAD guess density has 118.000000 electrons

 -----------------------------------------------------------------------
  General SCF calculation program by
  Eric Jon Sundstrom, Paul Horn, Yuezhi Mao, Dmitri Zuev, Alec White,
  David Stuck, Shaama M.S., Shane Yost, Joonho Lee, David Small,
  Daniel Levine, Susi Lehtola, Hugh Burton, Evgeny Epifanovsky,
  Bang C. Huynh
 -----------------------------------------------------------------------
 Hartree-Fock
 using 64 threads for integral computing
 -------------------------------------------------------
 OpenMP Integral computing Module                
 Release: version 1.0, May 2013, Q-Chem Inc. Pittsburgh 
 -------------------------------------------------------
 A restricted SCF calculation will be
 performed using DIIS
 SCF converges when DIIS error is below 1.0e-06
 ---------------------------------------
  Cycle       Energy         DIIS error
 ---------------------------------------
    1   -1394.2666746139      2.47e-02  
    2   -1389.0168344744      2.47e-03  
    3   -1389.1873630825      1.54e-03  
    4   -1389.2469741566      3.54e-04  
    5   -1389.2527703336      1.12e-04  
    6   -1389.2534585206      3.65e-05  
    7   -1389.2536053690      1.82e-05  
    8   -1389.2536556784      7.04e-06  
    9   -1389.2536662645      3.00e-06  
   10   -1389.2536677605      1.11e-06  
   11   -1389.2536679750      4.62e-07  Convergence criterion met
 ---------------------------------------
 SCF time:   CPU 1650.21s  wall 51.00s 

************** Final PCM Free Energy Summary **************
 G_electrostatic  =      -0.01186354 hartree =      -7.44448443 kcal/mol
 G_cavitation     =       0.00000000 hartree =       0.00000000 kcal/mol
 G_dispersion     =       0.00000000 hartree =       0.00000000 kcal/mol
 G_repulsion      =       0.00000000 hartree =       0.00000000 kcal/mol
 --------------------------------------------------
 Non-electrostatic Free Energy =       0.00000000 hartree =       0.00000000 kcal/mol
 Total                         =      -0.01186354 hartree =      -7.44448443 kcal/mol
 --------------------------------------------------
 SCF Energy (H0 + V/2)                       =   -1389.25366797 
 Solute Internal Energy (H0)                 =   -1389.24180443 
 Total Free Energy (H0 + V/2 + non-elec)     =   -1389.25366797 hartree
                                             = -871769.83427579 kcal/mol
***********************************************************

 SCF   energy in the final basis set =    -1389.2536679750
 Total energy in the final basis set =    -1389.2536679750


 --------------------------------------------------------------
  Generalized many-body perturbation theory program
  by Joonho Lee, Fazle Rob, Xintian Feng, Evgeny Epifanovsky

 No regularization used 
 (reg. param. = 0.0000e+00)
  (P|Q)^-1/2 Time:  CPU 45.13 s  wall 0.76 s

 In RI-MP2 calculation: 
 # of frozen core orbitals: 22

 Components of the RIMP2 correlation energy:
        aaaa    correlation energy =        -0.3289675167 a.u.
        abab    correlation energy =        -1.8506627907 a.u.
        bbbb    correlation energy =        -0.3289675167 a.u.
        non-Brillouin singles      =        -0.0000000000 a.u.
        total same-spin energy     =        -0.6579350335 a.u.
        total opposite-spin energy =        -1.8506627907 a.u.

 Total  RIMP2   correlation energy =        -2.5085978242 a.u.
        RIMP2         total energy =     -1391.7622657992 a.u.

 RI-MP2 Energy Time:  CPU 261.69 s  wall 4.53 s
 
 --------------------------------------------------------------
 
                    Orbital Energies (a.u.)
 --------------------------------------------------------------
 
 Alpha MOs
 -- Occupied --
-92.0075 -91.9944 -26.3410 -20.6135 -20.5595 -11.4075 -11.3793 -11.3060
-11.2941 -11.2891 -11.2881 -11.2835 -11.2791 -11.2224  -9.0065  -8.9944
 -6.6873  -6.6866  -6.6862  -6.6755  -6.6747  -6.6737  -1.6582  -1.4658
 -1.3685  -1.2141  -1.1382  -1.0648  -1.0206  -0.9937  -0.9591  -0.9110
 -0.8644  -0.8076  -0.7889  -0.7583  -0.7315  -0.7231  -0.6919  -0.6832
 -0.6727  -0.6605  -0.6083  -0.6011  -0.5914  -0.5784  -0.5648  -0.5587
 -0.5327  -0.5298  -0.5084  -0.4800  -0.4730  -0.4715  -0.4636  -0.4616
 -0.3895  -0.3446  -0.2925
 -- Virtual --
  0.0374   0.1044   0.1312   0.1552   0.1583   0.1719   0.1812   0.1946
  0.2114   0.2157   0.2229   0.2286   0.2381   0.2487   0.2541   0.2713
  0.2854   0.3001   0.3096   0.3381   0.3462   0.3557   0.3703   0.3771
  0.3849   0.3924   0.4005   0.4133   0.4241   0.4296   0.4425   0.4446
  0.4586   0.4605   0.4723   0.4759   0.4974   0.5065   0.5124   0.5130
  0.5294   0.5341   0.5380   0.5445   0.5519   0.5560   0.5661   0.5835
  0.5892   0.6001   0.6016   0.6065   0.6153   0.6205   0.6240   0.6340
  0.6434   0.6483   0.6563   0.6600   0.6727   0.6877   0.6941   0.7103
  0.7137   0.7180   0.7380   0.7432   0.7592   0.7653   0.7732   0.8011
  0.8147   0.8229   0.8266   0.8441   0.8584   0.8606   0.8666   0.8732
  0.8786   0.8861   0.9035   0.9113   0.9358   0.9492   0.9562   0.9675
  0.9751   0.9879   0.9946   1.0128   1.0262   1.0338   1.0407   1.0583
  1.0665   1.0756   1.0789   1.0952   1.1085   1.1124   1.1181   1.1247
  1.1424   1.1487   1.1616   1.1764   1.1852   1.1966   1.2084   1.2151
  1.2282   1.2415   1.2477   1.2571   1.2629   1.2706   1.2865   1.3014
  1.3121   1.3318   1.3341   1.3568   1.3605   1.3796   1.3898   1.4008
  1.4194   1.4243   1.4341   1.4611   1.4791   1.4940   1.5029   1.5094
  1.5144   1.5402   1.5430   1.5484   1.5618   1.5744   1.5872   1.6036
  1.6141   1.6317   1.6423   1.6643   1.6676   1.6877   1.7049   1.7370
  1.7505   1.7653   1.7872   1.8003   1.8170   1.8213   1.8268   1.8533
  1.8749   1.8830   1.8973   1.9226   1.9263   1.9310   1.9499   1.9666
  1.9864   2.0032   2.0042   2.0331   2.0537   2.0732   2.0840   2.0981
  2.1089   2.1567   2.1669   2.1869   2.1969   2.1992   2.2153   2.2240
  2.2322   2.2423   2.2561   2.2781   2.2910   2.3045   2.3281   2.3372
  2.3584   2.3717   2.3917   2.4142   2.4305   2.4409   2.4823   2.4862
  2.5190   2.5420   2.5500   2.5687   2.5850   2.6032   2.6303   2.6416
  2.6451   2.6550   2.6666   2.6810   2.6873   2.6982   2.7077   2.7199
  2.7384   2.7489   2.7690   2.7836   2.7962   2.8053   2.8132   2.8301
  2.8352   2.8385   2.8619   2.8813   2.8960   2.9087   2.9268   2.9458
  2.9546   2.9781   2.9855   2.9908   3.0240   3.0276   3.0505   3.0634
  3.0695   3.0846   3.0938   3.1005   3.1199   3.1282   3.1369   3.1471
  3.1495   3.1686   3.2008   3.2136   3.2167   3.2276   3.2330   3.2425
  3.2540   3.2644   3.2694   3.2815   3.2839   3.2972   3.3145   3.3323
  3.3448   3.3531   3.3623   3.3755   3.3875   3.3977   3.4037   3.4130
  3.4243   3.4329   3.4467   3.4546   3.4691   3.4713   3.4798   3.4873
  3.4981   3.5087   3.5270   3.5420   3.5551   3.5609   3.5739   3.5809
  3.5902   3.5986   3.6080   3.6186   3.6305   3.6428   3.6670   3.6778
  3.6849   3.6880   3.7033   3.7072   3.7187   3.7273   3.7382   3.7460
  3.7649   3.7835   3.7884   3.7996   3.8056   3.8155   3.8221   3.8314
  3.8482   3.8555   3.8702   3.8849   3.9071   3.9114   3.9184   3.9311
  3.9439   3.9477   3.9583   3.9734   3.9983   4.0205   4.0413   4.0473
  4.0682   4.0825   4.0863   4.1088   4.1250   4.1324   4.1605   4.1635
  4.1674   4.1995   4.2190   4.2321   4.2632   4.2772   4.3116   4.3301
  4.3426   4.3559   4.3598   4.3726   4.3964   4.4199   4.4308   4.4376
  4.4569   4.4852   4.5175   4.5341   4.5393   4.5742   4.5798   4.5876
  4.6100   4.6116   4.6417   4.6631   4.6690   4.7148   4.7243   4.7440
  4.7672   4.7790   4.8034   4.8211   4.8408   4.8554   4.8777   4.9134
  4.9668   4.9962   5.0017   5.0098   5.0568   5.0701   5.1080   5.1182
  5.1420   5.1874   5.2078   5.2522   5.2551   5.2598   5.3115   5.3529
  5.3579   5.4000   5.4204   5.4269   5.4277   5.4856   5.4927   5.5218
  5.5375   5.5824   5.6023   5.6232   5.6604   5.7148   5.7385   5.7667
  5.7925   5.8087   5.8242   5.8627   5.9013   5.9305   5.9752   6.0065
  6.0435   6.0499   6.1511   6.1514   6.1858   6.2625   6.2645   6.3563
  6.4501   6.4516   6.5388   6.6014   6.6621   6.6727   6.7467   6.8309
  6.8610   6.9794   7.2052   7.2057   7.3113   7.3647   7.3652   7.4067
  7.4146   7.4877   7.5222   7.5508   7.6157   7.7751   7.7895   7.8891
  7.9523   8.1336   8.1766   8.9240   9.0141   9.3650   9.4671   9.6534
 10.1076  11.0968  11.6334  11.8189  12.4042  12.9255  13.1006  13.3850
 13.7688  14.0291  14.3537
 --------------------------------------------------------------
 
          Ground-State Mulliken Net Atomic Charges

     Atom                 Charge (a.u.)
  ----------------------------------------
      1 C                    -0.021745
      2 S                     0.081903
      3 C                    -0.196266
      4 C                     0.002585
      5 C                    -0.089865
      6 S                     0.006533
      7 C                    -0.159013
      8 C                     0.393012
      9 F                    -0.208315
     10 C                     0.445766
     11 O                    -0.462671
     12 O                    -0.301132
     13 C                    -0.058485
     14 H                     0.121039
     15 H                     0.094790
     16 H                     0.094708
     17 C                    -0.358113
     18 H                     0.108662
     19 H                     0.153588
     20 H                     0.138370
     21 H                     0.214651
  ----------------------------------------
  Sum of atomic charges =     0.000000

 -----------------------------------------------------------------
                    Cartesian Multipole Moments
 -----------------------------------------------------------------
    Charge (ESU x 10^10)
                -0.0000
    Dipole Moment (Debye)
         X       1.1103      Y       0.7595      Z       3.6723
       Tot       3.9109
    Quadrupole Moments (Debye-Ang)
        XX     -93.6687     XY       5.5642     YY     -84.7264
        XZ      -4.0919     YZ      -9.5134     ZZ     -95.3286
    Octopole Moments (Debye-Ang^2)
       XXX    -127.8783    XXY     -67.1329    XYY     -39.8338
       YYY    -205.6867    XXZ      71.3433    XYZ     -14.2658
       YYZ      60.4397    XZZ      -4.2313    YZZ      -3.1114
       ZZZ     270.4406
    Hexadecapole Moments (Debye-Ang^3)
      XXXX    -566.0786   XXXY    -402.0932   XXYY    -357.5021
      XYYY    -369.7133   YYYY   -1651.6443   XXXZ     387.1944
      XXYZ     214.3211   XYYZ      74.5984   YYYZ     627.4095
      XXZZ    -628.4992   XYZZ      11.4202   YYZZ    -638.0704
      XZZZ     244.4546   YZZZ     463.5892   ZZZZ   -3712.7149
 -----------------------------------------------------------------
 Total job time:  58.73s(wall), 2001.28s(cpu) 
 Tue Jan  9 10:00:51 2024

        *************************************************************
        *                                                           *
        *  Thank you very much for using Q-Chem.  Have a nice day.  *
        *                                                           *
        *************************************************************


0 sent ACK to 0 
now end server 0 ... 
cleanup process ... done
remove work dirs ./qchem960250.0 -- ./qchem960250.0
rm -rf ./qchem960250.0
rm -rf ./qchem960250
