You are running Q-Chem version: 5.4.0

#
# job setting
#
local host:  exp-14-38
current dir: /home/rramji/project-csd799/aromodel/ptb7fout-qchem/methylated-rotation-run
input file:  Dimethoxy_Benzodithiophene_Phi_50_Theta_70_Methylcarbonyl_3_Fluoro_Thienothiophene_Hydrogenated_Improper.qcin
output file: 
nprocs     : 1
nthreads   : 64
#
# qchem installation setting
#
QC:          /cm/shared/apps/spack/cpu/opt/spack/linux-centos8-zen2/gcc-10.2.0/qchem-5.4-akfmr7b3t57bfs6qan3padb2wnb2i7cl
QCAUX:       /cm/shared/apps/spack/cpu/opt/spack/linux-centos8-zen2/gcc-10.2.0/qchem-5.4-akfmr7b3t57bfs6qan3padb2wnb2i7cl/qcaux
QCPROG:      /cm/shared/apps/spack/cpu/opt/spack/linux-centos8-zen2/gcc-10.2.0/qchem-5.4-akfmr7b3t57bfs6qan3padb2wnb2i7cl/exe/qcprog.exe
QCPROG_S:    /cm/shared/apps/spack/cpu/opt/spack/linux-centos8-zen2/gcc-10.2.0/qchem-5.4-akfmr7b3t57bfs6qan3padb2wnb2i7cl/exe/qcprog.exe_s
PARALLEL:    -DPARALLEL
QCMPI:       mpich
#
# qchem directory setting
#
qcrun:       qchem2776843
QCSCRATCH:   .
QCLOCALSCR:  
QCTMPDIR:    .
QCFILEPREF:  ./qchem2776843
QCSAVEDIR:   
workdirs:    ./qchem2776843
workdir0:    ./qchem2776843
partmpdirs =  
#
# parallel setting
#
QCRSH:           ssh
QCMPI:           mpich
QCMPIRUN:        /cm/shared/apps/spack/cpu/opt/spack/linux-centos8-zen2/gcc-10.2.0/qchem-5.4-akfmr7b3t57bfs6qan3padb2wnb2i7cl/bin/mpi/mpirun_qchem
QCMACHINEFILE:   ./qchem2776843/hostfile
exp-14-38

#
# env setting
#
exported envs:   QC QCAUX QCSCRATCH QCRUNNAME QCFILEPREF QCPROG QCPROG_S GUIFILE

Running Job 1 of 1 Dimethoxy_Benzodithiophene_Phi_50_Theta_70_Methylcarbonyl_3_Fluoro_Thienothiophene_Hydrogenated_Improper.qcin
qchem Dimethoxy_Benzodithiophene_Phi_50_Theta_70_Methylcarbonyl_3_Fluoro_Thienothiophene_Hydrogenated_Improper.qcin_2776843.0 ./qchem2776843/ 1
/cm/shared/apps/spack/cpu/opt/spack/linux-centos8-zen2/gcc-10.2.0/qchem-5.4-akfmr7b3t57bfs6qan3padb2wnb2i7cl/bin/mpi/mpirun_qchem -machinefile ./qchem2776843/hostfile -np 1 /cm/shared/apps/spack/cpu/opt/spack/linux-centos8-zen2/gcc-10.2.0/qchem-5.4-akfmr7b3t57bfs6qan3padb2wnb2i7cl/exe/qcprog.exe Dimethoxy_Benzodithiophene_Phi_50_Theta_70_Methylcarbonyl_3_Fluoro_Thienothiophene_Hydrogenated_Improper.qcin_2776843.0 ./qchem2776843/

Process 0 of 1 is on exp-14-38 - thread support 0
initial socket setup ...start
initial socket setup ...done 
now start server 0 ... 
                  Welcome to Q-Chem
     A Quantum Leap Into The Future Of Chemistry


 Q-Chem 5.4, Q-Chem, Inc., Pleasanton, CA (2021)

 License issued to: University of California, San Diego (site)

 E. Epifanovsky,  A. T. B. Gilbert,  Xintian Feng,  Joonho Lee,  Yuezhi Mao,  
 N. Mardirossian,  P. Pokhilko,  A. White,  M. Wormit,  M. P. Coons,  
 A. L. Dempwolff,  Zhengting Gan,  D. Hait,  P. R. Horn,  L. D. Jacobson,  
 I. Kaliman,  J. Kussmann,  A. W. Lange,  Ka Un Lao,  D. S. Levine,  Jie Liu,  
 S. C. McKenzie,  A. F. Morrison,  K. Nanda,  F. Plasser,  D. R. Rehn,  
 M. L. Vidal,  Zhi-Qiang You,  Ying Zhu,  B. Alam,  B. Albrecht,  
 A. Aldossary,  E. Alguire,  J. H. Andersen,  D. Barton,  K. Begam,  A. Behn,  
 Y. A. Bernard,  E. J. Berquist,  H. Burton,  A. Carreras,  K. Carter-Fenk,  
 R. Chakraborty,  A. D. Chien,  K. D. Closser,  V. Cofer-Shabica,  
 S. Dasgupta,  Jia Deng,  M. de Wergifosse,  M. Diedenhofen,  Hainam Do,  
 S. Ehlert,  Po-Tung Fang,  S. Fatehi,  Qingguo Feng,  J. Gayvert,  
 Qinghui Ge,  G. Gidofalvi,  M. Goldey,  J. Gomes,  C. Gonzalez-Espinoza,  
 S. Gulania,  A. Gunina,  M. W. D. Hanson-Heine,  P. H. P. Harbach,  
 A. W. Hauser,  M. F. Herbst,  M. Hernandez Vera,  M. Hodecker,  
 Z. C. Holden,  S. Houck,  Xunkun Huang,  Kerwin Hui,  B. C. Huynh,  
 M. Ivanov,  Hyunjun Ji,  Hanjie Jiang,  B. Kaduk,  S. Kaehler,  
 K. Khistyaev,  Jaehoon Kim,  P. Klunzinger,  Z. Koczor-Benda,  
 Joong Hoon Koh,  D. Kosenkov,  L. Koulias,  T. Kowalczyk,  C. M. Krauter,  
 K. Kue,  A. Kunitsa,  T. Kus,  A. Landau,  K. V. Lawler,  D. Lefrancois,  
 S. Lehtola,  Rain Li,  Yi-Pei Li,  Jiashu Liang,  M. Liebenthal,  
 Hung-Hsuan Lin,  You-Sheng Lin,  Fenglai Liu,  Kuan-Yu Liu,  
 M. Loipersberger,  A. Luenser,  A. Manjanath,  P. Manohar,  E. Mansoor,  
 S. F. Manzer,  Shan-Ping Mao,  A. V. Marenich,  T. Markovich,  S. Mason,  
 S. A. Maurer,  P. F. McLaughlin,  M. F. S. J. Menger,  J.-M. Mewes,  
 S. A. Mewes,  P. Morgante,  J. W. Mullinax,  T. S. Nguyen-Beck,  
 K. J. Oosterbaan,  G. Paran,  Alexander C. Paul,  Suranjan K. Paul,  
 F. Pavosevic,  Zheng Pei,  S. Prager,  E. I. Proynov,  E. Ramos,  B. Rana,  
 A. E. Rask,  A. Rettig,  R. M. Richard,  F. Rob,  E. Rossomme,  T. Scheele,  
 M. Scheurer,  M. Schneider,  N. Sergueev,  S. M. Sharada,  W. Skomorowski,  
 D. W. Small,  C. J. Stein,  Yu-Chuan Su,  E. J. Sundstrom,  Zhen Tao,  
 J. Thirman,  T. Tsuchimochi,  N. M. Tubman,  S. P. Veccham,  O. Vydrov,  
 J. Wenzel,  J. Witte,  A. Yamada,  Kun Yao,  S. Yeganeh,  S. R. Yost,  
 A. Zech,  Igor Ying Zhang,  Xing Zhang,  Yu Zhang,  D. Zuev,  
 A. Aspuru-Guzik,  A. T. Bell,  N. A. Besley,  K. B. Bravaya,  B. R. Brooks,  
 D. Casanova,  Jeng-Da Chai,  S. Coriani,  C. J. Cramer,  
 A. E. DePrince, III,  R. A. DiStasio Jr.,  A. Dreuw,  B. D. Dunietz,  
 T. R. Furlani,  W. A. Goddard III,  S. Grimme,  S. Hammes-Schiffer,  
 T. Head-Gordon,  W. J. Hehre,  Chao-Ping Hsu,  T.-C. Jagau,  Yousung Jung,  
 A. Klamt,  Jing Kong,  D. S. Lambrecht,  WanZhen Liang,  N. J. Mayhall,  
 C. W. McCurdy,  J. B. Neaton,  C. Ochsenfeld,  J. A. Parkhill,  R. Peverati,  
 V. A. Rassolov,  Yihan Shao,  L. V. Slipchenko,  T. Stauch,  R. P. Steele,  
 J. E. Subotnik,  A. J. W. Thom,  A. Tkatchenko,  D. G. Truhlar,  
 T. Van Voorhis,  T. A. Wesolowski,  K. B. Whaley,  H. L. Woodcock III,  
 P. M. Zimmerman,  S. Faraji,  P. M. W. Gill,  M. Head-Gordon,  
 J. M. Herbert,  A. I. Krylov

 Contributors to earlier versions of Q-Chem not listed above: 
 R. D. Adamson,  B. Austin,  R. Baer,  J. Baker,  G. J. O. Beran,  
 K. Brandhorst,  S. T. Brown,  E. F. C. Byrd,  A. K. Chakraborty,  
 G. K. L. Chan,  Chun-Min Chang,  Yunqing Chen,  C.-L. Cheng,  
 Siu Hung Chien,  D. M. Chipman,  D. L. Crittenden,  H. Dachsel,  
 R. J. Doerksen,  A. D. Dutoi,  R. G. Edgar,  J. Fosso-Tande,  
 L. Fusti-Molnar,  D. Ghosh,  A. Ghysels,  A. Golubeva-Zadorozhnaya,  
 J. Gonthier,  M. S. Gordon,  S. R. Gwaltney,  G. Hawkins,  J. E. Herr,  
 A. Heyden,  S. Hirata,  E. G. Hohenstein,  G. Kedziora,  F. J. Keil,  
 C. Kelley,  Jihan Kim,  R. A. King,  R. Z. Khaliullin,  P. P. Korambath,  
 W. Kurlancheek,  A. Laurent,  A. M. Lee,  M. S. Lee,  S. V. Levchenko,  
 Ching Yeh Lin,  D. Liotard,  E. Livshits,  R. C. Lochan,  I. Lotan,  
 L. A. Martinez-Martinez,  P. E. Maslen,  N. Nair,  D. P. O'Neill,  
 D. Neuhauser,  E. Neuscamman,  C. M. Oana,  R. Olivares-Amaya,  R. Olson,  
 T. M. Perrine,  B. Peters,  P. A. Pieniazek,  A. Prociuk,  Y. M. Rhee,  
 J. Ritchie,  M. A. Rohrdanz,  E. Rosta,  N. J. Russ,  H. F. Schaefer III,  
 M. W. Schmidt,  N. E. Schultz,  S. Sharma,  N. Shenvi,  C. D. Sherrill,  
 A. C. Simmonett,  A. Sodt,  T. Stein,  D. Stuck,  K. S. Thanthiriwatte,  
 V. Vanovschi,  L. Vogt,  Tao Wang,  A. Warshel,  M. A. Watson,  
 C. F. Williams,  Q. Wu,  X. Xu,  Jun Yang,  W. Zhang,  Yan Zhao

 Please cite Q-Chem as follows:
 Y. Shao et al., Mol. Phys. 113, 184-215 (2015)
 DOI: 10.1080/00268976.2014.952696

 Q-Chem 5.4.0 for Intel X86 EM64T Linux

 Parts of Q-Chem use Armadillo 9.800.1 (Horizon Scraper).
 http://arma.sourceforge.net/

 Q-Chem begins on Tue Jan  9 09:56:20 2024  

 Host: 
0

     Scratch files written to ./qchem2776843//
 May1621 |scratch|qcdevops|jenkins|workspace|build_RNUM    
 Parallel job on  1  processors
 Processing $rem in /cm/shared/apps/spack/cpu/opt/spack/linux-centos8-zen2/gcc-10.2.0/qchem-5.4-akfmr7b3t57bfs6qan3padb2wnb2i7cl/config/preferences:
 Processing $rem in /home/rramji/.qchemrc:
 Symmetry turned off for PCM/SM12/SMD calculation
 Core orbitals will be frozen

 Checking the input file for inconsistencies... 	...done.

 Q-Chem warning in module forms1/BasisType.C, line 2236:

 You are not using the predefined 5D/6D in this basis set.


--------------------------------------------------------------
User input:
--------------------------------------------------------------
$molecule
0 1
C	-0.798042	-0.619704	0.973787
S	-0.104642	-0.038504	2.481287
C	1.099458	0.972896	1.692687
C	-0.104742	-0.038904	-0.094113
C	0.958758	0.856396	0.287387
S	-0.289442	-0.197704	-1.831713
C	1.048858	0.932496	-2.080713
C	1.589858	1.389696	-0.888813
F	2.610658	2.252596	-0.845313
C	1.393258	1.219096	-3.482313
O	0.808658	0.718096	-4.432713
O	2.423058	2.092896	-3.595413
C	2.805658	2.407096	-4.942413
H	3.644558	3.120196	-4.859313
H	1.960958	2.864196	-5.496413
H	3.123958	1.494396	-5.485513
C	-0.798042	-2.054904	0.973787
H	-0.421642	-2.062904	1.986087
H	-1.587942	-2.732804	1.261587
H	0.083358	-2.586004	0.645887
H	1.806658	1.568096	2.280287
$end

$rem
JOBTYPE		SP
EXCHANGE	HF
CORRELATION	pRIMP2
BASIS		cc-pvtz
METHOD		rimp2
AUX_BASIS	rimp2-cc-pvtz
SOLVENT_METHOD	PCM
PURECART	11111
SYMMETRY	false
MEM_TOTAL	110000
SCF_CONVERGENCE = 6
THRESH=10
GUI = 2
$end



$solvent
dielectric 4.90
$end
--------------------------------------------------------------
 ----------------------------------------------------------------
             Standard Nuclear Orientation (Angstroms)
    I     Atom           X                Y                Z
 ----------------------------------------------------------------
    1      C      -0.7980420000    -0.6197040000     0.9737870000
    2      S      -0.1046420000    -0.0385040000     2.4812870000
    3      C       1.0994580000     0.9728960000     1.6926870000
    4      C      -0.1047420000    -0.0389040000    -0.0941130000
    5      C       0.9587580000     0.8563960000     0.2873870000
    6      S      -0.2894420000    -0.1977040000    -1.8317130000
    7      C       1.0488580000     0.9324960000    -2.0807130000
    8      C       1.5898580000     1.3896960000    -0.8888130000
    9      F       2.6106580000     2.2525960000    -0.8453130000
   10      C       1.3932580000     1.2190960000    -3.4823130000
   11      O       0.8086580000     0.7180960000    -4.4327130000
   12      O       2.4230580000     2.0928960000    -3.5954130000
   13      C       2.8056580000     2.4070960000    -4.9424130000
   14      H       3.6445580000     3.1201960000    -4.8593130000
   15      H       1.9609580000     2.8641960000    -5.4964130000
   16      H       3.1239580000     1.4943960000    -5.4855130000
   17      C      -0.7980420000    -2.0549040000     0.9737870000
   18      H      -0.4216420000    -2.0629040000     1.9860870000
   19      H      -1.5879420000    -2.7328040000     1.2615870000
   20      H       0.0833580000    -2.5860040000     0.6458870000
   21      H       1.8066580000     1.5680960000     2.2802870000
 ----------------------------------------------------------------
 Nuclear Repulsion Energy =        1089.54521729 hartrees
 There are       59 alpha and       59 beta electrons
 Requested basis set is cc-pVTZ
 There are 186 shells and 526 basis functions

 Total QAlloc Memory Limit 110000 MB
 Mega-Array Size       188 MB
 MEM_STATIC part       192 MB
 Discretize the solute cavity surface with Lebedev spheres
	Using 110 Lebedev grid points for each H atom
	Using 194 Lebedev grid points for other atoms
	Atomic van der Waals radii will be scaled by 1.20
 Remove points where switching function is < 1.0e-08
 Keep 1528 surface tesserae and discard 1958 interior tesserae
 Molecular Surface Area = 240.273 Angst**2
 Requested basis set is rimp2-cc-pVTZ
 There are 410 shells and 1426 basis functions
 A cutoff of  1.0D-10 yielded  11678 shell pairs
 There are     91522 function pairs (    119753 Cartesian)
 Smallest overlap matrix eigenvalue = 6.68E-05

 Scale SEOQF with 1.000000e-01/1.000000e-01/1.000000e-02

 Standard Electronic Orientation quadrupole field applied
 Nucleus-field energy     =     0.0000000164 hartrees
 Guess from superposition of atomic densities
 Warning:  Energy on first SCF cycle will be non-variational
 SAD guess density has 118.000000 electrons

 -----------------------------------------------------------------------
  General SCF calculation program by
  Eric Jon Sundstrom, Paul Horn, Yuezhi Mao, Dmitri Zuev, Alec White,
  David Stuck, Shaama M.S., Shane Yost, Joonho Lee, David Small,
  Daniel Levine, Susi Lehtola, Hugh Burton, Evgeny Epifanovsky,
  Bang C. Huynh
 -----------------------------------------------------------------------
 Hartree-Fock
 using 64 threads for integral computing
 -------------------------------------------------------
 OpenMP Integral computing Module                
 Release: version 1.0, May 2013, Q-Chem Inc. Pittsburgh 
 -------------------------------------------------------
 A restricted SCF calculation will be
 performed using DIIS
 SCF converges when DIIS error is below 1.0e-06
 ---------------------------------------
  Cycle       Energy         DIIS error
 ---------------------------------------
    1   -1394.3493432904      2.48e-02  
    2   -1388.9723464398      2.50e-03  
    3   -1389.1455511537      1.56e-03  
    4   -1389.2080138600      3.56e-04  
    5   -1389.2139900123      1.13e-04  
    6   -1389.2147062685      3.69e-05  
    7   -1389.2148588481      1.84e-05  
    8   -1389.2149109042      7.20e-06  
    9   -1389.2149222183      3.13e-06  
   10   -1389.2149239892      1.19e-06  
   11   -1389.2149242757      5.20e-07  Convergence criterion met
 ---------------------------------------
 SCF time:   CPU 1716.69s  wall 52.00s 

************** Final PCM Free Energy Summary **************
 G_electrostatic  =      -0.01210825 hartree =      -7.59804236 kcal/mol
 G_cavitation     =       0.00000000 hartree =       0.00000000 kcal/mol
 G_dispersion     =       0.00000000 hartree =       0.00000000 kcal/mol
 G_repulsion      =       0.00000000 hartree =       0.00000000 kcal/mol
 --------------------------------------------------
 Non-electrostatic Free Energy =       0.00000000 hartree =       0.00000000 kcal/mol
 Total                         =      -0.01210825 hartree =      -7.59804236 kcal/mol
 --------------------------------------------------
 SCF Energy (H0 + V/2)                       =   -1389.21492428 
 Solute Internal Energy (H0)                 =   -1389.20281602 
 Total Free Energy (H0 + V/2 + non-elec)     =   -1389.21492428 hartree
                                             = -871745.52223757 kcal/mol
***********************************************************

 SCF   energy in the final basis set =    -1389.2149242757
 Total energy in the final basis set =    -1389.2149242757


 --------------------------------------------------------------
  Generalized many-body perturbation theory program
  by Joonho Lee, Fazle Rob, Xintian Feng, Evgeny Epifanovsky

 No regularization used 
 (reg. param. = 0.0000e+00)
  (P|Q)^-1/2 Time:  CPU 28.08 s  wall 0.45 s

 In RI-MP2 calculation: 
 # of frozen core orbitals: 22

 Components of the RIMP2 correlation energy:
        aaaa    correlation energy =        -0.3299787430 a.u.
        abab    correlation energy =        -1.8540223814 a.u.
        bbbb    correlation energy =        -0.3299787430 a.u.
        non-Brillouin singles      =        -0.0000000000 a.u.
        total same-spin energy     =        -0.6599574861 a.u.
        total opposite-spin energy =        -1.8540223814 a.u.

 Total  RIMP2   correlation energy =        -2.5139798675 a.u.
        RIMP2         total energy =     -1391.7289041432 a.u.

 RI-MP2 Energy Time:  CPU 219.28 s  wall 4.62 s
 
 --------------------------------------------------------------
 
                    Orbital Energies (a.u.)
 --------------------------------------------------------------
 
 Alpha MOs
 -- Occupied --
-92.0022 -91.9988 -26.3428 -20.6137 -20.5596 -11.4078 -11.3822 -11.3184
-11.3005 -11.2937 -11.2884 -11.2797 -11.2696 -11.2152  -9.0024  -8.9987
 -6.6831  -6.6821  -6.6819  -6.6797  -6.6790  -6.6779  -1.6600  -1.4661
 -1.3687  -1.2197  -1.1431  -1.0674  -1.0229  -0.9908  -0.9608  -0.9057
 -0.8664  -0.8111  -0.7905  -0.7592  -0.7336  -0.7246  -0.6946  -0.6835
 -0.6730  -0.6614  -0.6085  -0.6054  -0.5931  -0.5729  -0.5641  -0.5596
 -0.5303  -0.5263  -0.5112  -0.4870  -0.4778  -0.4721  -0.4710  -0.4388
 -0.3872  -0.3420  -0.2945
 -- Virtual --
  0.0311   0.0901   0.1374   0.1545   0.1579   0.1686   0.1810   0.1926
  0.2131   0.2153   0.2196   0.2290   0.2345   0.2457   0.2501   0.2652
  0.2827   0.2875   0.3061   0.3367   0.3422   0.3641   0.3683   0.3843
  0.3859   0.3923   0.4013   0.4118   0.4264   0.4315   0.4381   0.4395
  0.4491   0.4610   0.4678   0.4811   0.4906   0.5003   0.5067   0.5152
  0.5214   0.5266   0.5318   0.5437   0.5451   0.5572   0.5765   0.5836
  0.5855   0.5937   0.5946   0.6101   0.6137   0.6155   0.6225   0.6245
  0.6463   0.6533   0.6578   0.6647   0.6767   0.6862   0.7016   0.7064
  0.7125   0.7163   0.7241   0.7335   0.7493   0.7625   0.7800   0.7937
  0.8033   0.8131   0.8261   0.8411   0.8479   0.8676   0.8693   0.8754
  0.8884   0.9013   0.9090   0.9265   0.9470   0.9544   0.9606   0.9680
  0.9857   0.9893   1.0033   1.0187   1.0255   1.0385   1.0420   1.0574
  1.0618   1.0812   1.0891   1.0991   1.1043   1.1073   1.1192   1.1304
  1.1396   1.1499   1.1595   1.1706   1.1825   1.1887   1.1910   1.2175
  1.2253   1.2397   1.2551   1.2605   1.2655   1.2734   1.2818   1.3004
  1.3269   1.3374   1.3508   1.3570   1.3664   1.3850   1.4015   1.4089
  1.4135   1.4300   1.4481   1.4537   1.4714   1.4871   1.5010   1.5041
  1.5135   1.5343   1.5389   1.5448   1.5589   1.5754   1.5961   1.6000
  1.6117   1.6413   1.6601   1.6659   1.6680   1.6924   1.6993   1.7224
  1.7494   1.7617   1.7889   1.8045   1.8180   1.8213   1.8300   1.8533
  1.8755   1.8926   1.9014   1.9232   1.9318   1.9332   1.9502   1.9562
  1.9666   1.9940   2.0107   2.0279   2.0591   2.0786   2.0935   2.0990
  2.1264   2.1432   2.1620   2.1733   2.1902   2.1968   2.2166   2.2270
  2.2351   2.2376   2.2580   2.2734   2.2872   2.2986   2.3338   2.3508
  2.3580   2.3696   2.3870   2.4108   2.4181   2.4306   2.4721   2.4826
  2.5060   2.5381   2.5461   2.5713   2.5800   2.5903   2.6201   2.6303
  2.6364   2.6454   2.6756   2.6782   2.6899   2.7038   2.7073   2.7218
  2.7393   2.7484   2.7685   2.7887   2.7965   2.8032   2.8121   2.8291
  2.8399   2.8655   2.8755   2.8895   2.9011   2.9150   2.9383   2.9546
  2.9722   2.9779   2.9839   3.0160   3.0203   3.0240   3.0522   3.0656
  3.0825   3.0949   3.0993   3.1029   3.1110   3.1311   3.1441   3.1498
  3.1597   3.1878   3.1986   3.2058   3.2148   3.2210   3.2239   3.2437
  3.2586   3.2624   3.2746   3.2791   3.2826   3.3067   3.3173   3.3264
  3.3489   3.3605   3.3612   3.3790   3.3855   3.3959   3.4114   3.4149
  3.4205   3.4287   3.4356   3.4586   3.4677   3.4806   3.4831   3.4937
  3.5013   3.5243   3.5344   3.5460   3.5530   3.5643   3.5654   3.5806
  3.5951   3.6021   3.6080   3.6133   3.6313   3.6499   3.6656   3.6750
  3.6850   3.6972   3.7065   3.7168   3.7265   3.7337   3.7459   3.7675
  3.7822   3.7960   3.7995   3.8053   3.8238   3.8259   3.8300   3.8477
  3.8556   3.8703   3.8802   3.8949   3.9009   3.9168   3.9262   3.9363
  3.9481   3.9636   3.9728   3.9950   4.0066   4.0303   4.0411   4.0680
  4.0736   4.0760   4.0875   4.1153   4.1424   4.1533   4.1624   4.1666
  4.1991   4.2116   4.2369   4.2457   4.2807   4.2950   4.3203   4.3423
  4.3471   4.3598   4.3702   4.3886   4.3976   4.4289   4.4311   4.4424
  4.4671   4.4791   4.5182   4.5335   4.5458   4.5629   4.5856   4.6039
  4.6127   4.6315   4.6557   4.6750   4.6797   4.7245   4.7353   4.7465
  4.7712   4.7775   4.7893   4.8236   4.8441   4.8536   4.9119   4.9178
  4.9502   4.9769   5.0095   5.0227   5.0292   5.0681   5.1051   5.1210
  5.1601   5.1874   5.2087   5.2331   5.2527   5.2550   5.2592   5.3514
  5.3573   5.4060   5.4267   5.4297   5.4455   5.4855   5.5008   5.5136
  5.5352   5.5818   5.6097   5.6230   5.6595   5.6615   5.7260   5.7480
  5.8044   5.8085   5.8314   5.8689   5.9042   5.9304   5.9518   6.0055
  6.0405   6.0552   6.1350   6.1512   6.1837   6.2459   6.2623   6.4009
  6.4513   6.4709   6.5388   6.5996   6.6621   6.6727   6.7459   6.8305
  6.8609   6.9796   7.2050   7.2055   7.3113   7.3635   7.3636   7.4059
  7.4144   7.4861   7.5198   7.5507   7.6154   7.7735   7.7899   7.8936
  7.9592   8.1336   8.2254   8.9224   9.0229   9.3634   9.4786   9.6624
 10.2032  11.1829  11.7229  11.8718  12.4096  12.6574  13.0393  13.3856
 13.7698  14.0276  14.3501
 --------------------------------------------------------------
 
          Ground-State Mulliken Net Atomic Charges

     Atom                 Charge (a.u.)
  ----------------------------------------
      1 C                    -0.073998
      2 S                     0.083770
      3 C                    -0.160610
      4 C                     0.031796
      5 C                    -0.098619
      6 S                     0.025446
      7 C                    -0.156821
      8 C                     0.390518
      9 F                    -0.206878
     10 C                     0.447341
     11 O                    -0.464027
     12 O                    -0.301568
     13 C                    -0.058416
     14 H                     0.120984
     15 H                     0.094861
     16 H                     0.094684
     17 C                    -0.372471
     18 H                     0.121329
     19 H                     0.131917
     20 H                     0.135046
     21 H                     0.215715
  ----------------------------------------
  Sum of atomic charges =     0.000000

 -----------------------------------------------------------------
                    Cartesian Multipole Moments
 -----------------------------------------------------------------
    Charge (ESU x 10^10)
                -0.0000
    Dipole Moment (Debye)
         X       2.7621      Y       0.7202      Z       3.5620
       Tot       4.5646
    Quadrupole Moments (Debye-Ang)
        XX     -91.2883     XY       5.0890     YY     -89.5775
        XZ      -5.4756     YZ      -7.1330     ZZ     -94.8022
    Octopole Moments (Debye-Ang^2)
       XXX    -188.9949    XXY     -42.3520    XYY     -60.3880
       YYY    -147.5232    XXZ      59.8070    XYZ     -15.0157
       YYZ      71.0822    XZZ      -6.6189    YZZ      -1.4290
       ZZZ     271.1434
    Hexadecapole Moments (Debye-Ang^3)
      XXXX   -1142.7537   XXXY    -448.2891   XXYY    -349.3106
      XYYY    -458.0726   YYYY   -1063.4790   XXXZ     555.1708
      XXYZ     129.0205   XYYZ     152.6287   YYYZ     513.4880
      XXZZ    -612.5361   XYZZ      14.7704   YYZZ    -646.0060
      XZZZ     374.3052   YZZZ     353.3677   ZZZZ   -3708.8096
 -----------------------------------------------------------------
 Total job time:  59.29s(wall), 2021.16s(cpu) 
 Tue Jan  9 09:57:19 2024

        *************************************************************
        *                                                           *
        *  Thank you very much for using Q-Chem.  Have a nice day.  *
        *                                                           *
        *************************************************************


0 sent ACK to 0 
now end server 0 ... 
cleanup process ... done
remove work dirs ./qchem2776843.0 -- ./qchem2776843.0
rm -rf ./qchem2776843.0
rm -rf ./qchem2776843
