You are running Q-Chem version: 5.4.0

#
# job setting
#
local host:  exp-14-05
current dir: /home/rramji/project-csd799/aromodel/ptb7fout-qchem/methylated-rotation-run
input file:  Dimethoxy_Benzodithiophene_Phi_5_Theta_100_Methylcarbonyl_3_Fluoro_Thienothiophene_Hydrogenated_Improper.qcin
output file: 
nprocs     : 1
nthreads   : 64
#
# qchem installation setting
#
QC:          /cm/shared/apps/spack/cpu/opt/spack/linux-centos8-zen2/gcc-10.2.0/qchem-5.4-akfmr7b3t57bfs6qan3padb2wnb2i7cl
QCAUX:       /cm/shared/apps/spack/cpu/opt/spack/linux-centos8-zen2/gcc-10.2.0/qchem-5.4-akfmr7b3t57bfs6qan3padb2wnb2i7cl/qcaux
QCPROG:      /cm/shared/apps/spack/cpu/opt/spack/linux-centos8-zen2/gcc-10.2.0/qchem-5.4-akfmr7b3t57bfs6qan3padb2wnb2i7cl/exe/qcprog.exe
QCPROG_S:    /cm/shared/apps/spack/cpu/opt/spack/linux-centos8-zen2/gcc-10.2.0/qchem-5.4-akfmr7b3t57bfs6qan3padb2wnb2i7cl/exe/qcprog.exe_s
PARALLEL:    -DPARALLEL
QCMPI:       mpich
#
# qchem directory setting
#
qcrun:       qchem2526259
QCSCRATCH:   .
QCLOCALSCR:  
QCTMPDIR:    .
QCFILEPREF:  ./qchem2526259
QCSAVEDIR:   
workdirs:    ./qchem2526259
workdir0:    ./qchem2526259
partmpdirs =  
#
# parallel setting
#
QCRSH:           ssh
QCMPI:           mpich
QCMPIRUN:        /cm/shared/apps/spack/cpu/opt/spack/linux-centos8-zen2/gcc-10.2.0/qchem-5.4-akfmr7b3t57bfs6qan3padb2wnb2i7cl/bin/mpi/mpirun_qchem
QCMACHINEFILE:   ./qchem2526259/hostfile
exp-14-05

#
# env setting
#
exported envs:   QC QCAUX QCSCRATCH QCRUNNAME QCFILEPREF QCPROG QCPROG_S GUIFILE

Running Job 1 of 1 Dimethoxy_Benzodithiophene_Phi_5_Theta_100_Methylcarbonyl_3_Fluoro_Thienothiophene_Hydrogenated_Improper.qcin
qchem Dimethoxy_Benzodithiophene_Phi_5_Theta_100_Methylcarbonyl_3_Fluoro_Thienothiophene_Hydrogenated_Improper.qcin_2526259.0 ./qchem2526259/ 1
/cm/shared/apps/spack/cpu/opt/spack/linux-centos8-zen2/gcc-10.2.0/qchem-5.4-akfmr7b3t57bfs6qan3padb2wnb2i7cl/bin/mpi/mpirun_qchem -machinefile ./qchem2526259/hostfile -np 1 /cm/shared/apps/spack/cpu/opt/spack/linux-centos8-zen2/gcc-10.2.0/qchem-5.4-akfmr7b3t57bfs6qan3padb2wnb2i7cl/exe/qcprog.exe Dimethoxy_Benzodithiophene_Phi_5_Theta_100_Methylcarbonyl_3_Fluoro_Thienothiophene_Hydrogenated_Improper.qcin_2526259.0 ./qchem2526259/

Process 0 of 1 is on exp-14-05 - thread support 0
initial socket setup ...start
initial socket setup ...done 
now start server 0 ... 
                  Welcome to Q-Chem
     A Quantum Leap Into The Future Of Chemistry


 Q-Chem 5.4, Q-Chem, Inc., Pleasanton, CA (2021)

 License issued to: University of California, San Diego (site)

 E. Epifanovsky,  A. T. B. Gilbert,  Xintian Feng,  Joonho Lee,  Yuezhi Mao,  
 N. Mardirossian,  P. Pokhilko,  A. White,  M. Wormit,  M. P. Coons,  
 A. L. Dempwolff,  Zhengting Gan,  D. Hait,  P. R. Horn,  L. D. Jacobson,  
 I. Kaliman,  J. Kussmann,  A. W. Lange,  Ka Un Lao,  D. S. Levine,  Jie Liu,  
 S. C. McKenzie,  A. F. Morrison,  K. Nanda,  F. Plasser,  D. R. Rehn,  
 M. L. Vidal,  Zhi-Qiang You,  Ying Zhu,  B. Alam,  B. Albrecht,  
 A. Aldossary,  E. Alguire,  J. H. Andersen,  D. Barton,  K. Begam,  A. Behn,  
 Y. A. Bernard,  E. J. Berquist,  H. Burton,  A. Carreras,  K. Carter-Fenk,  
 R. Chakraborty,  A. D. Chien,  K. D. Closser,  V. Cofer-Shabica,  
 S. Dasgupta,  Jia Deng,  M. de Wergifosse,  M. Diedenhofen,  Hainam Do,  
 S. Ehlert,  Po-Tung Fang,  S. Fatehi,  Qingguo Feng,  J. Gayvert,  
 Qinghui Ge,  G. Gidofalvi,  M. Goldey,  J. Gomes,  C. Gonzalez-Espinoza,  
 S. Gulania,  A. Gunina,  M. W. D. Hanson-Heine,  P. H. P. Harbach,  
 A. W. Hauser,  M. F. Herbst,  M. Hernandez Vera,  M. Hodecker,  
 Z. C. Holden,  S. Houck,  Xunkun Huang,  Kerwin Hui,  B. C. Huynh,  
 M. Ivanov,  Hyunjun Ji,  Hanjie Jiang,  B. Kaduk,  S. Kaehler,  
 K. Khistyaev,  Jaehoon Kim,  P. Klunzinger,  Z. Koczor-Benda,  
 Joong Hoon Koh,  D. Kosenkov,  L. Koulias,  T. Kowalczyk,  C. M. Krauter,  
 K. Kue,  A. Kunitsa,  T. Kus,  A. Landau,  K. V. Lawler,  D. Lefrancois,  
 S. Lehtola,  Rain Li,  Yi-Pei Li,  Jiashu Liang,  M. Liebenthal,  
 Hung-Hsuan Lin,  You-Sheng Lin,  Fenglai Liu,  Kuan-Yu Liu,  
 M. Loipersberger,  A. Luenser,  A. Manjanath,  P. Manohar,  E. Mansoor,  
 S. F. Manzer,  Shan-Ping Mao,  A. V. Marenich,  T. Markovich,  S. Mason,  
 S. A. Maurer,  P. F. McLaughlin,  M. F. S. J. Menger,  J.-M. Mewes,  
 S. A. Mewes,  P. Morgante,  J. W. Mullinax,  T. S. Nguyen-Beck,  
 K. J. Oosterbaan,  G. Paran,  Alexander C. Paul,  Suranjan K. Paul,  
 F. Pavosevic,  Zheng Pei,  S. Prager,  E. I. Proynov,  E. Ramos,  B. Rana,  
 A. E. Rask,  A. Rettig,  R. M. Richard,  F. Rob,  E. Rossomme,  T. Scheele,  
 M. Scheurer,  M. Schneider,  N. Sergueev,  S. M. Sharada,  W. Skomorowski,  
 D. W. Small,  C. J. Stein,  Yu-Chuan Su,  E. J. Sundstrom,  Zhen Tao,  
 J. Thirman,  T. Tsuchimochi,  N. M. Tubman,  S. P. Veccham,  O. Vydrov,  
 J. Wenzel,  J. Witte,  A. Yamada,  Kun Yao,  S. Yeganeh,  S. R. Yost,  
 A. Zech,  Igor Ying Zhang,  Xing Zhang,  Yu Zhang,  D. Zuev,  
 A. Aspuru-Guzik,  A. T. Bell,  N. A. Besley,  K. B. Bravaya,  B. R. Brooks,  
 D. Casanova,  Jeng-Da Chai,  S. Coriani,  C. J. Cramer,  
 A. E. DePrince, III,  R. A. DiStasio Jr.,  A. Dreuw,  B. D. Dunietz,  
 T. R. Furlani,  W. A. Goddard III,  S. Grimme,  S. Hammes-Schiffer,  
 T. Head-Gordon,  W. J. Hehre,  Chao-Ping Hsu,  T.-C. Jagau,  Yousung Jung,  
 A. Klamt,  Jing Kong,  D. S. Lambrecht,  WanZhen Liang,  N. J. Mayhall,  
 C. W. McCurdy,  J. B. Neaton,  C. Ochsenfeld,  J. A. Parkhill,  R. Peverati,  
 V. A. Rassolov,  Yihan Shao,  L. V. Slipchenko,  T. Stauch,  R. P. Steele,  
 J. E. Subotnik,  A. J. W. Thom,  A. Tkatchenko,  D. G. Truhlar,  
 T. Van Voorhis,  T. A. Wesolowski,  K. B. Whaley,  H. L. Woodcock III,  
 P. M. Zimmerman,  S. Faraji,  P. M. W. Gill,  M. Head-Gordon,  
 J. M. Herbert,  A. I. Krylov

 Contributors to earlier versions of Q-Chem not listed above: 
 R. D. Adamson,  B. Austin,  R. Baer,  J. Baker,  G. J. O. Beran,  
 K. Brandhorst,  S. T. Brown,  E. F. C. Byrd,  A. K. Chakraborty,  
 G. K. L. Chan,  Chun-Min Chang,  Yunqing Chen,  C.-L. Cheng,  
 Siu Hung Chien,  D. M. Chipman,  D. L. Crittenden,  H. Dachsel,  
 R. J. Doerksen,  A. D. Dutoi,  R. G. Edgar,  J. Fosso-Tande,  
 L. Fusti-Molnar,  D. Ghosh,  A. Ghysels,  A. Golubeva-Zadorozhnaya,  
 J. Gonthier,  M. S. Gordon,  S. R. Gwaltney,  G. Hawkins,  J. E. Herr,  
 A. Heyden,  S. Hirata,  E. G. Hohenstein,  G. Kedziora,  F. J. Keil,  
 C. Kelley,  Jihan Kim,  R. A. King,  R. Z. Khaliullin,  P. P. Korambath,  
 W. Kurlancheek,  A. Laurent,  A. M. Lee,  M. S. Lee,  S. V. Levchenko,  
 Ching Yeh Lin,  D. Liotard,  E. Livshits,  R. C. Lochan,  I. Lotan,  
 L. A. Martinez-Martinez,  P. E. Maslen,  N. Nair,  D. P. O'Neill,  
 D. Neuhauser,  E. Neuscamman,  C. M. Oana,  R. Olivares-Amaya,  R. Olson,  
 T. M. Perrine,  B. Peters,  P. A. Pieniazek,  A. Prociuk,  Y. M. Rhee,  
 J. Ritchie,  M. A. Rohrdanz,  E. Rosta,  N. J. Russ,  H. F. Schaefer III,  
 M. W. Schmidt,  N. E. Schultz,  S. Sharma,  N. Shenvi,  C. D. Sherrill,  
 A. C. Simmonett,  A. Sodt,  T. Stein,  D. Stuck,  K. S. Thanthiriwatte,  
 V. Vanovschi,  L. Vogt,  Tao Wang,  A. Warshel,  M. A. Watson,  
 C. F. Williams,  Q. Wu,  X. Xu,  Jun Yang,  W. Zhang,  Yan Zhao

 Please cite Q-Chem as follows:
 Y. Shao et al., Mol. Phys. 113, 184-215 (2015)
 DOI: 10.1080/00268976.2014.952696

 Q-Chem 5.4.0 for Intel X86 EM64T Linux

 Parts of Q-Chem use Armadillo 9.800.1 (Horizon Scraper).
 http://arma.sourceforge.net/

 Q-Chem begins on Tue Jan  9 09:59:33 2024  

 Host: 
0

     Scratch files written to ./qchem2526259//
 May1621 |scratch|qcdevops|jenkins|workspace|build_RNUM    
 Parallel job on  1  processors
 Processing $rem in /cm/shared/apps/spack/cpu/opt/spack/linux-centos8-zen2/gcc-10.2.0/qchem-5.4-akfmr7b3t57bfs6qan3padb2wnb2i7cl/config/preferences:
 Processing $rem in /home/rramji/.qchemrc:
 Symmetry turned off for PCM/SM12/SMD calculation
 Core orbitals will be frozen

 Checking the input file for inconsistencies... 	...done.

 Q-Chem warning in module forms1/BasisType.C, line 2236:

 You are not using the predefined 5D/6D in this basis set.


--------------------------------------------------------------
User input:
--------------------------------------------------------------
$molecule
0 1
C	-0.090177	-0.987267	0.973560
S	-0.010877	-0.085967	2.481060
C	0.125423	1.480633	1.692460
C	-0.010577	-0.086367	-0.094340
C	0.108223	1.298733	0.287160
S	-0.028977	-0.329267	-1.831940
C	0.118123	1.416233	-2.080940
C	0.177423	2.122133	-0.889040
F	0.289123	3.454033	-0.845540
C	0.159123	1.862433	-3.482540
O	0.099923	1.094833	-4.432940
O	0.269323	3.208433	-3.595640
C	0.317723	3.701233	-4.942640
H	0.406723	4.798633	-4.859540
H	-0.602777	3.427033	-5.496640
H	1.188223	3.280833	-5.485740
C	-0.090177	-2.422467	0.973560
H	-0.270377	-2.430467	2.038360
H	-0.918177	-3.100367	0.827860
H	0.837023	-2.953567	1.130260
H	0.204623	2.401533	2.280060
$end

$rem
JOBTYPE		SP
EXCHANGE	HF
CORRELATION	pRIMP2
BASIS		cc-pvtz
METHOD		rimp2
AUX_BASIS	rimp2-cc-pvtz
SOLVENT_METHOD	PCM
PURECART	11111
SYMMETRY	false
MEM_TOTAL	110000
SCF_CONVERGENCE = 6
THRESH=10
GUI = 2
$end



$solvent
dielectric 4.90
$end
--------------------------------------------------------------
 ----------------------------------------------------------------
             Standard Nuclear Orientation (Angstroms)
    I     Atom           X                Y                Z
 ----------------------------------------------------------------
    1      C      -0.0901770000    -0.9872670000     0.9735600000
    2      S      -0.0108770000    -0.0859670000     2.4810600000
    3      C       0.1254230000     1.4806330000     1.6924600000
    4      C      -0.0105770000    -0.0863670000    -0.0943400000
    5      C       0.1082230000     1.2987330000     0.2871600000
    6      S      -0.0289770000    -0.3292670000    -1.8319400000
    7      C       0.1181230000     1.4162330000    -2.0809400000
    8      C       0.1774230000     2.1221330000    -0.8890400000
    9      F       0.2891230000     3.4540330000    -0.8455400000
   10      C       0.1591230000     1.8624330000    -3.4825400000
   11      O       0.0999230000     1.0948330000    -4.4329400000
   12      O       0.2693230000     3.2084330000    -3.5956400000
   13      C       0.3177230000     3.7012330000    -4.9426400000
   14      H       0.4067230000     4.7986330000    -4.8595400000
   15      H      -0.6027770000     3.4270330000    -5.4966400000
   16      H       1.1882230000     3.2808330000    -5.4857400000
   17      C      -0.0901770000    -2.4224670000     0.9735600000
   18      H      -0.2703770000    -2.4304670000     2.0383600000
   19      H      -0.9181770000    -3.1003670000     0.8278600000
   20      H       0.8370230000    -2.9535670000     1.1302600000
   21      H       0.2046230000     2.4015330000     2.2800600000
 ----------------------------------------------------------------
 Nuclear Repulsion Energy =        1082.29649499 hartrees
 There are       59 alpha and       59 beta electrons
 Requested basis set is cc-pVTZ
 There are 186 shells and 526 basis functions

 Total QAlloc Memory Limit 110000 MB
 Mega-Array Size       188 MB
 MEM_STATIC part       192 MB
 Discretize the solute cavity surface with Lebedev spheres
	Using 110 Lebedev grid points for each H atom
	Using 194 Lebedev grid points for other atoms
	Atomic van der Waals radii will be scaled by 1.20
 Remove points where switching function is < 1.0e-08
 Keep 1551 surface tesserae and discard 1935 interior tesserae
 Molecular Surface Area = 242.717 Angst**2
 Requested basis set is rimp2-cc-pVTZ
 There are 410 shells and 1426 basis functions
 A cutoff of  1.0D-10 yielded  11485 shell pairs
 There are     90073 function pairs (    117890 Cartesian)
 Smallest overlap matrix eigenvalue = 5.79E-05

 Scale SEOQF with 1.000000e+00/1.000000e-01/1.000000e-02

 Standard Electronic Orientation quadrupole field applied
 Nucleus-field energy     =     0.0000000283 hartrees
 Guess from superposition of atomic densities
 Warning:  Energy on first SCF cycle will be non-variational
 SAD guess density has 118.000000 electrons

 -----------------------------------------------------------------------
  General SCF calculation program by
  Eric Jon Sundstrom, Paul Horn, Yuezhi Mao, Dmitri Zuev, Alec White,
  David Stuck, Shaama M.S., Shane Yost, Joonho Lee, David Small,
  Daniel Levine, Susi Lehtola, Hugh Burton, Evgeny Epifanovsky,
  Bang C. Huynh
 -----------------------------------------------------------------------
 Hartree-Fock
 using 64 threads for integral computing
 -------------------------------------------------------
 OpenMP Integral computing Module                
 Release: version 1.0, May 2013, Q-Chem Inc. Pittsburgh 
 -------------------------------------------------------
 A restricted SCF calculation will be
 performed using DIIS
 SCF converges when DIIS error is below 1.0e-06
 ---------------------------------------
  Cycle       Energy         DIIS error
 ---------------------------------------
    1   -1394.2488072609      2.47e-02  
    2   -1389.0339634038      2.47e-03  
    3   -1389.2041774757      1.53e-03  
    4   -1389.2632352989      3.54e-04  
    5   -1389.2690045362      1.12e-04  
    6   -1389.2696904954      3.65e-05  
    7   -1389.2698377424      1.82e-05  
    8   -1389.2698880872      7.01e-06  
    9   -1389.2698985065      3.00e-06  
   10   -1389.2698999349      1.10e-06  
   11   -1389.2699001426      4.80e-07  Convergence criterion met
 ---------------------------------------
 SCF time:   CPU 1691.85s  wall 48.00s 

************** Final PCM Free Energy Summary **************
 G_electrostatic  =      -0.01214641 hartree =      -7.62198822 kcal/mol
 G_cavitation     =       0.00000000 hartree =       0.00000000 kcal/mol
 G_dispersion     =       0.00000000 hartree =       0.00000000 kcal/mol
 G_repulsion      =       0.00000000 hartree =       0.00000000 kcal/mol
 --------------------------------------------------
 Non-electrostatic Free Energy =       0.00000000 hartree =       0.00000000 kcal/mol
 Total                         =      -0.01214641 hartree =      -7.62198822 kcal/mol
 --------------------------------------------------
 SCF Energy (H0 + V/2)                       =   -1389.26990014 
 Solute Internal Energy (H0)                 =   -1389.25775373 
 Total Free Energy (H0 + V/2 + non-elec)     =   -1389.26990014 hartree
                                             = -871780.02011470 kcal/mol
***********************************************************

 SCF   energy in the final basis set =    -1389.2699001426
 Total energy in the final basis set =    -1389.2699001426


 --------------------------------------------------------------
  Generalized many-body perturbation theory program
  by Joonho Lee, Fazle Rob, Xintian Feng, Evgeny Epifanovsky

 No regularization used 
 (reg. param. = 0.0000e+00)
  (P|Q)^-1/2 Time:  CPU 20.17 s  wall 0.32 s

 In RI-MP2 calculation: 
 # of frozen core orbitals: 22

 Components of the RIMP2 correlation energy:
        aaaa    correlation energy =        -0.3283900540 a.u.
        abab    correlation energy =        -1.8483870717 a.u.
        bbbb    correlation energy =        -0.3283900540 a.u.
        non-Brillouin singles      =        -0.0000000000 a.u.
        total same-spin energy     =        -0.6567801080 a.u.
        total opposite-spin energy =        -1.8483870717 a.u.

 Total  RIMP2   correlation energy =        -2.5051671797 a.u.
        RIMP2         total energy =     -1391.7750673223 a.u.

 RI-MP2 Energy Time:  CPU 173.80 s  wall 3.31 s
 
 --------------------------------------------------------------
 
                    Orbital Energies (a.u.)
 --------------------------------------------------------------
 
 Alpha MOs
 -- Occupied --
-92.0086 -91.9919 -26.3403 -20.6133 -20.5594 -11.4073 -11.3783 -11.3000
-11.2941 -11.2922 -11.2880 -11.2850 -11.2786 -11.2255  -9.0074  -8.9921
 -6.6882  -6.6876  -6.6871  -6.6731  -6.6724  -6.6713  -1.6576  -1.4657
 -1.3683  -1.2122  -1.1369  -1.0647  -1.0198  -0.9951  -0.9587  -0.9125
 -0.8638  -0.8066  -0.7883  -0.7579  -0.7313  -0.7225  -0.6912  -0.6831
 -0.6725  -0.6606  -0.6075  -0.6020  -0.5918  -0.5771  -0.5661  -0.5566
 -0.5400  -0.5298  -0.5075  -0.4795  -0.4733  -0.4711  -0.4653  -0.4615
 -0.3918  -0.3451  -0.2912
 -- Virtual --
  0.0401   0.1214   0.1262   0.1558   0.1585   0.1671   0.1810   0.1974
  0.2151   0.2170   0.2251   0.2290   0.2382   0.2473   0.2604   0.2693
  0.2812   0.3034   0.3148   0.3386   0.3480   0.3588   0.3787   0.3828
  0.3846   0.3868   0.4048   0.4088   0.4202   0.4322   0.4411   0.4437
  0.4603   0.4693   0.4766   0.4850   0.5000   0.5079   0.5136   0.5178
  0.5368   0.5379   0.5446   0.5452   0.5547   0.5626   0.5643   0.5830
  0.5909   0.5998   0.6072   0.6106   0.6158   0.6214   0.6250   0.6317
  0.6404   0.6539   0.6584   0.6638   0.6658   0.6906   0.6964   0.7106
  0.7119   0.7211   0.7314   0.7459   0.7577   0.7610   0.7766   0.8063
  0.8109   0.8164   0.8290   0.8364   0.8502   0.8682   0.8767   0.8815
  0.8855   0.8957   0.9112   0.9153   0.9284   0.9512   0.9625   0.9709
  0.9815   0.9904   0.9986   1.0071   1.0221   1.0373   1.0485   1.0515
  1.0620   1.0776   1.0915   1.0983   1.1053   1.1077   1.1176   1.1233
  1.1424   1.1447   1.1622   1.1658   1.1830   1.2029   1.2095   1.2111
  1.2125   1.2398   1.2481   1.2555   1.2645   1.2716   1.2850   1.3030
  1.3085   1.3245   1.3563   1.3606   1.3714   1.3876   1.4048   1.4075
  1.4227   1.4281   1.4356   1.4635   1.4785   1.4996   1.5006   1.5034
  1.5166   1.5399   1.5429   1.5584   1.5719   1.5764   1.5829   1.6063
  1.6130   1.6321   1.6447   1.6677   1.6724   1.6781   1.7056   1.7433
  1.7518   1.7741   1.7975   1.8111   1.8199   1.8236   1.8382   1.8591
  1.8695   1.8868   1.8961   1.9020   1.9097   1.9370   1.9490   1.9695
  1.9905   2.0064   2.0169   2.0323   2.0532   2.0812   2.0874   2.1028
  2.1251   2.1581   2.1743   2.1970   2.1991   2.2027   2.2150   2.2314
  2.2330   2.2470   2.2551   2.2844   2.3031   2.3197   2.3318   2.3442
  2.3688   2.3753   2.3950   2.4090   2.4312   2.4522   2.4828   2.4926
  2.5139   2.5349   2.5501   2.5587   2.5829   2.6055   2.6295   2.6327
  2.6442   2.6626   2.6818   2.6840   2.6893   2.7030   2.7076   2.7109
  2.7450   2.7585   2.7650   2.7762   2.7857   2.7982   2.8095   2.8194
  2.8296   2.8584   2.8645   2.8784   2.8883   2.9022   2.9161   2.9470
  2.9523   2.9597   2.9866   2.9919   3.0243   3.0293   3.0488   3.0548
  3.0786   3.0883   3.0968   3.1012   3.1197   3.1222   3.1372   3.1492
  3.1621   3.1706   3.1965   3.2136   3.2179   3.2234   3.2441   3.2470
  3.2575   3.2664   3.2736   3.2810   3.2855   3.3100   3.3180   3.3354
  3.3393   3.3492   3.3605   3.3688   3.3818   3.3857   3.4018   3.4044
  3.4243   3.4319   3.4469   3.4523   3.4609   3.4749   3.4784   3.4864
  3.4902   3.4982   3.5186   3.5360   3.5491   3.5546   3.5615   3.5776
  3.5866   3.6003   3.6117   3.6192   3.6242   3.6402   3.6564   3.6714
  3.6827   3.6900   3.6978   3.7028   3.7070   3.7349   3.7397   3.7493
  3.7629   3.7775   3.7898   3.8050   3.8107   3.8156   3.8191   3.8459
  3.8528   3.8619   3.8755   3.8906   3.9045   3.9064   3.9240   3.9322
  3.9404   3.9496   3.9593   3.9887   3.9957   4.0120   4.0200   4.0405
  4.0543   4.0653   4.0720   4.0857   4.1273   4.1585   4.1591   4.1668
  4.1799   4.1890   4.2091   4.2410   4.2637   4.2802   4.2943   4.3171
  4.3426   4.3596   4.3657   4.3671   4.4037   4.4151   4.4256   4.4347
  4.4372   4.4829   4.5035   4.5158   4.5189   4.5482   4.5841   4.5918
  4.5971   4.6123   4.6526   4.6580   4.6652   4.7170   4.7245   4.7406
  4.7609   4.7790   4.7970   4.8383   4.8517   4.8646   4.9126   4.9254
  4.9488   4.9962   5.0070   5.0097   5.0572   5.0847   5.1214   5.1227
  5.1455   5.1937   5.2109   5.2530   5.2559   5.2613   5.3303   5.3529
  5.3647   5.4062   5.4132   5.4271   5.4580   5.4775   5.4857   5.5255
  5.5407   5.5828   5.6233   5.6356   5.6638   5.7234   5.7493   5.7694
  5.8089   5.8152   5.8325   5.8747   5.9049   5.9307   5.9423   5.9612
  6.0436   6.0872   6.1515   6.1782   6.2303   6.2626   6.2772   6.3428
  6.4517   6.4796   6.5393   6.6040   6.6622   6.6729   6.7479   6.8314
  6.8612   6.9797   7.2054   7.2078   7.3115   7.3655   7.3657   7.4079
  7.4147   7.4884   7.5261   7.5524   7.6166   7.7759   7.7903   7.8967
  7.9604   8.1356   8.2438   8.9246   9.0128   9.3656   9.4626   9.6463
 10.0682  11.0514  11.6078  11.8090  12.4041  12.9762  13.1100  13.3855
 13.7691  14.0303  14.5912
 --------------------------------------------------------------
 
          Ground-State Mulliken Net Atomic Charges

     Atom                 Charge (a.u.)
  ----------------------------------------
      1 C                     0.030694
      2 S                     0.076264
      3 C                    -0.210264
      4 C                    -0.002983
      5 C                    -0.094628
      6 S                    -0.004765
      7 C                    -0.158414
      8 C                     0.392456
      9 F                    -0.208839
     10 C                     0.445006
     11 O                    -0.462374
     12 O                    -0.300804
     13 C                    -0.058692
     14 H                     0.121044
     15 H                     0.094781
     16 H                     0.094679
     17 C                    -0.369292
     18 H                     0.111544
     19 H                     0.155480
     20 H                     0.134373
     21 H                     0.214733
  ----------------------------------------
  Sum of atomic charges =     0.000000

 -----------------------------------------------------------------
                    Cartesian Multipole Moments
 -----------------------------------------------------------------
    Charge (ESU x 10^10)
                -0.0000
    Dipole Moment (Debye)
         X       0.0929      Y       0.6763      Z       3.8338
       Tot       3.8941
    Quadrupole Moments (Debye-Ang)
        XX     -96.1514     XY       1.3988     YY     -81.4106
        XZ      -0.7029     YZ     -11.3771     ZZ     -95.4638
    Octopole Moments (Debye-Ang^2)
       XXX     -22.6345    XXY     -82.3592    XYY      -7.6955
       YYY    -237.8843    XXZ      79.9568    XYZ      -2.9393
       YYZ      53.3899    XZZ      -0.9939    YZZ      -5.1317
       ZZZ     271.0365
    Hexadecapole Moments (Debye-Ang^3)
      XXXX    -133.8514   XXXY     -81.8202   XXYY    -382.3229
      XYYY     -65.6280   YYYY   -2053.2443   XXXZ      70.8107
      XXYZ     281.0363   XYYZ       9.3176   YYYZ     671.6636
      XXZZ    -638.7124   XYZZ       2.2256   YYZZ    -630.2227
      XZZZ      43.8781   YZZZ     525.8291   ZZZZ   -3713.2289
 -----------------------------------------------------------------
 Total job time:  53.63s(wall), 1937.40s(cpu) 
 Tue Jan  9 10:00:27 2024

        *************************************************************
        *                                                           *
        *  Thank you very much for using Q-Chem.  Have a nice day.  *
        *                                                           *
        *************************************************************


0 sent ACK to 0 
now end server 0 ... 
cleanup process ... done
remove work dirs ./qchem2526259.0 -- ./qchem2526259.0
rm -rf ./qchem2526259.0
rm -rf ./qchem2526259
