You are running Q-Chem version: 5.4.0

#
# job setting
#
local host:  exp-14-05
current dir: /home/rramji/project-csd799/aromodel/ptb7fout-qchem/methylated-rotation-run
input file:  Dimethoxy_Benzodithiophene_Phi_5_Theta_300_Methylcarbonyl_3_Fluoro_Thienothiophene_Hydrogenated_Improper.qcin
output file: 
nprocs     : 1
nthreads   : 64
#
# qchem installation setting
#
QC:          /cm/shared/apps/spack/cpu/opt/spack/linux-centos8-zen2/gcc-10.2.0/qchem-5.4-akfmr7b3t57bfs6qan3padb2wnb2i7cl
QCAUX:       /cm/shared/apps/spack/cpu/opt/spack/linux-centos8-zen2/gcc-10.2.0/qchem-5.4-akfmr7b3t57bfs6qan3padb2wnb2i7cl/qcaux
QCPROG:      /cm/shared/apps/spack/cpu/opt/spack/linux-centos8-zen2/gcc-10.2.0/qchem-5.4-akfmr7b3t57bfs6qan3padb2wnb2i7cl/exe/qcprog.exe
QCPROG_S:    /cm/shared/apps/spack/cpu/opt/spack/linux-centos8-zen2/gcc-10.2.0/qchem-5.4-akfmr7b3t57bfs6qan3padb2wnb2i7cl/exe/qcprog.exe_s
PARALLEL:    -DPARALLEL
QCMPI:       mpich
#
# qchem directory setting
#
qcrun:       qchem2534775
QCSCRATCH:   .
QCLOCALSCR:  
QCTMPDIR:    .
QCFILEPREF:  ./qchem2534775
QCSAVEDIR:   
workdirs:    ./qchem2534775
workdir0:    ./qchem2534775
partmpdirs =  
#
# parallel setting
#
QCRSH:           ssh
QCMPI:           mpich
QCMPIRUN:        /cm/shared/apps/spack/cpu/opt/spack/linux-centos8-zen2/gcc-10.2.0/qchem-5.4-akfmr7b3t57bfs6qan3padb2wnb2i7cl/bin/mpi/mpirun_qchem
QCMACHINEFILE:   ./qchem2534775/hostfile
exp-14-05

#
# env setting
#
exported envs:   QC QCAUX QCSCRATCH QCRUNNAME QCFILEPREF QCPROG QCPROG_S GUIFILE

Running Job 1 of 1 Dimethoxy_Benzodithiophene_Phi_5_Theta_300_Methylcarbonyl_3_Fluoro_Thienothiophene_Hydrogenated_Improper.qcin
qchem Dimethoxy_Benzodithiophene_Phi_5_Theta_300_Methylcarbonyl_3_Fluoro_Thienothiophene_Hydrogenated_Improper.qcin_2534775.0 ./qchem2534775/ 1
/cm/shared/apps/spack/cpu/opt/spack/linux-centos8-zen2/gcc-10.2.0/qchem-5.4-akfmr7b3t57bfs6qan3padb2wnb2i7cl/bin/mpi/mpirun_qchem -machinefile ./qchem2534775/hostfile -np 1 /cm/shared/apps/spack/cpu/opt/spack/linux-centos8-zen2/gcc-10.2.0/qchem-5.4-akfmr7b3t57bfs6qan3padb2wnb2i7cl/exe/qcprog.exe Dimethoxy_Benzodithiophene_Phi_5_Theta_300_Methylcarbonyl_3_Fluoro_Thienothiophene_Hydrogenated_Improper.qcin_2534775.0 ./qchem2534775/

Process 0 of 1 is on exp-14-05 - thread support 0
initial socket setup ...start
initial socket setup ...done 
now start server 0 ... 
                  Welcome to Q-Chem
     A Quantum Leap Into The Future Of Chemistry


 Q-Chem 5.4, Q-Chem, Inc., Pleasanton, CA (2021)

 License issued to: University of California, San Diego (site)

 E. Epifanovsky,  A. T. B. Gilbert,  Xintian Feng,  Joonho Lee,  Yuezhi Mao,  
 N. Mardirossian,  P. Pokhilko,  A. White,  M. Wormit,  M. P. Coons,  
 A. L. Dempwolff,  Zhengting Gan,  D. Hait,  P. R. Horn,  L. D. Jacobson,  
 I. Kaliman,  J. Kussmann,  A. W. Lange,  Ka Un Lao,  D. S. Levine,  Jie Liu,  
 S. C. McKenzie,  A. F. Morrison,  K. Nanda,  F. Plasser,  D. R. Rehn,  
 M. L. Vidal,  Zhi-Qiang You,  Ying Zhu,  B. Alam,  B. Albrecht,  
 A. Aldossary,  E. Alguire,  J. H. Andersen,  D. Barton,  K. Begam,  A. Behn,  
 Y. A. Bernard,  E. J. Berquist,  H. Burton,  A. Carreras,  K. Carter-Fenk,  
 R. Chakraborty,  A. D. Chien,  K. D. Closser,  V. Cofer-Shabica,  
 S. Dasgupta,  Jia Deng,  M. de Wergifosse,  M. Diedenhofen,  Hainam Do,  
 S. Ehlert,  Po-Tung Fang,  S. Fatehi,  Qingguo Feng,  J. Gayvert,  
 Qinghui Ge,  G. Gidofalvi,  M. Goldey,  J. Gomes,  C. Gonzalez-Espinoza,  
 S. Gulania,  A. Gunina,  M. W. D. Hanson-Heine,  P. H. P. Harbach,  
 A. W. Hauser,  M. F. Herbst,  M. Hernandez Vera,  M. Hodecker,  
 Z. C. Holden,  S. Houck,  Xunkun Huang,  Kerwin Hui,  B. C. Huynh,  
 M. Ivanov,  Hyunjun Ji,  Hanjie Jiang,  B. Kaduk,  S. Kaehler,  
 K. Khistyaev,  Jaehoon Kim,  P. Klunzinger,  Z. Koczor-Benda,  
 Joong Hoon Koh,  D. Kosenkov,  L. Koulias,  T. Kowalczyk,  C. M. Krauter,  
 K. Kue,  A. Kunitsa,  T. Kus,  A. Landau,  K. V. Lawler,  D. Lefrancois,  
 S. Lehtola,  Rain Li,  Yi-Pei Li,  Jiashu Liang,  M. Liebenthal,  
 Hung-Hsuan Lin,  You-Sheng Lin,  Fenglai Liu,  Kuan-Yu Liu,  
 M. Loipersberger,  A. Luenser,  A. Manjanath,  P. Manohar,  E. Mansoor,  
 S. F. Manzer,  Shan-Ping Mao,  A. V. Marenich,  T. Markovich,  S. Mason,  
 S. A. Maurer,  P. F. McLaughlin,  M. F. S. J. Menger,  J.-M. Mewes,  
 S. A. Mewes,  P. Morgante,  J. W. Mullinax,  T. S. Nguyen-Beck,  
 K. J. Oosterbaan,  G. Paran,  Alexander C. Paul,  Suranjan K. Paul,  
 F. Pavosevic,  Zheng Pei,  S. Prager,  E. I. Proynov,  E. Ramos,  B. Rana,  
 A. E. Rask,  A. Rettig,  R. M. Richard,  F. Rob,  E. Rossomme,  T. Scheele,  
 M. Scheurer,  M. Schneider,  N. Sergueev,  S. M. Sharada,  W. Skomorowski,  
 D. W. Small,  C. J. Stein,  Yu-Chuan Su,  E. J. Sundstrom,  Zhen Tao,  
 J. Thirman,  T. Tsuchimochi,  N. M. Tubman,  S. P. Veccham,  O. Vydrov,  
 J. Wenzel,  J. Witte,  A. Yamada,  Kun Yao,  S. Yeganeh,  S. R. Yost,  
 A. Zech,  Igor Ying Zhang,  Xing Zhang,  Yu Zhang,  D. Zuev,  
 A. Aspuru-Guzik,  A. T. Bell,  N. A. Besley,  K. B. Bravaya,  B. R. Brooks,  
 D. Casanova,  Jeng-Da Chai,  S. Coriani,  C. J. Cramer,  
 A. E. DePrince, III,  R. A. DiStasio Jr.,  A. Dreuw,  B. D. Dunietz,  
 T. R. Furlani,  W. A. Goddard III,  S. Grimme,  S. Hammes-Schiffer,  
 T. Head-Gordon,  W. J. Hehre,  Chao-Ping Hsu,  T.-C. Jagau,  Yousung Jung,  
 A. Klamt,  Jing Kong,  D. S. Lambrecht,  WanZhen Liang,  N. J. Mayhall,  
 C. W. McCurdy,  J. B. Neaton,  C. Ochsenfeld,  J. A. Parkhill,  R. Peverati,  
 V. A. Rassolov,  Yihan Shao,  L. V. Slipchenko,  T. Stauch,  R. P. Steele,  
 J. E. Subotnik,  A. J. W. Thom,  A. Tkatchenko,  D. G. Truhlar,  
 T. Van Voorhis,  T. A. Wesolowski,  K. B. Whaley,  H. L. Woodcock III,  
 P. M. Zimmerman,  S. Faraji,  P. M. W. Gill,  M. Head-Gordon,  
 J. M. Herbert,  A. I. Krylov

 Contributors to earlier versions of Q-Chem not listed above: 
 R. D. Adamson,  B. Austin,  R. Baer,  J. Baker,  G. J. O. Beran,  
 K. Brandhorst,  S. T. Brown,  E. F. C. Byrd,  A. K. Chakraborty,  
 G. K. L. Chan,  Chun-Min Chang,  Yunqing Chen,  C.-L. Cheng,  
 Siu Hung Chien,  D. M. Chipman,  D. L. Crittenden,  H. Dachsel,  
 R. J. Doerksen,  A. D. Dutoi,  R. G. Edgar,  J. Fosso-Tande,  
 L. Fusti-Molnar,  D. Ghosh,  A. Ghysels,  A. Golubeva-Zadorozhnaya,  
 J. Gonthier,  M. S. Gordon,  S. R. Gwaltney,  G. Hawkins,  J. E. Herr,  
 A. Heyden,  S. Hirata,  E. G. Hohenstein,  G. Kedziora,  F. J. Keil,  
 C. Kelley,  Jihan Kim,  R. A. King,  R. Z. Khaliullin,  P. P. Korambath,  
 W. Kurlancheek,  A. Laurent,  A. M. Lee,  M. S. Lee,  S. V. Levchenko,  
 Ching Yeh Lin,  D. Liotard,  E. Livshits,  R. C. Lochan,  I. Lotan,  
 L. A. Martinez-Martinez,  P. E. Maslen,  N. Nair,  D. P. O'Neill,  
 D. Neuhauser,  E. Neuscamman,  C. M. Oana,  R. Olivares-Amaya,  R. Olson,  
 T. M. Perrine,  B. Peters,  P. A. Pieniazek,  A. Prociuk,  Y. M. Rhee,  
 J. Ritchie,  M. A. Rohrdanz,  E. Rosta,  N. J. Russ,  H. F. Schaefer III,  
 M. W. Schmidt,  N. E. Schultz,  S. Sharma,  N. Shenvi,  C. D. Sherrill,  
 A. C. Simmonett,  A. Sodt,  T. Stein,  D. Stuck,  K. S. Thanthiriwatte,  
 V. Vanovschi,  L. Vogt,  Tao Wang,  A. Warshel,  M. A. Watson,  
 C. F. Williams,  Q. Wu,  X. Xu,  Jun Yang,  W. Zhang,  Yan Zhao

 Please cite Q-Chem as follows:
 Y. Shao et al., Mol. Phys. 113, 184-215 (2015)
 DOI: 10.1080/00268976.2014.952696

 Q-Chem 5.4.0 for Intel X86 EM64T Linux

 Parts of Q-Chem use Armadillo 9.800.1 (Horizon Scraper).
 http://arma.sourceforge.net/

 Q-Chem begins on Tue Jan  9 10:18:48 2024  

 Host: 
0

     Scratch files written to ./qchem2534775//
 May1621 |scratch|qcdevops|jenkins|workspace|build_RNUM    
 Parallel job on  1  processors
 Processing $rem in /cm/shared/apps/spack/cpu/opt/spack/linux-centos8-zen2/gcc-10.2.0/qchem-5.4-akfmr7b3t57bfs6qan3padb2wnb2i7cl/config/preferences:
 Processing $rem in /home/rramji/.qchemrc:
 Symmetry turned off for PCM/SM12/SMD calculation
 Core orbitals will be frozen

 Checking the input file for inconsistencies... 	...done.

 Q-Chem warning in module forms1/BasisType.C, line 2236:

 You are not using the predefined 5D/6D in this basis set.


--------------------------------------------------------------
User input:
--------------------------------------------------------------
$molecule
0 1
C	-0.091326	-0.987267	0.978067
S	-0.012026	-0.085967	2.485567
C	0.124274	1.480633	1.696967
C	-0.011726	-0.086367	-0.089833
C	0.107074	1.298733	0.291667
S	-0.030126	-0.329267	-1.827433
C	0.116974	1.416233	-2.076433
C	0.176274	2.122133	-0.884533
F	0.287974	3.454033	-0.841033
C	0.157974	1.862433	-3.478033
O	0.098774	1.094833	-4.428433
O	0.268174	3.208433	-3.591133
C	0.316574	3.701233	-4.938133
H	0.405574	4.798633	-4.855033
H	-0.603926	3.427033	-5.492133
H	1.187074	3.280833	-5.481233
C	-0.091326	-2.422467	0.978067
H	0.442174	-2.430467	0.039067
H	0.636874	-3.100367	1.398167
H	-0.909026	-2.953567	0.513667
H	0.203474	2.401533	2.284567
$end

$rem
JOBTYPE		SP
EXCHANGE	HF
CORRELATION	pRIMP2
BASIS		cc-pvtz
METHOD		rimp2
AUX_BASIS	rimp2-cc-pvtz
SOLVENT_METHOD	PCM
PURECART	11111
SYMMETRY	false
MEM_TOTAL	110000
SCF_CONVERGENCE = 6
THRESH=10
GUI = 2
$end



$solvent
dielectric 4.90
$end
--------------------------------------------------------------
 ----------------------------------------------------------------
             Standard Nuclear Orientation (Angstroms)
    I     Atom           X                Y                Z
 ----------------------------------------------------------------
    1      C      -0.0913260000    -0.9872670000     0.9780670000
    2      S      -0.0120260000    -0.0859670000     2.4855670000
    3      C       0.1242740000     1.4806330000     1.6969670000
    4      C      -0.0117260000    -0.0863670000    -0.0898330000
    5      C       0.1070740000     1.2987330000     0.2916670000
    6      S      -0.0301260000    -0.3292670000    -1.8274330000
    7      C       0.1169740000     1.4162330000    -2.0764330000
    8      C       0.1762740000     2.1221330000    -0.8845330000
    9      F       0.2879740000     3.4540330000    -0.8410330000
   10      C       0.1579740000     1.8624330000    -3.4780330000
   11      O       0.0987740000     1.0948330000    -4.4284330000
   12      O       0.2681740000     3.2084330000    -3.5911330000
   13      C       0.3165740000     3.7012330000    -4.9381330000
   14      H       0.4055740000     4.7986330000    -4.8550330000
   15      H      -0.6039260000     3.4270330000    -5.4921330000
   16      H       1.1870740000     3.2808330000    -5.4812330000
   17      C      -0.0913260000    -2.4224670000     0.9780670000
   18      H       0.4421740000    -2.4304670000     0.0390670000
   19      H       0.6368740000    -3.1003670000     1.3981670000
   20      H      -0.9090260000    -2.9535670000     0.5136670000
   21      H       0.2034740000     2.4015330000     2.2845670000
 ----------------------------------------------------------------
 Nuclear Repulsion Energy =        1083.53550429 hartrees
 There are       59 alpha and       59 beta electrons
 Requested basis set is cc-pVTZ
 There are 186 shells and 526 basis functions

 Total QAlloc Memory Limit 110000 MB
 Mega-Array Size       188 MB
 MEM_STATIC part       192 MB
 Discretize the solute cavity surface with Lebedev spheres
	Using 110 Lebedev grid points for each H atom
	Using 194 Lebedev grid points for other atoms
	Atomic van der Waals radii will be scaled by 1.20
 Remove points where switching function is < 1.0e-08
 Keep 1553 surface tesserae and discard 1933 interior tesserae
 Molecular Surface Area = 242.339 Angst**2
 Requested basis set is rimp2-cc-pVTZ
 There are 410 shells and 1426 basis functions
 A cutoff of  1.0D-10 yielded  11565 shell pairs
 There are     90675 function pairs (    118645 Cartesian)
 Smallest overlap matrix eigenvalue = 5.84E-05

 Scale SEOQF with 1.000000e+00/1.000000e-01/1.000000e-02

 Standard Electronic Orientation quadrupole field applied
 Nucleus-field energy     =     0.0000000282 hartrees
 Guess from superposition of atomic densities
 Warning:  Energy on first SCF cycle will be non-variational
 SAD guess density has 118.000000 electrons

 -----------------------------------------------------------------------
  General SCF calculation program by
  Eric Jon Sundstrom, Paul Horn, Yuezhi Mao, Dmitri Zuev, Alec White,
  David Stuck, Shaama M.S., Shane Yost, Joonho Lee, David Small,
  Daniel Levine, Susi Lehtola, Hugh Burton, Evgeny Epifanovsky,
  Bang C. Huynh
 -----------------------------------------------------------------------
 Hartree-Fock
 using 64 threads for integral computing
 -------------------------------------------------------
 OpenMP Integral computing Module                
 Release: version 1.0, May 2013, Q-Chem Inc. Pittsburgh 
 -------------------------------------------------------
 A restricted SCF calculation will be
 performed using DIIS
 SCF converges when DIIS error is below 1.0e-06
 ---------------------------------------
  Cycle       Energy         DIIS error
 ---------------------------------------
    1   -1394.2435909962      2.47e-02  
    2   -1389.0368317160      2.47e-03  
    3   -1389.2062980859      1.54e-03  
    4   -1389.2659007766      3.53e-04  
    5   -1389.2716445439      1.12e-04  
    6   -1389.2723170021      3.61e-05  
    7   -1389.2724612360      1.81e-05  
    8   -1389.2725109264      7.01e-06  
    9   -1389.2725214052      2.98e-06  
   10   -1389.2725228011      1.11e-06  
   11   -1389.2725230072      4.71e-07  Convergence criterion met
 ---------------------------------------
 SCF time:   CPU 1696.47s  wall 48.00s 

************** Final PCM Free Energy Summary **************
 G_electrostatic  =      -0.01173234 hartree =      -7.36215443 kcal/mol
 G_cavitation     =       0.00000000 hartree =       0.00000000 kcal/mol
 G_dispersion     =       0.00000000 hartree =       0.00000000 kcal/mol
 G_repulsion      =       0.00000000 hartree =       0.00000000 kcal/mol
 --------------------------------------------------
 Non-electrostatic Free Energy =       0.00000000 hartree =       0.00000000 kcal/mol
 Total                         =      -0.01173234 hartree =      -7.36215443 kcal/mol
 --------------------------------------------------
 SCF Energy (H0 + V/2)                       =   -1389.27252301 
 Solute Internal Energy (H0)                 =   -1389.26079067 
 Total Free Energy (H0 + V/2 + non-elec)     =   -1389.27252301 hartree
                                             = -871781.66598708 kcal/mol
***********************************************************

 SCF   energy in the final basis set =    -1389.2725230072
 Total energy in the final basis set =    -1389.2725230072


 --------------------------------------------------------------
  Generalized many-body perturbation theory program
  by Joonho Lee, Fazle Rob, Xintian Feng, Evgeny Epifanovsky

 No regularization used 
 (reg. param. = 0.0000e+00)
  (P|Q)^-1/2 Time:  CPU 20.19 s  wall 0.32 s

 In RI-MP2 calculation: 
 # of frozen core orbitals: 22

 Components of the RIMP2 correlation energy:
        aaaa    correlation energy =        -0.3286417271 a.u.
        abab    correlation energy =        -1.8485760348 a.u.
        bbbb    correlation energy =        -0.3286417271 a.u.
        non-Brillouin singles      =        -0.0000000000 a.u.
        total same-spin energy     =        -0.6572834542 a.u.
        total opposite-spin energy =        -1.8485760348 a.u.

 Total  RIMP2   correlation energy =        -2.5058594891 a.u.
        RIMP2         total energy =     -1391.7783824963 a.u.

 RI-MP2 Energy Time:  CPU 175.24 s  wall 3.53 s
 
 --------------------------------------------------------------
 
                    Orbital Energies (a.u.)
 --------------------------------------------------------------
 
 Alpha MOs
 -- Occupied --
-92.0040 -91.9934 -26.3410 -20.6137 -20.5597 -11.4077 -11.3794 -11.2973
-11.2970 -11.2946 -11.2882 -11.2872 -11.2789 -11.2274  -9.0030  -8.9936
 -6.6837  -6.6831  -6.6827  -6.6747  -6.6739  -6.6728  -1.6582  -1.4660
 -1.3686  -1.2130  -1.1354  -1.0679  -1.0185  -0.9952  -0.9581  -0.9140
 -0.8633  -0.8049  -0.7889  -0.7591  -0.7300  -0.7230  -0.6939  -0.6834
 -0.6728  -0.6609  -0.6087  -0.6015  -0.5914  -0.5841  -0.5658  -0.5571
 -0.5378  -0.5301  -0.5071  -0.4888  -0.4733  -0.4716  -0.4645  -0.4581
 -0.3891  -0.3445  -0.2897
 -- Virtual --
  0.0410   0.1221   0.1342   0.1518   0.1575   0.1757   0.1865   0.1956
  0.2131   0.2155   0.2185   0.2256   0.2335   0.2404   0.2512   0.2730
  0.2946   0.3078   0.3161   0.3418   0.3430   0.3533   0.3756   0.3826
  0.3849   0.3954   0.4079   0.4120   0.4185   0.4311   0.4408   0.4439
  0.4619   0.4670   0.4799   0.4873   0.4996   0.5037   0.5098   0.5132
  0.5265   0.5414   0.5429   0.5472   0.5536   0.5611   0.5685   0.5772
  0.5893   0.6013   0.6046   0.6108   0.6161   0.6220   0.6249   0.6277
  0.6411   0.6526   0.6601   0.6635   0.6697   0.6892   0.6979   0.7085
  0.7148   0.7207   0.7221   0.7478   0.7552   0.7621   0.7748   0.8100
  0.8160   0.8203   0.8344   0.8425   0.8458   0.8738   0.8759   0.8785
  0.8827   0.8911   0.9008   0.9281   0.9383   0.9556   0.9648   0.9746
  0.9838   0.9881   1.0021   1.0173   1.0200   1.0313   1.0475   1.0494
  1.0626   1.0749   1.0896   1.0963   1.0995   1.1083   1.1140   1.1198
  1.1279   1.1537   1.1652   1.1798   1.1820   1.1984   1.2070   1.2109
  1.2212   1.2319   1.2423   1.2490   1.2625   1.2780   1.2804   1.2985
  1.3156   1.3323   1.3384   1.3591   1.3619   1.3850   1.3957   1.4055
  1.4232   1.4350   1.4452   1.4701   1.4870   1.4924   1.5009   1.5033
  1.5153   1.5405   1.5432   1.5574   1.5600   1.5815   1.5939   1.6030
  1.6059   1.6253   1.6517   1.6689   1.6757   1.6838   1.7143   1.7242
  1.7500   1.7812   1.7959   1.8144   1.8212   1.8289   1.8465   1.8566
  1.8757   1.8880   1.8969   1.9035   1.9101   1.9517   1.9523   1.9607
  1.9906   2.0059   2.0154   2.0222   2.0623   2.0870   2.0888   2.1078
  2.1284   2.1595   2.1761   2.1957   2.1981   2.1995   2.2159   2.2323
  2.2351   2.2511   2.2585   2.2821   2.3036   2.3133   2.3334   2.3453
  2.3709   2.3734   2.3980   2.4096   2.4329   2.4499   2.4837   2.4958
  2.5169   2.5417   2.5562   2.5628   2.5770   2.6066   2.6267   2.6338
  2.6429   2.6574   2.6730   2.6823   2.6928   2.6978   2.7054   2.7112
  2.7343   2.7365   2.7564   2.7680   2.7862   2.8013   2.8109   2.8170
  2.8236   2.8571   2.8700   2.8787   2.8933   2.9000   2.9212   2.9538
  2.9554   2.9739   2.9854   2.9902   3.0187   3.0239   3.0411   3.0471
  3.0757   3.0820   3.0886   3.1022   3.1101   3.1270   3.1346   3.1459
  3.1519   3.1612   3.2048   3.2077   3.2188   3.2204   3.2362   3.2471
  3.2577   3.2637   3.2761   3.2919   3.3004   3.3027   3.3236   3.3296
  3.3428   3.3491   3.3683   3.3709   3.3792   3.3965   3.4035   3.4079
  3.4340   3.4375   3.4413   3.4574   3.4575   3.4797   3.4851   3.4877
  3.4962   3.5099   3.5207   3.5390   3.5476   3.5547   3.5700   3.5756
  3.5826   3.5943   3.6009   3.6165   3.6263   3.6386   3.6516   3.6644
  3.6794   3.6847   3.6931   3.7035   3.7067   3.7149   3.7327   3.7531
  3.7758   3.7826   3.7955   3.7997   3.8145   3.8209   3.8233   3.8320
  3.8455   3.8633   3.8746   3.8887   3.8969   3.9154   3.9215   3.9260
  3.9365   3.9558   3.9605   3.9853   3.9905   4.0213   4.0372   4.0414
  4.0628   4.0685   4.0750   4.1038   4.1083   4.1348   4.1663   4.1707
  4.1730   4.1991   4.2091   4.2435   4.2692   4.2786   4.2935   4.3096
  4.3424   4.3587   4.3600   4.3778   4.3865   4.4088   4.4204   4.4306
  4.4392   4.4691   4.5142   4.5219   4.5375   4.5627   4.5845   4.5927
  4.5984   4.6466   4.6507   4.6627   4.6752   4.7034   4.7327   4.7425
  4.7775   4.7806   4.8251   4.8498   4.8685   4.8784   4.9052   4.9260
  4.9544   4.9734   5.0035   5.0094   5.0488   5.0892   5.1036   5.1141
  5.1333   5.1578   5.2043   5.2525   5.2555   5.2607   5.3222   5.3516
  5.3637   5.3946   5.4147   5.4269   5.4364   5.4855   5.5015   5.5258
  5.5419   5.5827   5.5981   5.6230   5.6613   5.7030   5.7393   5.7596
  5.8086   5.8150   5.8498   5.8669   5.9185   5.9304   5.9615   6.0414
  6.0491   6.0749   6.1512   6.1763   6.2103   6.2623   6.3094   6.3656
  6.4489   6.4514   6.5389   6.6037   6.6619   6.6726   6.7475   6.8311
  6.8609   6.9794   7.2051   7.2078   7.3112   7.3650   7.3652   7.4076
  7.4144   7.4878   7.5258   7.5525   7.6162   7.7753   7.7897   7.8950
  7.9620   8.1354   8.2250   8.9240   9.0124   9.3650   9.4597   9.6459
 10.0608  11.0587  11.6100  11.8054  12.4072  12.9995  13.0921  13.3867
 13.7753  14.0314  14.5158
 --------------------------------------------------------------
 
          Ground-State Mulliken Net Atomic Charges

     Atom                 Charge (a.u.)
  ----------------------------------------
      1 C                     0.046972
      2 S                     0.073619
      3 C                    -0.208464
      4 C                    -0.013349
      5 C                    -0.099343
      6 S                    -0.009923
      7 C                    -0.157816
      8 C                     0.388443
      9 F                    -0.207836
     10 C                     0.445467
     11 O                    -0.462785
     12 O                    -0.300857
     13 C                    -0.058672
     14 H                     0.121183
     15 H                     0.094817
     16 H                     0.094671
     17 C                    -0.379356
     18 H                     0.119115
     19 H                     0.161660
     20 H                     0.140065
     21 H                     0.212388
  ----------------------------------------
  Sum of atomic charges =     0.000000

 -----------------------------------------------------------------
                    Cartesian Multipole Moments
 -----------------------------------------------------------------
    Charge (ESU x 10^10)
                -0.0000
    Dipole Moment (Debye)
         X       0.5016      Y       0.4496      Z       2.6645
       Tot       2.7484
    Quadrupole Moments (Debye-Ang)
        XX     -96.3898     XY       0.0086     YY     -81.0107
        XZ      -0.0153     YZ      -8.8917     ZZ     -97.8484
    Octopole Moments (Debye-Ang^2)
       XXX     -23.1782    XXY     -81.6889    XYY      -3.3072
       YYY    -239.1584    XXZ      80.1964    XYZ      -5.3676
       YYZ      46.5865    XZZ      -0.2166    YZZ      -0.7093
       ZZZ     269.2278
    Hexadecapole Moments (Debye-Ang^3)
      XXXX    -133.8434   XXXY     -79.6654   XXYY    -384.9613
      XYYY     -78.6763   YYYY   -2048.2817   XXXZ      69.3548
      XXYZ     279.2664   XYYZ      16.7344   YYYZ     678.6285
      XXZZ    -636.0983   XYZZ      -0.3828   YYZZ    -639.5883
      XZZZ      43.3291   YZZZ     521.9493   ZZZZ   -3703.9468
 -----------------------------------------------------------------
 Total job time:  54.24s(wall), 1943.69s(cpu) 
 Tue Jan  9 10:19:42 2024

        *************************************************************
        *                                                           *
        *  Thank you very much for using Q-Chem.  Have a nice day.  *
        *                                                           *
        *************************************************************


0 sent ACK to 0 
now end server 0 ... 
cleanup process ... done
remove work dirs ./qchem2534775.0 -- ./qchem2534775.0
rm -rf ./qchem2534775.0
rm -rf ./qchem2534775
