You are running Q-Chem version: 5.4.0

#
# job setting
#
local host:  exp-14-37
current dir: /home/rramji/project-csd799/aromodel/ptb7fout-qchem/methylated-rotation-run
input file:  Dimethoxy_Benzodithiophene_Phi_40_Theta_320_Methylcarbonyl_3_Fluoro_Thienothiophene_Hydrogenated_Improper.qcin
output file: 
nprocs     : 1
nthreads   : 64
#
# qchem installation setting
#
QC:          /cm/shared/apps/spack/cpu/opt/spack/linux-centos8-zen2/gcc-10.2.0/qchem-5.4-akfmr7b3t57bfs6qan3padb2wnb2i7cl
QCAUX:       /cm/shared/apps/spack/cpu/opt/spack/linux-centos8-zen2/gcc-10.2.0/qchem-5.4-akfmr7b3t57bfs6qan3padb2wnb2i7cl/qcaux
QCPROG:      /cm/shared/apps/spack/cpu/opt/spack/linux-centos8-zen2/gcc-10.2.0/qchem-5.4-akfmr7b3t57bfs6qan3padb2wnb2i7cl/exe/qcprog.exe
QCPROG_S:    /cm/shared/apps/spack/cpu/opt/spack/linux-centos8-zen2/gcc-10.2.0/qchem-5.4-akfmr7b3t57bfs6qan3padb2wnb2i7cl/exe/qcprog.exe_s
PARALLEL:    -DPARALLEL
QCMPI:       mpich
#
# qchem directory setting
#
qcrun:       qchem4067715
QCSCRATCH:   .
QCLOCALSCR:  
QCTMPDIR:    .
QCFILEPREF:  ./qchem4067715
QCSAVEDIR:   
workdirs:    ./qchem4067715
workdir0:    ./qchem4067715
partmpdirs =  
#
# parallel setting
#
QCRSH:           ssh
QCMPI:           mpich
QCMPIRUN:        /cm/shared/apps/spack/cpu/opt/spack/linux-centos8-zen2/gcc-10.2.0/qchem-5.4-akfmr7b3t57bfs6qan3padb2wnb2i7cl/bin/mpi/mpirun_qchem
QCMACHINEFILE:   ./qchem4067715/hostfile
exp-14-37

#
# env setting
#
exported envs:   QC QCAUX QCSCRATCH QCRUNNAME QCFILEPREF QCPROG QCPROG_S GUIFILE

Running Job 1 of 1 Dimethoxy_Benzodithiophene_Phi_40_Theta_320_Methylcarbonyl_3_Fluoro_Thienothiophene_Hydrogenated_Improper.qcin
qchem Dimethoxy_Benzodithiophene_Phi_40_Theta_320_Methylcarbonyl_3_Fluoro_Thienothiophene_Hydrogenated_Improper.qcin_4067715.0 ./qchem4067715/ 1
/cm/shared/apps/spack/cpu/opt/spack/linux-centos8-zen2/gcc-10.2.0/qchem-5.4-akfmr7b3t57bfs6qan3padb2wnb2i7cl/bin/mpi/mpirun_qchem -machinefile ./qchem4067715/hostfile -np 1 /cm/shared/apps/spack/cpu/opt/spack/linux-centos8-zen2/gcc-10.2.0/qchem-5.4-akfmr7b3t57bfs6qan3padb2wnb2i7cl/exe/qcprog.exe Dimethoxy_Benzodithiophene_Phi_40_Theta_320_Methylcarbonyl_3_Fluoro_Thienothiophene_Hydrogenated_Improper.qcin_4067715.0 ./qchem4067715/

Process 0 of 1 is on exp-14-37 - thread support 0
initial socket setup ...start
initial socket setup ...done 
now start server 0 ... 
                  Welcome to Q-Chem
     A Quantum Leap Into The Future Of Chemistry


 Q-Chem 5.4, Q-Chem, Inc., Pleasanton, CA (2021)

 License issued to: University of California, San Diego (site)

 E. Epifanovsky,  A. T. B. Gilbert,  Xintian Feng,  Joonho Lee,  Yuezhi Mao,  
 N. Mardirossian,  P. Pokhilko,  A. White,  M. Wormit,  M. P. Coons,  
 A. L. Dempwolff,  Zhengting Gan,  D. Hait,  P. R. Horn,  L. D. Jacobson,  
 I. Kaliman,  J. Kussmann,  A. W. Lange,  Ka Un Lao,  D. S. Levine,  Jie Liu,  
 S. C. McKenzie,  A. F. Morrison,  K. Nanda,  F. Plasser,  D. R. Rehn,  
 M. L. Vidal,  Zhi-Qiang You,  Ying Zhu,  B. Alam,  B. Albrecht,  
 A. Aldossary,  E. Alguire,  J. H. Andersen,  D. Barton,  K. Begam,  A. Behn,  
 Y. A. Bernard,  E. J. Berquist,  H. Burton,  A. Carreras,  K. Carter-Fenk,  
 R. Chakraborty,  A. D. Chien,  K. D. Closser,  V. Cofer-Shabica,  
 S. Dasgupta,  Jia Deng,  M. de Wergifosse,  M. Diedenhofen,  Hainam Do,  
 S. Ehlert,  Po-Tung Fang,  S. Fatehi,  Qingguo Feng,  J. Gayvert,  
 Qinghui Ge,  G. Gidofalvi,  M. Goldey,  J. Gomes,  C. Gonzalez-Espinoza,  
 S. Gulania,  A. Gunina,  M. W. D. Hanson-Heine,  P. H. P. Harbach,  
 A. W. Hauser,  M. F. Herbst,  M. Hernandez Vera,  M. Hodecker,  
 Z. C. Holden,  S. Houck,  Xunkun Huang,  Kerwin Hui,  B. C. Huynh,  
 M. Ivanov,  Hyunjun Ji,  Hanjie Jiang,  B. Kaduk,  S. Kaehler,  
 K. Khistyaev,  Jaehoon Kim,  P. Klunzinger,  Z. Koczor-Benda,  
 Joong Hoon Koh,  D. Kosenkov,  L. Koulias,  T. Kowalczyk,  C. M. Krauter,  
 K. Kue,  A. Kunitsa,  T. Kus,  A. Landau,  K. V. Lawler,  D. Lefrancois,  
 S. Lehtola,  Rain Li,  Yi-Pei Li,  Jiashu Liang,  M. Liebenthal,  
 Hung-Hsuan Lin,  You-Sheng Lin,  Fenglai Liu,  Kuan-Yu Liu,  
 M. Loipersberger,  A. Luenser,  A. Manjanath,  P. Manohar,  E. Mansoor,  
 S. F. Manzer,  Shan-Ping Mao,  A. V. Marenich,  T. Markovich,  S. Mason,  
 S. A. Maurer,  P. F. McLaughlin,  M. F. S. J. Menger,  J.-M. Mewes,  
 S. A. Mewes,  P. Morgante,  J. W. Mullinax,  T. S. Nguyen-Beck,  
 K. J. Oosterbaan,  G. Paran,  Alexander C. Paul,  Suranjan K. Paul,  
 F. Pavosevic,  Zheng Pei,  S. Prager,  E. I. Proynov,  E. Ramos,  B. Rana,  
 A. E. Rask,  A. Rettig,  R. M. Richard,  F. Rob,  E. Rossomme,  T. Scheele,  
 M. Scheurer,  M. Schneider,  N. Sergueev,  S. M. Sharada,  W. Skomorowski,  
 D. W. Small,  C. J. Stein,  Yu-Chuan Su,  E. J. Sundstrom,  Zhen Tao,  
 J. Thirman,  T. Tsuchimochi,  N. M. Tubman,  S. P. Veccham,  O. Vydrov,  
 J. Wenzel,  J. Witte,  A. Yamada,  Kun Yao,  S. Yeganeh,  S. R. Yost,  
 A. Zech,  Igor Ying Zhang,  Xing Zhang,  Yu Zhang,  D. Zuev,  
 A. Aspuru-Guzik,  A. T. Bell,  N. A. Besley,  K. B. Bravaya,  B. R. Brooks,  
 D. Casanova,  Jeng-Da Chai,  S. Coriani,  C. J. Cramer,  
 A. E. DePrince, III,  R. A. DiStasio Jr.,  A. Dreuw,  B. D. Dunietz,  
 T. R. Furlani,  W. A. Goddard III,  S. Grimme,  S. Hammes-Schiffer,  
 T. Head-Gordon,  W. J. Hehre,  Chao-Ping Hsu,  T.-C. Jagau,  Yousung Jung,  
 A. Klamt,  Jing Kong,  D. S. Lambrecht,  WanZhen Liang,  N. J. Mayhall,  
 C. W. McCurdy,  J. B. Neaton,  C. Ochsenfeld,  J. A. Parkhill,  R. Peverati,  
 V. A. Rassolov,  Yihan Shao,  L. V. Slipchenko,  T. Stauch,  R. P. Steele,  
 J. E. Subotnik,  A. J. W. Thom,  A. Tkatchenko,  D. G. Truhlar,  
 T. Van Voorhis,  T. A. Wesolowski,  K. B. Whaley,  H. L. Woodcock III,  
 P. M. Zimmerman,  S. Faraji,  P. M. W. Gill,  M. Head-Gordon,  
 J. M. Herbert,  A. I. Krylov

 Contributors to earlier versions of Q-Chem not listed above: 
 R. D. Adamson,  B. Austin,  R. Baer,  J. Baker,  G. J. O. Beran,  
 K. Brandhorst,  S. T. Brown,  E. F. C. Byrd,  A. K. Chakraborty,  
 G. K. L. Chan,  Chun-Min Chang,  Yunqing Chen,  C.-L. Cheng,  
 Siu Hung Chien,  D. M. Chipman,  D. L. Crittenden,  H. Dachsel,  
 R. J. Doerksen,  A. D. Dutoi,  R. G. Edgar,  J. Fosso-Tande,  
 L. Fusti-Molnar,  D. Ghosh,  A. Ghysels,  A. Golubeva-Zadorozhnaya,  
 J. Gonthier,  M. S. Gordon,  S. R. Gwaltney,  G. Hawkins,  J. E. Herr,  
 A. Heyden,  S. Hirata,  E. G. Hohenstein,  G. Kedziora,  F. J. Keil,  
 C. Kelley,  Jihan Kim,  R. A. King,  R. Z. Khaliullin,  P. P. Korambath,  
 W. Kurlancheek,  A. Laurent,  A. M. Lee,  M. S. Lee,  S. V. Levchenko,  
 Ching Yeh Lin,  D. Liotard,  E. Livshits,  R. C. Lochan,  I. Lotan,  
 L. A. Martinez-Martinez,  P. E. Maslen,  N. Nair,  D. P. O'Neill,  
 D. Neuhauser,  E. Neuscamman,  C. M. Oana,  R. Olivares-Amaya,  R. Olson,  
 T. M. Perrine,  B. Peters,  P. A. Pieniazek,  A. Prociuk,  Y. M. Rhee,  
 J. Ritchie,  M. A. Rohrdanz,  E. Rosta,  N. J. Russ,  H. F. Schaefer III,  
 M. W. Schmidt,  N. E. Schultz,  S. Sharma,  N. Shenvi,  C. D. Sherrill,  
 A. C. Simmonett,  A. Sodt,  T. Stein,  D. Stuck,  K. S. Thanthiriwatte,  
 V. Vanovschi,  L. Vogt,  Tao Wang,  A. Warshel,  M. A. Watson,  
 C. F. Williams,  Q. Wu,  X. Xu,  Jun Yang,  W. Zhang,  Yan Zhao

 Please cite Q-Chem as follows:
 Y. Shao et al., Mol. Phys. 113, 184-215 (2015)
 DOI: 10.1080/00268976.2014.952696

 Q-Chem 5.4.0 for Intel X86 EM64T Linux

 Parts of Q-Chem use Armadillo 9.800.1 (Horizon Scraper).
 http://arma.sourceforge.net/

 Q-Chem begins on Tue Jan  9 10:23:00 2024  

 Host: 
0

     Scratch files written to ./qchem4067715//
 May1621 |scratch|qcdevops|jenkins|workspace|build_RNUM    
 Parallel job on  1  processors
 Processing $rem in /cm/shared/apps/spack/cpu/opt/spack/linux-centos8-zen2/gcc-10.2.0/qchem-5.4-akfmr7b3t57bfs6qan3padb2wnb2i7cl/config/preferences:
 Processing $rem in /home/rramji/.qchemrc:
 Symmetry turned off for PCM/SM12/SMD calculation
 Core orbitals will be frozen

 Checking the input file for inconsistencies... 	...done.

 Q-Chem warning in module forms1/BasisType.C, line 2236:

 You are not using the predefined 5D/6D in this basis set.


--------------------------------------------------------------
User input:
--------------------------------------------------------------
$molecule
0 1
C	-0.670347	-0.747937	0.977605
S	-0.088447	-0.055137	2.485105
C	0.921853	1.149963	1.696505
C	-0.088447	-0.055537	-0.090295
C	0.803353	1.010863	0.291205
S	-0.242747	-0.244037	-1.827895
C	0.878953	1.101463	-2.076895
C	1.332353	1.645563	-0.884995
F	2.187853	2.672563	-0.841495
C	1.168353	1.443363	-3.478495
O	0.679653	0.848563	-4.428895
O	2.030753	2.482763	-3.591595
C	2.352953	2.858663	-4.938595
H	3.055353	3.706563	-4.855495
H	1.441753	3.162063	-5.492595
H	2.824953	2.015063	-5.481695
C	-0.670347	-2.183137	0.977605
H	0.152153	-2.191137	0.277705
H	-0.129747	-2.861037	1.621505
H	-1.279947	-2.714237	0.261505
H	1.514853	1.858863	2.284105
$end

$rem
JOBTYPE		SP
EXCHANGE	HF
CORRELATION	pRIMP2
BASIS		cc-pvtz
METHOD		rimp2
AUX_BASIS	rimp2-cc-pvtz
SOLVENT_METHOD	PCM
PURECART	11111
SYMMETRY	false
MEM_TOTAL	110000
SCF_CONVERGENCE = 6
THRESH=10
GUI = 2
$end



$solvent
dielectric 4.90
$end
--------------------------------------------------------------
 ----------------------------------------------------------------
             Standard Nuclear Orientation (Angstroms)
    I     Atom           X                Y                Z
 ----------------------------------------------------------------
    1      C      -0.6703470000    -0.7479370000     0.9776050000
    2      S      -0.0884470000    -0.0551370000     2.4851050000
    3      C       0.9218530000     1.1499630000     1.6965050000
    4      C      -0.0884470000    -0.0555370000    -0.0902950000
    5      C       0.8033530000     1.0108630000     0.2912050000
    6      S      -0.2427470000    -0.2440370000    -1.8278950000
    7      C       0.8789530000     1.1014630000    -2.0768950000
    8      C       1.3323530000     1.6455630000    -0.8849950000
    9      F       2.1878530000     2.6725630000    -0.8414950000
   10      C       1.1683530000     1.4433630000    -3.4784950000
   11      O       0.6796530000     0.8485630000    -4.4288950000
   12      O       2.0307530000     2.4827630000    -3.5915950000
   13      C       2.3529530000     2.8586630000    -4.9385950000
   14      H       3.0553530000     3.7065630000    -4.8554950000
   15      H       1.4417530000     3.1620630000    -5.4925950000
   16      H       2.8249530000     2.0150630000    -5.4816950000
   17      C      -0.6703470000    -2.1831370000     0.9776050000
   18      H       0.1521530000    -2.1911370000     0.2777050000
   19      H      -0.1297470000    -2.8610370000     1.6215050000
   20      H      -1.2799470000    -2.7142370000     0.2615050000
   21      H       1.5148530000     1.8588630000     2.2841050000
 ----------------------------------------------------------------
 Nuclear Repulsion Energy =        1088.17331031 hartrees
 There are       59 alpha and       59 beta electrons
 Requested basis set is cc-pVTZ
 There are 186 shells and 526 basis functions

 Total QAlloc Memory Limit 110000 MB
 Mega-Array Size       188 MB
 MEM_STATIC part       192 MB
 Discretize the solute cavity surface with Lebedev spheres
	Using 110 Lebedev grid points for each H atom
	Using 194 Lebedev grid points for other atoms
	Atomic van der Waals radii will be scaled by 1.20
 Remove points where switching function is < 1.0e-08
 Keep 1527 surface tesserae and discard 1959 interior tesserae
 Molecular Surface Area = 241.360 Angst**2
 Requested basis set is rimp2-cc-pVTZ
 There are 410 shells and 1426 basis functions
 A cutoff of  1.0D-10 yielded  11676 shell pairs
 There are     91466 function pairs (    119657 Cartesian)
 Smallest overlap matrix eigenvalue = 6.60E-05

 Scale SEOQF with 1.000000e-01/1.000000e-01/1.000000e-02

 Standard Electronic Orientation quadrupole field applied
 Nucleus-field energy     =     0.0000000194 hartrees
 Guess from superposition of atomic densities
 Warning:  Energy on first SCF cycle will be non-variational
 SAD guess density has 118.000000 electrons

 -----------------------------------------------------------------------
  General SCF calculation program by
  Eric Jon Sundstrom, Paul Horn, Yuezhi Mao, Dmitri Zuev, Alec White,
  David Stuck, Shaama M.S., Shane Yost, Joonho Lee, David Small,
  Daniel Levine, Susi Lehtola, Hugh Burton, Evgeny Epifanovsky,
  Bang C. Huynh
 -----------------------------------------------------------------------
 Hartree-Fock
 using 64 threads for integral computing
 -------------------------------------------------------
 OpenMP Integral computing Module                
 Release: version 1.0, May 2013, Q-Chem Inc. Pittsburgh 
 -------------------------------------------------------
 A restricted SCF calculation will be
 performed using DIIS
 SCF converges when DIIS error is below 1.0e-06
 ---------------------------------------
  Cycle       Energy         DIIS error
 ---------------------------------------
    1   -1394.2966777515      2.48e-02  
    2   -1388.9997487708      2.48e-03  
    3   -1389.1702036794      1.54e-03  
    4   -1389.2302174774      3.54e-04  
    5   -1389.2360093876      1.11e-04  
    6   -1389.2366886169      3.61e-05  
    7   -1389.2368341338      1.83e-05  
    8   -1389.2368851538      7.18e-06  
    9   -1389.2368965199      3.11e-06  
   10   -1389.2368981994      1.20e-06  
   11   -1389.2368984661      4.89e-07  Convergence criterion met
 ---------------------------------------
 SCF time:   CPU 1749.75s  wall 52.00s 

************** Final PCM Free Energy Summary **************
 G_electrostatic  =      -0.01152762 hartree =      -7.23369310 kcal/mol
 G_cavitation     =       0.00000000 hartree =       0.00000000 kcal/mol
 G_dispersion     =       0.00000000 hartree =       0.00000000 kcal/mol
 G_repulsion      =       0.00000000 hartree =       0.00000000 kcal/mol
 --------------------------------------------------
 Non-electrostatic Free Energy =       0.00000000 hartree =       0.00000000 kcal/mol
 Total                         =      -0.01152762 hartree =      -7.23369310 kcal/mol
 --------------------------------------------------
 SCF Energy (H0 + V/2)                       =   -1389.23689847 
 Solute Internal Energy (H0)                 =   -1389.22537084 
 Total Free Energy (H0 + V/2 + non-elec)     =   -1389.23689847 hartree
                                             = -871759.31125015 kcal/mol
***********************************************************

 SCF   energy in the final basis set =    -1389.2368984661
 Total energy in the final basis set =    -1389.2368984661


 --------------------------------------------------------------
  Generalized many-body perturbation theory program
  by Joonho Lee, Fazle Rob, Xintian Feng, Evgeny Epifanovsky

 No regularization used 
 (reg. param. = 0.0000e+00)
  (P|Q)^-1/2 Time:  CPU 36.44 s  wall 0.64 s

 In RI-MP2 calculation: 
 # of frozen core orbitals: 22

 Components of the RIMP2 correlation energy:
        aaaa    correlation energy =        -0.3300335963 a.u.
        abab    correlation energy =        -1.8535488219 a.u.
        bbbb    correlation energy =        -0.3300335963 a.u.
        non-Brillouin singles      =        -0.0000000000 a.u.
        total same-spin energy     =        -0.6600671926 a.u.
        total opposite-spin energy =        -1.8535488219 a.u.

 Total  RIMP2   correlation energy =        -2.5136160145 a.u.
        RIMP2         total energy =     -1391.7505144806 a.u.

 RI-MP2 Energy Time:  CPU 192.13 s  wall 4.07 s
 
 --------------------------------------------------------------
 
                    Orbital Energies (a.u.)
 --------------------------------------------------------------
 
 Alpha MOs
 -- Occupied --
-92.0062 -91.9976 -26.3419 -20.6140 -20.5600 -11.4081 -11.3807 -11.3037
-11.2948 -11.2894 -11.2885 -11.2862 -11.2802 -11.2220  -9.0052  -8.9975
 -6.6859  -6.6852  -6.6849  -6.6785  -6.6778  -6.6767  -1.6591  -1.4664
 -1.3690  -1.2168  -1.1395  -1.0690  -1.0198  -0.9923  -0.9591  -0.9093
 -0.8645  -0.8064  -0.7899  -0.7597  -0.7305  -0.7239  -0.6951  -0.6838
 -0.6732  -0.6609  -0.6095  -0.5980  -0.5936  -0.5844  -0.5638  -0.5616
 -0.5306  -0.5236  -0.5093  -0.4919  -0.4734  -0.4721  -0.4682  -0.4593
 -0.3821  -0.3425  -0.2880
 -- Virtual --
  0.0371   0.0962   0.1426   0.1513   0.1572   0.1754   0.1859   0.1905
  0.2063   0.2116   0.2155   0.2284   0.2305   0.2417   0.2535   0.2699
  0.2887   0.2987   0.3099   0.3331   0.3436   0.3514   0.3737   0.3845
  0.3878   0.3983   0.4034   0.4160   0.4210   0.4275   0.4365   0.4392
  0.4545   0.4668   0.4731   0.4828   0.4917   0.5017   0.5069   0.5089
  0.5278   0.5319   0.5380   0.5440   0.5511   0.5582   0.5651   0.5842
  0.5845   0.5965   0.6080   0.6128   0.6150   0.6177   0.6221   0.6259
  0.6395   0.6500   0.6533   0.6570   0.6712   0.6833   0.6914   0.7098
  0.7155   0.7200   0.7261   0.7368   0.7524   0.7683   0.7754   0.8015
  0.8041   0.8150   0.8232   0.8405   0.8457   0.8609   0.8700   0.8751
  0.8825   0.8906   0.8991   0.9208   0.9390   0.9506   0.9648   0.9713
  0.9810   0.9919   1.0040   1.0109   1.0216   1.0401   1.0571   1.0616
  1.0651   1.0741   1.0924   1.0949   1.1078   1.1101   1.1169   1.1278
  1.1329   1.1502   1.1635   1.1722   1.1791   1.1925   1.2044   1.2185
  1.2224   1.2345   1.2509   1.2606   1.2689   1.2771   1.2826   1.2928
  1.3190   1.3389   1.3398   1.3621   1.3632   1.3819   1.3956   1.3998
  1.4153   1.4197   1.4318   1.4556   1.4862   1.4956   1.5021   1.5080
  1.5142   1.5321   1.5407   1.5438   1.5526   1.5670   1.5756   1.5978
  1.6188   1.6356   1.6515   1.6577   1.6746   1.6931   1.7099   1.7469
  1.7521   1.7759   1.7947   1.7977   1.8176   1.8239   1.8366   1.8501
  1.8648   1.8781   1.8964   1.9200   1.9299   1.9452   1.9572   1.9594
  1.9840   1.9996   2.0108   2.0389   2.0614   2.0721   2.0922   2.0969
  2.1307   2.1482   2.1672   2.1755   2.1932   2.1977   2.2237   2.2302
  2.2399   2.2486   2.2608   2.2665   2.2948   2.3000   2.3301   2.3395
  2.3591   2.3718   2.3889   2.4060   2.4277   2.4316   2.4832   2.4836
  2.5121   2.5280   2.5421   2.5578   2.5776   2.5976   2.6065   2.6252
  2.6346   2.6452   2.6536   2.6734   2.6834   2.7038   2.7074   2.7337
  2.7562   2.7600   2.7729   2.7841   2.7987   2.8027   2.8129   2.8170
  2.8337   2.8579   2.8650   2.8809   2.8900   2.9265   2.9477   2.9498
  2.9579   2.9713   2.9848   3.0115   3.0239   3.0343   3.0549   3.0688
  3.0735   3.0874   3.0973   3.1048   3.1114   3.1285   3.1350   3.1423
  3.1497   3.1599   3.1987   3.2012   3.2152   3.2207   3.2298   3.2421
  3.2572   3.2683   3.2750   3.2801   3.3018   3.3120   3.3178   3.3373
  3.3391   3.3587   3.3621   3.3733   3.3816   3.4003   3.4010   3.4084
  3.4247   3.4319   3.4415   3.4500   3.4694   3.4781   3.4848   3.4942
  3.5074   3.5124   3.5248   3.5462   3.5570   3.5669   3.5678   3.5844
  3.5976   3.6014   3.6045   3.6164   3.6272   3.6445   3.6511   3.6624
  3.6753   3.6886   3.6967   3.7053   3.7108   3.7165   3.7336   3.7515
  3.7670   3.7728   3.7921   3.7999   3.8089   3.8121   3.8273   3.8403
  3.8495   3.8680   3.8833   3.8848   3.9085   3.9140   3.9211   3.9350
  3.9527   3.9650   3.9895   4.0133   4.0195   4.0282   4.0364   4.0537
  4.0690   4.0823   4.0960   4.1206   4.1431   4.1631   4.1662   4.1782
  4.1994   4.2070   4.2277   4.2364   4.2631   4.2929   4.3386   4.3419
  4.3439   4.3595   4.3663   4.3751   4.3995   4.4088   4.4285   4.4403
  4.4455   4.5113   4.5181   4.5373   4.5507   4.5601   4.5860   4.5965
  4.6136   4.6341   4.6518   4.6735   4.6803   4.7066   4.7428   4.7622
  4.7821   4.7972   4.8028   4.8171   4.8527   4.8615   4.9083   4.9115
  4.9386   4.9667   4.9982   5.0093   5.0278   5.0806   5.1160   5.1333
  5.1531   5.1666   5.2034   5.2527   5.2556   5.2605   5.3034   5.3520
  5.3563   5.3843   5.4111   5.4266   5.4372   5.4854   5.4976   5.5167
  5.5362   5.5822   5.6023   5.6227   5.6524   5.6758   5.7284   5.7545
  5.8006   5.8083   5.8525   5.8803   5.9211   5.9302   5.9651   5.9897
  6.0115   6.0434   6.1442   6.1510   6.1842   6.2591   6.2621   6.3897
  6.4509   6.4566   6.5384   6.6001   6.6618   6.6725   6.7464   6.8305
  6.8606   6.9790   7.2046   7.2049   7.3109   7.3639   7.3644   7.4062
  7.4141   7.4869   7.5196   7.5508   7.6153   7.7743   7.7883   7.8843
  7.9487   8.1322   8.1622   8.9232   9.0181   9.3643   9.4705   9.6547
 10.1431  11.1558  11.6845  11.8300  12.4149  12.9050  13.0938  13.3878
 13.7774  14.0325  14.3087
 --------------------------------------------------------------
 
          Ground-State Mulliken Net Atomic Charges

     Atom                 Charge (a.u.)
  ----------------------------------------
      1 C                    -0.029506
      2 S                     0.091885
      3 C                    -0.200916
      4 C                     0.001830
      5 C                    -0.091480
      6 S                     0.011272
      7 C                    -0.154150
      8 C                     0.387792
      9 F                    -0.207287
     10 C                     0.448106
     11 O                    -0.462983
     12 O                    -0.301182
     13 C                    -0.058409
     14 H                     0.121154
     15 H                     0.094954
     16 H                     0.094646
     17 C                    -0.385077
     18 H                     0.130355
     19 H                     0.162618
     20 H                     0.133884
     21 H                     0.212493
  ----------------------------------------
  Sum of atomic charges =     0.000000

 -----------------------------------------------------------------
                    Cartesian Multipole Moments
 -----------------------------------------------------------------
    Charge (ESU x 10^10)
                -0.0000
    Dipole Moment (Debye)
         X       2.1212      Y       0.4200      Z       2.6944
       Tot       3.4548
    Quadrupole Moments (Debye-Ang)
        XX     -93.3398     XY       4.4284     YY     -86.7933
        XZ      -4.0234     YZ      -6.8934     ZZ     -96.6450
    Octopole Moments (Debye-Ang^2)
       XXX    -162.0090    XXY     -53.1849    XYY     -47.3255
       YYY    -181.5044    XXZ      64.1456    XYZ     -19.8804
       YYZ      61.4536    XZZ      -4.4708    YZZ       0.1033
       ZZZ     270.3508
    Hexadecapole Moments (Debye-Ang^3)
      XXXX    -846.3420   XXXY    -452.6872   XXYY    -358.0792
      XYYY    -446.3781   YYYY   -1368.4417   XXXZ     478.1689
      XXYZ     174.1290   XYYZ     119.6004   YYYZ     580.7997
      XXZZ    -620.4560   XYZZ       9.2574   YYZZ    -644.7708
      XZZZ     310.1792   YZZZ     408.1724   ZZZZ   -3697.3016
 -----------------------------------------------------------------
 Total job time:  58.84s(wall), 2018.85s(cpu) 
 Tue Jan  9 10:23:59 2024

        *************************************************************
        *                                                           *
        *  Thank you very much for using Q-Chem.  Have a nice day.  *
        *                                                           *
        *************************************************************


0 sent ACK to 0 
now end server 0 ... 
cleanup process ... done
remove work dirs ./qchem4067715.0 -- ./qchem4067715.0
rm -rf ./qchem4067715.0
rm -rf ./qchem4067715
