You are running Q-Chem version: 5.4.0

#
# job setting
#
local host:  exp-14-37
current dir: /home/rramji/project-csd799/aromodel/ptb7fout-qchem/methylated-rotation-run
input file:  Dimethoxy_Benzodithiophene_Phi_40_Theta_290_Methylcarbonyl_3_Fluoro_Thienothiophene_Hydrogenated_Improper.qcin
output file: 
nprocs     : 1
nthreads   : 64
#
# qchem installation setting
#
QC:          /cm/shared/apps/spack/cpu/opt/spack/linux-centos8-zen2/gcc-10.2.0/qchem-5.4-akfmr7b3t57bfs6qan3padb2wnb2i7cl
QCAUX:       /cm/shared/apps/spack/cpu/opt/spack/linux-centos8-zen2/gcc-10.2.0/qchem-5.4-akfmr7b3t57bfs6qan3padb2wnb2i7cl/qcaux
QCPROG:      /cm/shared/apps/spack/cpu/opt/spack/linux-centos8-zen2/gcc-10.2.0/qchem-5.4-akfmr7b3t57bfs6qan3padb2wnb2i7cl/exe/qcprog.exe
QCPROG_S:    /cm/shared/apps/spack/cpu/opt/spack/linux-centos8-zen2/gcc-10.2.0/qchem-5.4-akfmr7b3t57bfs6qan3padb2wnb2i7cl/exe/qcprog.exe_s
PARALLEL:    -DPARALLEL
QCMPI:       mpich
#
# qchem directory setting
#
qcrun:       qchem4066566
QCSCRATCH:   .
QCLOCALSCR:  
QCTMPDIR:    .
QCFILEPREF:  ./qchem4066566
QCSAVEDIR:   
workdirs:    ./qchem4066566
workdir0:    ./qchem4066566
partmpdirs =  
#
# parallel setting
#
QCRSH:           ssh
QCMPI:           mpich
QCMPIRUN:        /cm/shared/apps/spack/cpu/opt/spack/linux-centos8-zen2/gcc-10.2.0/qchem-5.4-akfmr7b3t57bfs6qan3padb2wnb2i7cl/bin/mpi/mpirun_qchem
QCMACHINEFILE:   ./qchem4066566/hostfile
exp-14-37

#
# env setting
#
exported envs:   QC QCAUX QCSCRATCH QCRUNNAME QCFILEPREF QCPROG QCPROG_S GUIFILE

Running Job 1 of 1 Dimethoxy_Benzodithiophene_Phi_40_Theta_290_Methylcarbonyl_3_Fluoro_Thienothiophene_Hydrogenated_Improper.qcin
qchem Dimethoxy_Benzodithiophene_Phi_40_Theta_290_Methylcarbonyl_3_Fluoro_Thienothiophene_Hydrogenated_Improper.qcin_4066566.0 ./qchem4066566/ 1
/cm/shared/apps/spack/cpu/opt/spack/linux-centos8-zen2/gcc-10.2.0/qchem-5.4-akfmr7b3t57bfs6qan3padb2wnb2i7cl/bin/mpi/mpirun_qchem -machinefile ./qchem4066566/hostfile -np 1 /cm/shared/apps/spack/cpu/opt/spack/linux-centos8-zen2/gcc-10.2.0/qchem-5.4-akfmr7b3t57bfs6qan3padb2wnb2i7cl/exe/qcprog.exe Dimethoxy_Benzodithiophene_Phi_40_Theta_290_Methylcarbonyl_3_Fluoro_Thienothiophene_Hydrogenated_Improper.qcin_4066566.0 ./qchem4066566/

Process 0 of 1 is on exp-14-37 - thread support 0
initial socket setup ...start
initial socket setup ...done 
now start server 0 ... 
                  Welcome to Q-Chem
     A Quantum Leap Into The Future Of Chemistry


 Q-Chem 5.4, Q-Chem, Inc., Pleasanton, CA (2021)

 License issued to: University of California, San Diego (site)

 E. Epifanovsky,  A. T. B. Gilbert,  Xintian Feng,  Joonho Lee,  Yuezhi Mao,  
 N. Mardirossian,  P. Pokhilko,  A. White,  M. Wormit,  M. P. Coons,  
 A. L. Dempwolff,  Zhengting Gan,  D. Hait,  P. R. Horn,  L. D. Jacobson,  
 I. Kaliman,  J. Kussmann,  A. W. Lange,  Ka Un Lao,  D. S. Levine,  Jie Liu,  
 S. C. McKenzie,  A. F. Morrison,  K. Nanda,  F. Plasser,  D. R. Rehn,  
 M. L. Vidal,  Zhi-Qiang You,  Ying Zhu,  B. Alam,  B. Albrecht,  
 A. Aldossary,  E. Alguire,  J. H. Andersen,  D. Barton,  K. Begam,  A. Behn,  
 Y. A. Bernard,  E. J. Berquist,  H. Burton,  A. Carreras,  K. Carter-Fenk,  
 R. Chakraborty,  A. D. Chien,  K. D. Closser,  V. Cofer-Shabica,  
 S. Dasgupta,  Jia Deng,  M. de Wergifosse,  M. Diedenhofen,  Hainam Do,  
 S. Ehlert,  Po-Tung Fang,  S. Fatehi,  Qingguo Feng,  J. Gayvert,  
 Qinghui Ge,  G. Gidofalvi,  M. Goldey,  J. Gomes,  C. Gonzalez-Espinoza,  
 S. Gulania,  A. Gunina,  M. W. D. Hanson-Heine,  P. H. P. Harbach,  
 A. W. Hauser,  M. F. Herbst,  M. Hernandez Vera,  M. Hodecker,  
 Z. C. Holden,  S. Houck,  Xunkun Huang,  Kerwin Hui,  B. C. Huynh,  
 M. Ivanov,  Hyunjun Ji,  Hanjie Jiang,  B. Kaduk,  S. Kaehler,  
 K. Khistyaev,  Jaehoon Kim,  P. Klunzinger,  Z. Koczor-Benda,  
 Joong Hoon Koh,  D. Kosenkov,  L. Koulias,  T. Kowalczyk,  C. M. Krauter,  
 K. Kue,  A. Kunitsa,  T. Kus,  A. Landau,  K. V. Lawler,  D. Lefrancois,  
 S. Lehtola,  Rain Li,  Yi-Pei Li,  Jiashu Liang,  M. Liebenthal,  
 Hung-Hsuan Lin,  You-Sheng Lin,  Fenglai Liu,  Kuan-Yu Liu,  
 M. Loipersberger,  A. Luenser,  A. Manjanath,  P. Manohar,  E. Mansoor,  
 S. F. Manzer,  Shan-Ping Mao,  A. V. Marenich,  T. Markovich,  S. Mason,  
 S. A. Maurer,  P. F. McLaughlin,  M. F. S. J. Menger,  J.-M. Mewes,  
 S. A. Mewes,  P. Morgante,  J. W. Mullinax,  T. S. Nguyen-Beck,  
 K. J. Oosterbaan,  G. Paran,  Alexander C. Paul,  Suranjan K. Paul,  
 F. Pavosevic,  Zheng Pei,  S. Prager,  E. I. Proynov,  E. Ramos,  B. Rana,  
 A. E. Rask,  A. Rettig,  R. M. Richard,  F. Rob,  E. Rossomme,  T. Scheele,  
 M. Scheurer,  M. Schneider,  N. Sergueev,  S. M. Sharada,  W. Skomorowski,  
 D. W. Small,  C. J. Stein,  Yu-Chuan Su,  E. J. Sundstrom,  Zhen Tao,  
 J. Thirman,  T. Tsuchimochi,  N. M. Tubman,  S. P. Veccham,  O. Vydrov,  
 J. Wenzel,  J. Witte,  A. Yamada,  Kun Yao,  S. Yeganeh,  S. R. Yost,  
 A. Zech,  Igor Ying Zhang,  Xing Zhang,  Yu Zhang,  D. Zuev,  
 A. Aspuru-Guzik,  A. T. Bell,  N. A. Besley,  K. B. Bravaya,  B. R. Brooks,  
 D. Casanova,  Jeng-Da Chai,  S. Coriani,  C. J. Cramer,  
 A. E. DePrince, III,  R. A. DiStasio Jr.,  A. Dreuw,  B. D. Dunietz,  
 T. R. Furlani,  W. A. Goddard III,  S. Grimme,  S. Hammes-Schiffer,  
 T. Head-Gordon,  W. J. Hehre,  Chao-Ping Hsu,  T.-C. Jagau,  Yousung Jung,  
 A. Klamt,  Jing Kong,  D. S. Lambrecht,  WanZhen Liang,  N. J. Mayhall,  
 C. W. McCurdy,  J. B. Neaton,  C. Ochsenfeld,  J. A. Parkhill,  R. Peverati,  
 V. A. Rassolov,  Yihan Shao,  L. V. Slipchenko,  T. Stauch,  R. P. Steele,  
 J. E. Subotnik,  A. J. W. Thom,  A. Tkatchenko,  D. G. Truhlar,  
 T. Van Voorhis,  T. A. Wesolowski,  K. B. Whaley,  H. L. Woodcock III,  
 P. M. Zimmerman,  S. Faraji,  P. M. W. Gill,  M. Head-Gordon,  
 J. M. Herbert,  A. I. Krylov

 Contributors to earlier versions of Q-Chem not listed above: 
 R. D. Adamson,  B. Austin,  R. Baer,  J. Baker,  G. J. O. Beran,  
 K. Brandhorst,  S. T. Brown,  E. F. C. Byrd,  A. K. Chakraborty,  
 G. K. L. Chan,  Chun-Min Chang,  Yunqing Chen,  C.-L. Cheng,  
 Siu Hung Chien,  D. M. Chipman,  D. L. Crittenden,  H. Dachsel,  
 R. J. Doerksen,  A. D. Dutoi,  R. G. Edgar,  J. Fosso-Tande,  
 L. Fusti-Molnar,  D. Ghosh,  A. Ghysels,  A. Golubeva-Zadorozhnaya,  
 J. Gonthier,  M. S. Gordon,  S. R. Gwaltney,  G. Hawkins,  J. E. Herr,  
 A. Heyden,  S. Hirata,  E. G. Hohenstein,  G. Kedziora,  F. J. Keil,  
 C. Kelley,  Jihan Kim,  R. A. King,  R. Z. Khaliullin,  P. P. Korambath,  
 W. Kurlancheek,  A. Laurent,  A. M. Lee,  M. S. Lee,  S. V. Levchenko,  
 Ching Yeh Lin,  D. Liotard,  E. Livshits,  R. C. Lochan,  I. Lotan,  
 L. A. Martinez-Martinez,  P. E. Maslen,  N. Nair,  D. P. O'Neill,  
 D. Neuhauser,  E. Neuscamman,  C. M. Oana,  R. Olivares-Amaya,  R. Olson,  
 T. M. Perrine,  B. Peters,  P. A. Pieniazek,  A. Prociuk,  Y. M. Rhee,  
 J. Ritchie,  M. A. Rohrdanz,  E. Rosta,  N. J. Russ,  H. F. Schaefer III,  
 M. W. Schmidt,  N. E. Schultz,  S. Sharma,  N. Shenvi,  C. D. Sherrill,  
 A. C. Simmonett,  A. Sodt,  T. Stein,  D. Stuck,  K. S. Thanthiriwatte,  
 V. Vanovschi,  L. Vogt,  Tao Wang,  A. Warshel,  M. A. Watson,  
 C. F. Williams,  Q. Wu,  X. Xu,  Jun Yang,  W. Zhang,  Yan Zhao

 Please cite Q-Chem as follows:
 Y. Shao et al., Mol. Phys. 113, 184-215 (2015)
 DOI: 10.1080/00268976.2014.952696

 Q-Chem 5.4.0 for Intel X86 EM64T Linux

 Parts of Q-Chem use Armadillo 9.800.1 (Horizon Scraper).
 http://arma.sourceforge.net/

 Q-Chem begins on Tue Jan  9 10:19:44 2024  

 Host: 
0

     Scratch files written to ./qchem4066566//
 May1621 |scratch|qcdevops|jenkins|workspace|build_RNUM    
 Parallel job on  1  processors
 Processing $rem in /cm/shared/apps/spack/cpu/opt/spack/linux-centos8-zen2/gcc-10.2.0/qchem-5.4-akfmr7b3t57bfs6qan3padb2wnb2i7cl/config/preferences:
 Processing $rem in /home/rramji/.qchemrc:
 Symmetry turned off for PCM/SM12/SMD calculation
 Core orbitals will be frozen

 Checking the input file for inconsistencies... 	...done.

 Q-Chem warning in module forms1/BasisType.C, line 2236:

 You are not using the predefined 5D/6D in this basis set.


--------------------------------------------------------------
User input:
--------------------------------------------------------------
$molecule
0 1
C	-0.669281	-0.747937	0.978203
S	-0.087381	-0.055137	2.485703
C	0.922919	1.149963	1.697103
C	-0.087381	-0.055537	-0.089697
C	0.804419	1.010863	0.291803
S	-0.241681	-0.244037	-1.827297
C	0.880019	1.101463	-2.076297
C	1.333419	1.645563	-0.884397
F	2.188919	2.672563	-0.840897
C	1.169419	1.443363	-3.477897
O	0.680719	0.848563	-4.428297
O	2.031819	2.482763	-3.590997
C	2.354019	2.858663	-4.937997
H	3.056419	3.706563	-4.854897
H	1.442819	3.162063	-5.491997
H	2.826019	2.015063	-5.481097
C	-0.669281	-2.183137	0.978203
H	-0.306881	-2.191137	-0.039197
H	0.120819	-2.861037	1.265503
H	-1.555181	-2.714237	0.662803
H	1.515919	1.858863	2.284703
$end

$rem
JOBTYPE		SP
EXCHANGE	HF
CORRELATION	pRIMP2
BASIS		cc-pvtz
METHOD		rimp2
AUX_BASIS	rimp2-cc-pvtz
SOLVENT_METHOD	PCM
PURECART	11111
SYMMETRY	false
MEM_TOTAL	110000
SCF_CONVERGENCE = 6
THRESH=10
GUI = 2
$end



$solvent
dielectric 4.90
$end
--------------------------------------------------------------
 ----------------------------------------------------------------
             Standard Nuclear Orientation (Angstroms)
    I     Atom           X                Y                Z
 ----------------------------------------------------------------
    1      C      -0.6692810000    -0.7479370000     0.9782030000
    2      S      -0.0873810000    -0.0551370000     2.4857030000
    3      C       0.9229190000     1.1499630000     1.6971030000
    4      C      -0.0873810000    -0.0555370000    -0.0896970000
    5      C       0.8044190000     1.0108630000     0.2918030000
    6      S      -0.2416810000    -0.2440370000    -1.8272970000
    7      C       0.8800190000     1.1014630000    -2.0762970000
    8      C       1.3334190000     1.6455630000    -0.8843970000
    9      F       2.1889190000     2.6725630000    -0.8408970000
   10      C       1.1694190000     1.4433630000    -3.4778970000
   11      O       0.6807190000     0.8485630000    -4.4282970000
   12      O       2.0318190000     2.4827630000    -3.5909970000
   13      C       2.3540190000     2.8586630000    -4.9379970000
   14      H       3.0564190000     3.7065630000    -4.8548970000
   15      H       1.4428190000     3.1620630000    -5.4919970000
   16      H       2.8260190000     2.0150630000    -5.4810970000
   17      C      -0.6692810000    -2.1831370000     0.9782030000
   18      H      -0.3068810000    -2.1911370000    -0.0391970000
   19      H       0.1208190000    -2.8610370000     1.2655030000
   20      H      -1.5551810000    -2.7142370000     0.6628030000
   21      H       1.5159190000     1.8588630000     2.2847030000
 ----------------------------------------------------------------
 Nuclear Repulsion Energy =        1088.00484855 hartrees
 There are       59 alpha and       59 beta electrons
 Requested basis set is cc-pVTZ
 There are 186 shells and 526 basis functions

 Total QAlloc Memory Limit 110000 MB
 Mega-Array Size       188 MB
 MEM_STATIC part       192 MB
 Discretize the solute cavity surface with Lebedev spheres
	Using 110 Lebedev grid points for each H atom
	Using 194 Lebedev grid points for other atoms
	Atomic van der Waals radii will be scaled by 1.20
 Remove points where switching function is < 1.0e-08
 Keep 1523 surface tesserae and discard 1963 interior tesserae
 Molecular Surface Area = 240.837 Angst**2
 Requested basis set is rimp2-cc-pVTZ
 There are 410 shells and 1426 basis functions
 A cutoff of  1.0D-10 yielded  11667 shell pairs
 There are     91341 function pairs (    119500 Cartesian)
 Smallest overlap matrix eigenvalue = 6.48E-05

 Scale SEOQF with 1.000000e-01/1.000000e-01/1.000000e-02

 Standard Electronic Orientation quadrupole field applied
 Nucleus-field energy     =     0.0000000195 hartrees
 Guess from superposition of atomic densities
 Warning:  Energy on first SCF cycle will be non-variational
 SAD guess density has 118.000000 electrons

 -----------------------------------------------------------------------
  General SCF calculation program by
  Eric Jon Sundstrom, Paul Horn, Yuezhi Mao, Dmitri Zuev, Alec White,
  David Stuck, Shaama M.S., Shane Yost, Joonho Lee, David Small,
  Daniel Levine, Susi Lehtola, Hugh Burton, Evgeny Epifanovsky,
  Bang C. Huynh
 -----------------------------------------------------------------------
 Hartree-Fock
 using 64 threads for integral computing
 -------------------------------------------------------
 OpenMP Integral computing Module                
 Release: version 1.0, May 2013, Q-Chem Inc. Pittsburgh 
 -------------------------------------------------------
 A restricted SCF calculation will be
 performed using DIIS
 SCF converges when DIIS error is below 1.0e-06
 ---------------------------------------
  Cycle       Energy         DIIS error
 ---------------------------------------
    1   -1394.3009107293      2.48e-02  
    2   -1388.9984189159      2.48e-03  
    3   -1389.1694748717      1.55e-03  
    4   -1389.2307645874      3.54e-04  
    5   -1389.2365973551      1.12e-04  
    6   -1389.2372796625      3.61e-05  
    7   -1389.2374242247      1.83e-05  
    8   -1389.2374743290      7.13e-06  
    9   -1389.2374854167      3.09e-06  
   10   -1389.2374870435      1.17e-06  
   11   -1389.2374872957      4.83e-07  Convergence criterion met
 ---------------------------------------
 SCF time:   CPU 1746.96s  wall 53.00s 

************** Final PCM Free Energy Summary **************
 G_electrostatic  =      -0.01119594 hartree =      -7.02556002 kcal/mol
 G_cavitation     =       0.00000000 hartree =       0.00000000 kcal/mol
 G_dispersion     =       0.00000000 hartree =       0.00000000 kcal/mol
 G_repulsion      =       0.00000000 hartree =       0.00000000 kcal/mol
 --------------------------------------------------
 Non-electrostatic Free Energy =       0.00000000 hartree =       0.00000000 kcal/mol
 Total                         =      -0.01119594 hartree =      -7.02556002 kcal/mol
 --------------------------------------------------
 SCF Energy (H0 + V/2)                       =   -1389.23748730 
 Solute Internal Energy (H0)                 =   -1389.22629135 
 Total Free Energy (H0 + V/2 + non-elec)     =   -1389.23748730 hartree
                                             = -871759.68074630 kcal/mol
***********************************************************

 SCF   energy in the final basis set =    -1389.2374872957
 Total energy in the final basis set =    -1389.2374872957


 --------------------------------------------------------------
  Generalized many-body perturbation theory program
  by Joonho Lee, Fazle Rob, Xintian Feng, Evgeny Epifanovsky

 No regularization used 
 (reg. param. = 0.0000e+00)
  (P|Q)^-1/2 Time:  CPU 33.92 s  wall 0.55 s

 In RI-MP2 calculation: 
 # of frozen core orbitals: 22

 Components of the RIMP2 correlation energy:
        aaaa    correlation energy =        -0.3299568120 a.u.
        abab    correlation energy =        -1.8532178846 a.u.
        bbbb    correlation energy =        -0.3299568120 a.u.
        non-Brillouin singles      =        -0.0000000000 a.u.
        total same-spin energy     =        -0.6599136239 a.u.
        total opposite-spin energy =        -1.8532178846 a.u.

 Total  RIMP2   correlation energy =        -2.5131315085 a.u.
        RIMP2         total energy =     -1391.7506188042 a.u.

 RI-MP2 Energy Time:  CPU 219.38 s  wall 3.61 s
 
 --------------------------------------------------------------
 
                    Orbital Energies (a.u.)
 --------------------------------------------------------------
 
 Alpha MOs
 -- Occupied --
-92.0032 -91.9990 -26.3426 -20.6140 -20.5600 -11.4083 -11.3820 -11.3097
-11.2958 -11.2948 -11.2886 -11.2799 -11.2792 -11.2188  -9.0025  -8.9990
 -6.6832  -6.6825  -6.6822  -6.6800  -6.6793  -6.6783  -1.6598  -1.4665
 -1.3691  -1.2177  -1.1385  -1.0696  -1.0202  -0.9921  -0.9592  -0.9104
 -0.8648  -0.8072  -0.7904  -0.7602  -0.7305  -0.7245  -0.6963  -0.6839
 -0.6733  -0.6614  -0.6071  -0.6028  -0.5920  -0.5857  -0.5643  -0.5601
 -0.5306  -0.5258  -0.5097  -0.4875  -0.4741  -0.4724  -0.4669  -0.4468
 -0.3869  -0.3427  -0.2958
 -- Virtual --
  0.0357   0.0950   0.1417   0.1508   0.1571   0.1763   0.1855   0.1926
  0.2068   0.2149   0.2172   0.2281   0.2332   0.2407   0.2495   0.2723
  0.2853   0.3007   0.3106   0.3360   0.3432   0.3558   0.3732   0.3825
  0.3851   0.3937   0.4015   0.4132   0.4240   0.4304   0.4394   0.4456
  0.4530   0.4587   0.4691   0.4838   0.4964   0.5061   0.5076   0.5118
  0.5251   0.5309   0.5425   0.5458   0.5463   0.5561   0.5670   0.5848
  0.5893   0.5982   0.6039   0.6098   0.6147   0.6203   0.6226   0.6338
  0.6383   0.6481   0.6541   0.6601   0.6706   0.6876   0.6935   0.7056
  0.7143   0.7158   0.7306   0.7451   0.7540   0.7669   0.7749   0.8011
  0.8095   0.8209   0.8238   0.8391   0.8443   0.8522   0.8649   0.8763
  0.8821   0.8906   0.8997   0.9212   0.9433   0.9484   0.9575   0.9717
  0.9832   0.9892   0.9998   1.0106   1.0239   1.0382   1.0530   1.0580
  1.0662   1.0701   1.0881   1.0977   1.1072   1.1104   1.1167   1.1247
  1.1292   1.1564   1.1663   1.1717   1.1845   1.1940   1.2062   1.2082
  1.2263   1.2356   1.2450   1.2496   1.2586   1.2733   1.2831   1.2961
  1.3187   1.3346   1.3452   1.3559   1.3605   1.3840   1.3859   1.4082
  1.4140   1.4193   1.4342   1.4587   1.4712   1.4866   1.5021   1.5123
  1.5144   1.5374   1.5462   1.5514   1.5541   1.5701   1.5824   1.5958
  1.6117   1.6325   1.6459   1.6550   1.6636   1.6853   1.7009   1.7405
  1.7496   1.7794   1.7840   1.7994   1.8106   1.8278   1.8345   1.8519
  1.8732   1.8772   1.8985   1.9204   1.9348   1.9550   1.9608   1.9730
  1.9825   1.9990   2.0062   2.0411   2.0590   2.0696   2.0877   2.1034
  2.1115   2.1527   2.1647   2.1821   2.1944   2.1979   2.2154   2.2293
  2.2367   2.2380   2.2588   2.2743   2.2900   2.3019   2.3261   2.3363
  2.3605   2.3705   2.3925   2.4131   2.4289   2.4323   2.4807   2.4855
  2.5099   2.5369   2.5455   2.5586   2.5746   2.5965   2.6210   2.6356
  2.6366   2.6466   2.6510   2.6810   2.6929   2.7051   2.7093   2.7224
  2.7332   2.7426   2.7603   2.7777   2.7861   2.8082   2.8113   2.8256
  2.8311   2.8543   2.8781   2.8849   2.9054   2.9174   2.9409   2.9523
  2.9601   2.9654   2.9730   2.9980   3.0161   3.0236   3.0508   3.0595
  3.0706   3.0891   3.0977   3.1074   3.1222   3.1320   3.1359   3.1481
  3.1525   3.1615   3.1994   3.2139   3.2162   3.2201   3.2409   3.2487
  3.2607   3.2697   3.2763   3.2854   3.3035   3.3075   3.3211   3.3274
  3.3334   3.3441   3.3587   3.3656   3.3800   3.3897   3.4060   3.4194
  3.4217   3.4314   3.4366   3.4530   3.4721   3.4781   3.4827   3.4931
  3.5005   3.5184   3.5262   3.5496   3.5545   3.5642   3.5693   3.5883
  3.5974   3.5996   3.6100   3.6175   3.6366   3.6469   3.6610   3.6802
  3.6834   3.6955   3.6978   3.7062   3.7248   3.7347   3.7442   3.7522
  3.7786   3.7813   3.7947   3.8038   3.8084   3.8169   3.8245   3.8401
  3.8481   3.8728   3.8818   3.8887   3.8949   3.9052   3.9212   3.9334
  3.9427   3.9470   3.9665   4.0040   4.0099   4.0180   4.0244   4.0441
  4.0684   4.0741   4.0934   4.1093   4.1303   4.1619   4.1654   4.1715
  4.2004   4.2015   4.2214   4.2307   4.2615   4.2868   4.3347   4.3422
  4.3535   4.3593   4.3686   4.3749   4.3841   4.4132   4.4270   4.4298
  4.4576   4.4874   4.5199   4.5307   4.5520   4.5677   4.5848   4.6122
  4.6151   4.6392   4.6549   4.6765   4.6822   4.7200   4.7344   4.7590
  4.7720   4.7839   4.8166   4.8361   4.8547   4.8576   4.8854   4.8972
  4.9197   4.9634   5.0092   5.0176   5.0322   5.0846   5.1085   5.1223
  5.1651   5.1827   5.2002   5.2504   5.2534   5.2586   5.3134   5.3512
  5.3523   5.3867   5.4041   5.4265   5.4326   5.4764   5.4853   5.5142
  5.5340   5.5817   5.6163   5.6226   5.6536   5.6905   5.7274   5.7591
  5.8081   5.8085   5.8429   5.8697   5.8997   5.9301   5.9511   5.9741
  6.0340   6.0433   6.1411   6.1509   6.1842   6.2620   6.2639   6.3762
  6.4492   6.4509   6.5378   6.5995   6.6617   6.6724   6.7459   6.8304
  6.8606   6.9789   7.2046   7.2051   7.3109   7.3636   7.3638   7.4061
  7.4140   7.4863   7.5201   7.5505   7.6151   7.7736   7.7891   7.8898
  7.9545   8.1330   8.1835   8.9226   9.0175   9.3637   9.4707   9.6572
 10.1439  11.1564  11.6997  11.8433  12.4108  12.8843  13.0928  13.3860
 13.7716  14.0311  14.2917
 --------------------------------------------------------------
 
          Ground-State Mulliken Net Atomic Charges

     Atom                 Charge (a.u.)
  ----------------------------------------
      1 C                    -0.047207
      2 S                     0.086117
      3 C                    -0.181537
      4 C                     0.009189
      5 C                    -0.089729
      6 S                     0.014470
      7 C                    -0.157771
      8 C                     0.388643
      9 F                    -0.206445
     10 C                     0.447592
     11 O                    -0.463452
     12 O                    -0.301400
     13 C                    -0.058385
     14 H                     0.121159
     15 H                     0.094944
     16 H                     0.094683
     17 C                    -0.361440
     18 H                     0.115430
     19 H                     0.157031
     20 H                     0.125045
     21 H                     0.213062
  ----------------------------------------
  Sum of atomic charges =     0.000000

 -----------------------------------------------------------------
                    Cartesian Multipole Moments
 -----------------------------------------------------------------
    Charge (ESU x 10^10)
                -0.0000
    Dipole Moment (Debye)
         X       2.0707      Y       0.7610      Z       2.4426
       Tot       3.2914
    Quadrupole Moments (Debye-Ang)
        XX     -92.6318     XY       4.8483     YY     -87.0642
        XZ      -3.9592     YZ      -5.9638     ZZ     -97.3274
    Octopole Moments (Debye-Ang^2)
       XXX    -161.8342    XXY     -54.4412    XYY     -47.5956
       YYY    -179.5567    XXZ      65.0643    XYZ     -19.0967
       YYZ      59.9215    XZZ      -3.8980    YZZ       2.5851
       ZZZ     268.2859
    Hexadecapole Moments (Debye-Ang^3)
      XXXX    -847.0948   XXXY    -451.4715   XXYY    -353.4893
      XYYY    -446.9015   YYYY   -1371.5693   XXXZ     479.3601
      XXYZ     172.4026   XYYZ     118.6918   YYYZ     586.5884
      XXZZ    -619.7140   XYZZ       8.9062   YYZZ    -651.2286
      XZZZ     312.0072   YZZZ     413.0020   ZZZZ   -3698.9739
 -----------------------------------------------------------------
 Total job time:  59.04s(wall), 2051.51s(cpu) 
 Tue Jan  9 10:20:43 2024

        *************************************************************
        *                                                           *
        *  Thank you very much for using Q-Chem.  Have a nice day.  *
        *                                                           *
        *************************************************************


0 sent ACK to 0 
now end server 0 ... 
cleanup process ... done
remove work dirs ./qchem4066566.0 -- ./qchem4066566.0
rm -rf ./qchem4066566.0
rm -rf ./qchem4066566
