You are running Q-Chem version: 5.4.0

#
# job setting
#
local host:  exp-6-40
current dir: /home/rramji/project-csd799/aromodel/ptb7fout-qchem/methylated-rotation-run
input file:  Dimethoxy_Benzodithiophene_Phi_15_Theta_240_Methylcarbonyl_3_Fluoro_Thienothiophene_Hydrogenated_Improper.qcin
output file: 
nprocs     : 1
nthreads   : 64
#
# qchem installation setting
#
QC:          /cm/shared/apps/spack/cpu/opt/spack/linux-centos8-zen2/gcc-10.2.0/qchem-5.4-akfmr7b3t57bfs6qan3padb2wnb2i7cl
QCAUX:       /cm/shared/apps/spack/cpu/opt/spack/linux-centos8-zen2/gcc-10.2.0/qchem-5.4-akfmr7b3t57bfs6qan3padb2wnb2i7cl/qcaux
QCPROG:      /cm/shared/apps/spack/cpu/opt/spack/linux-centos8-zen2/gcc-10.2.0/qchem-5.4-akfmr7b3t57bfs6qan3padb2wnb2i7cl/exe/qcprog.exe
QCPROG_S:    /cm/shared/apps/spack/cpu/opt/spack/linux-centos8-zen2/gcc-10.2.0/qchem-5.4-akfmr7b3t57bfs6qan3padb2wnb2i7cl/exe/qcprog.exe_s
PARALLEL:    -DPARALLEL
QCMPI:       mpich
#
# qchem directory setting
#
qcrun:       qchem3224933
QCSCRATCH:   .
QCLOCALSCR:  
QCTMPDIR:    .
QCFILEPREF:  ./qchem3224933
QCSAVEDIR:   
workdirs:    ./qchem3224933
workdir0:    ./qchem3224933
partmpdirs =  
#
# parallel setting
#
QCRSH:           ssh
QCMPI:           mpich
QCMPIRUN:        /cm/shared/apps/spack/cpu/opt/spack/linux-centos8-zen2/gcc-10.2.0/qchem-5.4-akfmr7b3t57bfs6qan3padb2wnb2i7cl/bin/mpi/mpirun_qchem
QCMACHINEFILE:   ./qchem3224933/hostfile
exp-6-40

#
# env setting
#
exported envs:   QC QCAUX QCSCRATCH QCRUNNAME QCFILEPREF QCPROG QCPROG_S GUIFILE

Running Job 1 of 1 Dimethoxy_Benzodithiophene_Phi_15_Theta_240_Methylcarbonyl_3_Fluoro_Thienothiophene_Hydrogenated_Improper.qcin
qchem Dimethoxy_Benzodithiophene_Phi_15_Theta_240_Methylcarbonyl_3_Fluoro_Thienothiophene_Hydrogenated_Improper.qcin_3224933.0 ./qchem3224933/ 1
/cm/shared/apps/spack/cpu/opt/spack/linux-centos8-zen2/gcc-10.2.0/qchem-5.4-akfmr7b3t57bfs6qan3padb2wnb2i7cl/bin/mpi/mpirun_qchem -machinefile ./qchem3224933/hostfile -np 1 /cm/shared/apps/spack/cpu/opt/spack/linux-centos8-zen2/gcc-10.2.0/qchem-5.4-akfmr7b3t57bfs6qan3padb2wnb2i7cl/exe/qcprog.exe Dimethoxy_Benzodithiophene_Phi_15_Theta_240_Methylcarbonyl_3_Fluoro_Thienothiophene_Hydrogenated_Improper.qcin_3224933.0 ./qchem3224933/

Process 0 of 1 is on exp-6-40 - thread support 0
initial socket setup ...start
initial socket setup ...done 
now start server 0 ... 
                  Welcome to Q-Chem
     A Quantum Leap Into The Future Of Chemistry


 Q-Chem 5.4, Q-Chem, Inc., Pleasanton, CA (2021)

 License issued to: University of California, San Diego (site)

 E. Epifanovsky,  A. T. B. Gilbert,  Xintian Feng,  Joonho Lee,  Yuezhi Mao,  
 N. Mardirossian,  P. Pokhilko,  A. White,  M. Wormit,  M. P. Coons,  
 A. L. Dempwolff,  Zhengting Gan,  D. Hait,  P. R. Horn,  L. D. Jacobson,  
 I. Kaliman,  J. Kussmann,  A. W. Lange,  Ka Un Lao,  D. S. Levine,  Jie Liu,  
 S. C. McKenzie,  A. F. Morrison,  K. Nanda,  F. Plasser,  D. R. Rehn,  
 M. L. Vidal,  Zhi-Qiang You,  Ying Zhu,  B. Alam,  B. Albrecht,  
 A. Aldossary,  E. Alguire,  J. H. Andersen,  D. Barton,  K. Begam,  A. Behn,  
 Y. A. Bernard,  E. J. Berquist,  H. Burton,  A. Carreras,  K. Carter-Fenk,  
 R. Chakraborty,  A. D. Chien,  K. D. Closser,  V. Cofer-Shabica,  
 S. Dasgupta,  Jia Deng,  M. de Wergifosse,  M. Diedenhofen,  Hainam Do,  
 S. Ehlert,  Po-Tung Fang,  S. Fatehi,  Qingguo Feng,  J. Gayvert,  
 Qinghui Ge,  G. Gidofalvi,  M. Goldey,  J. Gomes,  C. Gonzalez-Espinoza,  
 S. Gulania,  A. Gunina,  M. W. D. Hanson-Heine,  P. H. P. Harbach,  
 A. W. Hauser,  M. F. Herbst,  M. Hernandez Vera,  M. Hodecker,  
 Z. C. Holden,  S. Houck,  Xunkun Huang,  Kerwin Hui,  B. C. Huynh,  
 M. Ivanov,  Hyunjun Ji,  Hanjie Jiang,  B. Kaduk,  S. Kaehler,  
 K. Khistyaev,  Jaehoon Kim,  P. Klunzinger,  Z. Koczor-Benda,  
 Joong Hoon Koh,  D. Kosenkov,  L. Koulias,  T. Kowalczyk,  C. M. Krauter,  
 K. Kue,  A. Kunitsa,  T. Kus,  A. Landau,  K. V. Lawler,  D. Lefrancois,  
 S. Lehtola,  Rain Li,  Yi-Pei Li,  Jiashu Liang,  M. Liebenthal,  
 Hung-Hsuan Lin,  You-Sheng Lin,  Fenglai Liu,  Kuan-Yu Liu,  
 M. Loipersberger,  A. Luenser,  A. Manjanath,  P. Manohar,  E. Mansoor,  
 S. F. Manzer,  Shan-Ping Mao,  A. V. Marenich,  T. Markovich,  S. Mason,  
 S. A. Maurer,  P. F. McLaughlin,  M. F. S. J. Menger,  J.-M. Mewes,  
 S. A. Mewes,  P. Morgante,  J. W. Mullinax,  T. S. Nguyen-Beck,  
 K. J. Oosterbaan,  G. Paran,  Alexander C. Paul,  Suranjan K. Paul,  
 F. Pavosevic,  Zheng Pei,  S. Prager,  E. I. Proynov,  E. Ramos,  B. Rana,  
 A. E. Rask,  A. Rettig,  R. M. Richard,  F. Rob,  E. Rossomme,  T. Scheele,  
 M. Scheurer,  M. Schneider,  N. Sergueev,  S. M. Sharada,  W. Skomorowski,  
 D. W. Small,  C. J. Stein,  Yu-Chuan Su,  E. J. Sundstrom,  Zhen Tao,  
 J. Thirman,  T. Tsuchimochi,  N. M. Tubman,  S. P. Veccham,  O. Vydrov,  
 J. Wenzel,  J. Witte,  A. Yamada,  Kun Yao,  S. Yeganeh,  S. R. Yost,  
 A. Zech,  Igor Ying Zhang,  Xing Zhang,  Yu Zhang,  D. Zuev,  
 A. Aspuru-Guzik,  A. T. Bell,  N. A. Besley,  K. B. Bravaya,  B. R. Brooks,  
 D. Casanova,  Jeng-Da Chai,  S. Coriani,  C. J. Cramer,  
 A. E. DePrince, III,  R. A. DiStasio Jr.,  A. Dreuw,  B. D. Dunietz,  
 T. R. Furlani,  W. A. Goddard III,  S. Grimme,  S. Hammes-Schiffer,  
 T. Head-Gordon,  W. J. Hehre,  Chao-Ping Hsu,  T.-C. Jagau,  Yousung Jung,  
 A. Klamt,  Jing Kong,  D. S. Lambrecht,  WanZhen Liang,  N. J. Mayhall,  
 C. W. McCurdy,  J. B. Neaton,  C. Ochsenfeld,  J. A. Parkhill,  R. Peverati,  
 V. A. Rassolov,  Yihan Shao,  L. V. Slipchenko,  T. Stauch,  R. P. Steele,  
 J. E. Subotnik,  A. J. W. Thom,  A. Tkatchenko,  D. G. Truhlar,  
 T. Van Voorhis,  T. A. Wesolowski,  K. B. Whaley,  H. L. Woodcock III,  
 P. M. Zimmerman,  S. Faraji,  P. M. W. Gill,  M. Head-Gordon,  
 J. M. Herbert,  A. I. Krylov

 Contributors to earlier versions of Q-Chem not listed above: 
 R. D. Adamson,  B. Austin,  R. Baer,  J. Baker,  G. J. O. Beran,  
 K. Brandhorst,  S. T. Brown,  E. F. C. Byrd,  A. K. Chakraborty,  
 G. K. L. Chan,  Chun-Min Chang,  Yunqing Chen,  C.-L. Cheng,  
 Siu Hung Chien,  D. M. Chipman,  D. L. Crittenden,  H. Dachsel,  
 R. J. Doerksen,  A. D. Dutoi,  R. G. Edgar,  J. Fosso-Tande,  
 L. Fusti-Molnar,  D. Ghosh,  A. Ghysels,  A. Golubeva-Zadorozhnaya,  
 J. Gonthier,  M. S. Gordon,  S. R. Gwaltney,  G. Hawkins,  J. E. Herr,  
 A. Heyden,  S. Hirata,  E. G. Hohenstein,  G. Kedziora,  F. J. Keil,  
 C. Kelley,  Jihan Kim,  R. A. King,  R. Z. Khaliullin,  P. P. Korambath,  
 W. Kurlancheek,  A. Laurent,  A. M. Lee,  M. S. Lee,  S. V. Levchenko,  
 Ching Yeh Lin,  D. Liotard,  E. Livshits,  R. C. Lochan,  I. Lotan,  
 L. A. Martinez-Martinez,  P. E. Maslen,  N. Nair,  D. P. O'Neill,  
 D. Neuhauser,  E. Neuscamman,  C. M. Oana,  R. Olivares-Amaya,  R. Olson,  
 T. M. Perrine,  B. Peters,  P. A. Pieniazek,  A. Prociuk,  Y. M. Rhee,  
 J. Ritchie,  M. A. Rohrdanz,  E. Rosta,  N. J. Russ,  H. F. Schaefer III,  
 M. W. Schmidt,  N. E. Schultz,  S. Sharma,  N. Shenvi,  C. D. Sherrill,  
 A. C. Simmonett,  A. Sodt,  T. Stein,  D. Stuck,  K. S. Thanthiriwatte,  
 V. Vanovschi,  L. Vogt,  Tao Wang,  A. Warshel,  M. A. Watson,  
 C. F. Williams,  Q. Wu,  X. Xu,  Jun Yang,  W. Zhang,  Yan Zhao

 Please cite Q-Chem as follows:
 Y. Shao et al., Mol. Phys. 113, 184-215 (2015)
 DOI: 10.1080/00268976.2014.952696

 Q-Chem 5.4.0 for Intel X86 EM64T Linux

 Parts of Q-Chem use Armadillo 9.800.1 (Horizon Scraper).
 http://arma.sourceforge.net/

 Q-Chem begins on Tue Jan  9 10:13:54 2024  

 Host: 
0

     Scratch files written to ./qchem3224933//
 May1621 |scratch|qcdevops|jenkins|workspace|build_RNUM    
 Parallel job on  1  processors
 Processing $rem in /cm/shared/apps/spack/cpu/opt/spack/linux-centos8-zen2/gcc-10.2.0/qchem-5.4-akfmr7b3t57bfs6qan3padb2wnb2i7cl/config/preferences:
 Processing $rem in /home/rramji/.qchemrc:
 Symmetry turned off for PCM/SM12/SMD calculation
 Core orbitals will be frozen

 Checking the input file for inconsistencies... 	...done.

 Q-Chem warning in module forms1/BasisType.C, line 2236:

 You are not using the predefined 5D/6D in this basis set.


--------------------------------------------------------------
User input:
--------------------------------------------------------------
$molecule
0 1
C	-0.267644	-0.955820	0.977832
S	-0.033044	-0.082020	2.485332
C	0.373256	1.437180	1.696732
C	-0.032844	-0.082420	-0.090068
C	0.324756	1.260980	0.291432
S	-0.093144	-0.318420	-1.827668
C	0.354956	1.374980	-2.076668
C	0.535856	2.059780	-0.884768
F	0.877156	3.352180	-0.841268
C	0.472656	1.807280	-3.478268
O	0.281156	1.061580	-4.428668
O	0.815056	3.113680	-3.591368
C	0.948156	3.590580	-4.938368
H	1.226456	4.655880	-4.855268
H	-0.005944	3.480480	-5.492368
H	1.732456	3.025480	-5.481468
C	-0.267644	-2.391020	0.977832
H	-0.814044	-2.399020	0.046332
H	0.460256	-3.068920	0.557232
H	-1.078644	-2.922120	1.453732
H	0.611056	2.330280	2.284332
$end

$rem
JOBTYPE		SP
EXCHANGE	HF
CORRELATION	pRIMP2
BASIS		cc-pvtz
METHOD		rimp2
AUX_BASIS	rimp2-cc-pvtz
SOLVENT_METHOD	PCM
PURECART	11111
SYMMETRY	false
MEM_TOTAL	110000
SCF_CONVERGENCE = 6
THRESH=10
GUI = 2
$end



$solvent
dielectric 4.90
$end
--------------------------------------------------------------
 ----------------------------------------------------------------
             Standard Nuclear Orientation (Angstroms)
    I     Atom           X                Y                Z
 ----------------------------------------------------------------
    1      C      -0.2676440000    -0.9558200000     0.9778320000
    2      S      -0.0330440000    -0.0820200000     2.4853320000
    3      C       0.3732560000     1.4371800000     1.6967320000
    4      C      -0.0328440000    -0.0824200000    -0.0900680000
    5      C       0.3247560000     1.2609800000     0.2914320000
    6      S      -0.0931440000    -0.3184200000    -1.8276680000
    7      C       0.3549560000     1.3749800000    -2.0766680000
    8      C       0.5358560000     2.0597800000    -0.8847680000
    9      F       0.8771560000     3.3521800000    -0.8412680000
   10      C       0.4726560000     1.8072800000    -3.4782680000
   11      O       0.2811560000     1.0615800000    -4.4286680000
   12      O       0.8150560000     3.1136800000    -3.5913680000
   13      C       0.9481560000     3.5905800000    -4.9383680000
   14      H       1.2264560000     4.6558800000    -4.8552680000
   15      H      -0.0059440000     3.4804800000    -5.4923680000
   16      H       1.7324560000     3.0254800000    -5.4814680000
   17      C      -0.2676440000    -2.3910200000     0.9778320000
   18      H      -0.8140440000    -2.3990200000     0.0463320000
   19      H       0.4602560000    -3.0689200000     0.5572320000
   20      H      -1.0786440000    -2.9221200000     1.4537320000
   21      H       0.6110560000     2.3302800000     2.2843320000
 ----------------------------------------------------------------
 Nuclear Repulsion Energy =        1083.72177373 hartrees
 There are       59 alpha and       59 beta electrons
 Requested basis set is cc-pVTZ
 There are 186 shells and 526 basis functions

 Total QAlloc Memory Limit 110000 MB
 Mega-Array Size       188 MB
 MEM_STATIC part       192 MB
 Discretize the solute cavity surface with Lebedev spheres
	Using 110 Lebedev grid points for each H atom
	Using 194 Lebedev grid points for other atoms
	Atomic van der Waals radii will be scaled by 1.20
 Remove points where switching function is < 1.0e-08
 Keep 1568 surface tesserae and discard 1918 interior tesserae
 Molecular Surface Area = 242.016 Angst**2
 Requested basis set is rimp2-cc-pVTZ
 There are 410 shells and 1426 basis functions
 A cutoff of  1.0D-10 yielded  11552 shell pairs
 There are     90644 function pairs (    118625 Cartesian)
 Smallest overlap matrix eigenvalue = 6.08E-05

 Scale SEOQF with 1.000000e-01/1.000000e-01/1.000000e-02

 Standard Electronic Orientation quadrupole field applied
 Nucleus-field energy     =     0.0000000253 hartrees
 Guess from superposition of atomic densities
 Warning:  Energy on first SCF cycle will be non-variational
 SAD guess density has 118.000000 electrons

 -----------------------------------------------------------------------
  General SCF calculation program by
  Eric Jon Sundstrom, Paul Horn, Yuezhi Mao, Dmitri Zuev, Alec White,
  David Stuck, Shaama M.S., Shane Yost, Joonho Lee, David Small,
  Daniel Levine, Susi Lehtola, Hugh Burton, Evgeny Epifanovsky,
  Bang C. Huynh
 -----------------------------------------------------------------------
 Hartree-Fock
 using 64 threads for integral computing
 -------------------------------------------------------
 OpenMP Integral computing Module                
 Release: version 1.0, May 2013, Q-Chem Inc. Pittsburgh 
 -------------------------------------------------------
 A restricted SCF calculation will be
 performed using DIIS
 SCF converges when DIIS error is below 1.0e-06
 ---------------------------------------
  Cycle       Energy         DIIS error
 ---------------------------------------
    1   -1394.2437933717      2.47e-02  
    2   -1389.0330913535      2.47e-03  
    3   -1389.2025569831      1.54e-03  
    4   -1389.2623632295      3.53e-04  
    5   -1389.2681112789      1.12e-04  
    6   -1389.2687828260      3.60e-05  
    7   -1389.2689258409      1.80e-05  
    8   -1389.2689748773      6.98e-06  
    9   -1389.2689852472      2.97e-06  
   10   -1389.2689866551      1.11e-06  
   11   -1389.2689868648      4.63e-07  Convergence criterion met
 ---------------------------------------
 SCF time:   CPU 1710.68s  wall 52.00s 

************** Final PCM Free Energy Summary **************
 G_electrostatic  =      -0.01164687 hartree =      -7.30851969 kcal/mol
 G_cavitation     =       0.00000000 hartree =       0.00000000 kcal/mol
 G_dispersion     =       0.00000000 hartree =       0.00000000 kcal/mol
 G_repulsion      =       0.00000000 hartree =       0.00000000 kcal/mol
 --------------------------------------------------
 Non-electrostatic Free Energy =       0.00000000 hartree =       0.00000000 kcal/mol
 Total                         =      -0.01164687 hartree =      -7.30851969 kcal/mol
 --------------------------------------------------
 SCF Energy (H0 + V/2)                       =   -1389.26898686 
 Solute Internal Energy (H0)                 =   -1389.25734000 
 Total Free Energy (H0 + V/2 + non-elec)     =   -1389.26898686 hartree
                                             = -871779.44702424 kcal/mol
***********************************************************

 SCF   energy in the final basis set =    -1389.2689868648
 Total energy in the final basis set =    -1389.2689868648


 --------------------------------------------------------------
  Generalized many-body perturbation theory program
  by Joonho Lee, Fazle Rob, Xintian Feng, Evgeny Epifanovsky

 No regularization used 
 (reg. param. = 0.0000e+00)
  (P|Q)^-1/2 Time:  CPU 28.94 s  wall 0.46 s

 In RI-MP2 calculation: 
 # of frozen core orbitals: 22

 Components of the RIMP2 correlation energy:
        aaaa    correlation energy =        -0.3287459517 a.u.
        abab    correlation energy =        -1.8491438723 a.u.
        bbbb    correlation energy =        -0.3287459517 a.u.
        non-Brillouin singles      =        -0.0000000000 a.u.
        total same-spin energy     =        -0.6574919034 a.u.
        total opposite-spin energy =        -1.8491438723 a.u.

 Total  RIMP2   correlation energy =        -2.5066357757 a.u.
        RIMP2         total energy =     -1391.7756226405 a.u.

 RI-MP2 Energy Time:  CPU 187.62 s  wall 3.65 s
 
 --------------------------------------------------------------
 
                    Orbital Energies (a.u.)
 --------------------------------------------------------------
 
 Alpha MOs
 -- Occupied --
-92.0030 -91.9940 -26.3412 -20.6137 -20.5597 -11.4078 -11.3796 -11.3000
-11.2946 -11.2933 -11.2893 -11.2883 -11.2790 -11.2261  -9.0022  -8.9941
 -6.6829  -6.6823  -6.6818  -6.6752  -6.6745  -6.6734  -1.6583  -1.4661
 -1.3687  -1.2134  -1.1355  -1.0675  -1.0188  -0.9950  -0.9583  -0.9140
 -0.8635  -0.8052  -0.7890  -0.7592  -0.7300  -0.7232  -0.6943  -0.6835
 -0.6729  -0.6611  -0.6105  -0.5993  -0.5914  -0.5814  -0.5651  -0.5562
 -0.5392  -0.5300  -0.5072  -0.4891  -0.4737  -0.4717  -0.4669  -0.4534
 -0.3895  -0.3448  -0.2901
 -- Virtual --
  0.0402   0.1166   0.1323   0.1518   0.1575   0.1750   0.1864   0.1955
  0.2142   0.2155   0.2222   0.2268   0.2328   0.2411   0.2528   0.2680
  0.2979   0.3062   0.3130   0.3416   0.3454   0.3537   0.3776   0.3838
  0.3848   0.3961   0.4081   0.4144   0.4212   0.4318   0.4381   0.4400
  0.4613   0.4678   0.4809   0.4882   0.4946   0.5058   0.5070   0.5163
  0.5244   0.5371   0.5409   0.5447   0.5460   0.5594   0.5673   0.5827
  0.5901   0.5967   0.6050   0.6117   0.6155   0.6227   0.6238   0.6277
  0.6375   0.6474   0.6615   0.6621   0.6731   0.6866   0.6975   0.7081
  0.7122   0.7182   0.7235   0.7501   0.7602   0.7639   0.7704   0.8119
  0.8161   0.8175   0.8356   0.8460   0.8512   0.8702   0.8766   0.8783
  0.8853   0.8948   0.9104   0.9306   0.9370   0.9471   0.9604   0.9679
  0.9812   0.9907   1.0052   1.0092   1.0252   1.0319   1.0452   1.0492
  1.0573   1.0727   1.0977   1.1002   1.1039   1.1079   1.1162   1.1247
  1.1307   1.1432   1.1614   1.1668   1.1782   1.1866   1.2074   1.2182
  1.2254   1.2368   1.2400   1.2493   1.2655   1.2772   1.2851   1.2937
  1.3162   1.3373   1.3460   1.3535   1.3601   1.3836   1.3926   1.4054
  1.4166   1.4323   1.4372   1.4580   1.4815   1.4910   1.4973   1.5037
  1.5143   1.5341   1.5415   1.5511   1.5568   1.5802   1.6010   1.6076
  1.6198   1.6226   1.6579   1.6745   1.6875   1.6916   1.7104   1.7242
  1.7430   1.7655   1.7953   1.8029   1.8207   1.8255   1.8354   1.8603
  1.8695   1.8856   1.8967   1.9108   1.9273   1.9466   1.9579   1.9615
  1.9925   2.0018   2.0105   2.0367   2.0479   2.0868   2.0889   2.1062
  2.1149   2.1599   2.1723   2.1891   2.1976   2.2007   2.2139   2.2290
  2.2380   2.2436   2.2577   2.2837   2.2933   2.3031   2.3331   2.3421
  2.3675   2.3749   2.3876   2.4133   2.4312   2.4575   2.4821   2.4917
  2.5106   2.5344   2.5533   2.5576   2.5840   2.6060   2.6288   2.6392
  2.6431   2.6553   2.6685   2.6841   2.6859   2.6965   2.7034   2.7130
  2.7282   2.7445   2.7522   2.7855   2.7899   2.7995   2.8093   2.8230
  2.8379   2.8471   2.8690   2.8798   2.8910   2.9070   2.9266   2.9461
  2.9611   2.9711   2.9912   2.9951   3.0225   3.0239   3.0371   3.0614
  3.0719   3.0818   3.0927   3.1007   3.1037   3.1230   3.1309   3.1434
  3.1535   3.1742   3.1955   3.2077   3.2128   3.2185   3.2429   3.2557
  3.2614   3.2675   3.2758   3.2806   3.2892   3.3126   3.3193   3.3322
  3.3448   3.3506   3.3542   3.3746   3.3818   3.3910   3.4056   3.4179
  3.4187   3.4262   3.4392   3.4528   3.4618   3.4732   3.4777   3.4866
  3.4993   3.5134   3.5224   3.5411   3.5518   3.5619   3.5704   3.5790
  3.5941   3.5999   3.6056   3.6159   3.6289   3.6487   3.6538   3.6726
  3.6792   3.6912   3.6976   3.7064   3.7152   3.7226   3.7379   3.7573
  3.7652   3.7705   3.7798   3.7970   3.8110   3.8157   3.8225   3.8245
  3.8461   3.8692   3.8733   3.8868   3.8927   3.8987   3.9041   3.9159
  3.9380   3.9520   3.9586   3.9923   4.0017   4.0129   4.0432   4.0516
  4.0666   4.0699   4.0764   4.0867   4.1194   4.1370   4.1642   4.1667
  4.1773   4.2015   4.2133   4.2176   4.2542   4.2966   4.3110   4.3393
  4.3425   4.3594   4.3646   4.3767   4.3954   4.4137   4.4212   4.4375
  4.4525   4.4701   4.4943   4.5188   4.5394   4.5754   4.5838   4.5924
  4.6016   4.6446   4.6472   4.6560   4.6737   4.6791   4.7296   4.7395
  4.7719   4.7787   4.8276   4.8427   4.8509   4.8899   4.9055   4.9229
  4.9404   4.9756   4.9942   5.0095   5.0459   5.0736   5.0901   5.1172
  5.1527   5.1680   5.2019   5.2522   5.2541   5.2590   5.2963   5.3519
  5.3599   5.4038   5.4113   5.4268   5.4653   5.4855   5.5184   5.5238
  5.5397   5.5821   5.5976   5.6229   5.6623   5.6781   5.7320   5.7569
  5.8085   5.8215   5.8266   5.8925   5.9259   5.9305   5.9720   5.9923
  6.0433   6.1105   6.1512   6.1772   6.2093   6.2623   6.3062   6.4106
  6.4512   6.4537   6.5386   6.6032   6.6619   6.6726   6.7471   6.8311
  6.8608   6.9794   7.2050   7.2070   7.3111   7.3648   7.3651   7.4072
  7.4144   7.4876   7.5255   7.5518   7.6161   7.7749   7.7897   7.8946
  7.9590   8.1347   8.2171   8.9238   9.0121   9.3648   9.4613   9.6477
 10.0745  11.0629  11.6104  11.8096  12.4066  12.9529  13.0856  13.3863
 13.7726  14.0303  14.5312
 --------------------------------------------------------------
 
          Ground-State Mulliken Net Atomic Charges

     Atom                 Charge (a.u.)
  ----------------------------------------
      1 C                     0.034639
      2 S                     0.076091
      3 C                    -0.204405
      4 C                    -0.028316
      5 C                    -0.091622
      6 S                    -0.004805
      7 C                    -0.157306
      8 C                     0.388170
      9 F                    -0.207730
     10 C                     0.445660
     11 O                    -0.462728
     12 O                    -0.300950
     13 C                    -0.058474
     14 H                     0.121126
     15 H                     0.094758
     16 H                     0.094693
     17 C                    -0.366583
     18 H                     0.116234
     19 H                     0.152231
     20 H                     0.146633
     21 H                     0.212682
  ----------------------------------------
  Sum of atomic charges =     0.000000

 -----------------------------------------------------------------
                    Cartesian Multipole Moments
 -----------------------------------------------------------------
    Charge (ESU x 10^10)
                -0.0000
    Dipole Moment (Debye)
         X       0.2344      Y       0.5534      Z       2.6288
       Tot       2.6966
    Quadrupole Moments (Debye-Ang)
        XX     -95.5323     XY       3.7641     YY     -81.9097
        XZ      -2.6335     YZ      -8.3041     ZZ     -97.8104
    Octopole Moments (Debye-Ang^2)
       XXX     -66.9570    XXY     -78.3520    XYY     -20.5391
       YYY    -231.4237    XXZ      78.5923    XYZ      -6.8559
       YYZ      47.9162    XZZ      -3.0157    YZZ      -0.0054
       ZZZ     268.7781
    Hexadecapole Moments (Debye-Ang^3)
      XXXX    -241.8169   XXXY    -236.9656   XXYY    -376.6884
      XYYY    -207.2552   YYYY   -1953.3102   XXXZ     206.4911
      XXYZ     260.9230   XYYZ      25.6764   YYYZ     673.6108
      XXZZ    -633.0270   XYZZ       9.1558   YYZZ    -642.4751
      XZZZ     127.2274   YZZZ     508.1509   ZZZZ   -3705.1641
 -----------------------------------------------------------------
 Total job time:  58.23s(wall), 1980.05s(cpu) 
 Tue Jan  9 10:14:52 2024

        *************************************************************
        *                                                           *
        *  Thank you very much for using Q-Chem.  Have a nice day.  *
        *                                                           *
        *************************************************************


0 sent ACK to 0 
now end server 0 ... 
cleanup process ... done
remove work dirs ./qchem3224933.0 -- ./qchem3224933.0
rm -rf ./qchem3224933.0
rm -rf ./qchem3224933
