You are running Q-Chem version: 5.4.0

#
# job setting
#
local host:  exp-9-19
current dir: /expanse/lustre/projects/csd626/rramji/aromodel/impropers-p3ht/Improper_Bend_Test
input file:  fin_ftt_Improper_Bend_Methyl_Phi_25.qcin
output file: 
nprocs     : 1
nthreads   : 64
#
# qchem installation setting
#
QC:          /cm/shared/apps/spack/cpu/opt/spack/linux-centos8-zen2/gcc-10.2.0/qchem-5.4-akfmr7b3t57bfs6qan3padb2wnb2i7cl
QCAUX:       /cm/shared/apps/spack/cpu/opt/spack/linux-centos8-zen2/gcc-10.2.0/qchem-5.4-akfmr7b3t57bfs6qan3padb2wnb2i7cl/qcaux
QCPROG:      /cm/shared/apps/spack/cpu/opt/spack/linux-centos8-zen2/gcc-10.2.0/qchem-5.4-akfmr7b3t57bfs6qan3padb2wnb2i7cl/exe/qcprog.exe
QCPROG_S:    /cm/shared/apps/spack/cpu/opt/spack/linux-centos8-zen2/gcc-10.2.0/qchem-5.4-akfmr7b3t57bfs6qan3padb2wnb2i7cl/exe/qcprog.exe_s
PARALLEL:    -DPARALLEL
QCMPI:       mpich
#
# qchem directory setting
#
qcrun:       qchem3604245
QCSCRATCH:   .
QCLOCALSCR:  
QCTMPDIR:    .
QCFILEPREF:  ./qchem3604245
QCSAVEDIR:   
workdirs:    ./qchem3604245
workdir0:    ./qchem3604245
partmpdirs =  
#
# parallel setting
#
QCRSH:           ssh
QCMPI:           mpich
QCMPIRUN:        /cm/shared/apps/spack/cpu/opt/spack/linux-centos8-zen2/gcc-10.2.0/qchem-5.4-akfmr7b3t57bfs6qan3padb2wnb2i7cl/bin/mpi/mpirun_qchem
QCMACHINEFILE:   ./qchem3604245/hostfile
exp-9-19

#
# env setting
#
exported envs:   QC QCAUX QCSCRATCH QCRUNNAME QCFILEPREF QCPROG QCPROG_S GUIFILE

Running Job 1 of 1 fin_ftt_Improper_Bend_Methyl_Phi_25.qcin
qchem fin_ftt_Improper_Bend_Methyl_Phi_25.qcin_3604245.0 ./qchem3604245/ 1
/cm/shared/apps/spack/cpu/opt/spack/linux-centos8-zen2/gcc-10.2.0/qchem-5.4-akfmr7b3t57bfs6qan3padb2wnb2i7cl/bin/mpi/mpirun_qchem -machinefile ./qchem3604245/hostfile -np 1 /cm/shared/apps/spack/cpu/opt/spack/linux-centos8-zen2/gcc-10.2.0/qchem-5.4-akfmr7b3t57bfs6qan3padb2wnb2i7cl/exe/qcprog.exe fin_ftt_Improper_Bend_Methyl_Phi_25.qcin_3604245.0 ./qchem3604245/

Process 0 of 1 is on exp-9-19 - thread support 0
initial socket setup ...start
initial socket setup ...done 
now start server 0 ... 
                  Welcome to Q-Chem
     A Quantum Leap Into The Future Of Chemistry


 Q-Chem 5.4, Q-Chem, Inc., Pleasanton, CA (2021)

 License issued to: University of California, San Diego (site)

 E. Epifanovsky,  A. T. B. Gilbert,  Xintian Feng,  Joonho Lee,  Yuezhi Mao,  
 N. Mardirossian,  P. Pokhilko,  A. White,  M. Wormit,  M. P. Coons,  
 A. L. Dempwolff,  Zhengting Gan,  D. Hait,  P. R. Horn,  L. D. Jacobson,  
 I. Kaliman,  J. Kussmann,  A. W. Lange,  Ka Un Lao,  D. S. Levine,  Jie Liu,  
 S. C. McKenzie,  A. F. Morrison,  K. Nanda,  F. Plasser,  D. R. Rehn,  
 M. L. Vidal,  Zhi-Qiang You,  Ying Zhu,  B. Alam,  B. Albrecht,  
 A. Aldossary,  E. Alguire,  J. H. Andersen,  D. Barton,  K. Begam,  A. Behn,  
 Y. A. Bernard,  E. J. Berquist,  H. Burton,  A. Carreras,  K. Carter-Fenk,  
 R. Chakraborty,  A. D. Chien,  K. D. Closser,  V. Cofer-Shabica,  
 S. Dasgupta,  Jia Deng,  M. de Wergifosse,  M. Diedenhofen,  Hainam Do,  
 S. Ehlert,  Po-Tung Fang,  S. Fatehi,  Qingguo Feng,  J. Gayvert,  
 Qinghui Ge,  G. Gidofalvi,  M. Goldey,  J. Gomes,  C. Gonzalez-Espinoza,  
 S. Gulania,  A. Gunina,  M. W. D. Hanson-Heine,  P. H. P. Harbach,  
 A. W. Hauser,  M. F. Herbst,  M. Hernandez Vera,  M. Hodecker,  
 Z. C. Holden,  S. Houck,  Xunkun Huang,  Kerwin Hui,  B. C. Huynh,  
 M. Ivanov,  Hyunjun Ji,  Hanjie Jiang,  B. Kaduk,  S. Kaehler,  
 K. Khistyaev,  Jaehoon Kim,  P. Klunzinger,  Z. Koczor-Benda,  
 Joong Hoon Koh,  D. Kosenkov,  L. Koulias,  T. Kowalczyk,  C. M. Krauter,  
 K. Kue,  A. Kunitsa,  T. Kus,  A. Landau,  K. V. Lawler,  D. Lefrancois,  
 S. Lehtola,  Rain Li,  Yi-Pei Li,  Jiashu Liang,  M. Liebenthal,  
 Hung-Hsuan Lin,  You-Sheng Lin,  Fenglai Liu,  Kuan-Yu Liu,  
 M. Loipersberger,  A. Luenser,  A. Manjanath,  P. Manohar,  E. Mansoor,  
 S. F. Manzer,  Shan-Ping Mao,  A. V. Marenich,  T. Markovich,  S. Mason,  
 S. A. Maurer,  P. F. McLaughlin,  M. F. S. J. Menger,  J.-M. Mewes,  
 S. A. Mewes,  P. Morgante,  J. W. Mullinax,  T. S. Nguyen-Beck,  
 K. J. Oosterbaan,  G. Paran,  Alexander C. Paul,  Suranjan K. Paul,  
 F. Pavosevic,  Zheng Pei,  S. Prager,  E. I. Proynov,  E. Ramos,  B. Rana,  
 A. E. Rask,  A. Rettig,  R. M. Richard,  F. Rob,  E. Rossomme,  T. Scheele,  
 M. Scheurer,  M. Schneider,  N. Sergueev,  S. M. Sharada,  W. Skomorowski,  
 D. W. Small,  C. J. Stein,  Yu-Chuan Su,  E. J. Sundstrom,  Zhen Tao,  
 J. Thirman,  T. Tsuchimochi,  N. M. Tubman,  S. P. Veccham,  O. Vydrov,  
 J. Wenzel,  J. Witte,  A. Yamada,  Kun Yao,  S. Yeganeh,  S. R. Yost,  
 A. Zech,  Igor Ying Zhang,  Xing Zhang,  Yu Zhang,  D. Zuev,  
 A. Aspuru-Guzik,  A. T. Bell,  N. A. Besley,  K. B. Bravaya,  B. R. Brooks,  
 D. Casanova,  Jeng-Da Chai,  S. Coriani,  C. J. Cramer,  
 A. E. DePrince, III,  R. A. DiStasio Jr.,  A. Dreuw,  B. D. Dunietz,  
 T. R. Furlani,  W. A. Goddard III,  S. Grimme,  S. Hammes-Schiffer,  
 T. Head-Gordon,  W. J. Hehre,  Chao-Ping Hsu,  T.-C. Jagau,  Yousung Jung,  
 A. Klamt,  Jing Kong,  D. S. Lambrecht,  WanZhen Liang,  N. J. Mayhall,  
 C. W. McCurdy,  J. B. Neaton,  C. Ochsenfeld,  J. A. Parkhill,  R. Peverati,  
 V. A. Rassolov,  Yihan Shao,  L. V. Slipchenko,  T. Stauch,  R. P. Steele,  
 J. E. Subotnik,  A. J. W. Thom,  A. Tkatchenko,  D. G. Truhlar,  
 T. Van Voorhis,  T. A. Wesolowski,  K. B. Whaley,  H. L. Woodcock III,  
 P. M. Zimmerman,  S. Faraji,  P. M. W. Gill,  M. Head-Gordon,  
 J. M. Herbert,  A. I. Krylov

 Contributors to earlier versions of Q-Chem not listed above: 
 R. D. Adamson,  B. Austin,  R. Baer,  J. Baker,  G. J. O. Beran,  
 K. Brandhorst,  S. T. Brown,  E. F. C. Byrd,  A. K. Chakraborty,  
 G. K. L. Chan,  Chun-Min Chang,  Yunqing Chen,  C.-L. Cheng,  
 Siu Hung Chien,  D. M. Chipman,  D. L. Crittenden,  H. Dachsel,  
 R. J. Doerksen,  A. D. Dutoi,  R. G. Edgar,  J. Fosso-Tande,  
 L. Fusti-Molnar,  D. Ghosh,  A. Ghysels,  A. Golubeva-Zadorozhnaya,  
 J. Gonthier,  M. S. Gordon,  S. R. Gwaltney,  G. Hawkins,  J. E. Herr,  
 A. Heyden,  S. Hirata,  E. G. Hohenstein,  G. Kedziora,  F. J. Keil,  
 C. Kelley,  Jihan Kim,  R. A. King,  R. Z. Khaliullin,  P. P. Korambath,  
 W. Kurlancheek,  A. Laurent,  A. M. Lee,  M. S. Lee,  S. V. Levchenko,  
 Ching Yeh Lin,  D. Liotard,  E. Livshits,  R. C. Lochan,  I. Lotan,  
 L. A. Martinez-Martinez,  P. E. Maslen,  N. Nair,  D. P. O'Neill,  
 D. Neuhauser,  E. Neuscamman,  C. M. Oana,  R. Olivares-Amaya,  R. Olson,  
 T. M. Perrine,  B. Peters,  P. A. Pieniazek,  A. Prociuk,  Y. M. Rhee,  
 J. Ritchie,  M. A. Rohrdanz,  E. Rosta,  N. J. Russ,  H. F. Schaefer III,  
 M. W. Schmidt,  N. E. Schultz,  S. Sharma,  N. Shenvi,  C. D. Sherrill,  
 A. C. Simmonett,  A. Sodt,  T. Stein,  D. Stuck,  K. S. Thanthiriwatte,  
 V. Vanovschi,  L. Vogt,  Tao Wang,  A. Warshel,  M. A. Watson,  
 C. F. Williams,  Q. Wu,  X. Xu,  Jun Yang,  W. Zhang,  Yan Zhao

 Please cite Q-Chem as follows:
 Y. Shao et al., Mol. Phys. 113, 184-215 (2015)
 DOI: 10.1080/00268976.2014.952696

 Q-Chem 5.4.0 for Intel X86 EM64T Linux

 Parts of Q-Chem use Armadillo 9.800.1 (Horizon Scraper).
 http://arma.sourceforge.net/

 Q-Chem begins on Fri Mar  1 10:17:54 2024  

 Host: 
0

     Scratch files written to ./qchem3604245//
 May1621 |scratch|qcdevops|jenkins|workspace|build_RNUM    
 Parallel job on  1  processors
 Processing $rem in /cm/shared/apps/spack/cpu/opt/spack/linux-centos8-zen2/gcc-10.2.0/qchem-5.4-akfmr7b3t57bfs6qan3padb2wnb2i7cl/config/preferences:
 Processing $rem in /home/rramji/.qchemrc:
 Symmetry turned off for PCM/SM12/SMD calculation
 Core orbitals will be frozen

 Checking the input file for inconsistencies... 	...done.

 Q-Chem warning in module forms1/BasisType.C, line 2236:

 You are not using the predefined 5D/6D in this basis set.


--------------------------------------------------------------
User input:
--------------------------------------------------------------
$molecule
0 1
C	0.019084	0.841748	-1.022917
S	0.021317	-0.057680	-2.533649
C	0.020241	-1.633001	-1.750546
C	0.019054	-0.066475	0.041748
C	0.017539	-1.455265	-0.344630
C	0.020708	-0.000089	1.463233
C	0.020578	-1.264922	2.083999
S	0.017243	-2.512423	0.942818
C	0.025252	-1.519398	3.537055
O	0.028236	-0.585898	4.327360
O	0.028489	-2.802589	3.981458
F	0.024623	1.114036	2.223373
C	0.038638	-3.161290	5.312059
H	0.039239	-4.266252	5.347351
H	-0.852325	-2.771933	5.852692
H	0.937554	-2.771314	5.838961
C	-0.587449	2.142463	-1.022917
H	-1.664819	2.067126	-1.022917
H	-0.294118	2.706294	-1.896102
H	-0.294118	2.706294	-0.149732
H	0.020306	-2.553023	-2.344427
$end

$rem
JOBTYPE		SP
EXCHANGE	HF
CORRELATION	pRIMP2
BASIS		cc-pvtz
METHOD		rimp2
AUX_BASIS	rimp2-cc-pvtz
SOLVENT_METHOD	PCM
PURECART	11111
SYMMETRY	false
MEM_TOTAL	110000
SCF_CONVERGENCE = 6
THRESH=10
GUI = 2
$end



$solvent
dielectric 4.90
$end
--------------------------------------------------------------
 ----------------------------------------------------------------
             Standard Nuclear Orientation (Angstroms)
    I     Atom           X                Y                Z
 ----------------------------------------------------------------
    1      C       0.0190840000     0.8417480000    -1.0229170000
    2      S       0.0213170000    -0.0576800000    -2.5336490000
    3      C       0.0202410000    -1.6330010000    -1.7505460000
    4      C       0.0190540000    -0.0664750000     0.0417480000
    5      C       0.0175390000    -1.4552650000    -0.3446300000
    6      C       0.0207080000    -0.0000890000     1.4632330000
    7      C       0.0205780000    -1.2649220000     2.0839990000
    8      S       0.0172430000    -2.5124230000     0.9428180000
    9      C       0.0252520000    -1.5193980000     3.5370550000
   10      O       0.0282360000    -0.5858980000     4.3273600000
   11      O       0.0284890000    -2.8025890000     3.9814580000
   12      F       0.0246230000     1.1140360000     2.2233730000
   13      C       0.0386380000    -3.1612900000     5.3120590000
   14      H       0.0392390000    -4.2662520000     5.3473510000
   15      H      -0.8523250000    -2.7719330000     5.8526920000
   16      H       0.9375540000    -2.7713140000     5.8389610000
   17      C      -0.5874490000     2.1424630000    -1.0229170000
   18      H      -1.6648190000     2.0671260000    -1.0229170000
   19      H      -0.2941180000     2.7062940000    -1.8961020000
   20      H      -0.2941180000     2.7062940000    -0.1497320000
   21      H       0.0203060000    -2.5530230000    -2.3444270000
 ----------------------------------------------------------------
 Nuclear Repulsion Energy =        1090.44854552 hartrees
 There are       59 alpha and       59 beta electrons
 Requested basis set is cc-pVTZ
 There are 186 shells and 526 basis functions

 Total QAlloc Memory Limit 110000 MB
 Mega-Array Size       188 MB
 MEM_STATIC part       192 MB
 Discretize the solute cavity surface with Lebedev spheres
	Using 110 Lebedev grid points for each H atom
	Using 194 Lebedev grid points for other atoms
	Atomic van der Waals radii will be scaled by 1.20
 Remove points where switching function is < 1.0e-08
 Keep 1557 surface tesserae and discard 1929 interior tesserae
 Molecular Surface Area = 241.693 Angst**2
 Requested basis set is rimp2-cc-pVTZ
 There are 410 shells and 1426 basis functions
 A cutoff of  1.0D-10 yielded  11580 shell pairs
 There are     91082 function pairs (    119270 Cartesian)
 Smallest overlap matrix eigenvalue = 5.95E-05

 Scale SEOQF with 1.000000e-01/1.000000e-01/1.000000e-02

 Standard Electronic Orientation quadrupole field applied
 Nucleus-field energy     =     0.0000000182 hartrees
 Guess from superposition of atomic densities
 Warning:  Energy on first SCF cycle will be non-variational
 SAD guess density has 118.000000 electrons

 -----------------------------------------------------------------------
  General SCF calculation program by
  Eric Jon Sundstrom, Paul Horn, Yuezhi Mao, Dmitri Zuev, Alec White,
  David Stuck, Shaama M.S., Shane Yost, Joonho Lee, David Small,
  Daniel Levine, Susi Lehtola, Hugh Burton, Evgeny Epifanovsky,
  Bang C. Huynh
 -----------------------------------------------------------------------
 Hartree-Fock
 using 64 threads for integral computing
 -------------------------------------------------------
 OpenMP Integral computing Module                
 Release: version 1.0, May 2013, Q-Chem Inc. Pittsburgh 
 -------------------------------------------------------
 A restricted SCF calculation will be
 performed using DIIS
 SCF converges when DIIS error is below 1.0e-06
 ---------------------------------------
  Cycle       Energy         DIIS error
 ---------------------------------------
    1   -1394.5202886446      2.52e-02  
    2   -1389.0521729676      2.50e-03  
    3   -1389.2236836132      1.58e-03  
    4   -1389.2852612914      3.48e-04  
    5   -1389.2909204249      1.10e-04  
    6   -1389.2915717177      3.60e-05  
    7   -1389.2917119807      1.82e-05  
    8   -1389.2917599422      7.31e-06  
    9   -1389.2917708946      3.35e-06  
   10   -1389.2917726540      1.26e-06  
   11   -1389.2917729271      4.88e-07  Convergence criterion met
 ---------------------------------------
 SCF time:   CPU 1689.60s  wall 52.00s 

************** Final PCM Free Energy Summary **************
 G_electrostatic  =      -0.01254242 hartree =      -7.87048765 kcal/mol
 G_cavitation     =       0.00000000 hartree =       0.00000000 kcal/mol
 G_dispersion     =       0.00000000 hartree =       0.00000000 kcal/mol
 G_repulsion      =       0.00000000 hartree =       0.00000000 kcal/mol
 --------------------------------------------------
 Non-electrostatic Free Energy =       0.00000000 hartree =       0.00000000 kcal/mol
 Total                         =      -0.01254242 hartree =      -7.87048765 kcal/mol
 --------------------------------------------------
 SCF Energy (H0 + V/2)                       =   -1389.29177293 
 Solute Internal Energy (H0)                 =   -1389.27923051 
 Total Free Energy (H0 + V/2 + non-elec)     =   -1389.29177293 hartree
                                             = -871793.74549414 kcal/mol
***********************************************************

 SCF   energy in the final basis set =    -1389.2917729271
 Total energy in the final basis set =    -1389.2917729271


 --------------------------------------------------------------
  Generalized many-body perturbation theory program
  by Joonho Lee, Fazle Rob, Xintian Feng, Evgeny Epifanovsky

 No regularization used 
 (reg. param. = 0.0000e+00)
  (P|Q)^-1/2 Time:  CPU 26.47 s  wall 0.42 s

 In RI-MP2 calculation: 
 # of frozen core orbitals: 22

 Components of the RIMP2 correlation energy:
        aaaa    correlation energy =        -0.3283544354 a.u.
        abab    correlation energy =        -1.8445784583 a.u.
        bbbb    correlation energy =        -0.3283544354 a.u.
        non-Brillouin singles      =        -0.0000000000 a.u.
        total same-spin energy     =        -0.6567088708 a.u.
        total opposite-spin energy =        -1.8445784583 a.u.

 Total  RIMP2   correlation energy =        -2.5012873291 a.u.
        RIMP2         total energy =     -1391.7930602562 a.u.

 RI-MP2 Energy Time:  CPU 179.43 s  wall 3.74 s
 
 --------------------------------------------------------------
 
                    Orbital Energies (a.u.)
 --------------------------------------------------------------
 
 Alpha MOs
 -- Occupied --
-92.0064 -91.9905 -26.3339 -20.6106 -20.5476 -11.4080 -11.3756 -11.2971
-11.2919 -11.2917 -11.2878 -11.2846 -11.2709 -11.2295  -9.0052  -8.9946
 -6.6859  -6.6853  -6.6849  -6.6759  -6.6753  -6.6739  -1.6470  -1.4702
 -1.3653  -1.2271  -1.1448  -1.0620  -1.0270  -1.0011  -0.9683  -0.9050
 -0.8635  -0.7947  -0.7841  -0.7671  -0.7245  -0.7149  -0.6929  -0.6773
 -0.6723  -0.6684  -0.6072  -0.6051  -0.6041  -0.5879  -0.5770  -0.5655
 -0.5413  -0.5257  -0.5158  -0.4925  -0.4795  -0.4662  -0.4600  -0.4582
 -0.3942  -0.3458  -0.2802
 -- Virtual --
  0.0347   0.1182   0.1356   0.1558   0.1612   0.1735   0.1875   0.1992
  0.2082   0.2184   0.2209   0.2264   0.2381   0.2472   0.2626   0.2724
  0.2847   0.3053   0.3166   0.3409   0.3544   0.3643   0.3682   0.3764
  0.3801   0.3815   0.3927   0.4093   0.4178   0.4274   0.4385   0.4416
  0.4494   0.4689   0.4700   0.4797   0.4920   0.5045   0.5169   0.5239
  0.5361   0.5428   0.5491   0.5530   0.5641   0.5685   0.5806   0.5828
  0.5880   0.5991   0.6060   0.6120   0.6175   0.6212   0.6266   0.6340
  0.6392   0.6418   0.6491   0.6527   0.6684   0.6873   0.6927   0.6961
  0.7160   0.7190   0.7327   0.7596   0.7630   0.7772   0.7876   0.8021
  0.8052   0.8150   0.8213   0.8436   0.8665   0.8725   0.8800   0.8907
  0.9012   0.9085   0.9212   0.9304   0.9405   0.9606   0.9713   0.9760
  0.9932   0.9960   1.0039   1.0074   1.0187   1.0315   1.0473   1.0512
  1.0623   1.0706   1.0783   1.0901   1.0987   1.1122   1.1159   1.1315
  1.1511   1.1567   1.1635   1.1717   1.1739   1.1853   1.2045   1.2165
  1.2251   1.2354   1.2459   1.2544   1.2636   1.2842   1.3021   1.3191
  1.3259   1.3364   1.3431   1.3516   1.3688   1.3741   1.4014   1.4085
  1.4241   1.4357   1.4436   1.4577   1.4737   1.5002   1.5081   1.5103
  1.5136   1.5179   1.5371   1.5497   1.5544   1.5624   1.5687   1.5882
  1.6155   1.6412   1.6543   1.6671   1.6802   1.6907   1.7137   1.7309
  1.7521   1.7679   1.7753   1.8167   1.8297   1.8346   1.8412   1.8488
  1.8699   1.8775   1.8806   1.9135   1.9330   1.9387   1.9471   1.9544
  1.9853   2.0128   2.0295   2.0370   2.0494   2.0920   2.1036   2.1270
  2.1433   2.1459   2.1559   2.1641   2.1906   2.1972   2.2185   2.2365
  2.2474   2.2625   2.2684   2.2781   2.2872   2.2980   2.3271   2.3485
  2.3693   2.3781   2.3884   2.4126   2.4480   2.4654   2.4803   2.4977
  2.5296   2.5435   2.5642   2.5829   2.5896   2.5963   2.6114   2.6296
  2.6455   2.6486   2.6554   2.6730   2.6814   2.6919   2.7023   2.7276
  2.7415   2.7469   2.7618   2.7797   2.7895   2.7978   2.8154   2.8260
  2.8506   2.8697   2.8753   2.8902   2.9072   2.9226   2.9408   2.9475
  2.9771   2.9945   3.0191   3.0347   3.0437   3.0496   3.0785   3.0883
  3.0930   3.1046   3.1091   3.1237   3.1360   3.1424   3.1620   3.1723
  3.1832   3.1945   3.2067   3.2114   3.2143   3.2204   3.2501   3.2549
  3.2615   3.2749   3.2794   3.2897   3.2925   3.3043   3.3166   3.3247
  3.3335   3.3487   3.3612   3.3646   3.3691   3.3853   3.4109   3.4209
  3.4319   3.4384   3.4440   3.4520   3.4555   3.4762   3.4904   3.5028
  3.5133   3.5236   3.5325   3.5377   3.5719   3.5799   3.5887   3.5911
  3.5967   3.6050   3.6277   3.6398   3.6500   3.6620   3.6671   3.6711
  3.6835   3.7034   3.7088   3.7141   3.7178   3.7288   3.7322   3.7373
  3.7514   3.7674   3.7886   3.7982   3.8115   3.8238   3.8361   3.8379
  3.8536   3.8573   3.8780   3.8835   3.9002   3.9097   3.9244   3.9566
  3.9633   3.9756   3.9865   4.0029   4.0135   4.0466   4.0512   4.0565
  4.0741   4.0881   4.0938   4.1105   4.1448   4.1705   4.1803   4.1859
  4.2000   4.2063   4.2471   4.2702   4.2771   4.2990   4.3200   4.3294
  4.3358   4.3492   4.3768   4.3848   4.3875   4.4012   4.4185   4.4303
  4.4509   4.4698   4.4982   4.5059   4.5153   4.5520   4.5736   4.5791
  4.6020   4.6240   4.6427   4.6467   4.6639   4.6717   4.6812   4.7125
  4.7384   4.7528   4.7702   4.7970   4.8407   4.8556   4.8912   4.9111
  4.9536   4.9914   5.0087   5.0143   5.0405   5.0856   5.1623   5.1841
  5.1991   5.2006   5.2188   5.2537   5.2597   5.2780   5.3260   5.3546
  5.3562   5.3740   5.4185   5.4269   5.4594   5.4738   5.5135   5.5442
  5.5605   5.5838   5.6036   5.6149   5.6200   5.6459   5.6907   5.7083
  5.7411   5.7576   5.8022   5.8281   5.8504   5.9204   5.9717   5.9766
  6.0430   6.1239   6.1346   6.1589   6.1863   6.2659   6.3099   6.3319
  6.4117   6.5079   6.5581   6.6611   6.6787   6.7344   6.7399   6.8625
  6.8821   6.9925   7.1800   7.2113   7.3285   7.3729   7.3754   7.4291
  7.4640   7.4867   7.5184   7.5501   7.6027   7.7702   7.8324   7.9015
  8.0022   8.1126   8.3282   8.9277   9.0060   9.3629   9.4965   9.6848
 10.0939  11.2203  11.5049  11.9325  12.2731  12.6382  13.1353  13.4904
 13.8172  14.0941  15.0163
 --------------------------------------------------------------
 
          Ground-State Mulliken Net Atomic Charges

     Atom                 Charge (a.u.)
  ----------------------------------------
      1 C                     0.012717
      2 S                     0.086798
      3 C                    -0.253358
      4 C                    -0.092791
      5 C                    -0.009437
      6 C                     0.364549
      7 C                    -0.156996
      8 S                     0.032285
      9 C                     0.457380
     10 O                    -0.454463
     11 O                    -0.298464
     12 F                    -0.211979
     13 C                    -0.054749
     14 H                     0.116305
     15 H                     0.083938
     16 H                     0.083905
     17 C                    -0.284651
     18 H                     0.128949
     19 H                     0.118076
     20 H                     0.120927
     21 H                     0.211059
  ----------------------------------------
  Sum of atomic charges =     0.000000

 -----------------------------------------------------------------
                    Cartesian Multipole Moments
 -----------------------------------------------------------------
    Charge (ESU x 10^10)
                -0.0000
    Dipole Moment (Debye)
         X      -0.7069      Y      -1.3999      Z      -3.4951
       Tot       3.8308
    Quadrupole Moments (Debye-Ang)
        XX     -95.7084     XY      -1.2225     YY     -83.5058
        XZ       0.6576     YZ     -11.7566     ZZ     -95.8795
    Octopole Moments (Debye-Ang^2)
       XXX       5.4034    XXY      85.8931    XYY       0.9083
       YYY     227.0019    XXZ     -79.9740    XYZ       0.6265
       YYZ     -63.9158    XZZ       2.2578    YZZ      -6.7893
       ZZZ    -257.0168
    Hexadecapole Moments (Debye-Ang^3)
      XXXX    -133.4843   XXXY      34.2511   XXYY    -345.3410
      XYYY      34.5712   YYYY   -1763.8084   XXXZ     -20.3617
      XXYZ     248.1424   XYYZ      -4.2507   YYYZ     643.8600
      XXZZ    -682.1260   XYZZ       8.3077   YYZZ    -675.9210
      XZZZ     -21.0719   YZZZ     328.1383   ZZZZ   -3792.6695
 -----------------------------------------------------------------
 Total job time:  59.82s(wall), 2076.34s(cpu) 
 Fri Mar  1 10:18:54 2024

        *************************************************************
        *                                                           *
        *  Thank you very much for using Q-Chem.  Have a nice day.  *
        *                                                           *
        *************************************************************


0 sent ACK to 0 
now end server 0 ... 
cleanup process ... done
remove work dirs ./qchem3604245.0 -- ./qchem3604245.0
rm -rf ./qchem3604245.0
rm -rf ./qchem3604245
