You are running Q-Chem version: 5.4.0

#
# job setting
#
local host:  exp-9-19
current dir: /expanse/lustre/projects/csd626/rramji/aromodel/impropers-p3ht/Improper_Bend_Test
input file:  fin_ftt_Improper_Bend_Methyl_Phi_20.qcin
output file: 
nprocs     : 1
nthreads   : 64
#
# qchem installation setting
#
QC:          /cm/shared/apps/spack/cpu/opt/spack/linux-centos8-zen2/gcc-10.2.0/qchem-5.4-akfmr7b3t57bfs6qan3padb2wnb2i7cl
QCAUX:       /cm/shared/apps/spack/cpu/opt/spack/linux-centos8-zen2/gcc-10.2.0/qchem-5.4-akfmr7b3t57bfs6qan3padb2wnb2i7cl/qcaux
QCPROG:      /cm/shared/apps/spack/cpu/opt/spack/linux-centos8-zen2/gcc-10.2.0/qchem-5.4-akfmr7b3t57bfs6qan3padb2wnb2i7cl/exe/qcprog.exe
QCPROG_S:    /cm/shared/apps/spack/cpu/opt/spack/linux-centos8-zen2/gcc-10.2.0/qchem-5.4-akfmr7b3t57bfs6qan3padb2wnb2i7cl/exe/qcprog.exe_s
PARALLEL:    -DPARALLEL
QCMPI:       mpich
#
# qchem directory setting
#
qcrun:       qchem3604069
QCSCRATCH:   .
QCLOCALSCR:  
QCTMPDIR:    .
QCFILEPREF:  ./qchem3604069
QCSAVEDIR:   
workdirs:    ./qchem3604069
workdir0:    ./qchem3604069
partmpdirs =  
#
# parallel setting
#
QCRSH:           ssh
QCMPI:           mpich
QCMPIRUN:        /cm/shared/apps/spack/cpu/opt/spack/linux-centos8-zen2/gcc-10.2.0/qchem-5.4-akfmr7b3t57bfs6qan3padb2wnb2i7cl/bin/mpi/mpirun_qchem
QCMACHINEFILE:   ./qchem3604069/hostfile
exp-9-19

#
# env setting
#
exported envs:   QC QCAUX QCSCRATCH QCRUNNAME QCFILEPREF QCPROG QCPROG_S GUIFILE

Running Job 1 of 1 fin_ftt_Improper_Bend_Methyl_Phi_20.qcin
qchem fin_ftt_Improper_Bend_Methyl_Phi_20.qcin_3604069.0 ./qchem3604069/ 1
/cm/shared/apps/spack/cpu/opt/spack/linux-centos8-zen2/gcc-10.2.0/qchem-5.4-akfmr7b3t57bfs6qan3padb2wnb2i7cl/bin/mpi/mpirun_qchem -machinefile ./qchem3604069/hostfile -np 1 /cm/shared/apps/spack/cpu/opt/spack/linux-centos8-zen2/gcc-10.2.0/qchem-5.4-akfmr7b3t57bfs6qan3padb2wnb2i7cl/exe/qcprog.exe fin_ftt_Improper_Bend_Methyl_Phi_20.qcin_3604069.0 ./qchem3604069/

Process 0 of 1 is on exp-9-19 - thread support 0
initial socket setup ...start
initial socket setup ...done 
now start server 0 ... 
                  Welcome to Q-Chem
     A Quantum Leap Into The Future Of Chemistry


 Q-Chem 5.4, Q-Chem, Inc., Pleasanton, CA (2021)

 License issued to: University of California, San Diego (site)

 E. Epifanovsky,  A. T. B. Gilbert,  Xintian Feng,  Joonho Lee,  Yuezhi Mao,  
 N. Mardirossian,  P. Pokhilko,  A. White,  M. Wormit,  M. P. Coons,  
 A. L. Dempwolff,  Zhengting Gan,  D. Hait,  P. R. Horn,  L. D. Jacobson,  
 I. Kaliman,  J. Kussmann,  A. W. Lange,  Ka Un Lao,  D. S. Levine,  Jie Liu,  
 S. C. McKenzie,  A. F. Morrison,  K. Nanda,  F. Plasser,  D. R. Rehn,  
 M. L. Vidal,  Zhi-Qiang You,  Ying Zhu,  B. Alam,  B. Albrecht,  
 A. Aldossary,  E. Alguire,  J. H. Andersen,  D. Barton,  K. Begam,  A. Behn,  
 Y. A. Bernard,  E. J. Berquist,  H. Burton,  A. Carreras,  K. Carter-Fenk,  
 R. Chakraborty,  A. D. Chien,  K. D. Closser,  V. Cofer-Shabica,  
 S. Dasgupta,  Jia Deng,  M. de Wergifosse,  M. Diedenhofen,  Hainam Do,  
 S. Ehlert,  Po-Tung Fang,  S. Fatehi,  Qingguo Feng,  J. Gayvert,  
 Qinghui Ge,  G. Gidofalvi,  M. Goldey,  J. Gomes,  C. Gonzalez-Espinoza,  
 S. Gulania,  A. Gunina,  M. W. D. Hanson-Heine,  P. H. P. Harbach,  
 A. W. Hauser,  M. F. Herbst,  M. Hernandez Vera,  M. Hodecker,  
 Z. C. Holden,  S. Houck,  Xunkun Huang,  Kerwin Hui,  B. C. Huynh,  
 M. Ivanov,  Hyunjun Ji,  Hanjie Jiang,  B. Kaduk,  S. Kaehler,  
 K. Khistyaev,  Jaehoon Kim,  P. Klunzinger,  Z. Koczor-Benda,  
 Joong Hoon Koh,  D. Kosenkov,  L. Koulias,  T. Kowalczyk,  C. M. Krauter,  
 K. Kue,  A. Kunitsa,  T. Kus,  A. Landau,  K. V. Lawler,  D. Lefrancois,  
 S. Lehtola,  Rain Li,  Yi-Pei Li,  Jiashu Liang,  M. Liebenthal,  
 Hung-Hsuan Lin,  You-Sheng Lin,  Fenglai Liu,  Kuan-Yu Liu,  
 M. Loipersberger,  A. Luenser,  A. Manjanath,  P. Manohar,  E. Mansoor,  
 S. F. Manzer,  Shan-Ping Mao,  A. V. Marenich,  T. Markovich,  S. Mason,  
 S. A. Maurer,  P. F. McLaughlin,  M. F. S. J. Menger,  J.-M. Mewes,  
 S. A. Mewes,  P. Morgante,  J. W. Mullinax,  T. S. Nguyen-Beck,  
 K. J. Oosterbaan,  G. Paran,  Alexander C. Paul,  Suranjan K. Paul,  
 F. Pavosevic,  Zheng Pei,  S. Prager,  E. I. Proynov,  E. Ramos,  B. Rana,  
 A. E. Rask,  A. Rettig,  R. M. Richard,  F. Rob,  E. Rossomme,  T. Scheele,  
 M. Scheurer,  M. Schneider,  N. Sergueev,  S. M. Sharada,  W. Skomorowski,  
 D. W. Small,  C. J. Stein,  Yu-Chuan Su,  E. J. Sundstrom,  Zhen Tao,  
 J. Thirman,  T. Tsuchimochi,  N. M. Tubman,  S. P. Veccham,  O. Vydrov,  
 J. Wenzel,  J. Witte,  A. Yamada,  Kun Yao,  S. Yeganeh,  S. R. Yost,  
 A. Zech,  Igor Ying Zhang,  Xing Zhang,  Yu Zhang,  D. Zuev,  
 A. Aspuru-Guzik,  A. T. Bell,  N. A. Besley,  K. B. Bravaya,  B. R. Brooks,  
 D. Casanova,  Jeng-Da Chai,  S. Coriani,  C. J. Cramer,  
 A. E. DePrince, III,  R. A. DiStasio Jr.,  A. Dreuw,  B. D. Dunietz,  
 T. R. Furlani,  W. A. Goddard III,  S. Grimme,  S. Hammes-Schiffer,  
 T. Head-Gordon,  W. J. Hehre,  Chao-Ping Hsu,  T.-C. Jagau,  Yousung Jung,  
 A. Klamt,  Jing Kong,  D. S. Lambrecht,  WanZhen Liang,  N. J. Mayhall,  
 C. W. McCurdy,  J. B. Neaton,  C. Ochsenfeld,  J. A. Parkhill,  R. Peverati,  
 V. A. Rassolov,  Yihan Shao,  L. V. Slipchenko,  T. Stauch,  R. P. Steele,  
 J. E. Subotnik,  A. J. W. Thom,  A. Tkatchenko,  D. G. Truhlar,  
 T. Van Voorhis,  T. A. Wesolowski,  K. B. Whaley,  H. L. Woodcock III,  
 P. M. Zimmerman,  S. Faraji,  P. M. W. Gill,  M. Head-Gordon,  
 J. M. Herbert,  A. I. Krylov

 Contributors to earlier versions of Q-Chem not listed above: 
 R. D. Adamson,  B. Austin,  R. Baer,  J. Baker,  G. J. O. Beran,  
 K. Brandhorst,  S. T. Brown,  E. F. C. Byrd,  A. K. Chakraborty,  
 G. K. L. Chan,  Chun-Min Chang,  Yunqing Chen,  C.-L. Cheng,  
 Siu Hung Chien,  D. M. Chipman,  D. L. Crittenden,  H. Dachsel,  
 R. J. Doerksen,  A. D. Dutoi,  R. G. Edgar,  J. Fosso-Tande,  
 L. Fusti-Molnar,  D. Ghosh,  A. Ghysels,  A. Golubeva-Zadorozhnaya,  
 J. Gonthier,  M. S. Gordon,  S. R. Gwaltney,  G. Hawkins,  J. E. Herr,  
 A. Heyden,  S. Hirata,  E. G. Hohenstein,  G. Kedziora,  F. J. Keil,  
 C. Kelley,  Jihan Kim,  R. A. King,  R. Z. Khaliullin,  P. P. Korambath,  
 W. Kurlancheek,  A. Laurent,  A. M. Lee,  M. S. Lee,  S. V. Levchenko,  
 Ching Yeh Lin,  D. Liotard,  E. Livshits,  R. C. Lochan,  I. Lotan,  
 L. A. Martinez-Martinez,  P. E. Maslen,  N. Nair,  D. P. O'Neill,  
 D. Neuhauser,  E. Neuscamman,  C. M. Oana,  R. Olivares-Amaya,  R. Olson,  
 T. M. Perrine,  B. Peters,  P. A. Pieniazek,  A. Prociuk,  Y. M. Rhee,  
 J. Ritchie,  M. A. Rohrdanz,  E. Rosta,  N. J. Russ,  H. F. Schaefer III,  
 M. W. Schmidt,  N. E. Schultz,  S. Sharma,  N. Shenvi,  C. D. Sherrill,  
 A. C. Simmonett,  A. Sodt,  T. Stein,  D. Stuck,  K. S. Thanthiriwatte,  
 V. Vanovschi,  L. Vogt,  Tao Wang,  A. Warshel,  M. A. Watson,  
 C. F. Williams,  Q. Wu,  X. Xu,  Jun Yang,  W. Zhang,  Yan Zhao

 Please cite Q-Chem as follows:
 Y. Shao et al., Mol. Phys. 113, 184-215 (2015)
 DOI: 10.1080/00268976.2014.952696

 Q-Chem 5.4.0 for Intel X86 EM64T Linux

 Parts of Q-Chem use Armadillo 9.800.1 (Horizon Scraper).
 http://arma.sourceforge.net/

 Q-Chem begins on Fri Mar  1 10:16:53 2024  

 Host: 
0

     Scratch files written to ./qchem3604069//
 May1621 |scratch|qcdevops|jenkins|workspace|build_RNUM    
 Parallel job on  1  processors
 Processing $rem in /cm/shared/apps/spack/cpu/opt/spack/linux-centos8-zen2/gcc-10.2.0/qchem-5.4-akfmr7b3t57bfs6qan3padb2wnb2i7cl/config/preferences:
 Processing $rem in /home/rramji/.qchemrc:
 Symmetry turned off for PCM/SM12/SMD calculation
 Core orbitals will be frozen

 Checking the input file for inconsistencies... 	...done.

 Q-Chem warning in module forms1/BasisType.C, line 2236:

 You are not using the predefined 5D/6D in this basis set.


--------------------------------------------------------------
User input:
--------------------------------------------------------------
$molecule
0 1
C	0.015102	0.840099	-1.022917
S	0.017335	-0.059329	-2.533649
C	0.016259	-1.634650	-1.750546
C	0.015072	-0.068124	0.041748
C	0.013557	-1.456914	-0.344630
C	0.016726	-0.001738	1.463233
C	0.016596	-1.266571	2.083999
S	0.013261	-2.514072	0.942818
C	0.021270	-1.521047	3.537055
O	0.024254	-0.587547	4.327360
O	0.024507	-2.804238	3.981458
F	0.020641	1.112387	2.223373
C	0.034656	-3.162939	5.312059
H	0.035257	-4.267901	5.347351
H	-0.856307	-2.773582	5.852692
H	0.933572	-2.772963	5.838961
C	-0.475759	2.188727	-1.022917
H	-1.555594	2.207576	-1.022917
H	-0.134403	2.724847	-1.896102
H	-0.134403	2.724847	-0.149732
H	0.016324	-2.554672	-2.344427
$end

$rem
JOBTYPE		SP
EXCHANGE	HF
CORRELATION	pRIMP2
BASIS		cc-pvtz
METHOD		rimp2
AUX_BASIS	rimp2-cc-pvtz
SOLVENT_METHOD	PCM
PURECART	11111
SYMMETRY	false
MEM_TOTAL	110000
SCF_CONVERGENCE = 6
THRESH=10
GUI = 2
$end



$solvent
dielectric 4.90
$end
--------------------------------------------------------------
 ----------------------------------------------------------------
             Standard Nuclear Orientation (Angstroms)
    I     Atom           X                Y                Z
 ----------------------------------------------------------------
    1      C       0.0151020000     0.8400990000    -1.0229170000
    2      S       0.0173350000    -0.0593290000    -2.5336490000
    3      C       0.0162590000    -1.6346500000    -1.7505460000
    4      C       0.0150720000    -0.0681240000     0.0417480000
    5      C       0.0135570000    -1.4569140000    -0.3446300000
    6      C       0.0167260000    -0.0017380000     1.4632330000
    7      C       0.0165960000    -1.2665710000     2.0839990000
    8      S       0.0132610000    -2.5140720000     0.9428180000
    9      C       0.0212700000    -1.5210470000     3.5370550000
   10      O       0.0242540000    -0.5875470000     4.3273600000
   11      O       0.0245070000    -2.8042380000     3.9814580000
   12      F       0.0206410000     1.1123870000     2.2233730000
   13      C       0.0346560000    -3.1629390000     5.3120590000
   14      H       0.0352570000    -4.2679010000     5.3473510000
   15      H      -0.8563070000    -2.7735820000     5.8526920000
   16      H       0.9335720000    -2.7729630000     5.8389610000
   17      C      -0.4757590000     2.1887270000    -1.0229170000
   18      H      -1.5555940000     2.2075760000    -1.0229170000
   19      H      -0.1344030000     2.7248470000    -1.8961020000
   20      H      -0.1344030000     2.7248470000    -0.1497320000
   21      H       0.0163240000    -2.5546720000    -2.3444270000
 ----------------------------------------------------------------
 Nuclear Repulsion Energy =        1089.90017826 hartrees
 There are       59 alpha and       59 beta electrons
 Requested basis set is cc-pVTZ
 There are 186 shells and 526 basis functions

 Total QAlloc Memory Limit 110000 MB
 Mega-Array Size       188 MB
 MEM_STATIC part       192 MB
 Discretize the solute cavity surface with Lebedev spheres
	Using 110 Lebedev grid points for each H atom
	Using 194 Lebedev grid points for other atoms
	Atomic van der Waals radii will be scaled by 1.20
 Remove points where switching function is < 1.0e-08
 Keep 1560 surface tesserae and discard 1926 interior tesserae
 Molecular Surface Area = 241.829 Angst**2
 Requested basis set is rimp2-cc-pVTZ
 There are 410 shells and 1426 basis functions
 A cutoff of  1.0D-10 yielded  11559 shell pairs
 There are     90863 function pairs (    118985 Cartesian)
 Smallest overlap matrix eigenvalue = 5.89E-05

 Scale SEOQF with 1.000000e-01/1.000000e-01/1.000000e-02

 Standard Electronic Orientation quadrupole field applied
 Nucleus-field energy     =     0.0000000183 hartrees
 Guess from superposition of atomic densities
 Warning:  Energy on first SCF cycle will be non-variational
 SAD guess density has 118.000000 electrons

 -----------------------------------------------------------------------
  General SCF calculation program by
  Eric Jon Sundstrom, Paul Horn, Yuezhi Mao, Dmitri Zuev, Alec White,
  David Stuck, Shaama M.S., Shane Yost, Joonho Lee, David Small,
  Daniel Levine, Susi Lehtola, Hugh Burton, Evgeny Epifanovsky,
  Bang C. Huynh
 -----------------------------------------------------------------------
 Hartree-Fock
 using 64 threads for integral computing
 -------------------------------------------------------
 OpenMP Integral computing Module                
 Release: version 1.0, May 2013, Q-Chem Inc. Pittsburgh 
 -------------------------------------------------------
 A restricted SCF calculation will be
 performed using DIIS
 SCF converges when DIIS error is below 1.0e-06
 ---------------------------------------
  Cycle       Energy         DIIS error
 ---------------------------------------
    1   -1394.5148631820      2.52e-02  
    2   -1389.0566076795      2.50e-03  
    3   -1389.2281010295      1.57e-03  
    4   -1389.2894361610      3.48e-04  
    5   -1389.2950870561      1.09e-04  
    6   -1389.2957359060      3.60e-05  
    7   -1389.2958755590      1.81e-05  
    8   -1389.2959228379      7.23e-06  
    9   -1389.2959334111      3.28e-06  
   10   -1389.2959350611      1.23e-06  
   11   -1389.2959353124      4.71e-07  Convergence criterion met
 ---------------------------------------
 SCF time:   CPU 1685.59s  wall 51.00s 

************** Final PCM Free Energy Summary **************
 G_electrostatic  =      -0.01263463 hartree =      -7.92834801 kcal/mol
 G_cavitation     =       0.00000000 hartree =       0.00000000 kcal/mol
 G_dispersion     =       0.00000000 hartree =       0.00000000 kcal/mol
 G_repulsion      =       0.00000000 hartree =       0.00000000 kcal/mol
 --------------------------------------------------
 Non-electrostatic Free Energy =       0.00000000 hartree =       0.00000000 kcal/mol
 Total                         =      -0.01263463 hartree =      -7.92834801 kcal/mol
 --------------------------------------------------
 SCF Energy (H0 + V/2)                       =   -1389.29593531 
 Solute Internal Energy (H0)                 =   -1389.28330069 
 Total Free Energy (H0 + V/2 + non-elec)     =   -1389.29593531 hartree
                                             = -871796.35743032 kcal/mol
***********************************************************

 SCF   energy in the final basis set =    -1389.2959353124
 Total energy in the final basis set =    -1389.2959353124


 --------------------------------------------------------------
  Generalized many-body perturbation theory program
  by Joonho Lee, Fazle Rob, Xintian Feng, Evgeny Epifanovsky

 No regularization used 
 (reg. param. = 0.0000e+00)
  (P|Q)^-1/2 Time:  CPU 56.30 s  wall 1.01 s

 In RI-MP2 calculation: 
 # of frozen core orbitals: 22

 Components of the RIMP2 correlation energy:
        aaaa    correlation energy =        -0.3280923817 a.u.
        abab    correlation energy =        -1.8436452703 a.u.
        bbbb    correlation energy =        -0.3280923817 a.u.
        non-Brillouin singles      =        -0.0000000000 a.u.
        total same-spin energy     =        -0.6561847633 a.u.
        total opposite-spin energy =        -1.8436452703 a.u.

 Total  RIMP2   correlation energy =        -2.4998300337 a.u.
        RIMP2         total energy =     -1391.7957653460 a.u.

 RI-MP2 Energy Time:  CPU 218.86 s  wall 4.61 s
 
 --------------------------------------------------------------
 
                    Orbital Energies (a.u.)
 --------------------------------------------------------------
 
 Alpha MOs
 -- Occupied --
-92.0066 -91.9899 -26.3340 -20.6104 -20.5472 -11.4076 -11.3758 -11.2996
-11.2915 -11.2911 -11.2877 -11.2828 -11.2703 -11.2303  -9.0053  -8.9941
 -6.6861  -6.6855  -6.6851  -6.6754  -6.6747  -6.6734  -1.6470  -1.4699
 -1.3650  -1.2267  -1.1443  -1.0618  -1.0268  -1.0015  -0.9681  -0.9055
 -0.8633  -0.7947  -0.7840  -0.7668  -0.7243  -0.7149  -0.6928  -0.6771
 -0.6725  -0.6681  -0.6073  -0.6053  -0.6039  -0.5874  -0.5767  -0.5666
 -0.5418  -0.5257  -0.5159  -0.4925  -0.4791  -0.4674  -0.4599  -0.4579
 -0.3945  -0.3458  -0.2798
 -- Virtual --
  0.0372   0.1192   0.1353   0.1559   0.1615   0.1734   0.1879   0.1991
  0.2082   0.2190   0.2209   0.2265   0.2389   0.2463   0.2637   0.2726
  0.2844   0.3063   0.3176   0.3399   0.3546   0.3660   0.3691   0.3763
  0.3798   0.3816   0.3924   0.4083   0.4181   0.4277   0.4387   0.4421
  0.4510   0.4694   0.4706   0.4786   0.4950   0.5048   0.5169   0.5233
  0.5386   0.5446   0.5474   0.5534   0.5630   0.5689   0.5808   0.5827
  0.5889   0.5987   0.6066   0.6125   0.6178   0.6202   0.6262   0.6352
  0.6390   0.6420   0.6495   0.6530   0.6679   0.6860   0.6932   0.6970
  0.7157   0.7211   0.7341   0.7603   0.7642   0.7795   0.7869   0.8028
  0.8058   0.8173   0.8250   0.8448   0.8661   0.8749   0.8785   0.8915
  0.9017   0.9088   0.9188   0.9285   0.9392   0.9596   0.9716   0.9765
  0.9928   0.9974   1.0052   1.0110   1.0201   1.0295   1.0496   1.0520
  1.0614   1.0706   1.0808   1.0893   1.0989   1.1099   1.1125   1.1329
  1.1524   1.1554   1.1660   1.1716   1.1750   1.1865   1.2054   1.2122
  1.2249   1.2349   1.2472   1.2559   1.2637   1.2821   1.3027   1.3218
  1.3269   1.3346   1.3432   1.3515   1.3698   1.3764   1.4075   1.4090
  1.4223   1.4341   1.4413   1.4545   1.4741   1.4999   1.5085   1.5100
  1.5138   1.5196   1.5374   1.5500   1.5557   1.5626   1.5719   1.5940
  1.6165   1.6423   1.6553   1.6658   1.6793   1.6910   1.7118   1.7315
  1.7507   1.7697   1.7740   1.8171   1.8321   1.8350   1.8417   1.8492
  1.8699   1.8762   1.8812   1.9127   1.9333   1.9378   1.9452   1.9555
  1.9854   2.0146   2.0310   2.0409   2.0483   2.0915   2.1043   2.1289
  2.1441   2.1471   2.1571   2.1651   2.1924   2.1975   2.2199   2.2382
  2.2475   2.2662   2.2712   2.2771   2.2870   2.2977   2.3260   2.3489
  2.3702   2.3801   2.3886   2.4147   2.4491   2.4664   2.4822   2.5028
  2.5300   2.5475   2.5642   2.5837   2.5904   2.6007   2.6100   2.6262
  2.6418   2.6503   2.6577   2.6745   2.6850   2.6916   2.7024   2.7280
  2.7417   2.7461   2.7642   2.7721   2.7866   2.8017   2.8132   2.8226
  2.8483   2.8600   2.8765   2.8919   2.9080   2.9224   2.9414   2.9478
  2.9775   2.9938   3.0208   3.0345   3.0426   3.0483   3.0773   3.0900
  3.0932   3.1027   3.1051   3.1232   3.1384   3.1439   3.1615   3.1721
  3.1860   3.1933   3.2066   3.2137   3.2187   3.2230   3.2482   3.2556
  3.2627   3.2760   3.2793   3.2895   3.2909   3.3023   3.3131   3.3261
  3.3357   3.3550   3.3612   3.3659   3.3697   3.3815   3.4117   3.4219
  3.4273   3.4328   3.4471   3.4498   3.4558   3.4734   3.4896   3.5057
  3.5123   3.5240   3.5320   3.5322   3.5724   3.5808   3.5858   3.5924
  3.5961   3.6043   3.6249   3.6389   3.6511   3.6621   3.6662   3.6698
  3.6805   3.6984   3.7068   3.7131   3.7158   3.7273   3.7314   3.7358
  3.7537   3.7654   3.7850   3.7967   3.8010   3.8234   3.8359   3.8459
  3.8553   3.8585   3.8799   3.8850   3.9035   3.9147   3.9196   3.9561
  3.9590   3.9732   3.9901   4.0006   4.0126   4.0476   4.0510   4.0576
  4.0752   4.0907   4.0953   4.1067   4.1452   4.1707   4.1756   4.1825
  4.1943   4.2031   4.2417   4.2716   4.2764   4.2981   4.3194   4.3320
  4.3405   4.3493   4.3731   4.3789   4.3872   4.4009   4.4185   4.4299
  4.4497   4.4660   4.4975   4.5066   4.5147   4.5518   4.5715   4.5790
  4.6016   4.6208   4.6449   4.6474   4.6596   4.6713   4.6826   4.7153
  4.7375   4.7595   4.7733   4.7968   4.8375   4.8599   4.8947   4.9108
  4.9547   4.9916   5.0111   5.0162   5.0364   5.0880   5.1637   5.1881
  5.2025   5.2073   5.2215   5.2539   5.2599   5.2762   5.3205   5.3546
  5.3563   5.3753   5.4226   5.4262   5.4605   5.4739   5.5139   5.5451
  5.5613   5.5838   5.5991   5.6190   5.6228   5.6475   5.6828   5.7094
  5.7407   5.7583   5.8024   5.8274   5.8527   5.9245   5.9720   5.9788
  6.0534   6.1264   6.1348   6.1654   6.1865   6.2636   6.3101   6.3329
  6.4235   6.5094   6.5584   6.6640   6.6790   6.7355   6.7402   6.8628
  6.8826   6.9930   7.1802   7.2116   7.3288   7.3728   7.3754   7.4296
  7.4642   7.4866   7.5188   7.5504   7.6050   7.7701   7.8327   7.9036
  8.0021   8.1135   8.3386   8.9276   9.0061   9.3628   9.4971   9.6853
 10.0836  11.2220  11.4934  11.9342  12.2776  12.6526  13.1429  13.5034
 13.8235  14.0958  15.0489
 --------------------------------------------------------------
 
          Ground-State Mulliken Net Atomic Charges

     Atom                 Charge (a.u.)
  ----------------------------------------
      1 C                     0.020476
      2 S                     0.085304
      3 C                    -0.258035
      4 C                    -0.097005
      5 C                    -0.009376
      6 C                     0.369141
      7 C                    -0.158665
      8 S                     0.030332
      9 C                     0.457835
     10 O                    -0.455238
     11 O                    -0.298551
     12 F                    -0.212427
     13 C                    -0.054801
     14 H                     0.116255
     15 H                     0.083882
     16 H                     0.083827
     17 C                    -0.283114
     18 H                     0.129077
     19 H                     0.118527
     20 H                     0.121682
     21 H                     0.210875
  ----------------------------------------
  Sum of atomic charges =     0.000000

 -----------------------------------------------------------------
                    Cartesian Multipole Moments
 -----------------------------------------------------------------
    Charge (ESU x 10^10)
                -0.0000
    Dipole Moment (Debye)
         X      -0.5843      Y      -1.1871      Z      -3.5371
       Tot       3.7765
    Quadrupole Moments (Debye-Ang)
        XX     -95.7949     XY      -1.0486     YY     -83.2715
        XZ       0.5525     YZ     -11.9037     ZZ     -96.0373
    Octopole Moments (Debye-Ang^2)
       XXX       4.0796    XXY      85.8873    XYY       0.6265
       YYY     227.8921    XXZ     -79.9217    XYZ       0.5013
       YYZ     -64.2406    XZZ       1.9582    YZZ      -6.4729
       ZZZ    -257.6745
    Hexadecapole Moments (Debye-Ang^3)
      XXXX    -128.1131   XXXY      27.7269   XXYY    -345.8575
      XYYY      28.5619   YYYY   -1773.5998   XXXZ     -16.8852
      XXYZ     248.5175   XYYZ      -3.3327   YYYZ     644.1827
      XXZZ    -681.3285   XYZZ       7.0208   YYZZ    -678.0481
      XZZZ     -17.8263   YZZZ     330.3493   ZZZZ   -3795.8498
 -----------------------------------------------------------------
 Total job time:  58.27s(wall), 1977.80s(cpu) 
 Fri Mar  1 10:17:51 2024

        *************************************************************
        *                                                           *
        *  Thank you very much for using Q-Chem.  Have a nice day.  *
        *                                                           *
        *************************************************************


0 sent ACK to 0 
now end server 0 ... 
cleanup process ... done
remove work dirs ./qchem3604069.0 -- ./qchem3604069.0
rm -rf ./qchem3604069.0
rm -rf ./qchem3604069
