You are running Q-Chem version: 5.4.0

#
# job setting
#
local host:  exp-3-38
current dir: /expanse/lustre/projects/csd626/rramji/aromodel/PNDIT/Rotation_Test
input file:  Dimethyl_Naphthalene_Dicarboximide_Phi_20_Theta_330_Thiophene.qcin
output file: 
nprocs     : 1
nthreads   : 64
#
# qchem installation setting
#
QC:          /cm/shared/apps/spack/cpu/opt/spack/linux-centos8-zen2/gcc-10.2.0/qchem-5.4-akfmr7b3t57bfs6qan3padb2wnb2i7cl
QCAUX:       /cm/shared/apps/spack/cpu/opt/spack/linux-centos8-zen2/gcc-10.2.0/qchem-5.4-akfmr7b3t57bfs6qan3padb2wnb2i7cl/qcaux
QCPROG:      /cm/shared/apps/spack/cpu/opt/spack/linux-centos8-zen2/gcc-10.2.0/qchem-5.4-akfmr7b3t57bfs6qan3padb2wnb2i7cl/exe/qcprog.exe
QCPROG_S:    /cm/shared/apps/spack/cpu/opt/spack/linux-centos8-zen2/gcc-10.2.0/qchem-5.4-akfmr7b3t57bfs6qan3padb2wnb2i7cl/exe/qcprog.exe_s
PARALLEL:    -DPARALLEL
QCMPI:       mpich
#
# qchem directory setting
#
qcrun:       qchem424606
QCSCRATCH:   .
QCLOCALSCR:  
QCTMPDIR:    .
QCFILEPREF:  ./qchem424606
QCSAVEDIR:   
workdirs:    ./qchem424606
workdir0:    ./qchem424606
partmpdirs =  
#
# parallel setting
#
QCRSH:           ssh
QCMPI:           mpich
QCMPIRUN:        /cm/shared/apps/spack/cpu/opt/spack/linux-centos8-zen2/gcc-10.2.0/qchem-5.4-akfmr7b3t57bfs6qan3padb2wnb2i7cl/bin/mpi/mpirun_qchem
QCMACHINEFILE:   ./qchem424606/hostfile
exp-3-38

#
# env setting
#
exported envs:   QC QCAUX QCSCRATCH QCRUNNAME QCFILEPREF QCPROG QCPROG_S GUIFILE

Running Job 1 of 1 Dimethyl_Naphthalene_Dicarboximide_Phi_20_Theta_330_Thiophene.qcin
qchem Dimethyl_Naphthalene_Dicarboximide_Phi_20_Theta_330_Thiophene.qcin_424606.0 ./qchem424606/ 1
/cm/shared/apps/spack/cpu/opt/spack/linux-centos8-zen2/gcc-10.2.0/qchem-5.4-akfmr7b3t57bfs6qan3padb2wnb2i7cl/bin/mpi/mpirun_qchem -machinefile ./qchem424606/hostfile -np 1 /cm/shared/apps/spack/cpu/opt/spack/linux-centos8-zen2/gcc-10.2.0/qchem-5.4-akfmr7b3t57bfs6qan3padb2wnb2i7cl/exe/qcprog.exe Dimethyl_Naphthalene_Dicarboximide_Phi_20_Theta_330_Thiophene.qcin_424606.0 ./qchem424606/

Process 0 of 1 is on exp-3-38 - thread support 0
initial socket setup ...start
initial socket setup ...done 
now start server 0 ... 
                  Welcome to Q-Chem
     A Quantum Leap Into The Future Of Chemistry


 Q-Chem 5.4, Q-Chem, Inc., Pleasanton, CA (2021)

 License issued to: University of California, San Diego (site)

 E. Epifanovsky,  A. T. B. Gilbert,  Xintian Feng,  Joonho Lee,  Yuezhi Mao,  
 N. Mardirossian,  P. Pokhilko,  A. White,  M. Wormit,  M. P. Coons,  
 A. L. Dempwolff,  Zhengting Gan,  D. Hait,  P. R. Horn,  L. D. Jacobson,  
 I. Kaliman,  J. Kussmann,  A. W. Lange,  Ka Un Lao,  D. S. Levine,  Jie Liu,  
 S. C. McKenzie,  A. F. Morrison,  K. Nanda,  F. Plasser,  D. R. Rehn,  
 M. L. Vidal,  Zhi-Qiang You,  Ying Zhu,  B. Alam,  B. Albrecht,  
 A. Aldossary,  E. Alguire,  J. H. Andersen,  D. Barton,  K. Begam,  A. Behn,  
 Y. A. Bernard,  E. J. Berquist,  H. Burton,  A. Carreras,  K. Carter-Fenk,  
 R. Chakraborty,  A. D. Chien,  K. D. Closser,  V. Cofer-Shabica,  
 S. Dasgupta,  Jia Deng,  M. de Wergifosse,  M. Diedenhofen,  Hainam Do,  
 S. Ehlert,  Po-Tung Fang,  S. Fatehi,  Qingguo Feng,  J. Gayvert,  
 Qinghui Ge,  G. Gidofalvi,  M. Goldey,  J. Gomes,  C. Gonzalez-Espinoza,  
 S. Gulania,  A. Gunina,  M. W. D. Hanson-Heine,  P. H. P. Harbach,  
 A. W. Hauser,  M. F. Herbst,  M. Hernandez Vera,  M. Hodecker,  
 Z. C. Holden,  S. Houck,  Xunkun Huang,  Kerwin Hui,  B. C. Huynh,  
 M. Ivanov,  Hyunjun Ji,  Hanjie Jiang,  B. Kaduk,  S. Kaehler,  
 K. Khistyaev,  Jaehoon Kim,  P. Klunzinger,  Z. Koczor-Benda,  
 Joong Hoon Koh,  D. Kosenkov,  L. Koulias,  T. Kowalczyk,  C. M. Krauter,  
 K. Kue,  A. Kunitsa,  T. Kus,  A. Landau,  K. V. Lawler,  D. Lefrancois,  
 S. Lehtola,  Rain Li,  Yi-Pei Li,  Jiashu Liang,  M. Liebenthal,  
 Hung-Hsuan Lin,  You-Sheng Lin,  Fenglai Liu,  Kuan-Yu Liu,  
 M. Loipersberger,  A. Luenser,  A. Manjanath,  P. Manohar,  E. Mansoor,  
 S. F. Manzer,  Shan-Ping Mao,  A. V. Marenich,  T. Markovich,  S. Mason,  
 S. A. Maurer,  P. F. McLaughlin,  M. F. S. J. Menger,  J.-M. Mewes,  
 S. A. Mewes,  P. Morgante,  J. W. Mullinax,  T. S. Nguyen-Beck,  
 K. J. Oosterbaan,  G. Paran,  Alexander C. Paul,  Suranjan K. Paul,  
 F. Pavosevic,  Zheng Pei,  S. Prager,  E. I. Proynov,  E. Ramos,  B. Rana,  
 A. E. Rask,  A. Rettig,  R. M. Richard,  F. Rob,  E. Rossomme,  T. Scheele,  
 M. Scheurer,  M. Schneider,  N. Sergueev,  S. M. Sharada,  W. Skomorowski,  
 D. W. Small,  C. J. Stein,  Yu-Chuan Su,  E. J. Sundstrom,  Zhen Tao,  
 J. Thirman,  T. Tsuchimochi,  N. M. Tubman,  S. P. Veccham,  O. Vydrov,  
 J. Wenzel,  J. Witte,  A. Yamada,  Kun Yao,  S. Yeganeh,  S. R. Yost,  
 A. Zech,  Igor Ying Zhang,  Xing Zhang,  Yu Zhang,  D. Zuev,  
 A. Aspuru-Guzik,  A. T. Bell,  N. A. Besley,  K. B. Bravaya,  B. R. Brooks,  
 D. Casanova,  Jeng-Da Chai,  S. Coriani,  C. J. Cramer,  
 A. E. DePrince, III,  R. A. DiStasio Jr.,  A. Dreuw,  B. D. Dunietz,  
 T. R. Furlani,  W. A. Goddard III,  S. Grimme,  S. Hammes-Schiffer,  
 T. Head-Gordon,  W. J. Hehre,  Chao-Ping Hsu,  T.-C. Jagau,  Yousung Jung,  
 A. Klamt,  Jing Kong,  D. S. Lambrecht,  WanZhen Liang,  N. J. Mayhall,  
 C. W. McCurdy,  J. B. Neaton,  C. Ochsenfeld,  J. A. Parkhill,  R. Peverati,  
 V. A. Rassolov,  Yihan Shao,  L. V. Slipchenko,  T. Stauch,  R. P. Steele,  
 J. E. Subotnik,  A. J. W. Thom,  A. Tkatchenko,  D. G. Truhlar,  
 T. Van Voorhis,  T. A. Wesolowski,  K. B. Whaley,  H. L. Woodcock III,  
 P. M. Zimmerman,  S. Faraji,  P. M. W. Gill,  M. Head-Gordon,  
 J. M. Herbert,  A. I. Krylov

 Contributors to earlier versions of Q-Chem not listed above: 
 R. D. Adamson,  B. Austin,  R. Baer,  J. Baker,  G. J. O. Beran,  
 K. Brandhorst,  S. T. Brown,  E. F. C. Byrd,  A. K. Chakraborty,  
 G. K. L. Chan,  Chun-Min Chang,  Yunqing Chen,  C.-L. Cheng,  
 Siu Hung Chien,  D. M. Chipman,  D. L. Crittenden,  H. Dachsel,  
 R. J. Doerksen,  A. D. Dutoi,  R. G. Edgar,  J. Fosso-Tande,  
 L. Fusti-Molnar,  D. Ghosh,  A. Ghysels,  A. Golubeva-Zadorozhnaya,  
 J. Gonthier,  M. S. Gordon,  S. R. Gwaltney,  G. Hawkins,  J. E. Herr,  
 A. Heyden,  S. Hirata,  E. G. Hohenstein,  G. Kedziora,  F. J. Keil,  
 C. Kelley,  Jihan Kim,  R. A. King,  R. Z. Khaliullin,  P. P. Korambath,  
 W. Kurlancheek,  A. Laurent,  A. M. Lee,  M. S. Lee,  S. V. Levchenko,  
 Ching Yeh Lin,  D. Liotard,  E. Livshits,  R. C. Lochan,  I. Lotan,  
 L. A. Martinez-Martinez,  P. E. Maslen,  N. Nair,  D. P. O'Neill,  
 D. Neuhauser,  E. Neuscamman,  C. M. Oana,  R. Olivares-Amaya,  R. Olson,  
 T. M. Perrine,  B. Peters,  P. A. Pieniazek,  A. Prociuk,  Y. M. Rhee,  
 J. Ritchie,  M. A. Rohrdanz,  E. Rosta,  N. J. Russ,  H. F. Schaefer III,  
 M. W. Schmidt,  N. E. Schultz,  S. Sharma,  N. Shenvi,  C. D. Sherrill,  
 A. C. Simmonett,  A. Sodt,  T. Stein,  D. Stuck,  K. S. Thanthiriwatte,  
 V. Vanovschi,  L. Vogt,  Tao Wang,  A. Warshel,  M. A. Watson,  
 C. F. Williams,  Q. Wu,  X. Xu,  Jun Yang,  W. Zhang,  Yan Zhao

 Please cite Q-Chem as follows:
 Y. Shao et al., Mol. Phys. 113, 184-215 (2015)
 DOI: 10.1080/00268976.2014.952696

 Q-Chem 5.4.0 for Intel X86 EM64T Linux

 Parts of Q-Chem use Armadillo 9.800.1 (Horizon Scraper).
 http://arma.sourceforge.net/

 Q-Chem begins on Wed Sep 20 10:30:38 2023  

 Host: 
0

     Scratch files written to ./qchem424606//
 May1621 |scratch|qcdevops|jenkins|workspace|build_RNUM    
 Parallel job on  1  processors
 Processing $rem in /cm/shared/apps/spack/cpu/opt/spack/linux-centos8-zen2/gcc-10.2.0/qchem-5.4-akfmr7b3t57bfs6qan3padb2wnb2i7cl/config/preferences:
 Processing $rem in /home/rramji/.qchemrc:
 Symmetry turned off for PCM/SM12/SMD calculation
 Core orbitals will be frozen

 Checking the input file for inconsistencies... 	...done.

 Q-Chem warning in module forms1/BasisType.C, line 2236:

 You are not using the predefined 5D/6D in this basis set.


--------------------------------------------------------------
User input:
--------------------------------------------------------------
$molecule
0 1
C	-0.129743	-6.741404	-0.221766
C	-0.782726	-6.155638	-1.352515
C	0.411926	-5.791452	0.717339
C	-0.921816	-4.803786	-1.593885
H	-1.221908	-6.821518	-2.112819
C	0.266682	-4.378638	0.464360
C	-0.398255	-3.838032	-0.688053
C	0.789694	-3.413062	1.369108
C	-0.542349	-2.426473	-0.939002
C	0.652589	-2.059348	1.130409
C	-0.000000	-1.478216	-0.000000
H	1.092453	-1.394783	1.891446
C	1.131595	-6.187987	1.967519
C	1.504912	-3.798164	2.608118
N	1.625174	-5.170003	2.819813
C	-1.639129	-4.424987	-2.836188
C	-1.263477	-2.036627	-2.189558
N	-1.756898	-3.049156	-3.042237
O	1.324787	-7.353131	2.307845
O	1.967354	-2.986854	3.407213
O	-2.095892	-5.248946	-3.625890
O	-1.468685	-0.878829	-2.547850
C	2.330564	-5.563799	4.043674
H	2.352178	-6.664085	4.083407
H	1.807263	-5.147101	4.925490
H	3.356568	-5.148785	4.031877
C	-2.452080	-2.587487	-4.247206
H	-2.774302	-3.483329	-4.803187
H	-1.773301	-1.964972	-4.860536
H	-3.321351	-1.962932	-3.966607
H	-0.037043	-7.822318	-0.060567
C	0.000000	0.000000	0.000000
S	0.271091	0.745405	1.580530
C	0.831198	2.284363	0.904911
C	0.341175	0.937861	-0.985400
C	0.792631	2.178516	-0.493528
H	0.260601	0.716417	-2.059934
H	1.093860	3.006347	-1.152593
H	1.132330	3.111961	1.556025
$end

$rem
JOBTYPE		SP
EXCHANGE	HF
CORRELATION	pRIMP2
BASIS		cc-pvtz
METHOD		rimp2
AUX_BASIS	rimp2-cc-pvtz
SOLVENT_METHOD	PCM
PURECART	11111
SYMMETRY	false
MEM_TOTAL	110000
SCF_CONVERGENCE = 6
THRESH=10
GUI = 2
$end



$solvent
dielectric 4.90
$end
--------------------------------------------------------------
 ----------------------------------------------------------------
             Standard Nuclear Orientation (Angstroms)
    I     Atom           X                Y                Z
 ----------------------------------------------------------------
    1      C      -0.1297430000    -6.7414040000    -0.2217660000
    2      C      -0.7827260000    -6.1556380000    -1.3525150000
    3      C       0.4119260000    -5.7914520000     0.7173390000
    4      C      -0.9218160000    -4.8037860000    -1.5938850000
    5      H      -1.2219080000    -6.8215180000    -2.1128190000
    6      C       0.2666820000    -4.3786380000     0.4643600000
    7      C      -0.3982550000    -3.8380320000    -0.6880530000
    8      C       0.7896940000    -3.4130620000     1.3691080000
    9      C      -0.5423490000    -2.4264730000    -0.9390020000
   10      C       0.6525890000    -2.0593480000     1.1304090000
   11      C       0.0000000000    -1.4782160000     0.0000000000
   12      H       1.0924530000    -1.3947830000     1.8914460000
   13      C       1.1315950000    -6.1879870000     1.9675190000
   14      C       1.5049120000    -3.7981640000     2.6081180000
   15      N       1.6251740000    -5.1700030000     2.8198130000
   16      C      -1.6391290000    -4.4249870000    -2.8361880000
   17      C      -1.2634770000    -2.0366270000    -2.1895580000
   18      N      -1.7568980000    -3.0491560000    -3.0422370000
   19      O       1.3247870000    -7.3531310000     2.3078450000
   20      O       1.9673540000    -2.9868540000     3.4072130000
   21      O      -2.0958920000    -5.2489460000    -3.6258900000
   22      O      -1.4686850000    -0.8788290000    -2.5478500000
   23      C       2.3305640000    -5.5637990000     4.0436740000
   24      H       2.3521780000    -6.6640850000     4.0834070000
   25      H       1.8072630000    -5.1471010000     4.9254900000
   26      H       3.3565680000    -5.1487850000     4.0318770000
   27      C      -2.4520800000    -2.5874870000    -4.2472060000
   28      H      -2.7743020000    -3.4833290000    -4.8031870000
   29      H      -1.7733010000    -1.9649720000    -4.8605360000
   30      H      -3.3213510000    -1.9629320000    -3.9666070000
   31      H      -0.0370430000    -7.8223180000    -0.0605670000
   32      C       0.0000000000     0.0000000000     0.0000000000
   33      S       0.2710910000     0.7454050000     1.5805300000
   34      C       0.8311980000     2.2843630000     0.9049110000
   35      C       0.3411750000     0.9378610000    -0.9854000000
   36      C       0.7926310000     2.1785160000    -0.4935280000
   37      H       0.2606010000     0.7164170000    -2.0599340000
   38      H       1.0938600000     3.0063470000    -1.1525930000
   39      H       1.1323300000     3.1119610000     1.5560250000
 ----------------------------------------------------------------
 Nuclear Repulsion Energy =        2497.42309487 hartrees
 There are       97 alpha and       97 beta electrons
 Requested basis set is cc-pVTZ
 There are 344 shells and 982 basis functions

 Total QAlloc Memory Limit 110000 MB
 Mega-Array Size       188 MB
 MEM_STATIC part       192 MB
 Discretize the solute cavity surface with Lebedev spheres
	Using 110 Lebedev grid points for each H atom
	Using 194 Lebedev grid points for other atoms
	Atomic van der Waals radii will be scaled by 1.20
 Remove points where switching function is < 1.0e-08
 Keep 2515 surface tesserae and discard 4043 interior tesserae
 Molecular Surface Area = 364.758 Angst**2
 Requested basis set is rimp2-cc-pVTZ
 There are 750 shells and 2588 basis functions
 A cutoff of  1.0D-10 yielded  31676 shell pairs
 There are    244180 function pairs (    317396 Cartesian)
 Smallest overlap matrix eigenvalue = 9.42E-06

 Q-Chem warning in module stvman/mkSTV.C, line 323:

 Overlap eigenvalue is smaller than square root of threshold
 Use THRESH >= 12 to get rid of this warning


 Scale SEOQF with 1.000000e-01/1.000000e-02/1.000000e-01

 Standard Electronic Orientation quadrupole field applied
 Nucleus-field energy     =    -0.0000000734 hartrees
 Guess from superposition of atomic densities
 Warning:  Energy on first SCF cycle will be non-variational
 SAD guess density has 194.000000 electrons

 -----------------------------------------------------------------------
  General SCF calculation program by
  Eric Jon Sundstrom, Paul Horn, Yuezhi Mao, Dmitri Zuev, Alec White,
  David Stuck, Shaama M.S., Shane Yost, Joonho Lee, David Small,
  Daniel Levine, Susi Lehtola, Hugh Burton, Evgeny Epifanovsky,
  Bang C. Huynh
 -----------------------------------------------------------------------
 Hartree-Fock
 using 64 threads for integral computing
 -------------------------------------------------------
 OpenMP Integral computing Module                
 Release: version 1.0, May 2013, Q-Chem Inc. Pittsburgh 
 -------------------------------------------------------
 A restricted SCF calculation will be
 performed using DIIS
 SCF converges when DIIS error is below 1.0e-06
 ---------------------------------------
  Cycle       Energy         DIIS error
 ---------------------------------------
    1   -1581.3530055148      1.87e-02  
    2   -1570.1134495569      2.09e-03  
    3   -1570.4416580347      1.62e-03  
    4   -1570.6693980862      2.57e-04  
    5   -1570.6815561387      7.68e-05  
    6   -1570.6826470282      2.83e-05  
    7   -1570.6828987454      1.42e-05  
    8   -1570.6829773802      5.94e-06  
    9   -1570.6829895993      2.25e-06  
   10   -1570.6829916222      7.50e-07  Convergence criterion met
 ---------------------------------------
 SCF time:   CPU 5806.50s  wall 221.00s 

************** Final PCM Free Energy Summary **************
 G_electrostatic  =      -0.02254944 hartree =     -14.14998996 kcal/mol
 G_cavitation     =       0.00000000 hartree =       0.00000000 kcal/mol
 G_dispersion     =       0.00000000 hartree =       0.00000000 kcal/mol
 G_repulsion      =       0.00000000 hartree =       0.00000000 kcal/mol
 --------------------------------------------------
 Non-electrostatic Free Energy =       0.00000000 hartree =       0.00000000 kcal/mol
 Total                         =      -0.02254944 hartree =     -14.14998996 kcal/mol
 --------------------------------------------------
 SCF Energy (H0 + V/2)                       =   -1570.68299162 
 Solute Internal Energy (H0)                 =   -1570.66044218 
 Total Free Energy (H0 + V/2 + non-elec)     =   -1570.68299162 hartree
                                             = -985618.45318153 kcal/mol
***********************************************************

 SCF   energy in the final basis set =    -1570.6829916222
 Total energy in the final basis set =    -1570.6829916222


 --------------------------------------------------------------
  Generalized many-body perturbation theory program
  by Joonho Lee, Fazle Rob, Xintian Feng, Evgeny Epifanovsky

 No regularization used 
 (reg. param. = 0.0000e+00)
  (P|Q)^-1/2 Time:  CPU 263.39 s  wall 4.27 s

 In RI-MP2 calculation: 
 # of frozen core orbitals: 31

 Components of the RIMP2 correlation energy:
        aaaa    correlation energy =        -0.6173949962 a.u.
        abab    correlation energy =        -3.3932968353 a.u.
        bbbb    correlation energy =        -0.6173949962 a.u.
        non-Brillouin singles      =        -0.0000000000 a.u.
        total same-spin energy     =        -1.2347899924 a.u.
        total opposite-spin energy =        -3.3932968353 a.u.

 Total  RIMP2   correlation energy =        -4.6280868277 a.u.
        RIMP2         total energy =     -1575.3110784499 a.u.

 RI-MP2 Energy Time:  CPU 2527.66 s  wall 43.01 s
 
 --------------------------------------------------------------
 
                    Orbital Energies (a.u.)
 --------------------------------------------------------------
 
 Alpha MOs
 -- Occupied --
-91.9929 -20.5584 -20.5562 -20.5550 -20.5537 -15.6310 -15.6299 -11.3998
-11.3953 -11.3913 -11.3905 -11.3184 -11.3020 -11.3001 -11.2990 -11.2956
-11.2951 -11.2914 -11.2906 -11.2864 -11.2837 -11.2793 -11.2755 -11.2644
-11.2644 -11.2612 -11.2516  -8.9929  -6.6736  -6.6731  -6.6725  -1.4247
 -1.4234  -1.4040  -1.4024  -1.2671  -1.2646  -1.2169  -1.1790  -1.1437
 -1.1162  -1.0636  -1.0491  -0.9924  -0.9908  -0.9878  -0.9585  -0.9471
 -0.8968  -0.8786  -0.8780  -0.8603  -0.7965  -0.7792  -0.7725  -0.7621
 -0.7361  -0.7176  -0.7049  -0.6948  -0.6807  -0.6735  -0.6660  -0.6618
 -0.6560  -0.6416  -0.6365  -0.6326  -0.6283  -0.6127  -0.5883  -0.5841
 -0.5800  -0.5733  -0.5663  -0.5631  -0.5617  -0.5556  -0.5525  -0.5477
 -0.5398  -0.5261  -0.5227  -0.5121  -0.4829  -0.4682  -0.4675  -0.4628
 -0.4596  -0.4527  -0.4281  -0.4183  -0.4090  -0.3729  -0.3544  -0.3362
 -0.3032
 -- Virtual --
 -0.0203   0.0548   0.0686   0.1014   0.1256   0.1533   0.1582   0.1589
  0.1663   0.1709   0.1805   0.1849   0.1924   0.1953   0.2067   0.2119
  0.2177   0.2271   0.2293   0.2327   0.2421   0.2460   0.2629   0.2643
  0.2645   0.3048   0.3106   0.3151   0.3197   0.3274   0.3356   0.3396
  0.3434   0.3453   0.3513   0.3534   0.3582   0.3619   0.3636   0.3766
  0.3789   0.3874   0.3939   0.3970   0.4018   0.4060   0.4096   0.4118
  0.4223   0.4263   0.4332   0.4380   0.4409   0.4480   0.4545   0.4564
  0.4598   0.4630   0.4690   0.4751   0.4778   0.4812   0.4888   0.4945
  0.4961   0.5078   0.5111   0.5122   0.5179   0.5215   0.5243   0.5274
  0.5334   0.5390   0.5478   0.5515   0.5533   0.5596   0.5636   0.5666
  0.5711   0.5756   0.5816   0.5839   0.5906   0.5919   0.5958   0.5968
  0.6028   0.6084   0.6120   0.6191   0.6195   0.6239   0.6283   0.6320
  0.6335   0.6345   0.6369   0.6458   0.6558   0.6568   0.6626   0.6685
  0.6740   0.6825   0.6929   0.6962   0.7056   0.7076   0.7103   0.7134
  0.7203   0.7342   0.7368   0.7397   0.7557   0.7586   0.7604   0.7650
  0.7734   0.7769   0.7811   0.7893   0.7934   0.8018   0.8047   0.8166
  0.8232   0.8329   0.8343   0.8437   0.8450   0.8511   0.8568   0.8601
  0.8649   0.8654   0.8704   0.8744   0.8777   0.8811   0.8943   0.9043
  0.9112   0.9177   0.9210   0.9251   0.9288   0.9378   0.9406   0.9459
  0.9500   0.9554   0.9621   0.9626   0.9711   0.9774   0.9818   0.9837
  0.9933   0.9975   1.0018   1.0083   1.0149   1.0172   1.0263   1.0303
  1.0338   1.0456   1.0478   1.0547   1.0559   1.0643   1.0723   1.0736
  1.0756   1.0773   1.0838   1.0857   1.0906   1.0971   1.1058   1.1131
  1.1231   1.1301   1.1358   1.1364   1.1409   1.1499   1.1521   1.1531
  1.1595   1.1643   1.1680   1.1776   1.1810   1.1832   1.1932   1.1950
  1.1991   1.2047   1.2125   1.2233   1.2260   1.2297   1.2310   1.2383
  1.2428   1.2475   1.2561   1.2576   1.2661   1.2686   1.2771   1.2935
  1.3086   1.3261   1.3300   1.3326   1.3383   1.3440   1.3483   1.3605
  1.3719   1.3764   1.3813   1.3831   1.3907   1.3967   1.4036   1.4107
  1.4182   1.4244   1.4283   1.4403   1.4451   1.4542   1.4573   1.4630
  1.4690   1.4802   1.4837   1.4894   1.4917   1.4985   1.5060   1.5231
  1.5311   1.5324   1.5343   1.5464   1.5547   1.5591   1.5623   1.5703
  1.5706   1.5767   1.5831   1.5858   1.5990   1.6088   1.6184   1.6360
  1.6390   1.6468   1.6519   1.6564   1.6630   1.6817   1.6892   1.6944
  1.7024   1.7069   1.7138   1.7279   1.7324   1.7355   1.7421   1.7478
  1.7500   1.7660   1.7709   1.7789   1.7852   1.8039   1.8053   1.8119
  1.8235   1.8299   1.8396   1.8495   1.8530   1.8555   1.8627   1.8685
  1.8699   1.8871   1.8924   1.9064   1.9100   1.9265   1.9328   1.9492
  1.9576   1.9648   1.9727   1.9815   1.9947   2.0154   2.0249   2.0373
  2.0436   2.0521   2.0564   2.0730   2.0823   2.1099   2.1223   2.1388
  2.1482   2.1556   2.1624   2.1757   2.1856   2.2029   2.2154   2.2317
  2.2361   2.2386   2.2551   2.2630   2.2754   2.2888   2.2939   2.2974
  2.3190   2.3284   2.3336   2.3417   2.3505   2.3578   2.3716   2.3793
  2.4111   2.4176   2.4275   2.4420   2.4491   2.4553   2.4577   2.4746
  2.4795   2.4870   2.4990   2.5032   2.5127   2.5211   2.5260   2.5337
  2.5492   2.5673   2.5812   2.5862   2.5885   2.5998   2.6029   2.6075
  2.6148   2.6168   2.6236   2.6495   2.6543   2.6625   2.6677   2.6716
  2.6775   2.6865   2.6962   2.7024   2.7083   2.7146   2.7237   2.7291
  2.7356   2.7435   2.7436   2.7515   2.7583   2.7710   2.7799   2.7953
  2.8004   2.8087   2.8220   2.8367   2.8368   2.8473   2.8530   2.8586
  2.8650   2.8725   2.8744   2.8813   2.8862   2.8953   2.8988   2.9086
  2.9156   2.9269   2.9343   2.9388   2.9449   2.9539   2.9559   2.9643
  2.9759   2.9765   2.9927   2.9942   3.0047   3.0078   3.0111   3.0136
  3.0211   3.0315   3.0394   3.0429   3.0521   3.0633   3.0744   3.0823
  3.0857   3.0912   3.0985   3.1013   3.1059   3.1077   3.1161   3.1212
  3.1231   3.1317   3.1383   3.1482   3.1612   3.1634   3.1709   3.1755
  3.1914   3.1923   3.1965   3.2076   3.2142   3.2187   3.2238   3.2274
  3.2289   3.2321   3.2345   3.2386   3.2510   3.2542   3.2585   3.2640
  3.2696   3.2715   3.2739   3.2826   3.2878   3.2902   3.2957   3.3072
  3.3115   3.3152   3.3183   3.3260   3.3280   3.3321   3.3349   3.3378
  3.3440   3.3506   3.3529   3.3552   3.3595   3.3680   3.3692   3.3702
  3.3780   3.3843   3.3891   3.3958   3.3974   3.4050   3.4097   3.4133
  3.4183   3.4254   3.4378   3.4414   3.4430   3.4505   3.4545   3.4555
  3.4621   3.4676   3.4718   3.4754   3.4757   3.4806   3.4845   3.4941
  3.4970   3.4994   3.5050   3.5069   3.5122   3.5185   3.5192   3.5271
  3.5304   3.5394   3.5454   3.5494   3.5579   3.5666   3.5684   3.5790
  3.5842   3.5944   3.5963   3.6042   3.6124   3.6184   3.6253   3.6303
  3.6322   3.6350   3.6379   3.6446   3.6478   3.6533   3.6641   3.6747
  3.6841   3.6932   3.6932   3.6964   3.7027   3.7101   3.7130   3.7200
  3.7309   3.7337   3.7372   3.7438   3.7473   3.7584   3.7627   3.7670
  3.7768   3.7822   3.7851   3.7916   3.7958   3.7993   3.8021   3.8087
  3.8101   3.8121   3.8301   3.8368   3.8428   3.8522   3.8577   3.8588
  3.8695   3.8739   3.8781   3.8815   3.8883   3.9048   3.9123   3.9187
  3.9234   3.9334   3.9377   3.9395   3.9491   3.9576   3.9646   3.9740
  3.9881   3.9921   3.9990   4.0109   4.0139   4.0206   4.0340   4.0494
  4.0541   4.0633   4.0742   4.0770   4.0846   4.0938   4.1008   4.1071
  4.1262   4.1286   4.1366   4.1395   4.1467   4.1579   4.1629   4.1718
  4.1792   4.1865   4.1907   4.1959   4.2089   4.2217   4.2317   4.2347
  4.2461   4.2545   4.2702   4.2736   4.2756   4.2824   4.2873   4.2957
  4.2974   4.3010   4.3059   4.3095   4.3174   4.3227   4.3252   4.3397
  4.3449   4.3482   4.3576   4.3661   4.3680   4.3739   4.3773   4.3841
  4.3907   4.3970   4.4044   4.4072   4.4155   4.4210   4.4329   4.4346
  4.4553   4.4619   4.4702   4.4860   4.4927   4.5031   4.5141   4.5161
  4.5231   4.5255   4.5368   4.5472   4.5517   4.5569   4.5675   4.5694
  4.5759   4.5826   4.5866   4.6015   4.6029   4.6153   4.6316   4.6379
  4.6415   4.6573   4.6637   4.6675   4.6744   4.6824   4.6912   4.6943
  4.7117   4.7263   4.7335   4.7419   4.7729   4.7743   4.7806   4.7916
  4.7987   4.8287   4.8365   4.8436   4.8453   4.8680   4.8728   4.8784
  4.8841   4.8970   4.9158   4.9363   4.9387   4.9513   4.9580   4.9894
  4.9936   5.0020   5.0203   5.0368   5.0393   5.0484   5.0524   5.0689
  5.0983   5.1009   5.1059   5.1140   5.1220   5.1260   5.1417   5.1462
  5.1608   5.1711   5.1825   5.1940   5.2103   5.2346   5.2474   5.2570
  5.2617   5.2785   5.2920   5.2952   5.3100   5.3239   5.3320   5.3398
  5.3526   5.3958   5.4019   5.4026   5.4232   5.4303   5.4322   5.4638
  5.4817   5.5062   5.5089   5.5129   5.5138   5.5299   5.5468   5.5560
  5.5577   5.5604   5.5703   5.5747   5.5779   5.5923   5.6045   5.6068
  5.6271   5.6351   5.6527   5.6554   5.6602   5.6769   5.6776   5.6924
  5.7042   5.7142   5.7235   5.7391   5.7564   5.7578   5.7596   5.7707
  5.7778   5.7818   5.8079   5.8241   5.8424   5.8763   5.9064   5.9298
  5.9483   5.9559   5.9916   6.0120   6.0228   6.0273   6.0404   6.0501
  6.0873   6.0978   6.1011   6.1172   6.1218   6.1775   6.1924   6.2090
  6.2177   6.2202   6.2217   6.2555   6.2686   6.2718   6.3042   6.3424
  6.3523   6.3988   6.4182   6.4450   6.4659   6.5264   6.5621   6.5698
  6.5869   6.6016   6.6380   6.6474   6.6562   6.6608   6.7058   6.8314
  6.8337   6.8808   6.8863   6.8968   6.9115   6.9286   6.9524   7.0784
  7.0982   7.1417   7.1838   7.1886   7.2286   7.3325   7.3420   7.3443
  7.3563   7.4675   7.5455   7.5579   7.5738   7.5787   7.5951   7.6343
  7.6777   7.6864   7.7241   8.3907   9.8492  10.3268  11.1104  11.1950
 11.6932  11.7483  11.9916  12.3663  12.4577  12.6748  12.8500  12.9844
 13.3340  13.5551  13.8130  13.9390  14.0088  14.1234  14.2352  14.3609
 14.4186  14.7399  15.3289  15.7373  16.0000
 --------------------------------------------------------------
 
          Ground-State Mulliken Net Atomic Charges

     Atom                 Charge (a.u.)
  ----------------------------------------
      1 C                    -0.141366
      2 C                    -0.108870
      3 C                    -0.033611
      4 C                    -0.005186
      5 H                     0.188360
      6 C                    -0.000050
      7 C                     0.073554
      8 C                     0.033846
      9 C                    -0.056983
     10 C                    -0.164090
     11 C                     0.061953
     12 H                     0.179278
     13 C                     0.358825
     14 C                     0.362961
     15 N                    -0.101527
     16 C                     0.358829
     17 C                     0.358105
     18 N                    -0.094652
     19 O                    -0.464575
     20 O                    -0.476416
     21 O                    -0.482643
     22 O                    -0.471028
     23 C                    -0.201223
     24 H                     0.141047
     25 H                     0.112473
     26 H                     0.112387
     27 C                    -0.197102
     28 H                     0.133927
     29 H                     0.111902
     30 H                     0.113119
     31 H                     0.212999
     32 C                    -0.026200
     33 S                     0.011935
     34 C                    -0.168097
     35 C                    -0.104434
     36 C                    -0.237623
     37 H                     0.202265
     38 H                     0.191879
     39 H                     0.216037
  ----------------------------------------
  Sum of atomic charges =     0.000000

 -----------------------------------------------------------------
                    Cartesian Multipole Moments
 -----------------------------------------------------------------
    Charge (ESU x 10^10)
                 0.0000
    Dipole Moment (Debye)
         X       1.0286      Y       1.9048      Z      -0.7193
       Tot       2.2812
    Quadrupole Moments (Debye-Ang)
        XX    -167.8676     XY       3.7736     YY    -168.4731
        XZ      -8.8257     YZ       0.8285     ZZ    -173.0373
    Octopole Moments (Debye-Ang^2)
       XXX     -23.2489    XXY     492.6496    XYY       4.2187
       YYY    1610.8635    XXZ       0.2644    XYZ      38.9733
       YYZ       1.1610    XZZ       0.2000    YZZ     544.2671
       ZZZ      -4.9441
    Hexadecapole Moments (Debye-Ang^3)
      XXXX   -1698.0000   XXXY      40.0349   XXYY   -3067.0942
      XYYY     340.3414   YYYY  -17211.6508   XXXZ   -1283.4784
      XXYZ       8.9455   XYYZ    -672.2217   YYYZ     649.3648
      XXZZ   -1129.3757   XYZZ     -96.2067   YYZZ   -3864.6306
      XZZZ   -1350.4397   YZZZ      26.4210   ZZZZ   -4908.4459
 -----------------------------------------------------------------
 Total job time:  269.16s(wall), 8472.13s(cpu) 
 Wed Sep 20 10:35:08 2023

        *************************************************************
        *                                                           *
        *  Thank you very much for using Q-Chem.  Have a nice day.  *
        *                                                           *
        *************************************************************


0 sent ACK to 0 
now end server 0 ... 
cleanup process ... done
remove work dirs ./qchem424606.0 -- ./qchem424606.0
rm -rf ./qchem424606.0
rm -rf ./qchem424606
