You are running Q-Chem version: 5.4.0

#
# job setting
#
local host:  exp-2-02
current dir: /expanse/lustre/projects/csd626/rramji/aromodel/PNDIT/Rotation_Test
input file:  Dimethyl_Naphthalene_Dicarboximide_Phi_15_Theta_330_Thiophene.qcin
output file: 
nprocs     : 1
nthreads   : 64
#
# qchem installation setting
#
QC:          /cm/shared/apps/spack/cpu/opt/spack/linux-centos8-zen2/gcc-10.2.0/qchem-5.4-akfmr7b3t57bfs6qan3padb2wnb2i7cl
QCAUX:       /cm/shared/apps/spack/cpu/opt/spack/linux-centos8-zen2/gcc-10.2.0/qchem-5.4-akfmr7b3t57bfs6qan3padb2wnb2i7cl/qcaux
QCPROG:      /cm/shared/apps/spack/cpu/opt/spack/linux-centos8-zen2/gcc-10.2.0/qchem-5.4-akfmr7b3t57bfs6qan3padb2wnb2i7cl/exe/qcprog.exe
QCPROG_S:    /cm/shared/apps/spack/cpu/opt/spack/linux-centos8-zen2/gcc-10.2.0/qchem-5.4-akfmr7b3t57bfs6qan3padb2wnb2i7cl/exe/qcprog.exe_s
PARALLEL:    -DPARALLEL
QCMPI:       mpich
#
# qchem directory setting
#
qcrun:       qchem3125166
QCSCRATCH:   .
QCLOCALSCR:  
QCTMPDIR:    .
QCFILEPREF:  ./qchem3125166
QCSAVEDIR:   
workdirs:    ./qchem3125166
workdir0:    ./qchem3125166
partmpdirs =  
#
# parallel setting
#
QCRSH:           ssh
QCMPI:           mpich
QCMPIRUN:        /cm/shared/apps/spack/cpu/opt/spack/linux-centos8-zen2/gcc-10.2.0/qchem-5.4-akfmr7b3t57bfs6qan3padb2wnb2i7cl/bin/mpi/mpirun_qchem
QCMACHINEFILE:   ./qchem3125166/hostfile
exp-2-02

#
# env setting
#
exported envs:   QC QCAUX QCSCRATCH QCRUNNAME QCFILEPREF QCPROG QCPROG_S GUIFILE

Running Job 1 of 1 Dimethyl_Naphthalene_Dicarboximide_Phi_15_Theta_330_Thiophene.qcin
qchem Dimethyl_Naphthalene_Dicarboximide_Phi_15_Theta_330_Thiophene.qcin_3125166.0 ./qchem3125166/ 1
/cm/shared/apps/spack/cpu/opt/spack/linux-centos8-zen2/gcc-10.2.0/qchem-5.4-akfmr7b3t57bfs6qan3padb2wnb2i7cl/bin/mpi/mpirun_qchem -machinefile ./qchem3125166/hostfile -np 1 /cm/shared/apps/spack/cpu/opt/spack/linux-centos8-zen2/gcc-10.2.0/qchem-5.4-akfmr7b3t57bfs6qan3padb2wnb2i7cl/exe/qcprog.exe Dimethyl_Naphthalene_Dicarboximide_Phi_15_Theta_330_Thiophene.qcin_3125166.0 ./qchem3125166/

Process 0 of 1 is on exp-2-02 - thread support 0
initial socket setup ...start
initial socket setup ...done 
now start server 0 ... 
                  Welcome to Q-Chem
     A Quantum Leap Into The Future Of Chemistry


 Q-Chem 5.4, Q-Chem, Inc., Pleasanton, CA (2021)

 License issued to: University of California, San Diego (site)

 E. Epifanovsky,  A. T. B. Gilbert,  Xintian Feng,  Joonho Lee,  Yuezhi Mao,  
 N. Mardirossian,  P. Pokhilko,  A. White,  M. Wormit,  M. P. Coons,  
 A. L. Dempwolff,  Zhengting Gan,  D. Hait,  P. R. Horn,  L. D. Jacobson,  
 I. Kaliman,  J. Kussmann,  A. W. Lange,  Ka Un Lao,  D. S. Levine,  Jie Liu,  
 S. C. McKenzie,  A. F. Morrison,  K. Nanda,  F. Plasser,  D. R. Rehn,  
 M. L. Vidal,  Zhi-Qiang You,  Ying Zhu,  B. Alam,  B. Albrecht,  
 A. Aldossary,  E. Alguire,  J. H. Andersen,  D. Barton,  K. Begam,  A. Behn,  
 Y. A. Bernard,  E. J. Berquist,  H. Burton,  A. Carreras,  K. Carter-Fenk,  
 R. Chakraborty,  A. D. Chien,  K. D. Closser,  V. Cofer-Shabica,  
 S. Dasgupta,  Jia Deng,  M. de Wergifosse,  M. Diedenhofen,  Hainam Do,  
 S. Ehlert,  Po-Tung Fang,  S. Fatehi,  Qingguo Feng,  J. Gayvert,  
 Qinghui Ge,  G. Gidofalvi,  M. Goldey,  J. Gomes,  C. Gonzalez-Espinoza,  
 S. Gulania,  A. Gunina,  M. W. D. Hanson-Heine,  P. H. P. Harbach,  
 A. W. Hauser,  M. F. Herbst,  M. Hernandez Vera,  M. Hodecker,  
 Z. C. Holden,  S. Houck,  Xunkun Huang,  Kerwin Hui,  B. C. Huynh,  
 M. Ivanov,  Hyunjun Ji,  Hanjie Jiang,  B. Kaduk,  S. Kaehler,  
 K. Khistyaev,  Jaehoon Kim,  P. Klunzinger,  Z. Koczor-Benda,  
 Joong Hoon Koh,  D. Kosenkov,  L. Koulias,  T. Kowalczyk,  C. M. Krauter,  
 K. Kue,  A. Kunitsa,  T. Kus,  A. Landau,  K. V. Lawler,  D. Lefrancois,  
 S. Lehtola,  Rain Li,  Yi-Pei Li,  Jiashu Liang,  M. Liebenthal,  
 Hung-Hsuan Lin,  You-Sheng Lin,  Fenglai Liu,  Kuan-Yu Liu,  
 M. Loipersberger,  A. Luenser,  A. Manjanath,  P. Manohar,  E. Mansoor,  
 S. F. Manzer,  Shan-Ping Mao,  A. V. Marenich,  T. Markovich,  S. Mason,  
 S. A. Maurer,  P. F. McLaughlin,  M. F. S. J. Menger,  J.-M. Mewes,  
 S. A. Mewes,  P. Morgante,  J. W. Mullinax,  T. S. Nguyen-Beck,  
 K. J. Oosterbaan,  G. Paran,  Alexander C. Paul,  Suranjan K. Paul,  
 F. Pavosevic,  Zheng Pei,  S. Prager,  E. I. Proynov,  E. Ramos,  B. Rana,  
 A. E. Rask,  A. Rettig,  R. M. Richard,  F. Rob,  E. Rossomme,  T. Scheele,  
 M. Scheurer,  M. Schneider,  N. Sergueev,  S. M. Sharada,  W. Skomorowski,  
 D. W. Small,  C. J. Stein,  Yu-Chuan Su,  E. J. Sundstrom,  Zhen Tao,  
 J. Thirman,  T. Tsuchimochi,  N. M. Tubman,  S. P. Veccham,  O. Vydrov,  
 J. Wenzel,  J. Witte,  A. Yamada,  Kun Yao,  S. Yeganeh,  S. R. Yost,  
 A. Zech,  Igor Ying Zhang,  Xing Zhang,  Yu Zhang,  D. Zuev,  
 A. Aspuru-Guzik,  A. T. Bell,  N. A. Besley,  K. B. Bravaya,  B. R. Brooks,  
 D. Casanova,  Jeng-Da Chai,  S. Coriani,  C. J. Cramer,  
 A. E. DePrince, III,  R. A. DiStasio Jr.,  A. Dreuw,  B. D. Dunietz,  
 T. R. Furlani,  W. A. Goddard III,  S. Grimme,  S. Hammes-Schiffer,  
 T. Head-Gordon,  W. J. Hehre,  Chao-Ping Hsu,  T.-C. Jagau,  Yousung Jung,  
 A. Klamt,  Jing Kong,  D. S. Lambrecht,  WanZhen Liang,  N. J. Mayhall,  
 C. W. McCurdy,  J. B. Neaton,  C. Ochsenfeld,  J. A. Parkhill,  R. Peverati,  
 V. A. Rassolov,  Yihan Shao,  L. V. Slipchenko,  T. Stauch,  R. P. Steele,  
 J. E. Subotnik,  A. J. W. Thom,  A. Tkatchenko,  D. G. Truhlar,  
 T. Van Voorhis,  T. A. Wesolowski,  K. B. Whaley,  H. L. Woodcock III,  
 P. M. Zimmerman,  S. Faraji,  P. M. W. Gill,  M. Head-Gordon,  
 J. M. Herbert,  A. I. Krylov

 Contributors to earlier versions of Q-Chem not listed above: 
 R. D. Adamson,  B. Austin,  R. Baer,  J. Baker,  G. J. O. Beran,  
 K. Brandhorst,  S. T. Brown,  E. F. C. Byrd,  A. K. Chakraborty,  
 G. K. L. Chan,  Chun-Min Chang,  Yunqing Chen,  C.-L. Cheng,  
 Siu Hung Chien,  D. M. Chipman,  D. L. Crittenden,  H. Dachsel,  
 R. J. Doerksen,  A. D. Dutoi,  R. G. Edgar,  J. Fosso-Tande,  
 L. Fusti-Molnar,  D. Ghosh,  A. Ghysels,  A. Golubeva-Zadorozhnaya,  
 J. Gonthier,  M. S. Gordon,  S. R. Gwaltney,  G. Hawkins,  J. E. Herr,  
 A. Heyden,  S. Hirata,  E. G. Hohenstein,  G. Kedziora,  F. J. Keil,  
 C. Kelley,  Jihan Kim,  R. A. King,  R. Z. Khaliullin,  P. P. Korambath,  
 W. Kurlancheek,  A. Laurent,  A. M. Lee,  M. S. Lee,  S. V. Levchenko,  
 Ching Yeh Lin,  D. Liotard,  E. Livshits,  R. C. Lochan,  I. Lotan,  
 L. A. Martinez-Martinez,  P. E. Maslen,  N. Nair,  D. P. O'Neill,  
 D. Neuhauser,  E. Neuscamman,  C. M. Oana,  R. Olivares-Amaya,  R. Olson,  
 T. M. Perrine,  B. Peters,  P. A. Pieniazek,  A. Prociuk,  Y. M. Rhee,  
 J. Ritchie,  M. A. Rohrdanz,  E. Rosta,  N. J. Russ,  H. F. Schaefer III,  
 M. W. Schmidt,  N. E. Schultz,  S. Sharma,  N. Shenvi,  C. D. Sherrill,  
 A. C. Simmonett,  A. Sodt,  T. Stein,  D. Stuck,  K. S. Thanthiriwatte,  
 V. Vanovschi,  L. Vogt,  Tao Wang,  A. Warshel,  M. A. Watson,  
 C. F. Williams,  Q. Wu,  X. Xu,  Jun Yang,  W. Zhang,  Yan Zhao

 Please cite Q-Chem as follows:
 Y. Shao et al., Mol. Phys. 113, 184-215 (2015)
 DOI: 10.1080/00268976.2014.952696

 Q-Chem 5.4.0 for Intel X86 EM64T Linux

 Parts of Q-Chem use Armadillo 9.800.1 (Horizon Scraper).
 http://arma.sourceforge.net/

 Q-Chem begins on Sun Sep 24 17:19:51 2023  

 Host: 
0

     Scratch files written to ./qchem3125166//
 May1621 |scratch|qcdevops|jenkins|workspace|build_RNUM    
 Parallel job on  1  processors
 Processing $rem in /cm/shared/apps/spack/cpu/opt/spack/linux-centos8-zen2/gcc-10.2.0/qchem-5.4-akfmr7b3t57bfs6qan3padb2wnb2i7cl/config/preferences:
 Processing $rem in /home/rramji/.qchemrc:
 Symmetry turned off for PCM/SM12/SMD calculation
 Core orbitals will be frozen

 Checking the input file for inconsistencies... 	...done.

 Q-Chem warning in module forms1/BasisType.C, line 2236:

 You are not using the predefined 5D/6D in this basis set.


--------------------------------------------------------------
User input:
--------------------------------------------------------------
$molecule
0 1
C	-0.129743	-6.741404	-0.221766
C	-0.782726	-6.155638	-1.352515
C	0.411926	-5.791452	0.717339
C	-0.921816	-4.803786	-1.593885
H	-1.221908	-6.821518	-2.112819
C	0.266682	-4.378638	0.464360
C	-0.398255	-3.838032	-0.688053
C	0.789694	-3.413062	1.369108
C	-0.542349	-2.426473	-0.939002
C	0.652589	-2.059348	1.130409
C	0.000000	-1.478216	0.000000
H	1.092453	-1.394783	1.891446
C	1.131595	-6.187987	1.967519
C	1.504912	-3.798164	2.608118
N	1.625174	-5.170003	2.819813
C	-1.639129	-4.424987	-2.836188
C	-1.263477	-2.036627	-2.189558
N	-1.756898	-3.049156	-3.042237
O	1.324787	-7.353131	2.307845
O	1.967354	-2.986854	3.407213
O	-2.095892	-5.248946	-3.625890
O	-1.468685	-0.878829	-2.547850
C	2.330564	-5.563799	4.043674
H	2.352178	-6.664085	4.083407
H	1.807263	-5.147101	4.925490
H	3.356568	-5.148785	4.031877
C	-2.452080	-2.587487	-4.247206
H	-2.774302	-3.483329	-4.803187
H	-1.773301	-1.964972	-4.860536
H	-3.321351	-1.962932	-3.966607
H	-0.037043	-7.822318	-0.060567
C	0.000000	0.000000	0.000000
S	0.205093	0.766196	1.580530
C	0.628939	2.348114	0.904911
C	0.258137	0.964028	-0.985400
C	0.599745	2.239309	-0.493528
H	0.197169	0.736404	-2.059934
H	0.827678	3.090243	-1.152593
H	0.856796	3.198808	1.556025
$end

$rem
JOBTYPE		SP
EXCHANGE	HF
CORRELATION	pRIMP2
BASIS		cc-pvtz
METHOD		rimp2
AUX_BASIS	rimp2-cc-pvtz
SOLVENT_METHOD	PCM
PURECART	11111
SYMMETRY	false
MEM_TOTAL	110000
SCF_CONVERGENCE = 6
THRESH=10
GUI = 2
$end



$solvent
dielectric 4.90
$end
--------------------------------------------------------------
 ----------------------------------------------------------------
             Standard Nuclear Orientation (Angstroms)
    I     Atom           X                Y                Z
 ----------------------------------------------------------------
    1      C      -0.1297430000    -6.7414040000    -0.2217660000
    2      C      -0.7827260000    -6.1556380000    -1.3525150000
    3      C       0.4119260000    -5.7914520000     0.7173390000
    4      C      -0.9218160000    -4.8037860000    -1.5938850000
    5      H      -1.2219080000    -6.8215180000    -2.1128190000
    6      C       0.2666820000    -4.3786380000     0.4643600000
    7      C      -0.3982550000    -3.8380320000    -0.6880530000
    8      C       0.7896940000    -3.4130620000     1.3691080000
    9      C      -0.5423490000    -2.4264730000    -0.9390020000
   10      C       0.6525890000    -2.0593480000     1.1304090000
   11      C       0.0000000000    -1.4782160000     0.0000000000
   12      H       1.0924530000    -1.3947830000     1.8914460000
   13      C       1.1315950000    -6.1879870000     1.9675190000
   14      C       1.5049120000    -3.7981640000     2.6081180000
   15      N       1.6251740000    -5.1700030000     2.8198130000
   16      C      -1.6391290000    -4.4249870000    -2.8361880000
   17      C      -1.2634770000    -2.0366270000    -2.1895580000
   18      N      -1.7568980000    -3.0491560000    -3.0422370000
   19      O       1.3247870000    -7.3531310000     2.3078450000
   20      O       1.9673540000    -2.9868540000     3.4072130000
   21      O      -2.0958920000    -5.2489460000    -3.6258900000
   22      O      -1.4686850000    -0.8788290000    -2.5478500000
   23      C       2.3305640000    -5.5637990000     4.0436740000
   24      H       2.3521780000    -6.6640850000     4.0834070000
   25      H       1.8072630000    -5.1471010000     4.9254900000
   26      H       3.3565680000    -5.1487850000     4.0318770000
   27      C      -2.4520800000    -2.5874870000    -4.2472060000
   28      H      -2.7743020000    -3.4833290000    -4.8031870000
   29      H      -1.7733010000    -1.9649720000    -4.8605360000
   30      H      -3.3213510000    -1.9629320000    -3.9666070000
   31      H      -0.0370430000    -7.8223180000    -0.0605670000
   32      C       0.0000000000     0.0000000000     0.0000000000
   33      S       0.2050930000     0.7661960000     1.5805300000
   34      C       0.6289390000     2.3481140000     0.9049110000
   35      C       0.2581370000     0.9640280000    -0.9854000000
   36      C       0.5997450000     2.2393090000    -0.4935280000
   37      H       0.1971690000     0.7364040000    -2.0599340000
   38      H       0.8276780000     3.0902430000    -1.1525930000
   39      H       0.8567960000     3.1988080000     1.5560250000
 ----------------------------------------------------------------
 Nuclear Repulsion Energy =        2495.82133275 hartrees
 There are       97 alpha and       97 beta electrons
 Requested basis set is cc-pVTZ
 There are 344 shells and 982 basis functions

 Total QAlloc Memory Limit 110000 MB
 Mega-Array Size       188 MB
 MEM_STATIC part       192 MB
 Discretize the solute cavity surface with Lebedev spheres
	Using 110 Lebedev grid points for each H atom
	Using 194 Lebedev grid points for other atoms
	Atomic van der Waals radii will be scaled by 1.20
 Remove points where switching function is < 1.0e-08
 Keep 2512 surface tesserae and discard 4046 interior tesserae
 Molecular Surface Area = 364.757 Angst**2
 Requested basis set is rimp2-cc-pVTZ
 There are 750 shells and 2588 basis functions
 A cutoff of  1.0D-10 yielded  31645 shell pairs
 There are    243891 function pairs (    317010 Cartesian)
 Smallest overlap matrix eigenvalue = 9.56E-06

 Q-Chem warning in module stvman/mkSTV.C, line 323:

 Overlap eigenvalue is smaller than square root of threshold
 Use THRESH >= 12 to get rid of this warning


 Scale SEOQF with 1.000000e-01/1.000000e-02/1.000000e-01

 Standard Electronic Orientation quadrupole field applied
 Nucleus-field energy     =    -0.0000000735 hartrees
 Guess from superposition of atomic densities
 Warning:  Energy on first SCF cycle will be non-variational
 SAD guess density has 194.000000 electrons

 -----------------------------------------------------------------------
  General SCF calculation program by
  Eric Jon Sundstrom, Paul Horn, Yuezhi Mao, Dmitri Zuev, Alec White,
  David Stuck, Shaama M.S., Shane Yost, Joonho Lee, David Small,
  Daniel Levine, Susi Lehtola, Hugh Burton, Evgeny Epifanovsky,
  Bang C. Huynh
 -----------------------------------------------------------------------
 Hartree-Fock
 using 64 threads for integral computing
 -------------------------------------------------------
 OpenMP Integral computing Module                
 Release: version 1.0, May 2013, Q-Chem Inc. Pittsburgh 
 -------------------------------------------------------
 A restricted SCF calculation will be
 performed using DIIS
 SCF converges when DIIS error is below 1.0e-06
 ---------------------------------------
  Cycle       Energy         DIIS error
 ---------------------------------------
    1   -1581.3446322958      1.87e-02  
    2   -1570.1167597587      2.09e-03  
    3   -1570.4449332729      1.62e-03  
    4   -1570.6731395922      2.57e-04  
    5   -1570.6852823885      7.67e-05  
    6   -1570.6863707134      2.82e-05  
    7   -1570.6866212191      1.42e-05  
    8   -1570.6866994065      5.90e-06  
    9   -1570.6867114772      2.25e-06  
   10   -1570.6867134597      7.37e-07  Convergence criterion met
 ---------------------------------------
 SCF time:   CPU 5490.22s  wall 216.00s 

************** Final PCM Free Energy Summary **************
 G_electrostatic  =      -0.02246333 hartree =     -14.09594978 kcal/mol
 G_cavitation     =       0.00000000 hartree =       0.00000000 kcal/mol
 G_dispersion     =       0.00000000 hartree =       0.00000000 kcal/mol
 G_repulsion      =       0.00000000 hartree =       0.00000000 kcal/mol
 --------------------------------------------------
 Non-electrostatic Free Energy =       0.00000000 hartree =       0.00000000 kcal/mol
 Total                         =      -0.02246333 hartree =     -14.09594978 kcal/mol
 --------------------------------------------------
 SCF Energy (H0 + V/2)                       =   -1570.68671346 
 Solute Internal Energy (H0)                 =   -1570.66425013 
 Total Free Energy (H0 + V/2 + non-elec)     =   -1570.68671346 hartree
                                             = -985620.78866984 kcal/mol
***********************************************************

 SCF   energy in the final basis set =    -1570.6867134597
 Total energy in the final basis set =    -1570.6867134597


 --------------------------------------------------------------
  Generalized many-body perturbation theory program
  by Joonho Lee, Fazle Rob, Xintian Feng, Evgeny Epifanovsky

 No regularization used 
 (reg. param. = 0.0000e+00)
  (P|Q)^-1/2 Time:  CPU 163.11 s  wall 2.91 s

 In RI-MP2 calculation: 
 # of frozen core orbitals: 31

 Components of the RIMP2 correlation energy:
        aaaa    correlation energy =        -0.6172301610 a.u.
        abab    correlation energy =        -3.3927867679 a.u.
        bbbb    correlation energy =        -0.6172301610 a.u.
        non-Brillouin singles      =        -0.0000000000 a.u.
        total same-spin energy     =        -1.2344603221 a.u.
        total opposite-spin energy =        -3.3927867679 a.u.

 Total  RIMP2   correlation energy =        -4.6272470900 a.u.
        RIMP2         total energy =     -1575.3139605497 a.u.

 RI-MP2 Energy Time:  CPU 2256.08 s  wall 36.83 s
 
 --------------------------------------------------------------
 
                    Orbital Energies (a.u.)
 --------------------------------------------------------------
 
 Alpha MOs
 -- Occupied --
-91.9932 -20.5585 -20.5563 -20.5551 -20.5538 -15.6311 -15.6301 -11.3999
-11.3956 -11.3915 -11.3906 -11.3185 -11.3022 -11.3006 -11.2996 -11.2961
-11.2954 -11.2920 -11.2894 -11.2867 -11.2841 -11.2795 -11.2765 -11.2645
-11.2644 -11.2596 -11.2514  -8.9930  -6.6738  -6.6733  -6.6727  -1.4248
 -1.4236  -1.4041  -1.4026  -1.2672  -1.2647  -1.2170  -1.1782  -1.1440
 -1.1164  -1.0637  -1.0493  -0.9925  -0.9906  -0.9871  -0.9587  -0.9474
 -0.8969  -0.8788  -0.8782  -0.8606  -0.7965  -0.7791  -0.7726  -0.7619
 -0.7363  -0.7177  -0.7048  -0.6948  -0.6809  -0.6735  -0.6661  -0.6619
 -0.6561  -0.6417  -0.6366  -0.6327  -0.6285  -0.6128  -0.5885  -0.5840
 -0.5797  -0.5731  -0.5661  -0.5631  -0.5617  -0.5557  -0.5525  -0.5477
 -0.5393  -0.5262  -0.5227  -0.5138  -0.4830  -0.4685  -0.4674  -0.4631
 -0.4597  -0.4528  -0.4283  -0.4184  -0.4092  -0.3730  -0.3545  -0.3364
 -0.3031
 -- Virtual --
 -0.0206   0.0549   0.0685   0.1023   0.1263   0.1533   0.1584   0.1590
  0.1662   0.1711   0.1801   0.1850   0.1949   0.1959   0.2061   0.2101
  0.2179   0.2272   0.2293   0.2327   0.2431   0.2466   0.2629   0.2641
  0.2648   0.3052   0.3110   0.3150   0.3199   0.3275   0.3354   0.3400
  0.3433   0.3455   0.3525   0.3538   0.3581   0.3618   0.3634   0.3771
  0.3788   0.3873   0.3936   0.3973   0.4016   0.4057   0.4094   0.4121
  0.4225   0.4265   0.4338   0.4384   0.4416   0.4482   0.4545   0.4562
  0.4606   0.4639   0.4693   0.4751   0.4775   0.4814   0.4876   0.4947
  0.4974   0.5082   0.5108   0.5129   0.5182   0.5212   0.5236   0.5276
  0.5332   0.5385   0.5481   0.5514   0.5529   0.5597   0.5627   0.5656
  0.5710   0.5746   0.5822   0.5856   0.5898   0.5911   0.5962   0.5977
  0.6024   0.6075   0.6123   0.6186   0.6192   0.6242   0.6282   0.6322
  0.6328   0.6344   0.6368   0.6443   0.6555   0.6571   0.6625   0.6714
  0.6750   0.6809   0.6921   0.6966   0.7061   0.7080   0.7090   0.7139
  0.7190   0.7354   0.7374   0.7398   0.7564   0.7590   0.7616   0.7649
  0.7733   0.7802   0.7811   0.7907   0.7931   0.8021   0.8072   0.8175
  0.8224   0.8317   0.8345   0.8423   0.8461   0.8503   0.8579   0.8600
  0.8643   0.8653   0.8703   0.8761   0.8801   0.8823   0.8904   0.9035
  0.9100   0.9180   0.9206   0.9261   0.9296   0.9407   0.9409   0.9459
  0.9501   0.9549   0.9616   0.9660   0.9701   0.9773   0.9808   0.9849
  0.9945   0.9976   1.0023   1.0086   1.0125   1.0168   1.0271   1.0297
  1.0362   1.0447   1.0461   1.0540   1.0565   1.0647   1.0708   1.0725
  1.0754   1.0762   1.0837   1.0844   1.0904   1.0960   1.1057   1.1134
  1.1243   1.1307   1.1357   1.1364   1.1406   1.1496   1.1512   1.1542
  1.1596   1.1648   1.1679   1.1768   1.1814   1.1846   1.1923   1.1974
  1.1994   1.2066   1.2121   1.2239   1.2267   1.2285   1.2299   1.2399
  1.2430   1.2480   1.2558   1.2582   1.2668   1.2680   1.2759   1.2956
  1.3076   1.3256   1.3280   1.3334   1.3403   1.3434   1.3461   1.3609
  1.3707   1.3748   1.3804   1.3830   1.3893   1.3943   1.4019   1.4108
  1.4181   1.4234   1.4289   1.4418   1.4450   1.4543   1.4574   1.4627
  1.4694   1.4801   1.4831   1.4890   1.4906   1.4991   1.5068   1.5215
  1.5314   1.5324   1.5333   1.5464   1.5548   1.5588   1.5621   1.5693
  1.5702   1.5757   1.5824   1.5855   1.5977   1.6085   1.6218   1.6368
  1.6385   1.6475   1.6520   1.6558   1.6643   1.6810   1.6893   1.6937
  1.7026   1.7091   1.7113   1.7264   1.7320   1.7373   1.7428   1.7487
  1.7499   1.7661   1.7708   1.7813   1.7875   1.8040   1.8089   1.8114
  1.8245   1.8320   1.8393   1.8499   1.8530   1.8552   1.8634   1.8673
  1.8704   1.8888   1.8918   1.9044   1.9108   1.9242   1.9370   1.9478
  1.9567   1.9636   1.9728   1.9789   1.9951   2.0150   2.0190   2.0359
  2.0461   2.0514   2.0576   2.0737   2.0815   2.1080   2.1235   2.1341
  2.1485   2.1564   2.1634   2.1741   2.1875   2.2033   2.2168   2.2329
  2.2354   2.2400   2.2586   2.2627   2.2755   2.2885   2.2936   2.2961
  2.3233   2.3292   2.3375   2.3416   2.3504   2.3586   2.3726   2.3790
  2.4051   2.4186   2.4270   2.4398   2.4482   2.4536   2.4574   2.4734
  2.4801   2.4873   2.4990   2.5037   2.5116   2.5210   2.5248   2.5341
  2.5494   2.5673   2.5793   2.5862   2.5885   2.5980   2.6064   2.6082
  2.6146   2.6179   2.6205   2.6477   2.6511   2.6621   2.6664   2.6714
  2.6765   2.6872   2.6942   2.6981   2.7096   2.7153   2.7206   2.7274
  2.7339   2.7397   2.7460   2.7503   2.7571   2.7716   2.7807   2.7923
  2.7983   2.8085   2.8209   2.8353   2.8364   2.8471   2.8522   2.8603
  2.8650   2.8699   2.8733   2.8802   2.8858   2.8947   2.8982   2.9094
  2.9164   2.9262   2.9333   2.9398   2.9440   2.9543   2.9565   2.9643
  2.9755   2.9768   2.9909   2.9958   3.0044   3.0080   3.0096   3.0155
  3.0206   3.0300   3.0384   3.0419   3.0513   3.0624   3.0711   3.0806
  3.0826   3.0888   3.0979   3.1006   3.1051   3.1059   3.1131   3.1213
  3.1244   3.1323   3.1384   3.1480   3.1602   3.1652   3.1706   3.1761
  3.1904   3.1948   3.1958   3.2071   3.2153   3.2196   3.2245   3.2273
  3.2292   3.2301   3.2361   3.2380   3.2507   3.2527   3.2575   3.2648
  3.2688   3.2710   3.2758   3.2837   3.2872   3.2901   3.2958   3.3058
  3.3115   3.3145   3.3192   3.3257   3.3289   3.3316   3.3342   3.3370
  3.3442   3.3506   3.3522   3.3569   3.3596   3.3672   3.3687   3.3702
  3.3787   3.3813   3.3890   3.3960   3.3995   3.4035   3.4096   3.4143
  3.4195   3.4261   3.4364   3.4407   3.4416   3.4511   3.4541   3.4565
  3.4617   3.4661   3.4714   3.4746   3.4750   3.4825   3.4868   3.4922
  3.4980   3.4989   3.5045   3.5070   3.5111   3.5178   3.5188   3.5252
  3.5315   3.5369   3.5419   3.5459   3.5559   3.5659   3.5672   3.5817
  3.5843   3.5913   3.5957   3.6059   3.6068   3.6177   3.6241   3.6299
  3.6315   3.6353   3.6377   3.6443   3.6509   3.6563   3.6622   3.6727
  3.6832   3.6928   3.6949   3.6962   3.7025   3.7097   3.7125   3.7177
  3.7311   3.7337   3.7354   3.7436   3.7466   3.7573   3.7616   3.7641
  3.7751   3.7820   3.7848   3.7914   3.7954   3.7992   3.8021   3.8061
  3.8095   3.8137   3.8296   3.8358   3.8415   3.8524   3.8582   3.8614
  3.8672   3.8751   3.8782   3.8816   3.8858   3.9028   3.9129   3.9172
  3.9227   3.9345   3.9370   3.9412   3.9530   3.9593   3.9661   3.9767
  3.9870   3.9936   4.0014   4.0091   4.0118   4.0211   4.0337   4.0494
  4.0547   4.0646   4.0751   4.0760   4.0857   4.0948   4.1027   4.1064
  4.1264   4.1293   4.1345   4.1381   4.1457   4.1578   4.1637   4.1725
  4.1787   4.1865   4.1902   4.1967   4.2083   4.2191   4.2299   4.2356
  4.2454   4.2539   4.2707   4.2738   4.2759   4.2824   4.2865   4.2958
  4.2971   4.3010   4.3076   4.3080   4.3186   4.3224   4.3241   4.3393
  4.3456   4.3492   4.3590   4.3663   4.3680   4.3745   4.3763   4.3840
  4.3918   4.3979   4.4045   4.4058   4.4152   4.4212   4.4322   4.4333
  4.4570   4.4611   4.4709   4.4868   4.4927   4.5018   4.5141   4.5160
  4.5221   4.5249   4.5365   4.5473   4.5514   4.5575   4.5681   4.5703
  4.5762   4.5825   4.5860   4.5997   4.6015   4.6165   4.6306   4.6381
  4.6400   4.6578   4.6633   4.6669   4.6730   4.6849   4.6901   4.6939
  4.7116   4.7246   4.7334   4.7408   4.7712   4.7745   4.7800   4.7927
  4.7968   4.8293   4.8336   4.8427   4.8443   4.8675   4.8747   4.8779
  4.8827   4.8950   4.9166   4.9365   4.9385   4.9501   4.9619   4.9897
  4.9919   5.0022   5.0181   5.0354   5.0405   5.0476   5.0520   5.0686
  5.0993   5.1036   5.1059   5.1154   5.1223   5.1258   5.1416   5.1466
  5.1605   5.1744   5.1821   5.1929   5.2089   5.2352   5.2515   5.2568
  5.2618   5.2783   5.2916   5.2944   5.3099   5.3239   5.3321   5.3380
  5.3546   5.3957   5.3982   5.4023   5.4234   5.4281   5.4318   5.4658
  5.4818   5.5062   5.5088   5.5128   5.5139   5.5317   5.5465   5.5567
  5.5582   5.5605   5.5708   5.5745   5.5778   5.5921   5.6039   5.6067
  5.6270   5.6347   5.6526   5.6552   5.6572   5.6769   5.6778   5.6926
  5.7036   5.7133   5.7213   5.7393   5.7557   5.7568   5.7592   5.7706
  5.7775   5.7810   5.8080   5.8237   5.8427   5.8778   5.9080   5.9243
  5.9463   5.9559   5.9931   6.0124   6.0227   6.0271   6.0420   6.0507
  6.0893   6.1000   6.1013   6.1171   6.1226   6.1797   6.1947   6.2097
  6.2177   6.2200   6.2218   6.2563   6.2688   6.2707   6.3045   6.3422
  6.3522   6.4009   6.4247   6.4448   6.4658   6.5259   6.5621   6.5697
  6.5871   6.6019   6.6446   6.6474   6.6593   6.6737   6.7057   6.8316
  6.8337   6.8806   6.8862   6.8967   6.9115   6.9289   6.9550   7.0783
  7.0985   7.1420   7.1841   7.1887   7.2289   7.3325   7.3419   7.3442
  7.3558   7.4675   7.5457   7.5577   7.5736   7.5787   7.5965   7.6342
  7.6777   7.6868   7.7246   8.3953   9.8586  10.3269  11.1278  11.2073
 11.6938  11.7416  11.9812  12.3667  12.4571  12.6559  12.8480  13.0131
 13.3410  13.5549  13.8132  13.9396  14.0070  14.1344  14.2557  14.3668
 14.4208  14.7393  15.3340  15.7355  15.9906
 --------------------------------------------------------------
 
          Ground-State Mulliken Net Atomic Charges

     Atom                 Charge (a.u.)
  ----------------------------------------
      1 C                    -0.140712
      2 C                    -0.108865
      3 C                    -0.034557
      4 C                    -0.005242
      5 H                     0.188463
      6 C                     0.000970
      7 C                     0.072846
      8 C                     0.031553
      9 C                    -0.054660
     10 C                    -0.165130
     11 C                     0.071006
     12 H                     0.177640
     13 C                     0.359035
     14 C                     0.363419
     15 N                    -0.101590
     16 C                     0.359188
     17 C                     0.357710
     18 N                    -0.094450
     19 O                    -0.464514
     20 O                    -0.476221
     21 O                    -0.482436
     22 O                    -0.470624
     23 C                    -0.201165
     24 H                     0.141054
     25 H                     0.112500
     26 H                     0.112430
     27 C                    -0.197016
     28 H                     0.133979
     29 H                     0.111986
     30 H                     0.113132
     31 H                     0.213128
     32 C                    -0.028733
     33 S                     0.013743
     34 C                    -0.174339
     35 C                    -0.108351
     36 C                    -0.233936
     37 H                     0.201171
     38 H                     0.191634
     39 H                     0.215955
  ----------------------------------------
  Sum of atomic charges =     0.000000

 -----------------------------------------------------------------
                    Cartesian Multipole Moments
 -----------------------------------------------------------------
    Charge (ESU x 10^10)
                 0.0000
    Dipole Moment (Debye)
         X       0.7795      Y       1.8490      Z      -0.7606
       Tot       2.1459
    Quadrupole Moments (Debye-Ang)
        XX    -168.4642     XY       2.9132     YY    -167.5366
        XZ      -8.8622     YZ       0.8775     ZZ    -173.0135
    Octopole Moments (Debye-Ang^2)
       XXX     -11.8449    XXY     488.9115    XYY       5.3391
       YYY    1607.3885    XXZ      -0.2710    XYZ      38.1917
       YYZ       1.2865    XZZ       2.9852    YZZ     542.9929
       ZZZ      -5.2145
    Hexadecapole Moments (Debye-Ang^3)
      XXXX   -1670.1376   XXXY      57.1353   XXYY   -3074.1729
      XYYY     352.3064   YYYY  -17207.4902   XXXZ   -1279.5385
      XXYZ       7.1727   XYYZ    -671.9057   YYYZ     650.6001
      XXZZ   -1126.7012   XYZZ     -92.7208   YYZZ   -3865.5130
      XZZZ   -1346.2975   YZZZ      25.7526   ZZZZ   -4907.4458
 -----------------------------------------------------------------
 Total job time:  257.20s(wall), 7860.73s(cpu) 
 Sun Sep 24 17:24:09 2023

        *************************************************************
        *                                                           *
        *  Thank you very much for using Q-Chem.  Have a nice day.  *
        *                                                           *
        *************************************************************


0 sent ACK to 0 
now end server 0 ... 
cleanup process ... done
remove work dirs ./qchem3125166.0 -- ./qchem3125166.0
rm -rf ./qchem3125166.0
rm -rf ./qchem3125166
