You are running Q-Chem version: 5.4.0

#
# job setting
#
local host:  exp-2-14
current dir: /expanse/lustre/projects/csd626/rramji/aromodel/PNDIT/Rotation_Test
input file:  Dimethyl_Naphthalene_Dicarboximide_Phi_5_Theta_130_Thiophene.qcin
output file: 
nprocs     : 1
nthreads   : 64
#
# qchem installation setting
#
QC:          /cm/shared/apps/spack/cpu/opt/spack/linux-centos8-zen2/gcc-10.2.0/qchem-5.4-akfmr7b3t57bfs6qan3padb2wnb2i7cl
QCAUX:       /cm/shared/apps/spack/cpu/opt/spack/linux-centos8-zen2/gcc-10.2.0/qchem-5.4-akfmr7b3t57bfs6qan3padb2wnb2i7cl/qcaux
QCPROG:      /cm/shared/apps/spack/cpu/opt/spack/linux-centos8-zen2/gcc-10.2.0/qchem-5.4-akfmr7b3t57bfs6qan3padb2wnb2i7cl/exe/qcprog.exe
QCPROG_S:    /cm/shared/apps/spack/cpu/opt/spack/linux-centos8-zen2/gcc-10.2.0/qchem-5.4-akfmr7b3t57bfs6qan3padb2wnb2i7cl/exe/qcprog.exe_s
PARALLEL:    -DPARALLEL
QCMPI:       mpich
#
# qchem directory setting
#
qcrun:       qchem2993739
QCSCRATCH:   .
QCLOCALSCR:  
QCTMPDIR:    .
QCFILEPREF:  ./qchem2993739
QCSAVEDIR:   
workdirs:    ./qchem2993739
workdir0:    ./qchem2993739
partmpdirs =  
#
# parallel setting
#
QCRSH:           ssh
QCMPI:           mpich
QCMPIRUN:        /cm/shared/apps/spack/cpu/opt/spack/linux-centos8-zen2/gcc-10.2.0/qchem-5.4-akfmr7b3t57bfs6qan3padb2wnb2i7cl/bin/mpi/mpirun_qchem
QCMACHINEFILE:   ./qchem2993739/hostfile
exp-2-14

#
# env setting
#
exported envs:   QC QCAUX QCSCRATCH QCRUNNAME QCFILEPREF QCPROG QCPROG_S GUIFILE

Running Job 1 of 1 Dimethyl_Naphthalene_Dicarboximide_Phi_5_Theta_130_Thiophene.qcin
qchem Dimethyl_Naphthalene_Dicarboximide_Phi_5_Theta_130_Thiophene.qcin_2993739.0 ./qchem2993739/ 1
/cm/shared/apps/spack/cpu/opt/spack/linux-centos8-zen2/gcc-10.2.0/qchem-5.4-akfmr7b3t57bfs6qan3padb2wnb2i7cl/bin/mpi/mpirun_qchem -machinefile ./qchem2993739/hostfile -np 1 /cm/shared/apps/spack/cpu/opt/spack/linux-centos8-zen2/gcc-10.2.0/qchem-5.4-akfmr7b3t57bfs6qan3padb2wnb2i7cl/exe/qcprog.exe Dimethyl_Naphthalene_Dicarboximide_Phi_5_Theta_130_Thiophene.qcin_2993739.0 ./qchem2993739/

Process 0 of 1 is on exp-2-14 - thread support 0
initial socket setup ...start
initial socket setup ...done 
now start server 0 ... 
                  Welcome to Q-Chem
     A Quantum Leap Into The Future Of Chemistry


 Q-Chem 5.4, Q-Chem, Inc., Pleasanton, CA (2021)

 License issued to: University of California, San Diego (site)

 E. Epifanovsky,  A. T. B. Gilbert,  Xintian Feng,  Joonho Lee,  Yuezhi Mao,  
 N. Mardirossian,  P. Pokhilko,  A. White,  M. Wormit,  M. P. Coons,  
 A. L. Dempwolff,  Zhengting Gan,  D. Hait,  P. R. Horn,  L. D. Jacobson,  
 I. Kaliman,  J. Kussmann,  A. W. Lange,  Ka Un Lao,  D. S. Levine,  Jie Liu,  
 S. C. McKenzie,  A. F. Morrison,  K. Nanda,  F. Plasser,  D. R. Rehn,  
 M. L. Vidal,  Zhi-Qiang You,  Ying Zhu,  B. Alam,  B. Albrecht,  
 A. Aldossary,  E. Alguire,  J. H. Andersen,  D. Barton,  K. Begam,  A. Behn,  
 Y. A. Bernard,  E. J. Berquist,  H. Burton,  A. Carreras,  K. Carter-Fenk,  
 R. Chakraborty,  A. D. Chien,  K. D. Closser,  V. Cofer-Shabica,  
 S. Dasgupta,  Jia Deng,  M. de Wergifosse,  M. Diedenhofen,  Hainam Do,  
 S. Ehlert,  Po-Tung Fang,  S. Fatehi,  Qingguo Feng,  J. Gayvert,  
 Qinghui Ge,  G. Gidofalvi,  M. Goldey,  J. Gomes,  C. Gonzalez-Espinoza,  
 S. Gulania,  A. Gunina,  M. W. D. Hanson-Heine,  P. H. P. Harbach,  
 A. W. Hauser,  M. F. Herbst,  M. Hernandez Vera,  M. Hodecker,  
 Z. C. Holden,  S. Houck,  Xunkun Huang,  Kerwin Hui,  B. C. Huynh,  
 M. Ivanov,  Hyunjun Ji,  Hanjie Jiang,  B. Kaduk,  S. Kaehler,  
 K. Khistyaev,  Jaehoon Kim,  P. Klunzinger,  Z. Koczor-Benda,  
 Joong Hoon Koh,  D. Kosenkov,  L. Koulias,  T. Kowalczyk,  C. M. Krauter,  
 K. Kue,  A. Kunitsa,  T. Kus,  A. Landau,  K. V. Lawler,  D. Lefrancois,  
 S. Lehtola,  Rain Li,  Yi-Pei Li,  Jiashu Liang,  M. Liebenthal,  
 Hung-Hsuan Lin,  You-Sheng Lin,  Fenglai Liu,  Kuan-Yu Liu,  
 M. Loipersberger,  A. Luenser,  A. Manjanath,  P. Manohar,  E. Mansoor,  
 S. F. Manzer,  Shan-Ping Mao,  A. V. Marenich,  T. Markovich,  S. Mason,  
 S. A. Maurer,  P. F. McLaughlin,  M. F. S. J. Menger,  J.-M. Mewes,  
 S. A. Mewes,  P. Morgante,  J. W. Mullinax,  T. S. Nguyen-Beck,  
 K. J. Oosterbaan,  G. Paran,  Alexander C. Paul,  Suranjan K. Paul,  
 F. Pavosevic,  Zheng Pei,  S. Prager,  E. I. Proynov,  E. Ramos,  B. Rana,  
 A. E. Rask,  A. Rettig,  R. M. Richard,  F. Rob,  E. Rossomme,  T. Scheele,  
 M. Scheurer,  M. Schneider,  N. Sergueev,  S. M. Sharada,  W. Skomorowski,  
 D. W. Small,  C. J. Stein,  Yu-Chuan Su,  E. J. Sundstrom,  Zhen Tao,  
 J. Thirman,  T. Tsuchimochi,  N. M. Tubman,  S. P. Veccham,  O. Vydrov,  
 J. Wenzel,  J. Witte,  A. Yamada,  Kun Yao,  S. Yeganeh,  S. R. Yost,  
 A. Zech,  Igor Ying Zhang,  Xing Zhang,  Yu Zhang,  D. Zuev,  
 A. Aspuru-Guzik,  A. T. Bell,  N. A. Besley,  K. B. Bravaya,  B. R. Brooks,  
 D. Casanova,  Jeng-Da Chai,  S. Coriani,  C. J. Cramer,  
 A. E. DePrince, III,  R. A. DiStasio Jr.,  A. Dreuw,  B. D. Dunietz,  
 T. R. Furlani,  W. A. Goddard III,  S. Grimme,  S. Hammes-Schiffer,  
 T. Head-Gordon,  W. J. Hehre,  Chao-Ping Hsu,  T.-C. Jagau,  Yousung Jung,  
 A. Klamt,  Jing Kong,  D. S. Lambrecht,  WanZhen Liang,  N. J. Mayhall,  
 C. W. McCurdy,  J. B. Neaton,  C. Ochsenfeld,  J. A. Parkhill,  R. Peverati,  
 V. A. Rassolov,  Yihan Shao,  L. V. Slipchenko,  T. Stauch,  R. P. Steele,  
 J. E. Subotnik,  A. J. W. Thom,  A. Tkatchenko,  D. G. Truhlar,  
 T. Van Voorhis,  T. A. Wesolowski,  K. B. Whaley,  H. L. Woodcock III,  
 P. M. Zimmerman,  S. Faraji,  P. M. W. Gill,  M. Head-Gordon,  
 J. M. Herbert,  A. I. Krylov

 Contributors to earlier versions of Q-Chem not listed above: 
 R. D. Adamson,  B. Austin,  R. Baer,  J. Baker,  G. J. O. Beran,  
 K. Brandhorst,  S. T. Brown,  E. F. C. Byrd,  A. K. Chakraborty,  
 G. K. L. Chan,  Chun-Min Chang,  Yunqing Chen,  C.-L. Cheng,  
 Siu Hung Chien,  D. M. Chipman,  D. L. Crittenden,  H. Dachsel,  
 R. J. Doerksen,  A. D. Dutoi,  R. G. Edgar,  J. Fosso-Tande,  
 L. Fusti-Molnar,  D. Ghosh,  A. Ghysels,  A. Golubeva-Zadorozhnaya,  
 J. Gonthier,  M. S. Gordon,  S. R. Gwaltney,  G. Hawkins,  J. E. Herr,  
 A. Heyden,  S. Hirata,  E. G. Hohenstein,  G. Kedziora,  F. J. Keil,  
 C. Kelley,  Jihan Kim,  R. A. King,  R. Z. Khaliullin,  P. P. Korambath,  
 W. Kurlancheek,  A. Laurent,  A. M. Lee,  M. S. Lee,  S. V. Levchenko,  
 Ching Yeh Lin,  D. Liotard,  E. Livshits,  R. C. Lochan,  I. Lotan,  
 L. A. Martinez-Martinez,  P. E. Maslen,  N. Nair,  D. P. O'Neill,  
 D. Neuhauser,  E. Neuscamman,  C. M. Oana,  R. Olivares-Amaya,  R. Olson,  
 T. M. Perrine,  B. Peters,  P. A. Pieniazek,  A. Prociuk,  Y. M. Rhee,  
 J. Ritchie,  M. A. Rohrdanz,  E. Rosta,  N. J. Russ,  H. F. Schaefer III,  
 M. W. Schmidt,  N. E. Schultz,  S. Sharma,  N. Shenvi,  C. D. Sherrill,  
 A. C. Simmonett,  A. Sodt,  T. Stein,  D. Stuck,  K. S. Thanthiriwatte,  
 V. Vanovschi,  L. Vogt,  Tao Wang,  A. Warshel,  M. A. Watson,  
 C. F. Williams,  Q. Wu,  X. Xu,  Jun Yang,  W. Zhang,  Yan Zhao

 Please cite Q-Chem as follows:
 Y. Shao et al., Mol. Phys. 113, 184-215 (2015)
 DOI: 10.1080/00268976.2014.952696

 Q-Chem 5.4.0 for Intel X86 EM64T Linux

 Parts of Q-Chem use Armadillo 9.800.1 (Horizon Scraper).
 http://arma.sourceforge.net/

 Q-Chem begins on Sun Sep 24 15:46:20 2023  

 Host: 
0

     Scratch files written to ./qchem2993739//
 May1621 |scratch|qcdevops|jenkins|workspace|build_RNUM    
 Parallel job on  1  processors
 Processing $rem in /cm/shared/apps/spack/cpu/opt/spack/linux-centos8-zen2/gcc-10.2.0/qchem-5.4-akfmr7b3t57bfs6qan3padb2wnb2i7cl/config/preferences:
 Processing $rem in /home/rramji/.qchemrc:
 Symmetry turned off for PCM/SM12/SMD calculation
 Core orbitals will be frozen

 Checking the input file for inconsistencies... 	...done.

 Q-Chem warning in module forms1/BasisType.C, line 2236:

 You are not using the predefined 5D/6D in this basis set.


--------------------------------------------------------------
User input:
--------------------------------------------------------------
$molecule
0 1
C	0.197767	-6.741404	0.164018
C	1.198109	-6.155638	1.003240
C	-0.632428	-5.791452	-0.533192
C	1.411364	-4.803786	1.182482
H	1.870845	-6.821518	1.567483
C	-0.409419	-4.378638	-0.345145
C	0.609565	-3.838032	0.510347
C	-1.210332	-3.413062	-1.016449
C	0.830799	-2.426473	0.696879
C	-0.999856	-2.059348	-0.839039
C	0.000000	-1.478216	0.000000
H	-1.673483	-1.394783	-1.403737
C	-1.736282	-6.187987	-1.461835
C	-2.306183	-3.798164	-1.936119
N	-2.491597	-5.170003	-2.093916
C	2.510310	-4.424987	2.104529
C	1.936153	-2.036627	1.625377
N	2.691451	-3.049156	2.257873
O	-2.034222	-7.353131	-1.715561
O	-3.014044	-2.986854	-2.528858
O	3.209622	-5.248946	2.690385
O	2.251529	-0.878829	1.891876
C	-3.573032	-5.563799	-3.002711
H	-3.606932	-6.664085	-3.032655
H	-3.382888	-5.147101	-4.010326
H	-4.533125	-5.148785	-2.640711
C	3.756832	-2.587487	3.152408
H	4.249778	-3.483329	3.564653
H	3.328759	-1.964972	3.960905
H	4.477709	-1.962932	2.591422
H	0.055524	-7.822318	0.044245
C	0.000000	0.000000	0.000000
S	0.068929	0.790170	1.580530
C	0.211639	2.421655	0.904911
C	0.086813	0.994207	-0.985400
C	0.201782	2.309433	-0.493528
H	0.066299	0.759454	-2.059934
H	0.278488	3.187020	-1.152593
H	0.288312	3.298992	1.556025
$end

$rem
JOBTYPE		SP
EXCHANGE	HF
CORRELATION	pRIMP2
BASIS		cc-pvtz
METHOD		rimp2
AUX_BASIS	rimp2-cc-pvtz
SOLVENT_METHOD	PCM
PURECART	11111
SYMMETRY	false
MEM_TOTAL	110000
SCF_CONVERGENCE = 6
THRESH=10
GUI = 2
$end



$solvent
dielectric 4.90
$end
--------------------------------------------------------------
 ----------------------------------------------------------------
             Standard Nuclear Orientation (Angstroms)
    I     Atom           X                Y                Z
 ----------------------------------------------------------------
    1      C       0.1977670000    -6.7414040000     0.1640180000
    2      C       1.1981090000    -6.1556380000     1.0032400000
    3      C      -0.6324280000    -5.7914520000    -0.5331920000
    4      C       1.4113640000    -4.8037860000     1.1824820000
    5      H       1.8708450000    -6.8215180000     1.5674830000
    6      C      -0.4094190000    -4.3786380000    -0.3451450000
    7      C       0.6095650000    -3.8380320000     0.5103470000
    8      C      -1.2103320000    -3.4130620000    -1.0164490000
    9      C       0.8307990000    -2.4264730000     0.6968790000
   10      C      -0.9998560000    -2.0593480000    -0.8390390000
   11      C       0.0000000000    -1.4782160000     0.0000000000
   12      H      -1.6734830000    -1.3947830000    -1.4037370000
   13      C      -1.7362820000    -6.1879870000    -1.4618350000
   14      C      -2.3061830000    -3.7981640000    -1.9361190000
   15      N      -2.4915970000    -5.1700030000    -2.0939160000
   16      C       2.5103100000    -4.4249870000     2.1045290000
   17      C       1.9361530000    -2.0366270000     1.6253770000
   18      N       2.6914510000    -3.0491560000     2.2578730000
   19      O      -2.0342220000    -7.3531310000    -1.7155610000
   20      O      -3.0140440000    -2.9868540000    -2.5288580000
   21      O       3.2096220000    -5.2489460000     2.6903850000
   22      O       2.2515290000    -0.8788290000     1.8918760000
   23      C      -3.5730320000    -5.5637990000    -3.0027110000
   24      H      -3.6069320000    -6.6640850000    -3.0326550000
   25      H      -3.3828880000    -5.1471010000    -4.0103260000
   26      H      -4.5331250000    -5.1487850000    -2.6407110000
   27      C       3.7568320000    -2.5874870000     3.1524080000
   28      H       4.2497780000    -3.4833290000     3.5646530000
   29      H       3.3287590000    -1.9649720000     3.9609050000
   30      H       4.4777090000    -1.9629320000     2.5914220000
   31      H       0.0555240000    -7.8223180000     0.0442450000
   32      C       0.0000000000     0.0000000000     0.0000000000
   33      S       0.0689290000     0.7901700000     1.5805300000
   34      C       0.2116390000     2.4216550000     0.9049110000
   35      C       0.0868130000     0.9942070000    -0.9854000000
   36      C       0.2017820000     2.3094330000    -0.4935280000
   37      H       0.0662990000     0.7594540000    -2.0599340000
   38      H       0.2784880000     3.1870200000    -1.1525930000
   39      H       0.2883120000     3.2989920000     1.5560250000
 ----------------------------------------------------------------
 Nuclear Repulsion Energy =        2501.55022022 hartrees
 There are       97 alpha and       97 beta electrons
 Requested basis set is cc-pVTZ
 There are 344 shells and 982 basis functions

 Total QAlloc Memory Limit 110000 MB
 Mega-Array Size       188 MB
 MEM_STATIC part       192 MB
 Discretize the solute cavity surface with Lebedev spheres
	Using 110 Lebedev grid points for each H atom
	Using 194 Lebedev grid points for other atoms
	Atomic van der Waals radii will be scaled by 1.20
 Remove points where switching function is < 1.0e-08
 Keep 2532 surface tesserae and discard 4026 interior tesserae
 Molecular Surface Area = 365.519 Angst**2
 Requested basis set is rimp2-cc-pVTZ
 There are 750 shells and 2588 basis functions
 A cutoff of  1.0D-10 yielded  31636 shell pairs
 There are    243748 function pairs (    316792 Cartesian)
 Smallest overlap matrix eigenvalue = 9.89E-06

 Q-Chem warning in module stvman/mkSTV.C, line 323:

 Overlap eigenvalue is smaller than square root of threshold
 Use THRESH >= 12 to get rid of this warning


 Scale SEOQF with 1.000000e-01/1.000000e-02/1.000000e-01

 Standard Electronic Orientation quadrupole field applied
 Nucleus-field energy     =    -0.0000000132 hartrees
 Guess from superposition of atomic densities
 Warning:  Energy on first SCF cycle will be non-variational
 SAD guess density has 194.000000 electrons

 -----------------------------------------------------------------------
  General SCF calculation program by
  Eric Jon Sundstrom, Paul Horn, Yuezhi Mao, Dmitri Zuev, Alec White,
  David Stuck, Shaama M.S., Shane Yost, Joonho Lee, David Small,
  Daniel Levine, Susi Lehtola, Hugh Burton, Evgeny Epifanovsky,
  Bang C. Huynh
 -----------------------------------------------------------------------
 Hartree-Fock
 using 64 threads for integral computing
 -------------------------------------------------------
 OpenMP Integral computing Module                
 Release: version 1.0, May 2013, Q-Chem Inc. Pittsburgh 
 -------------------------------------------------------
 A restricted SCF calculation will be
 performed using DIIS
 SCF converges when DIIS error is below 1.0e-06
 ---------------------------------------
  Cycle       Energy         DIIS error
 ---------------------------------------
    1   -1581.3025787940      1.87e-02  
    2   -1570.1113386337      2.09e-03  
    3   -1570.4369838376      1.63e-03  
    4   -1570.6688938374      2.57e-04  
    5   -1570.6809012647      7.58e-05  
    6   -1570.6819482293      2.77e-05  
    7   -1570.6821855426      1.43e-05  
    8   -1570.6822607710      5.85e-06  
    9   -1570.6822726638      2.31e-06  
   10   -1570.6822746979      7.34e-07  Convergence criterion met
 ---------------------------------------
 SCF time:   CPU 5564.73s  wall 222.00s 

************** Final PCM Free Energy Summary **************
 G_electrostatic  =      -0.02395467 hartree =     -15.03178394 kcal/mol
 G_cavitation     =       0.00000000 hartree =       0.00000000 kcal/mol
 G_dispersion     =       0.00000000 hartree =       0.00000000 kcal/mol
 G_repulsion      =       0.00000000 hartree =       0.00000000 kcal/mol
 --------------------------------------------------
 Non-electrostatic Free Energy =       0.00000000 hartree =       0.00000000 kcal/mol
 Total                         =      -0.02395467 hartree =     -15.03178394 kcal/mol
 --------------------------------------------------
 SCF Energy (H0 + V/2)                       =   -1570.68227470 
 Solute Internal Energy (H0)                 =   -1570.65832003 
 Total Free Energy (H0 + V/2 + non-elec)     =   -1570.68227470 hartree
                                             = -985618.00330476 kcal/mol
***********************************************************

 SCF   energy in the final basis set =    -1570.6822746979
 Total energy in the final basis set =    -1570.6822746979


 --------------------------------------------------------------
  Generalized many-body perturbation theory program
  by Joonho Lee, Fazle Rob, Xintian Feng, Evgeny Epifanovsky

 No regularization used 
 (reg. param. = 0.0000e+00)
  (P|Q)^-1/2 Time:  CPU 116.39 s  wall 1.83 s

 In RI-MP2 calculation: 
 # of frozen core orbitals: 31

 Components of the RIMP2 correlation energy:
        aaaa    correlation energy =        -0.6173000494 a.u.
        abab    correlation energy =        -3.3937307124 a.u.
        bbbb    correlation energy =        -0.6173000494 a.u.
        non-Brillouin singles      =        -0.0000000000 a.u.
        total same-spin energy     =        -1.2346000988 a.u.
        total opposite-spin energy =        -3.3937307124 a.u.

 Total  RIMP2   correlation energy =        -4.6283308111 a.u.
        RIMP2         total energy =     -1575.3106055090 a.u.

 RI-MP2 Energy Time:  CPU 1750.87 s  wall 28.38 s
 
 --------------------------------------------------------------
 
                    Orbital Energies (a.u.)
 --------------------------------------------------------------
 
 Alpha MOs
 -- Occupied --
-91.9846 -20.5588 -20.5566 -20.5546 -20.5533 -15.6315 -15.6302 -11.4003
-11.3956 -11.3922 -11.3909 -11.3171 -11.3050 -11.3029 -11.3012 -11.2983
-11.2976 -11.2904 -11.2865 -11.2859 -11.2822 -11.2804 -11.2782 -11.2648
-11.2643 -11.2588 -11.2467  -8.9842  -6.6648  -6.6643  -6.6639  -1.4251
 -1.4238  -1.4045  -1.4030  -1.2676  -1.2651  -1.2176  -1.1732  -1.1438
 -1.1176  -1.0628  -1.0500  -0.9930  -0.9884  -0.9816  -0.9591  -0.9481
 -0.8968  -0.8798  -0.8776  -0.8616  -0.7945  -0.7771  -0.7738  -0.7602
 -0.7339  -0.7189  -0.7046  -0.6944  -0.6820  -0.6737  -0.6664  -0.6621
 -0.6569  -0.6416  -0.6375  -0.6339  -0.6294  -0.6131  -0.5846  -0.5837
 -0.5783  -0.5711  -0.5661  -0.5655  -0.5641  -0.5554  -0.5536  -0.5484
 -0.5343  -0.5251  -0.5209  -0.5155  -0.4833  -0.4714  -0.4647  -0.4594
 -0.4581  -0.4502  -0.4279  -0.4181  -0.4091  -0.3650  -0.3428  -0.3364
 -0.3088
 -- Virtual --
 -0.0210   0.0598   0.0706   0.1024   0.1245   0.1546   0.1583   0.1590
  0.1658   0.1692   0.1790   0.1812   0.1846   0.1960   0.2046   0.2072
  0.2197   0.2252   0.2279   0.2310   0.2361   0.2425   0.2593   0.2617
  0.2653   0.3063   0.3122   0.3144   0.3193   0.3247   0.3263   0.3353
  0.3426   0.3463   0.3518   0.3572   0.3591   0.3605   0.3713   0.3743
  0.3793   0.3822   0.3866   0.3935   0.4001   0.4038   0.4063   0.4117
  0.4189   0.4277   0.4329   0.4379   0.4413   0.4461   0.4528   0.4547
  0.4578   0.4589   0.4621   0.4741   0.4762   0.4861   0.4883   0.4960
  0.5041   0.5082   0.5100   0.5173   0.5182   0.5242   0.5290   0.5313
  0.5350   0.5372   0.5463   0.5487   0.5521   0.5565   0.5612   0.5645
  0.5688   0.5742   0.5766   0.5847   0.5895   0.5924   0.5958   0.6009
  0.6059   0.6116   0.6135   0.6142   0.6182   0.6234   0.6269   0.6294
  0.6315   0.6342   0.6362   0.6381   0.6434   0.6482   0.6500   0.6679
  0.6718   0.6854   0.6920   0.6951   0.6991   0.7055   0.7101   0.7137
  0.7171   0.7340   0.7388   0.7411   0.7418   0.7567   0.7590   0.7621
  0.7718   0.7793   0.7822   0.7939   0.7995   0.8083   0.8123   0.8213
  0.8266   0.8275   0.8330   0.8367   0.8409   0.8466   0.8478   0.8513
  0.8638   0.8656   0.8683   0.8730   0.8781   0.8862   0.9049   0.9064
  0.9141   0.9184   0.9201   0.9257   0.9300   0.9348   0.9421   0.9423
  0.9492   0.9577   0.9638   0.9700   0.9713   0.9806   0.9812   0.9846
  0.9908   0.9916   0.9984   1.0056   1.0107   1.0183   1.0237   1.0282
  1.0328   1.0375   1.0510   1.0558   1.0592   1.0658   1.0667   1.0713
  1.0792   1.0815   1.0828   1.0880   1.0894   1.0995   1.1077   1.1085
  1.1283   1.1295   1.1355   1.1400   1.1422   1.1524   1.1537   1.1560
  1.1587   1.1659   1.1695   1.1733   1.1813   1.1832   1.1950   1.1960
  1.1982   1.2063   1.2131   1.2187   1.2205   1.2274   1.2367   1.2431
  1.2444   1.2478   1.2583   1.2588   1.2642   1.2671   1.2875   1.2924
  1.3118   1.3220   1.3282   1.3378   1.3397   1.3424   1.3465   1.3623
  1.3645   1.3767   1.3818   1.3821   1.3883   1.3995   1.4083   1.4158
  1.4221   1.4263   1.4347   1.4426   1.4504   1.4530   1.4561   1.4594
  1.4768   1.4784   1.4847   1.4943   1.5010   1.5068   1.5100   1.5151
  1.5187   1.5315   1.5327   1.5449   1.5498   1.5553   1.5617   1.5656
  1.5692   1.5751   1.5798   1.5856   1.6011   1.6078   1.6151   1.6309
  1.6375   1.6467   1.6478   1.6607   1.6666   1.6707   1.6827   1.6863
  1.6936   1.7041   1.7129   1.7158   1.7320   1.7363   1.7447   1.7478
  1.7490   1.7608   1.7685   1.7690   1.7907   1.8022   1.8045   1.8115
  1.8120   1.8287   1.8317   1.8437   1.8509   1.8533   1.8603   1.8662
  1.8696   1.8803   1.9019   1.9064   1.9137   1.9201   1.9323   1.9443
  1.9614   1.9721   1.9767   1.9877   2.0005   2.0032   2.0245   2.0361
  2.0430   2.0448   2.0630   2.0777   2.1023   2.1075   2.1271   2.1393
  2.1420   2.1548   2.1690   2.1908   2.1954   2.2072   2.2204   2.2341
  2.2444   2.2507   2.2644   2.2676   2.2850   2.2903   2.2965   2.3018
  2.3109   2.3250   2.3319   2.3386   2.3571   2.3610   2.3766   2.3785
  2.4104   2.4210   2.4323   2.4343   2.4449   2.4519   2.4567   2.4617
  2.4783   2.4840   2.4876   2.4954   2.5041   2.5135   2.5287   2.5364
  2.5498   2.5578   2.5760   2.5870   2.5937   2.5960   2.5992   2.6060
  2.6148   2.6176   2.6227   2.6468   2.6521   2.6619   2.6657   2.6671
  2.6733   2.6851   2.6872   2.7006   2.7102   2.7150   2.7183   2.7264
  2.7317   2.7424   2.7440   2.7493   2.7557   2.7679   2.7751   2.7900
  2.8039   2.8121   2.8170   2.8280   2.8372   2.8481   2.8494   2.8543
  2.8625   2.8670   2.8737   2.8764   2.8859   2.8959   2.8969   2.9043
  2.9084   2.9213   2.9281   2.9337   2.9458   2.9475   2.9571   2.9598
  2.9731   2.9776   2.9928   2.9978   3.0014   3.0018   3.0053   3.0108
  3.0207   3.0323   3.0368   3.0418   3.0436   3.0592   3.0649   3.0741
  3.0867   3.0894   3.0995   3.1020   3.1088   3.1116   3.1153   3.1208
  3.1274   3.1319   3.1420   3.1527   3.1552   3.1659   3.1732   3.1825
  3.1850   3.1965   3.1970   3.2074   3.2079   3.2131   3.2166   3.2223
  3.2277   3.2298   3.2420   3.2488   3.2533   3.2571   3.2589   3.2668
  3.2738   3.2795   3.2820   3.2858   3.2880   3.2950   3.2968   3.2991
  3.3091   3.3160   3.3190   3.3248   3.3279   3.3309   3.3321   3.3356
  3.3410   3.3427   3.3479   3.3545   3.3552   3.3644   3.3665   3.3682
  3.3763   3.3796   3.3872   3.3919   3.3987   3.4004   3.4019   3.4175
  3.4222   3.4278   3.4328   3.4373   3.4424   3.4469   3.4527   3.4552
  3.4615   3.4660   3.4676   3.4727   3.4768   3.4804   3.4885   3.4957
  3.4974   3.5003   3.5021   3.5074   3.5087   3.5107   3.5164   3.5284
  3.5327   3.5363   3.5390   3.5484   3.5537   3.5655   3.5663   3.5739
  3.5787   3.5832   3.5901   3.6010   3.6105   3.6181   3.6275   3.6300
  3.6327   3.6381   3.6424   3.6453   3.6521   3.6611   3.6740   3.6783
  3.6862   3.6894   3.6958   3.6995   3.7040   3.7115   3.7152   3.7246
  3.7268   3.7297   3.7332   3.7405   3.7468   3.7558   3.7580   3.7626
  3.7709   3.7774   3.7820   3.7839   3.7919   3.7936   3.7986   3.8014
  3.8144   3.8217   3.8284   3.8350   3.8420   3.8476   3.8548   3.8563
  3.8598   3.8652   3.8784   3.8817   3.8899   3.8973   3.9153   3.9235
  3.9272   3.9318   3.9396   3.9436   3.9530   3.9538   3.9662   3.9831
  3.9872   3.9919   3.9965   4.0045   4.0079   4.0148   4.0330   4.0429
  4.0454   4.0589   4.0681   4.0807   4.0855   4.0955   4.0997   4.1075
  4.1235   4.1306   4.1327   4.1447   4.1533   4.1569   4.1608   4.1738
  4.1808   4.1853   4.1884   4.1978   4.2088   4.2122   4.2266   4.2385
  4.2410   4.2470   4.2589   4.2660   4.2706   4.2744   4.2763   4.2874
  4.2943   4.2961   4.2999   4.3084   4.3165   4.3232   4.3344   4.3407
  4.3453   4.3506   4.3530   4.3631   4.3673   4.3685   4.3708   4.3790
  4.3941   4.3966   4.4030   4.4093   4.4188   4.4237   4.4287   4.4331
  4.4436   4.4652   4.4674   4.4832   4.4871   4.5018   4.5128   4.5189
  4.5228   4.5237   4.5330   4.5402   4.5462   4.5517   4.5659   4.5747
  4.5765   4.5811   4.5893   4.5957   4.6065   4.6106   4.6216   4.6309
  4.6414   4.6572   4.6585   4.6684   4.6711   4.6761   4.6902   4.6959
  4.7117   4.7230   4.7324   4.7397   4.7582   4.7682   4.7819   4.7944
  4.8107   4.8236   4.8380   4.8396   4.8470   4.8644   4.8699   4.8752
  4.8788   4.9000   4.9080   4.9262   4.9344   4.9575   4.9690   4.9788
  4.9937   5.0117   5.0183   5.0377   5.0436   5.0441   5.0504   5.0514
  5.0940   5.0982   5.1050   5.1122   5.1195   5.1252   5.1441   5.1454
  5.1691   5.1777   5.1822   5.1872   5.1954   5.2311   5.2391   5.2565
  5.2628   5.2775   5.2803   5.2892   5.3215   5.3302   5.3332   5.3415
  5.3470   5.3753   5.3960   5.4028   5.4217   5.4302   5.4407   5.4445
  5.4907   5.5055   5.5085   5.5118   5.5132   5.5291   5.5483   5.5556
  5.5587   5.5599   5.5744   5.5774   5.5801   5.5909   5.6027   5.6059
  5.6259   5.6313   5.6474   5.6524   5.6550   5.6740   5.6765   5.6901
  5.6977   5.7003   5.7273   5.7373   5.7501   5.7576   5.7600   5.7700
  5.7745   5.7758   5.8127   5.8204   5.8454   5.8820   5.8972   5.9349
  5.9400   5.9646   6.0047   6.0157   6.0237   6.0254   6.0364   6.0526
  6.0788   6.1002   6.1068   6.1157   6.1216   6.1656   6.1958   6.2085
  6.2175   6.2183   6.2216   6.2582   6.2658   6.2704   6.3024   6.3414
  6.3509   6.3737   6.4423   6.4493   6.4652   6.5230   6.5618   6.5700
  6.5867   6.5988   6.6376   6.6472   6.6594   6.6652   6.7063   6.8312
  6.8328   6.8791   6.8858   6.8961   6.9111   6.9243   6.9508   7.0779
  7.1005   7.1387   7.1845   7.1878   7.2271   7.3321   7.3413   7.3440
  7.3566   7.4666   7.5433   7.5572   7.5726   7.5775   7.5957   7.6335
  7.6727   7.6865   7.7217   8.3576   9.9104  10.2916  11.1155  11.2751
 11.6548  11.7126  11.9393  12.3578  12.4390  12.7808  12.8529  12.9041
 13.2661  13.5618  13.8100  13.9310  14.0281  14.1396  14.2287  14.3436
 14.4139  14.7222  15.3249  15.7188  15.9659
 --------------------------------------------------------------
 
          Ground-State Mulliken Net Atomic Charges

     Atom                 Charge (a.u.)
  ----------------------------------------
      1 C                    -0.135280
      2 C                    -0.108437
      3 C                    -0.040636
      4 C                    -0.003700
      5 H                     0.188830
      6 C                    -0.002519
      7 C                     0.076440
      8 C                     0.003663
      9 C                    -0.046609
     10 C                    -0.144880
     11 C                     0.098938
     12 H                     0.184140
     13 C                     0.361016
     14 C                     0.368549
     15 N                    -0.101558
     16 C                     0.359582
     17 C                     0.372043
     18 N                    -0.095033
     19 O                    -0.464535
     20 O                    -0.476544
     21 O                    -0.481215
     22 O                    -0.458134
     23 C                    -0.200932
     24 H                     0.141129
     25 H                     0.112243
     26 H                     0.112499
     27 C                    -0.196142
     28 H                     0.133706
     29 H                     0.112846
     30 H                     0.113036
     31 H                     0.214000
     32 C                    -0.060327
     33 S                     0.059759
     34 C                    -0.201613
     35 C                    -0.172305
     36 C                    -0.216319
     37 H                     0.193543
     38 H                     0.189826
     39 H                     0.210931
  ----------------------------------------
  Sum of atomic charges =     0.000000

 -----------------------------------------------------------------
                    Cartesian Multipole Moments
 -----------------------------------------------------------------
    Charge (ESU x 10^10)
                 0.0000
    Dipole Moment (Debye)
         X       0.3960      Y       1.0642      Z      -0.6529
       Tot       1.3098
    Quadrupole Moments (Debye-Ang)
        XX    -176.0308     XY       0.7379     YY    -165.9293
        XZ      -9.5307     YZ       0.4112     ZZ    -165.5702
    Octopole Moments (Debye-Ang^2)
       XXX     -54.5684    XXY     511.6981    XYY      -8.6094
       YYY    1590.3634    XXZ     -29.9879    XYZ      41.7679
       YYZ     -15.1082    XZZ     -16.9929    YZZ     512.2651
       ZZZ     -86.2198
    Hexadecapole Moments (Debye-Ang^3)
      XXXX   -3640.9361   XXXY    -130.2055   XXYY   -3606.9573
      XYYY    -609.4573   YYYY  -17140.8253   XXXZ   -1495.3869
      XXYZ      43.9732   XYYZ    -765.4380   YYYZ    -538.5570
      XXZZ   -1139.1582   XYZZ      21.3198   YYZZ   -3342.2452
      XZZZ   -1465.8203   YZZZ    -177.2066   ZZZZ   -2862.5501
 -----------------------------------------------------------------
 Total job time:  255.87s(wall), 7442.34s(cpu) 
 Sun Sep 24 15:50:35 2023

        *************************************************************
        *                                                           *
        *  Thank you very much for using Q-Chem.  Have a nice day.  *
        *                                                           *
        *************************************************************


0 sent ACK to 0 
now end server 0 ... 
cleanup process ... done
remove work dirs ./qchem2993739.0 -- ./qchem2993739.0
rm -rf ./qchem2993739.0
rm -rf ./qchem2993739
