You are running Q-Chem version: 5.4.0

#
# job setting
#
local host:  exp-2-02
current dir: /expanse/lustre/projects/csd626/rramji/aromodel/PNDIT/Rotation_Test
input file:  Dimethyl_Naphthalene_Dicarboximide_Phi_15_Theta_80_Thiophene.qcin
output file: 
nprocs     : 1
nthreads   : 64
#
# qchem installation setting
#
QC:          /cm/shared/apps/spack/cpu/opt/spack/linux-centos8-zen2/gcc-10.2.0/qchem-5.4-akfmr7b3t57bfs6qan3padb2wnb2i7cl
QCAUX:       /cm/shared/apps/spack/cpu/opt/spack/linux-centos8-zen2/gcc-10.2.0/qchem-5.4-akfmr7b3t57bfs6qan3padb2wnb2i7cl/qcaux
QCPROG:      /cm/shared/apps/spack/cpu/opt/spack/linux-centos8-zen2/gcc-10.2.0/qchem-5.4-akfmr7b3t57bfs6qan3padb2wnb2i7cl/exe/qcprog.exe
QCPROG_S:    /cm/shared/apps/spack/cpu/opt/spack/linux-centos8-zen2/gcc-10.2.0/qchem-5.4-akfmr7b3t57bfs6qan3padb2wnb2i7cl/exe/qcprog.exe_s
PARALLEL:    -DPARALLEL
QCMPI:       mpich
#
# qchem directory setting
#
qcrun:       qchem3107970
QCSCRATCH:   .
QCLOCALSCR:  
QCTMPDIR:    .
QCFILEPREF:  ./qchem3107970
QCSAVEDIR:   
workdirs:    ./qchem3107970
workdir0:    ./qchem3107970
partmpdirs =  
#
# parallel setting
#
QCRSH:           ssh
QCMPI:           mpich
QCMPIRUN:        /cm/shared/apps/spack/cpu/opt/spack/linux-centos8-zen2/gcc-10.2.0/qchem-5.4-akfmr7b3t57bfs6qan3padb2wnb2i7cl/bin/mpi/mpirun_qchem
QCMACHINEFILE:   ./qchem3107970/hostfile
exp-2-02

#
# env setting
#
exported envs:   QC QCAUX QCSCRATCH QCRUNNAME QCFILEPREF QCPROG QCPROG_S GUIFILE

Running Job 1 of 1 Dimethyl_Naphthalene_Dicarboximide_Phi_15_Theta_80_Thiophene.qcin
qchem Dimethyl_Naphthalene_Dicarboximide_Phi_15_Theta_80_Thiophene.qcin_3107970.0 ./qchem3107970/ 1
/cm/shared/apps/spack/cpu/opt/spack/linux-centos8-zen2/gcc-10.2.0/qchem-5.4-akfmr7b3t57bfs6qan3padb2wnb2i7cl/bin/mpi/mpirun_qchem -machinefile ./qchem3107970/hostfile -np 1 /cm/shared/apps/spack/cpu/opt/spack/linux-centos8-zen2/gcc-10.2.0/qchem-5.4-akfmr7b3t57bfs6qan3padb2wnb2i7cl/exe/qcprog.exe Dimethyl_Naphthalene_Dicarboximide_Phi_15_Theta_80_Thiophene.qcin_3107970.0 ./qchem3107970/

Process 0 of 1 is on exp-2-02 - thread support 0
initial socket setup ...start
initial socket setup ...done 
now start server 0 ... 
                  Welcome to Q-Chem
     A Quantum Leap Into The Future Of Chemistry


 Q-Chem 5.4, Q-Chem, Inc., Pleasanton, CA (2021)

 License issued to: University of California, San Diego (site)

 E. Epifanovsky,  A. T. B. Gilbert,  Xintian Feng,  Joonho Lee,  Yuezhi Mao,  
 N. Mardirossian,  P. Pokhilko,  A. White,  M. Wormit,  M. P. Coons,  
 A. L. Dempwolff,  Zhengting Gan,  D. Hait,  P. R. Horn,  L. D. Jacobson,  
 I. Kaliman,  J. Kussmann,  A. W. Lange,  Ka Un Lao,  D. S. Levine,  Jie Liu,  
 S. C. McKenzie,  A. F. Morrison,  K. Nanda,  F. Plasser,  D. R. Rehn,  
 M. L. Vidal,  Zhi-Qiang You,  Ying Zhu,  B. Alam,  B. Albrecht,  
 A. Aldossary,  E. Alguire,  J. H. Andersen,  D. Barton,  K. Begam,  A. Behn,  
 Y. A. Bernard,  E. J. Berquist,  H. Burton,  A. Carreras,  K. Carter-Fenk,  
 R. Chakraborty,  A. D. Chien,  K. D. Closser,  V. Cofer-Shabica,  
 S. Dasgupta,  Jia Deng,  M. de Wergifosse,  M. Diedenhofen,  Hainam Do,  
 S. Ehlert,  Po-Tung Fang,  S. Fatehi,  Qingguo Feng,  J. Gayvert,  
 Qinghui Ge,  G. Gidofalvi,  M. Goldey,  J. Gomes,  C. Gonzalez-Espinoza,  
 S. Gulania,  A. Gunina,  M. W. D. Hanson-Heine,  P. H. P. Harbach,  
 A. W. Hauser,  M. F. Herbst,  M. Hernandez Vera,  M. Hodecker,  
 Z. C. Holden,  S. Houck,  Xunkun Huang,  Kerwin Hui,  B. C. Huynh,  
 M. Ivanov,  Hyunjun Ji,  Hanjie Jiang,  B. Kaduk,  S. Kaehler,  
 K. Khistyaev,  Jaehoon Kim,  P. Klunzinger,  Z. Koczor-Benda,  
 Joong Hoon Koh,  D. Kosenkov,  L. Koulias,  T. Kowalczyk,  C. M. Krauter,  
 K. Kue,  A. Kunitsa,  T. Kus,  A. Landau,  K. V. Lawler,  D. Lefrancois,  
 S. Lehtola,  Rain Li,  Yi-Pei Li,  Jiashu Liang,  M. Liebenthal,  
 Hung-Hsuan Lin,  You-Sheng Lin,  Fenglai Liu,  Kuan-Yu Liu,  
 M. Loipersberger,  A. Luenser,  A. Manjanath,  P. Manohar,  E. Mansoor,  
 S. F. Manzer,  Shan-Ping Mao,  A. V. Marenich,  T. Markovich,  S. Mason,  
 S. A. Maurer,  P. F. McLaughlin,  M. F. S. J. Menger,  J.-M. Mewes,  
 S. A. Mewes,  P. Morgante,  J. W. Mullinax,  T. S. Nguyen-Beck,  
 K. J. Oosterbaan,  G. Paran,  Alexander C. Paul,  Suranjan K. Paul,  
 F. Pavosevic,  Zheng Pei,  S. Prager,  E. I. Proynov,  E. Ramos,  B. Rana,  
 A. E. Rask,  A. Rettig,  R. M. Richard,  F. Rob,  E. Rossomme,  T. Scheele,  
 M. Scheurer,  M. Schneider,  N. Sergueev,  S. M. Sharada,  W. Skomorowski,  
 D. W. Small,  C. J. Stein,  Yu-Chuan Su,  E. J. Sundstrom,  Zhen Tao,  
 J. Thirman,  T. Tsuchimochi,  N. M. Tubman,  S. P. Veccham,  O. Vydrov,  
 J. Wenzel,  J. Witte,  A. Yamada,  Kun Yao,  S. Yeganeh,  S. R. Yost,  
 A. Zech,  Igor Ying Zhang,  Xing Zhang,  Yu Zhang,  D. Zuev,  
 A. Aspuru-Guzik,  A. T. Bell,  N. A. Besley,  K. B. Bravaya,  B. R. Brooks,  
 D. Casanova,  Jeng-Da Chai,  S. Coriani,  C. J. Cramer,  
 A. E. DePrince, III,  R. A. DiStasio Jr.,  A. Dreuw,  B. D. Dunietz,  
 T. R. Furlani,  W. A. Goddard III,  S. Grimme,  S. Hammes-Schiffer,  
 T. Head-Gordon,  W. J. Hehre,  Chao-Ping Hsu,  T.-C. Jagau,  Yousung Jung,  
 A. Klamt,  Jing Kong,  D. S. Lambrecht,  WanZhen Liang,  N. J. Mayhall,  
 C. W. McCurdy,  J. B. Neaton,  C. Ochsenfeld,  J. A. Parkhill,  R. Peverati,  
 V. A. Rassolov,  Yihan Shao,  L. V. Slipchenko,  T. Stauch,  R. P. Steele,  
 J. E. Subotnik,  A. J. W. Thom,  A. Tkatchenko,  D. G. Truhlar,  
 T. Van Voorhis,  T. A. Wesolowski,  K. B. Whaley,  H. L. Woodcock III,  
 P. M. Zimmerman,  S. Faraji,  P. M. W. Gill,  M. Head-Gordon,  
 J. M. Herbert,  A. I. Krylov

 Contributors to earlier versions of Q-Chem not listed above: 
 R. D. Adamson,  B. Austin,  R. Baer,  J. Baker,  G. J. O. Beran,  
 K. Brandhorst,  S. T. Brown,  E. F. C. Byrd,  A. K. Chakraborty,  
 G. K. L. Chan,  Chun-Min Chang,  Yunqing Chen,  C.-L. Cheng,  
 Siu Hung Chien,  D. M. Chipman,  D. L. Crittenden,  H. Dachsel,  
 R. J. Doerksen,  A. D. Dutoi,  R. G. Edgar,  J. Fosso-Tande,  
 L. Fusti-Molnar,  D. Ghosh,  A. Ghysels,  A. Golubeva-Zadorozhnaya,  
 J. Gonthier,  M. S. Gordon,  S. R. Gwaltney,  G. Hawkins,  J. E. Herr,  
 A. Heyden,  S. Hirata,  E. G. Hohenstein,  G. Kedziora,  F. J. Keil,  
 C. Kelley,  Jihan Kim,  R. A. King,  R. Z. Khaliullin,  P. P. Korambath,  
 W. Kurlancheek,  A. Laurent,  A. M. Lee,  M. S. Lee,  S. V. Levchenko,  
 Ching Yeh Lin,  D. Liotard,  E. Livshits,  R. C. Lochan,  I. Lotan,  
 L. A. Martinez-Martinez,  P. E. Maslen,  N. Nair,  D. P. O'Neill,  
 D. Neuhauser,  E. Neuscamman,  C. M. Oana,  R. Olivares-Amaya,  R. Olson,  
 T. M. Perrine,  B. Peters,  P. A. Pieniazek,  A. Prociuk,  Y. M. Rhee,  
 J. Ritchie,  M. A. Rohrdanz,  E. Rosta,  N. J. Russ,  H. F. Schaefer III,  
 M. W. Schmidt,  N. E. Schultz,  S. Sharma,  N. Shenvi,  C. D. Sherrill,  
 A. C. Simmonett,  A. Sodt,  T. Stein,  D. Stuck,  K. S. Thanthiriwatte,  
 V. Vanovschi,  L. Vogt,  Tao Wang,  A. Warshel,  M. A. Watson,  
 C. F. Williams,  Q. Wu,  X. Xu,  Jun Yang,  W. Zhang,  Yan Zhao

 Please cite Q-Chem as follows:
 Y. Shao et al., Mol. Phys. 113, 184-215 (2015)
 DOI: 10.1080/00268976.2014.952696

 Q-Chem 5.4.0 for Intel X86 EM64T Linux

 Parts of Q-Chem use Armadillo 9.800.1 (Horizon Scraper).
 http://arma.sourceforge.net/

 Q-Chem begins on Sun Sep 24 15:27:51 2023  

 Host: 
0

     Scratch files written to ./qchem3107970//
 May1621 |scratch|qcdevops|jenkins|workspace|build_RNUM    
 Parallel job on  1  processors
 Processing $rem in /cm/shared/apps/spack/cpu/opt/spack/linux-centos8-zen2/gcc-10.2.0/qchem-5.4-akfmr7b3t57bfs6qan3padb2wnb2i7cl/config/preferences:
 Processing $rem in /home/rramji/.qchemrc:
 Symmetry turned off for PCM/SM12/SMD calculation
 Core orbitals will be frozen

 Checking the input file for inconsistencies... 	...done.

 Q-Chem warning in module forms1/BasisType.C, line 2236:

 You are not using the predefined 5D/6D in this basis set.


--------------------------------------------------------------
User input:
--------------------------------------------------------------
$molecule
0 1
C	0.252767	-6.741404	-0.046070
C	1.538656	-6.155638	-0.272935
C	-0.814966	-5.791452	0.141739
C	1.813042	-4.803786	-0.321083
H	2.403318	-6.821518	-0.425592
C	-0.527566	-4.378638	0.091779
C	0.782769	-3.838032	-0.138909
C	-1.556632	-3.413062	0.273808
C	1.067868	-2.426473	-0.188483
C	-1.285436	-2.059348	0.226610
C	0.000000	-1.478216	0.000000
H	-2.151019	-1.394783	0.379657
C	-2.235891	-6.187987	0.390420
C	-2.965540	-3.798164	0.522125
N	-3.205600	-5.170003	0.562731
C	3.225760	-4.424987	-0.570244
C	2.489646	-2.036627	-0.438407
N	3.459662	-3.049156	-0.610438
O	-2.621768	-7.353131	0.455563
O	-3.874608	-2.986854	0.683373
O	4.124059	-5.248946	-0.729367
O	2.896516	-0.878829	-0.508697
C	-4.596910	-5.563799	0.806996
H	-4.641640	-6.664085	0.813717
H	-5.246567	-5.147101	0.013655
H	-4.936739	-5.148785	1.775159
C	4.829729	-2.587487	-0.851572
H	5.462387	-3.483329	-0.964204
H	5.173914	-1.964972	-0.003956
H	4.863360	-1.962932	-1.764390
H	0.069584	-7.822318	-0.014094
C	0.000000	0.000000	0.000000
S	0.205093	0.766196	1.580530
C	0.628939	2.348114	0.904911
C	0.258137	0.964028	-0.985400
C	0.599745	2.239309	-0.493528
H	0.197169	0.736404	-2.059934
H	0.827678	3.090243	-1.152593
H	0.856796	3.198808	1.556025
$end

$rem
JOBTYPE		SP
EXCHANGE	HF
CORRELATION	pRIMP2
BASIS		cc-pvtz
METHOD		rimp2
AUX_BASIS	rimp2-cc-pvtz
SOLVENT_METHOD	PCM
PURECART	11111
SYMMETRY	false
MEM_TOTAL	110000
SCF_CONVERGENCE = 6
THRESH=10
GUI = 2
$end



$solvent
dielectric 4.90
$end
--------------------------------------------------------------
 ----------------------------------------------------------------
             Standard Nuclear Orientation (Angstroms)
    I     Atom           X                Y                Z
 ----------------------------------------------------------------
    1      C       0.2527670000    -6.7414040000    -0.0460700000
    2      C       1.5386560000    -6.1556380000    -0.2729350000
    3      C      -0.8149660000    -5.7914520000     0.1417390000
    4      C       1.8130420000    -4.8037860000    -0.3210830000
    5      H       2.4033180000    -6.8215180000    -0.4255920000
    6      C      -0.5275660000    -4.3786380000     0.0917790000
    7      C       0.7827690000    -3.8380320000    -0.1389090000
    8      C      -1.5566320000    -3.4130620000     0.2738080000
    9      C       1.0678680000    -2.4264730000    -0.1884830000
   10      C      -1.2854360000    -2.0593480000     0.2266100000
   11      C       0.0000000000    -1.4782160000     0.0000000000
   12      H      -2.1510190000    -1.3947830000     0.3796570000
   13      C      -2.2358910000    -6.1879870000     0.3904200000
   14      C      -2.9655400000    -3.7981640000     0.5221250000
   15      N      -3.2056000000    -5.1700030000     0.5627310000
   16      C       3.2257600000    -4.4249870000    -0.5702440000
   17      C       2.4896460000    -2.0366270000    -0.4384070000
   18      N       3.4596620000    -3.0491560000    -0.6104380000
   19      O      -2.6217680000    -7.3531310000     0.4555630000
   20      O      -3.8746080000    -2.9868540000     0.6833730000
   21      O       4.1240590000    -5.2489460000    -0.7293670000
   22      O       2.8965160000    -0.8788290000    -0.5086970000
   23      C      -4.5969100000    -5.5637990000     0.8069960000
   24      H      -4.6416400000    -6.6640850000     0.8137170000
   25      H      -5.2465670000    -5.1471010000     0.0136550000
   26      H      -4.9367390000    -5.1487850000     1.7751590000
   27      C       4.8297290000    -2.5874870000    -0.8515720000
   28      H       5.4623870000    -3.4833290000    -0.9642040000
   29      H       5.1739140000    -1.9649720000    -0.0039560000
   30      H       4.8633600000    -1.9629320000    -1.7643900000
   31      H       0.0695840000    -7.8223180000    -0.0140940000
   32      C       0.0000000000     0.0000000000     0.0000000000
   33      S       0.2050930000     0.7661960000     1.5805300000
   34      C       0.6289390000     2.3481140000     0.9049110000
   35      C       0.2581370000     0.9640280000    -0.9854000000
   36      C       0.5997450000     2.2393090000    -0.4935280000
   37      H       0.1971690000     0.7364040000    -2.0599340000
   38      H       0.8276780000     3.0902430000    -1.1525930000
   39      H       0.8567960000     3.1988080000     1.5560250000
 ----------------------------------------------------------------
 Nuclear Repulsion Energy =        2495.89641468 hartrees
 There are       97 alpha and       97 beta electrons
 Requested basis set is cc-pVTZ
 There are 344 shells and 982 basis functions

 Total QAlloc Memory Limit 110000 MB
 Mega-Array Size       188 MB
 MEM_STATIC part       192 MB
 Discretize the solute cavity surface with Lebedev spheres
	Using 110 Lebedev grid points for each H atom
	Using 194 Lebedev grid points for other atoms
	Atomic van der Waals radii will be scaled by 1.20
 Remove points where switching function is < 1.0e-08
 Keep 2591 surface tesserae and discard 3967 interior tesserae
 Molecular Surface Area = 368.843 Angst**2
 Requested basis set is rimp2-cc-pVTZ
 There are 750 shells and 2588 basis functions
 A cutoff of  1.0D-10 yielded  31678 shell pairs
 There are    244214 function pairs (    317558 Cartesian)
 Smallest overlap matrix eigenvalue = 9.40E-06

 Q-Chem warning in module stvman/mkSTV.C, line 323:

 Overlap eigenvalue is smaller than square root of threshold
 Use THRESH >= 12 to get rid of this warning


 Scale SEOQF with 1.000000e-02/1.000000e-02/1.000000e-01

 Standard Electronic Orientation quadrupole field applied
 Nucleus-field energy     =     0.0000000163 hartrees
 Guess from superposition of atomic densities
 Warning:  Energy on first SCF cycle will be non-variational
 SAD guess density has 194.000000 electrons

 -----------------------------------------------------------------------
  General SCF calculation program by
  Eric Jon Sundstrom, Paul Horn, Yuezhi Mao, Dmitri Zuev, Alec White,
  David Stuck, Shaama M.S., Shane Yost, Joonho Lee, David Small,
  Daniel Levine, Susi Lehtola, Hugh Burton, Evgeny Epifanovsky,
  Bang C. Huynh
 -----------------------------------------------------------------------
 Hartree-Fock
 using 64 threads for integral computing
 -------------------------------------------------------
 OpenMP Integral computing Module                
 Release: version 1.0, May 2013, Q-Chem Inc. Pittsburgh 
 -------------------------------------------------------
 A restricted SCF calculation will be
 performed using DIIS
 SCF converges when DIIS error is below 1.0e-06
 ---------------------------------------
  Cycle       Energy         DIIS error
 ---------------------------------------
    1   -1581.2756544354      1.87e-02  
    2   -1570.1133662691      2.10e-03  
    3   -1570.4397062922      1.64e-03  
    4   -1570.6724619173      2.56e-04  
    5   -1570.6844165970      7.51e-05  
    6   -1570.6854509273      2.78e-05  
    7   -1570.6856825788      1.42e-05  
    8   -1570.6857561845      5.93e-06  
    9   -1570.6857676940      2.29e-06  
   10   -1570.6857696684      7.35e-07  Convergence criterion met
 ---------------------------------------
 SCF time:   CPU 5696.95s  wall 221.00s 

************** Final PCM Free Energy Summary **************
 G_electrostatic  =      -0.02484379 hartree =     -15.58971272 kcal/mol
 G_cavitation     =       0.00000000 hartree =       0.00000000 kcal/mol
 G_dispersion     =       0.00000000 hartree =       0.00000000 kcal/mol
 G_repulsion      =       0.00000000 hartree =       0.00000000 kcal/mol
 --------------------------------------------------
 Non-electrostatic Free Energy =       0.00000000 hartree =       0.00000000 kcal/mol
 Total                         =      -0.02484379 hartree =     -15.58971272 kcal/mol
 --------------------------------------------------
 SCF Energy (H0 + V/2)                       =   -1570.68576967 
 Solute Internal Energy (H0)                 =   -1570.66092588 
 Total Free Energy (H0 + V/2 + non-elec)     =   -1570.68576967 hartree
                                             = -985620.19643186 kcal/mol
***********************************************************

 SCF   energy in the final basis set =    -1570.6857696684
 Total energy in the final basis set =    -1570.6857696684


 --------------------------------------------------------------
  Generalized many-body perturbation theory program
  by Joonho Lee, Fazle Rob, Xintian Feng, Evgeny Epifanovsky

 No regularization used 
 (reg. param. = 0.0000e+00)
  (P|Q)^-1/2 Time:  CPU 137.90 s  wall 2.58 s

 In RI-MP2 calculation: 
 # of frozen core orbitals: 31

 Components of the RIMP2 correlation energy:
        aaaa    correlation energy =        -0.6162264576 a.u.
        abab    correlation energy =        -3.3924312848 a.u.
        bbbb    correlation energy =        -0.6162264576 a.u.
        non-Brillouin singles      =        -0.0000000000 a.u.
        total same-spin energy     =        -1.2324529152 a.u.
        total opposite-spin energy =        -3.3924312848 a.u.

 Total  RIMP2   correlation energy =        -4.6248841999 a.u.
        RIMP2         total energy =     -1575.3106538684 a.u.

 RI-MP2 Energy Time:  CPU 1785.06 s  wall 29.59 s
 
 --------------------------------------------------------------
 
                    Orbital Energies (a.u.)
 --------------------------------------------------------------
 
 Alpha MOs
 -- Occupied --
-91.9922 -20.5587 -20.5565 -20.5562 -20.5556 -15.6313 -15.6311 -11.4004
-11.3968 -11.3931 -11.3905 -11.3150 -11.3076 -11.3032 -11.3014 -11.2996
-11.2992 -11.2889 -11.2873 -11.2859 -11.2826 -11.2810 -11.2778 -11.2648
-11.2646 -11.2554 -11.2497  -8.9914  -6.6722  -6.6717  -6.6711  -1.4250
 -1.4242  -1.4042  -1.4033  -1.2677  -1.2654  -1.2181  -1.1742  -1.1444
 -1.1181  -1.0632  -1.0504  -0.9933  -0.9892  -0.9826  -0.9594  -0.9489
 -0.8974  -0.8800  -0.8774  -0.8616  -0.7953  -0.7775  -0.7732  -0.7591
 -0.7375  -0.7187  -0.7054  -0.6954  -0.6805  -0.6725  -0.6666  -0.6624
 -0.6572  -0.6427  -0.6377  -0.6342  -0.6303  -0.6126  -0.5856  -0.5846
 -0.5779  -0.5732  -0.5661  -0.5642  -0.5612  -0.5553  -0.5526  -0.5487
 -0.5354  -0.5269  -0.5199  -0.5152  -0.4833  -0.4709  -0.4661  -0.4606
 -0.4596  -0.4534  -0.4284  -0.4182  -0.4090  -0.3542  -0.3519  -0.3338
 -0.3225
 -- Virtual --
 -0.0199   0.0641   0.0741   0.0916   0.1137   0.1552   0.1577   0.1587
  0.1651   0.1675   0.1773   0.1834   0.1866   0.1922   0.1975   0.2066
  0.2113   0.2247   0.2274   0.2299   0.2322   0.2379   0.2592   0.2612
  0.2637   0.2962   0.3071   0.3133   0.3152   0.3197   0.3217   0.3338
  0.3412   0.3438   0.3517   0.3566   0.3583   0.3625   0.3699   0.3735
  0.3768   0.3809   0.3913   0.3964   0.3994   0.4004   0.4072   0.4096
  0.4119   0.4220   0.4306   0.4359   0.4392   0.4401   0.4503   0.4531
  0.4554   0.4625   0.4632   0.4668   0.4712   0.4828   0.4855   0.4944
  0.4984   0.5014   0.5070   0.5091   0.5162   0.5249   0.5261   0.5299
  0.5345   0.5387   0.5405   0.5454   0.5483   0.5569   0.5607   0.5640
  0.5708   0.5715   0.5802   0.5813   0.5915   0.5944   0.5962   0.5983
  0.6012   0.6055   0.6113   0.6188   0.6205   0.6235   0.6254   0.6312
  0.6333   0.6346   0.6369   0.6411   0.6422   0.6472   0.6493   0.6680
  0.6708   0.6737   0.6858   0.6943   0.7033   0.7071   0.7123   0.7134
  0.7235   0.7279   0.7346   0.7394   0.7512   0.7560   0.7578   0.7629
  0.7659   0.7694   0.7728   0.7828   0.7928   0.7964   0.8038   0.8118
  0.8233   0.8301   0.8318   0.8383   0.8426   0.8468   0.8493   0.8524
  0.8618   0.8638   0.8668   0.8725   0.8790   0.8906   0.8933   0.9001
  0.9070   0.9121   0.9223   0.9241   0.9319   0.9343   0.9377   0.9447
  0.9489   0.9540   0.9624   0.9652   0.9684   0.9778   0.9825   0.9892
  0.9930   0.9958   1.0013   1.0038   1.0099   1.0124   1.0201   1.0254
  1.0302   1.0343   1.0417   1.0535   1.0601   1.0673   1.0699   1.0749
  1.0773   1.0810   1.0819   1.0860   1.0892   1.0992   1.1026   1.1101
  1.1167   1.1251   1.1341   1.1371   1.1454   1.1473   1.1524   1.1550
  1.1593   1.1626   1.1752   1.1782   1.1829   1.1864   1.1884   1.1945
  1.2023   1.2047   1.2124   1.2193   1.2237   1.2317   1.2343   1.2388
  1.2437   1.2455   1.2538   1.2583   1.2650   1.2758   1.2885   1.2973
  1.3033   1.3254   1.3281   1.3334   1.3408   1.3433   1.3505   1.3560
  1.3698   1.3744   1.3763   1.3796   1.3882   1.3900   1.4044   1.4184
  1.4226   1.4255   1.4332   1.4410   1.4449   1.4503   1.4611   1.4664
  1.4757   1.4842   1.4869   1.4923   1.4978   1.5046   1.5125   1.5177
  1.5249   1.5320   1.5336   1.5412   1.5525   1.5556   1.5606   1.5642
  1.5687   1.5741   1.5825   1.5899   1.6019   1.6050   1.6230   1.6295
  1.6366   1.6399   1.6497   1.6602   1.6618   1.6731   1.6808   1.6872
  1.6942   1.7016   1.7087   1.7212   1.7310   1.7326   1.7436   1.7455
  1.7509   1.7586   1.7667   1.7786   1.7857   1.7957   1.8063   1.8069
  1.8158   1.8267   1.8372   1.8384   1.8522   1.8543   1.8620   1.8645
  1.8699   1.8867   1.8885   1.9099   1.9136   1.9166   1.9305   1.9454
  1.9566   1.9643   1.9717   1.9784   1.9923   1.9974   2.0163   2.0218
  2.0429   2.0549   2.0605   2.0709   2.0946   2.1083   2.1190   2.1253
  2.1426   2.1513   2.1636   2.1642   2.1836   2.2014   2.2135   2.2204
  2.2315   2.2342   2.2564   2.2739   2.2818   2.2890   2.2938   2.2962
  2.2977   2.3195   2.3258   2.3390   2.3543   2.3598   2.3726   2.3961
  2.4000   2.4202   2.4278   2.4414   2.4508   2.4549   2.4572   2.4643
  2.4705   2.4847   2.4913   2.4984   2.5105   2.5125   2.5267   2.5322
  2.5414   2.5612   2.5757   2.5828   2.5853   2.5881   2.6055   2.6069
  2.6127   2.6173   2.6244   2.6434   2.6535   2.6547   2.6645   2.6666
  2.6785   2.6859   2.6935   2.6995   2.7069   2.7136   2.7152   2.7257
  2.7298   2.7434   2.7472   2.7525   2.7626   2.7644   2.7707   2.7881
  2.7941   2.8182   2.8285   2.8296   2.8353   2.8428   2.8506   2.8544
  2.8620   2.8686   2.8737   2.8821   2.8834   2.8915   2.8952   2.9064
  2.9152   2.9254   2.9272   2.9352   2.9497   2.9537   2.9624   2.9650
  2.9727   2.9765   2.9835   2.9898   3.0017   3.0037   3.0139   3.0191
  3.0286   3.0329   3.0355   3.0434   3.0484   3.0577   3.0674   3.0725
  3.0812   3.0897   3.0925   3.1008   3.1093   3.1125   3.1186   3.1228
  3.1289   3.1380   3.1435   3.1508   3.1545   3.1680   3.1726   3.1776
  3.1896   3.1949   3.2003   3.2060   3.2116   3.2137   3.2163   3.2209
  3.2270   3.2295   3.2317   3.2452   3.2483   3.2521   3.2606   3.2645
  3.2675   3.2728   3.2769   3.2839   3.2880   3.2891   3.2948   3.2968
  3.2979   3.3063   3.3142   3.3206   3.3243   3.3277   3.3344   3.3396
  3.3419   3.3435   3.3492   3.3557   3.3573   3.3656   3.3688   3.3713
  3.3776   3.3819   3.3862   3.3891   3.3942   3.4004   3.4044   3.4221
  3.4261   3.4282   3.4306   3.4393   3.4418   3.4471   3.4481   3.4538
  3.4618   3.4644   3.4691   3.4753   3.4790   3.4871   3.4883   3.4938
  3.4970   3.5021   3.5059   3.5074   3.5117   3.5218   3.5240   3.5279
  3.5334   3.5381   3.5450   3.5521   3.5548   3.5659   3.5697   3.5818
  3.5842   3.5928   3.5974   3.6049   3.6079   3.6189   3.6236   3.6305
  3.6330   3.6349   3.6392   3.6416   3.6536   3.6584   3.6620   3.6754
  3.6831   3.6883   3.6990   3.7018   3.7085   3.7101   3.7143   3.7221
  3.7322   3.7346   3.7412   3.7416   3.7488   3.7538   3.7583   3.7648
  3.7695   3.7801   3.7828   3.7907   3.7914   3.7977   3.7999   3.8012
  3.8050   3.8213   3.8241   3.8292   3.8401   3.8448   3.8528   3.8591
  3.8634   3.8676   3.8776   3.8805   3.8864   3.8965   3.9063   3.9163
  3.9216   3.9360   3.9372   3.9459   3.9517   3.9542   3.9631   3.9728
  3.9798   3.9937   3.9991   4.0057   4.0087   4.0217   4.0326   4.0444
  4.0543   4.0606   4.0659   4.0727   4.0793   4.0837   4.0984   4.1070
  4.1109   4.1258   4.1336   4.1372   4.1451   4.1493   4.1557   4.1753
  4.1845   4.1871   4.1906   4.1991   4.1996   4.2156   4.2185   4.2345
  4.2476   4.2491   4.2547   4.2679   4.2706   4.2784   4.2866   4.2888
  4.2920   4.2960   4.2993   4.3008   4.3088   4.3255   4.3304   4.3337
  4.3466   4.3514   4.3626   4.3646   4.3669   4.3677   4.3755   4.3783
  4.3873   4.3947   4.4015   4.4065   4.4108   4.4206   4.4245   4.4337
  4.4504   4.4620   4.4648   4.4776   4.4935   4.4992   4.5146   4.5162
  4.5235   4.5291   4.5371   4.5422   4.5478   4.5546   4.5594   4.5694
  4.5756   4.5797   4.5821   4.5937   4.6022   4.6140   4.6286   4.6333
  4.6404   4.6530   4.6573   4.6666   4.6700   4.6721   4.6898   4.6943
  4.7179   4.7265   4.7291   4.7418   4.7489   4.7693   4.7795   4.7858
  4.8149   4.8193   4.8285   4.8408   4.8493   4.8617   4.8648   4.8767
  4.8812   4.9088   4.9107   4.9301   4.9342   4.9545   4.9670   4.9791
  4.9874   5.0024   5.0210   5.0340   5.0414   5.0461   5.0496   5.0564
  5.0938   5.0970   5.1049   5.1116   5.1244   5.1335   5.1389   5.1448
  5.1648   5.1719   5.1815   5.1930   5.2063   5.2295   5.2354   5.2561
  5.2608   5.2760   5.2837   5.2919   5.3201   5.3258   5.3293   5.3353
  5.3482   5.3897   5.3952   5.4019   5.4176   5.4280   5.4306   5.4655
  5.4858   5.5046   5.5075   5.5085   5.5127   5.5248   5.5443   5.5550
  5.5578   5.5601   5.5709   5.5739   5.5775   5.5904   5.6019   5.6063
  5.6161   5.6352   5.6515   5.6520   5.6540   5.6762   5.6767   5.6877
  5.6960   5.7029   5.7171   5.7368   5.7486   5.7579   5.7640   5.7680
  5.7708   5.7781   5.8108   5.8186   5.8349   5.8613   5.8779   5.9154
  5.9425   5.9520   5.9911   6.0059   6.0216   6.0231   6.0286   6.0460
  6.0822   6.0986   6.1002   6.1132   6.1160   6.1612   6.1906   6.2073
  6.2173   6.2180   6.2206   6.2508   6.2646   6.2675   6.2993   6.3399
  6.3504   6.3931   6.4276   6.4439   6.4641   6.5230   6.5618   6.5686
  6.5856   6.5979   6.6435   6.6474   6.6584   6.6822   6.7019   6.8286
  6.8312   6.8779   6.8858   6.8934   6.9111   6.9233   6.9284   7.0768
  7.0975   7.1378   7.1825   7.1880   7.2269   7.3322   7.3403   7.3441
  7.3526   7.4659   7.5442   7.5570   7.5724   7.5752   7.5866   7.6329
  7.6660   7.6801   7.7211   8.3280   9.8957  10.2679  11.1230  11.2594
 11.6410  11.7182  11.9572  12.3614  12.4414  12.6771  12.8475  12.9770
 13.2414  13.5666  13.8042  13.9316  13.9905  14.1193  14.2311  14.3420
 14.4068  14.7254  15.3249  15.7105  15.9675
 --------------------------------------------------------------
 
          Ground-State Mulliken Net Atomic Charges

     Atom                 Charge (a.u.)
  ----------------------------------------
      1 C                    -0.129641
      2 C                    -0.107327
      3 C                    -0.044205
      4 C                    -0.000672
      5 H                     0.188816
      6 C                    -0.007940
      7 C                     0.071614
      8 C                     0.013112
      9 C                     0.006975
     10 C                    -0.148166
     11 C                     0.080796
     12 H                     0.180517
     13 C                     0.361308
     14 C                     0.369816
     15 N                    -0.101770
     16 C                     0.359111
     17 C                     0.360959
     18 N                    -0.095903
     19 O                    -0.464800
     20 O                    -0.476158
     21 O                    -0.479778
     22 O                    -0.456380
     23 C                    -0.200966
     24 H                     0.141051
     25 H                     0.112404
     26 H                     0.112546
     27 C                    -0.196210
     28 H                     0.133718
     29 H                     0.113682
     30 H                     0.112684
     31 H                     0.214712
     32 C                    -0.069135
     33 S                     0.031287
     34 C                    -0.208392
     35 C                    -0.168595
     36 C                    -0.198139
     37 H                     0.186918
     38 H                     0.190517
     39 H                     0.211633
  ----------------------------------------
  Sum of atomic charges =     0.000000

 -----------------------------------------------------------------
                    Cartesian Multipole Moments
 -----------------------------------------------------------------
    Charge (ESU x 10^10)
                 0.0000
    Dipole Moment (Debye)
         X       0.6784      Y       0.8205      Z      -0.9913
       Tot       1.4547
    Quadrupole Moments (Debye-Ang)
        XX    -183.0807     XY       1.7761     YY    -164.5082
        XZ       3.6493     YZ       0.8517     ZZ    -158.1091
    Octopole Moments (Debye-Ang^2)
       XXX     -93.1815    XXY     546.3845    XYY      -9.1362
       YYY    1581.4081    XXZ     -12.6918    XYZ     -12.0155
       YYZ      -7.7921    XZZ     -25.4633    YZZ     481.5119
       ZZZ     -45.7041
    Hexadecapole Moments (Debye-Ang^3)
      XXXX   -6036.6917   XXXY     -78.4660   XXYY   -4188.3931
      XYYY    -822.8193   YYYY  -17055.8424   XXXZ     523.9462
      XXYZ     -57.4833   XYYZ     266.5079   YYYZ     104.1515
      XXZZ   -1076.0968   XYZZ    -118.1580   YYZZ   -2738.7760
      XZZZ     476.4929   YZZZ      15.5276   ZZZZ    -631.2959
 -----------------------------------------------------------------
 Total job time:  260.58s(wall), 7649.17s(cpu) 
 Sun Sep 24 15:32:12 2023

        *************************************************************
        *                                                           *
        *  Thank you very much for using Q-Chem.  Have a nice day.  *
        *                                                           *
        *************************************************************


0 sent ACK to 0 
now end server 0 ... 
cleanup process ... done
remove work dirs ./qchem3107970.0 -- ./qchem3107970.0
rm -rf ./qchem3107970.0
rm -rf ./qchem3107970
