You are running Q-Chem version: 5.4.0

#
# job setting
#
local host:  exp-6-03
current dir: /expanse/lustre/projects/csd626/rramji/aromodel/PNDIT/Rotation_Test
input file:  Dimethyl_Naphthalene_Dicarboximide_Phi_50_Theta_150_Thiophene.qcin
output file: 
nprocs     : 1
nthreads   : 64
#
# qchem installation setting
#
QC:          /cm/shared/apps/spack/cpu/opt/spack/linux-centos8-zen2/gcc-10.2.0/qchem-5.4-akfmr7b3t57bfs6qan3padb2wnb2i7cl
QCAUX:       /cm/shared/apps/spack/cpu/opt/spack/linux-centos8-zen2/gcc-10.2.0/qchem-5.4-akfmr7b3t57bfs6qan3padb2wnb2i7cl/qcaux
QCPROG:      /cm/shared/apps/spack/cpu/opt/spack/linux-centos8-zen2/gcc-10.2.0/qchem-5.4-akfmr7b3t57bfs6qan3padb2wnb2i7cl/exe/qcprog.exe
QCPROG_S:    /cm/shared/apps/spack/cpu/opt/spack/linux-centos8-zen2/gcc-10.2.0/qchem-5.4-akfmr7b3t57bfs6qan3padb2wnb2i7cl/exe/qcprog.exe_s
PARALLEL:    -DPARALLEL
QCMPI:       mpich
#
# qchem directory setting
#
qcrun:       qchem2515105
QCSCRATCH:   .
QCLOCALSCR:  
QCTMPDIR:    .
QCFILEPREF:  ./qchem2515105
QCSAVEDIR:   
workdirs:    ./qchem2515105
workdir0:    ./qchem2515105
partmpdirs =  
#
# parallel setting
#
QCRSH:           ssh
QCMPI:           mpich
QCMPIRUN:        /cm/shared/apps/spack/cpu/opt/spack/linux-centos8-zen2/gcc-10.2.0/qchem-5.4-akfmr7b3t57bfs6qan3padb2wnb2i7cl/bin/mpi/mpirun_qchem
QCMACHINEFILE:   ./qchem2515105/hostfile
exp-6-03

#
# env setting
#
exported envs:   QC QCAUX QCSCRATCH QCRUNNAME QCFILEPREF QCPROG QCPROG_S GUIFILE

Running Job 1 of 1 Dimethyl_Naphthalene_Dicarboximide_Phi_50_Theta_150_Thiophene.qcin
qchem Dimethyl_Naphthalene_Dicarboximide_Phi_50_Theta_150_Thiophene.qcin_2515105.0 ./qchem2515105/ 1
/cm/shared/apps/spack/cpu/opt/spack/linux-centos8-zen2/gcc-10.2.0/qchem-5.4-akfmr7b3t57bfs6qan3padb2wnb2i7cl/bin/mpi/mpirun_qchem -machinefile ./qchem2515105/hostfile -np 1 /cm/shared/apps/spack/cpu/opt/spack/linux-centos8-zen2/gcc-10.2.0/qchem-5.4-akfmr7b3t57bfs6qan3padb2wnb2i7cl/exe/qcprog.exe Dimethyl_Naphthalene_Dicarboximide_Phi_50_Theta_150_Thiophene.qcin_2515105.0 ./qchem2515105/

Process 0 of 1 is on exp-6-03 - thread support 0
initial socket setup ...start
initial socket setup ...done 
now start server 0 ... 
                  Welcome to Q-Chem
     A Quantum Leap Into The Future Of Chemistry


 Q-Chem 5.4, Q-Chem, Inc., Pleasanton, CA (2021)

 License issued to: University of California, San Diego (site)

 E. Epifanovsky,  A. T. B. Gilbert,  Xintian Feng,  Joonho Lee,  Yuezhi Mao,  
 N. Mardirossian,  P. Pokhilko,  A. White,  M. Wormit,  M. P. Coons,  
 A. L. Dempwolff,  Zhengting Gan,  D. Hait,  P. R. Horn,  L. D. Jacobson,  
 I. Kaliman,  J. Kussmann,  A. W. Lange,  Ka Un Lao,  D. S. Levine,  Jie Liu,  
 S. C. McKenzie,  A. F. Morrison,  K. Nanda,  F. Plasser,  D. R. Rehn,  
 M. L. Vidal,  Zhi-Qiang You,  Ying Zhu,  B. Alam,  B. Albrecht,  
 A. Aldossary,  E. Alguire,  J. H. Andersen,  D. Barton,  K. Begam,  A. Behn,  
 Y. A. Bernard,  E. J. Berquist,  H. Burton,  A. Carreras,  K. Carter-Fenk,  
 R. Chakraborty,  A. D. Chien,  K. D. Closser,  V. Cofer-Shabica,  
 S. Dasgupta,  Jia Deng,  M. de Wergifosse,  M. Diedenhofen,  Hainam Do,  
 S. Ehlert,  Po-Tung Fang,  S. Fatehi,  Qingguo Feng,  J. Gayvert,  
 Qinghui Ge,  G. Gidofalvi,  M. Goldey,  J. Gomes,  C. Gonzalez-Espinoza,  
 S. Gulania,  A. Gunina,  M. W. D. Hanson-Heine,  P. H. P. Harbach,  
 A. W. Hauser,  M. F. Herbst,  M. Hernandez Vera,  M. Hodecker,  
 Z. C. Holden,  S. Houck,  Xunkun Huang,  Kerwin Hui,  B. C. Huynh,  
 M. Ivanov,  Hyunjun Ji,  Hanjie Jiang,  B. Kaduk,  S. Kaehler,  
 K. Khistyaev,  Jaehoon Kim,  P. Klunzinger,  Z. Koczor-Benda,  
 Joong Hoon Koh,  D. Kosenkov,  L. Koulias,  T. Kowalczyk,  C. M. Krauter,  
 K. Kue,  A. Kunitsa,  T. Kus,  A. Landau,  K. V. Lawler,  D. Lefrancois,  
 S. Lehtola,  Rain Li,  Yi-Pei Li,  Jiashu Liang,  M. Liebenthal,  
 Hung-Hsuan Lin,  You-Sheng Lin,  Fenglai Liu,  Kuan-Yu Liu,  
 M. Loipersberger,  A. Luenser,  A. Manjanath,  P. Manohar,  E. Mansoor,  
 S. F. Manzer,  Shan-Ping Mao,  A. V. Marenich,  T. Markovich,  S. Mason,  
 S. A. Maurer,  P. F. McLaughlin,  M. F. S. J. Menger,  J.-M. Mewes,  
 S. A. Mewes,  P. Morgante,  J. W. Mullinax,  T. S. Nguyen-Beck,  
 K. J. Oosterbaan,  G. Paran,  Alexander C. Paul,  Suranjan K. Paul,  
 F. Pavosevic,  Zheng Pei,  S. Prager,  E. I. Proynov,  E. Ramos,  B. Rana,  
 A. E. Rask,  A. Rettig,  R. M. Richard,  F. Rob,  E. Rossomme,  T. Scheele,  
 M. Scheurer,  M. Schneider,  N. Sergueev,  S. M. Sharada,  W. Skomorowski,  
 D. W. Small,  C. J. Stein,  Yu-Chuan Su,  E. J. Sundstrom,  Zhen Tao,  
 J. Thirman,  T. Tsuchimochi,  N. M. Tubman,  S. P. Veccham,  O. Vydrov,  
 J. Wenzel,  J. Witte,  A. Yamada,  Kun Yao,  S. Yeganeh,  S. R. Yost,  
 A. Zech,  Igor Ying Zhang,  Xing Zhang,  Yu Zhang,  D. Zuev,  
 A. Aspuru-Guzik,  A. T. Bell,  N. A. Besley,  K. B. Bravaya,  B. R. Brooks,  
 D. Casanova,  Jeng-Da Chai,  S. Coriani,  C. J. Cramer,  
 A. E. DePrince, III,  R. A. DiStasio Jr.,  A. Dreuw,  B. D. Dunietz,  
 T. R. Furlani,  W. A. Goddard III,  S. Grimme,  S. Hammes-Schiffer,  
 T. Head-Gordon,  W. J. Hehre,  Chao-Ping Hsu,  T.-C. Jagau,  Yousung Jung,  
 A. Klamt,  Jing Kong,  D. S. Lambrecht,  WanZhen Liang,  N. J. Mayhall,  
 C. W. McCurdy,  J. B. Neaton,  C. Ochsenfeld,  J. A. Parkhill,  R. Peverati,  
 V. A. Rassolov,  Yihan Shao,  L. V. Slipchenko,  T. Stauch,  R. P. Steele,  
 J. E. Subotnik,  A. J. W. Thom,  A. Tkatchenko,  D. G. Truhlar,  
 T. Van Voorhis,  T. A. Wesolowski,  K. B. Whaley,  H. L. Woodcock III,  
 P. M. Zimmerman,  S. Faraji,  P. M. W. Gill,  M. Head-Gordon,  
 J. M. Herbert,  A. I. Krylov

 Contributors to earlier versions of Q-Chem not listed above: 
 R. D. Adamson,  B. Austin,  R. Baer,  J. Baker,  G. J. O. Beran,  
 K. Brandhorst,  S. T. Brown,  E. F. C. Byrd,  A. K. Chakraborty,  
 G. K. L. Chan,  Chun-Min Chang,  Yunqing Chen,  C.-L. Cheng,  
 Siu Hung Chien,  D. M. Chipman,  D. L. Crittenden,  H. Dachsel,  
 R. J. Doerksen,  A. D. Dutoi,  R. G. Edgar,  J. Fosso-Tande,  
 L. Fusti-Molnar,  D. Ghosh,  A. Ghysels,  A. Golubeva-Zadorozhnaya,  
 J. Gonthier,  M. S. Gordon,  S. R. Gwaltney,  G. Hawkins,  J. E. Herr,  
 A. Heyden,  S. Hirata,  E. G. Hohenstein,  G. Kedziora,  F. J. Keil,  
 C. Kelley,  Jihan Kim,  R. A. King,  R. Z. Khaliullin,  P. P. Korambath,  
 W. Kurlancheek,  A. Laurent,  A. M. Lee,  M. S. Lee,  S. V. Levchenko,  
 Ching Yeh Lin,  D. Liotard,  E. Livshits,  R. C. Lochan,  I. Lotan,  
 L. A. Martinez-Martinez,  P. E. Maslen,  N. Nair,  D. P. O'Neill,  
 D. Neuhauser,  E. Neuscamman,  C. M. Oana,  R. Olivares-Amaya,  R. Olson,  
 T. M. Perrine,  B. Peters,  P. A. Pieniazek,  A. Prociuk,  Y. M. Rhee,  
 J. Ritchie,  M. A. Rohrdanz,  E. Rosta,  N. J. Russ,  H. F. Schaefer III,  
 M. W. Schmidt,  N. E. Schultz,  S. Sharma,  N. Shenvi,  C. D. Sherrill,  
 A. C. Simmonett,  A. Sodt,  T. Stein,  D. Stuck,  K. S. Thanthiriwatte,  
 V. Vanovschi,  L. Vogt,  Tao Wang,  A. Warshel,  M. A. Watson,  
 C. F. Williams,  Q. Wu,  X. Xu,  Jun Yang,  W. Zhang,  Yan Zhao

 Please cite Q-Chem as follows:
 Y. Shao et al., Mol. Phys. 113, 184-215 (2015)
 DOI: 10.1080/00268976.2014.952696

 Q-Chem 5.4.0 for Intel X86 EM64T Linux

 Parts of Q-Chem use Armadillo 9.800.1 (Horizon Scraper).
 http://arma.sourceforge.net/

 Q-Chem begins on Wed Sep 20 09:13:56 2023  

 Host: 
0

     Scratch files written to ./qchem2515105//
 May1621 |scratch|qcdevops|jenkins|workspace|build_RNUM    
 Parallel job on  1  processors
 Processing $rem in /cm/shared/apps/spack/cpu/opt/spack/linux-centos8-zen2/gcc-10.2.0/qchem-5.4-akfmr7b3t57bfs6qan3padb2wnb2i7cl/config/preferences:
 Processing $rem in /home/rramji/.qchemrc:
 Symmetry turned off for PCM/SM12/SMD calculation
 Core orbitals will be frozen

 Checking the input file for inconsistencies... 	...done.

 Q-Chem warning in module forms1/BasisType.C, line 2236:

 You are not using the predefined 5D/6D in this basis set.


--------------------------------------------------------------
User input:
--------------------------------------------------------------
$molecule
0 1
C	0.129743	-6.741404	0.221766
C	0.782726	-6.155638	1.352515
C	-0.411926	-5.791452	-0.717339
C	0.921816	-4.803786	1.593885
H	1.221908	-6.821518	2.112819
C	-0.266682	-4.378638	-0.464360
C	0.398255	-3.838032	0.688053
C	-0.789694	-3.413062	-1.369108
C	0.542349	-2.426473	0.939002
C	-0.652589	-2.059348	-1.130409
C	-0.000000	-1.478216	-0.000000
H	-1.092453	-1.394783	-1.891446
C	-1.131595	-6.187987	-1.967519
C	-1.504912	-3.798164	-2.608118
N	-1.625174	-5.170003	-2.819813
C	1.639129	-4.424987	2.836188
C	1.263477	-2.036627	2.189558
N	1.756898	-3.049156	3.042237
O	-1.324787	-7.353131	-2.307845
O	-1.967354	-2.986854	-3.407213
O	2.095892	-5.248946	3.625890
O	1.468685	-0.878829	2.547850
C	-2.330564	-5.563799	-4.043674
H	-2.352178	-6.664085	-4.083407
H	-1.807263	-5.147101	-4.925490
H	-3.356568	-5.148785	-4.031877
C	2.452080	-2.587487	4.247206
H	2.774302	-3.483329	4.803187
H	1.773301	-1.964972	4.860536
H	3.321351	-1.962932	3.966607
H	0.037043	-7.822318	0.060567
C	0.000000	0.000000	0.000000
S	0.607475	0.509994	1.580530
C	1.862020	1.562717	0.904911
C	0.764397	0.641624	-0.985400
C	1.775697	1.490335	-0.493528
H	0.583895	0.490135	-2.059934
H	2.450484	2.056643	-1.152593
H	2.536607	2.128872	1.556025
$end

$rem
JOBTYPE		SP
EXCHANGE	HF
CORRELATION	pRIMP2
BASIS		cc-pvtz
METHOD		rimp2
AUX_BASIS	rimp2-cc-pvtz
SOLVENT_METHOD	PCM
PURECART	11111
SYMMETRY	false
MEM_TOTAL	110000
SCF_CONVERGENCE = 6
THRESH=10
GUI = 2
$end



$solvent
dielectric 4.90
$end
--------------------------------------------------------------
 ----------------------------------------------------------------
             Standard Nuclear Orientation (Angstroms)
    I     Atom           X                Y                Z
 ----------------------------------------------------------------
    1      C       0.1297430000    -6.7414040000     0.2217660000
    2      C       0.7827260000    -6.1556380000     1.3525150000
    3      C      -0.4119260000    -5.7914520000    -0.7173390000
    4      C       0.9218160000    -4.8037860000     1.5938850000
    5      H       1.2219080000    -6.8215180000     2.1128190000
    6      C      -0.2666820000    -4.3786380000    -0.4643600000
    7      C       0.3982550000    -3.8380320000     0.6880530000
    8      C      -0.7896940000    -3.4130620000    -1.3691080000
    9      C       0.5423490000    -2.4264730000     0.9390020000
   10      C      -0.6525890000    -2.0593480000    -1.1304090000
   11      C       0.0000000000    -1.4782160000     0.0000000000
   12      H      -1.0924530000    -1.3947830000    -1.8914460000
   13      C      -1.1315950000    -6.1879870000    -1.9675190000
   14      C      -1.5049120000    -3.7981640000    -2.6081180000
   15      N      -1.6251740000    -5.1700030000    -2.8198130000
   16      C       1.6391290000    -4.4249870000     2.8361880000
   17      C       1.2634770000    -2.0366270000     2.1895580000
   18      N       1.7568980000    -3.0491560000     3.0422370000
   19      O      -1.3247870000    -7.3531310000    -2.3078450000
   20      O      -1.9673540000    -2.9868540000    -3.4072130000
   21      O       2.0958920000    -5.2489460000     3.6258900000
   22      O       1.4686850000    -0.8788290000     2.5478500000
   23      C      -2.3305640000    -5.5637990000    -4.0436740000
   24      H      -2.3521780000    -6.6640850000    -4.0834070000
   25      H      -1.8072630000    -5.1471010000    -4.9254900000
   26      H      -3.3565680000    -5.1487850000    -4.0318770000
   27      C       2.4520800000    -2.5874870000     4.2472060000
   28      H       2.7743020000    -3.4833290000     4.8031870000
   29      H       1.7733010000    -1.9649720000     4.8605360000
   30      H       3.3213510000    -1.9629320000     3.9666070000
   31      H       0.0370430000    -7.8223180000     0.0605670000
   32      C       0.0000000000     0.0000000000     0.0000000000
   33      S       0.6074750000     0.5099940000     1.5805300000
   34      C       1.8620200000     1.5627170000     0.9049110000
   35      C       0.7643970000     0.6416240000    -0.9854000000
   36      C       1.7756970000     1.4903350000    -0.4935280000
   37      H       0.5838950000     0.4901350000    -2.0599340000
   38      H       2.4504840000     2.0566430000    -1.1525930000
   39      H       2.5366070000     2.1288720000     1.5560250000
 ----------------------------------------------------------------
 Nuclear Repulsion Energy =        2549.93769610 hartrees
 There are       97 alpha and       97 beta electrons
 Requested basis set is cc-pVTZ
 There are 344 shells and 982 basis functions

 Total QAlloc Memory Limit 110000 MB
 Mega-Array Size       188 MB
 MEM_STATIC part       192 MB
 Discretize the solute cavity surface with Lebedev spheres
	Using 110 Lebedev grid points for each H atom
	Using 194 Lebedev grid points for other atoms
	Atomic van der Waals radii will be scaled by 1.20
 Remove points where switching function is < 1.0e-08
 Keep 2481 surface tesserae and discard 4077 interior tesserae
 Molecular Surface Area = 356.798 Angst**2
 Requested basis set is rimp2-cc-pVTZ
 There are 750 shells and 2588 basis functions
 A cutoff of  1.0D-10 yielded  32465 shell pairs
 There are    249705 function pairs (    324413 Cartesian)
 Smallest overlap matrix eigenvalue = 9.42E-06

 Q-Chem warning in module stvman/mkSTV.C, line 323:

 Overlap eigenvalue is smaller than square root of threshold
 Use THRESH >= 12 to get rid of this warning


 Scale SEOQF with 1.000000e-01/1.000000e-02/1.000000e-01

 Standard Electronic Orientation quadrupole field applied
 Nucleus-field energy     =    -0.0000000719 hartrees
 Guess from superposition of atomic densities
 Warning:  Energy on first SCF cycle will be non-variational
 SAD guess density has 194.000000 electrons

 -----------------------------------------------------------------------
  General SCF calculation program by
  Eric Jon Sundstrom, Paul Horn, Yuezhi Mao, Dmitri Zuev, Alec White,
  David Stuck, Shaama M.S., Shane Yost, Joonho Lee, David Small,
  Daniel Levine, Susi Lehtola, Hugh Burton, Evgeny Epifanovsky,
  Bang C. Huynh
 -----------------------------------------------------------------------
 Hartree-Fock
 using 64 threads for integral computing
 -------------------------------------------------------
 OpenMP Integral computing Module                
 Release: version 1.0, May 2013, Q-Chem Inc. Pittsburgh 
 -------------------------------------------------------
 A restricted SCF calculation will be
 performed using DIIS
 SCF converges when DIIS error is below 1.0e-06
 ---------------------------------------
  Cycle       Energy         DIIS error
 ---------------------------------------
    1   -1581.7155312026      1.89e-02  
    2   -1569.9781151319      2.04e-03  
    3   -1570.3087938859      1.53e-03  
    4   -1570.5155923194      2.67e-04  
    5   -1570.5280338059      8.20e-05  
    6   -1570.5292189976      2.89e-05  
    7   -1570.5294793854      1.48e-05  
    8   -1570.5295634312      6.18e-06  
    9   -1570.5295780973      2.58e-06  
   10   -1570.5295813915      1.14e-06  
   11   -1570.5295822630      6.01e-07  Convergence criterion met
 ---------------------------------------
 SCF time:   CPU 6541.38s  wall 239.00s 

************** Final PCM Free Energy Summary **************
 G_electrostatic  =      -0.02213490 hartree =     -13.88986156 kcal/mol
 G_cavitation     =       0.00000000 hartree =       0.00000000 kcal/mol
 G_dispersion     =       0.00000000 hartree =       0.00000000 kcal/mol
 G_repulsion      =       0.00000000 hartree =       0.00000000 kcal/mol
 --------------------------------------------------
 Non-electrostatic Free Energy =       0.00000000 hartree =       0.00000000 kcal/mol
 Total                         =      -0.02213490 hartree =     -13.88986156 kcal/mol
 --------------------------------------------------
 SCF Energy (H0 + V/2)                       =   -1570.52958226 
 Solute Internal Energy (H0)                 =   -1570.50744736 
 Total Free Energy (H0 + V/2 + non-elec)     =   -1570.52958226 hartree
                                             = -985522.18735568 kcal/mol
***********************************************************

 SCF   energy in the final basis set =    -1570.5295822630
 Total energy in the final basis set =    -1570.5295822630


 --------------------------------------------------------------
  Generalized many-body perturbation theory program
  by Joonho Lee, Fazle Rob, Xintian Feng, Evgeny Epifanovsky

 No regularization used 
 (reg. param. = 0.0000e+00)
  (P|Q)^-1/2 Time:  CPU 104.71 s  wall 2.15 s

 In RI-MP2 calculation: 
 # of frozen core orbitals: 31

 Components of the RIMP2 correlation energy:
        aaaa    correlation energy =        -0.6263436665 a.u.
        abab    correlation energy =        -3.4152460132 a.u.
        bbbb    correlation energy =        -0.6263436665 a.u.
        non-Brillouin singles      =        -0.0000000000 a.u.
        total same-spin energy     =        -1.2526873330 a.u.
        total opposite-spin energy =        -3.4152460132 a.u.

 Total  RIMP2   correlation energy =        -4.6679333462 a.u.
        RIMP2         total energy =     -1575.1975156092 a.u.

 RI-MP2 Energy Time:  CPU 1859.16 s  wall 30.70 s
 
 --------------------------------------------------------------
 
                    Orbital Energies (a.u.)
 --------------------------------------------------------------
 
 Alpha MOs
 -- Occupied --
-92.0174 -20.5852 -20.5596 -20.5587 -20.5571 -15.6437 -15.6316 -11.4217
-11.4005 -11.3966 -11.3911 -11.3237 -11.3033 -11.3024 -11.2934 -11.2924
-11.2904 -11.2885 -11.2821 -11.2798 -11.2733 -11.2713 -11.2674 -11.2647
-11.2590 -11.2377 -11.2327  -9.0140  -6.6949  -6.6928  -6.6913  -1.4701
 -1.4254  -1.4155  -1.4048  -1.2829  -1.2671  -1.2176  -1.1744  -1.1404
 -1.1168  -1.0595  -1.0504  -0.9988  -0.9958  -0.9820  -0.9623  -0.9468
 -0.9034  -0.8828  -0.8748  -0.8654  -0.7946  -0.7858  -0.7807  -0.7547
 -0.7473  -0.7297  -0.7042  -0.6934  -0.6891  -0.6799  -0.6738  -0.6644
 -0.6596  -0.6467  -0.6406  -0.6396  -0.6291  -0.6162  -0.5979  -0.5912
 -0.5837  -0.5773  -0.5668  -0.5652  -0.5602  -0.5598  -0.5532  -0.5509
 -0.5390  -0.5334  -0.5194  -0.5171  -0.4832  -0.4750  -0.4693  -0.4632
 -0.4566  -0.4420  -0.4221  -0.4184  -0.4104  -0.3693  -0.3393  -0.2987
 -0.2596
 -- Virtual --
 -0.0175   0.0603   0.0722   0.1003   0.1163   0.1503   0.1576   0.1648
  0.1664   0.1714   0.1757   0.1836   0.1864   0.1877   0.2047   0.2072
  0.2195   0.2252   0.2283   0.2333   0.2389   0.2549   0.2560   0.2584
  0.2650   0.2850   0.3060   0.3082   0.3157   0.3234   0.3276   0.3372
  0.3389   0.3485   0.3523   0.3549   0.3575   0.3607   0.3678   0.3745
  0.3783   0.3866   0.3914   0.3953   0.4015   0.4021   0.4072   0.4095
  0.4136   0.4218   0.4251   0.4357   0.4399   0.4433   0.4508   0.4535
  0.4556   0.4602   0.4659   0.4734   0.4789   0.4829   0.4863   0.4983
  0.5031   0.5038   0.5114   0.5143   0.5188   0.5203   0.5321   0.5338
  0.5352   0.5384   0.5444   0.5489   0.5518   0.5570   0.5599   0.5657
  0.5749   0.5750   0.5801   0.5841   0.5920   0.5953   0.5973   0.6038
  0.6104   0.6122   0.6131   0.6181   0.6201   0.6227   0.6274   0.6282
  0.6334   0.6360   0.6424   0.6430   0.6471   0.6524   0.6530   0.6791
  0.6844   0.6860   0.6901   0.6947   0.7028   0.7101   0.7105   0.7190
  0.7320   0.7357   0.7402   0.7497   0.7576   0.7616   0.7629   0.7670
  0.7720   0.7774   0.7843   0.7968   0.8042   0.8060   0.8139   0.8202
  0.8267   0.8297   0.8365   0.8385   0.8429   0.8509   0.8550   0.8627
  0.8652   0.8696   0.8750   0.8849   0.8868   0.8929   0.9032   0.9074
  0.9120   0.9175   0.9223   0.9281   0.9291   0.9334   0.9391   0.9428
  0.9515   0.9600   0.9622   0.9691   0.9760   0.9766   0.9799   0.9889
  0.9914   0.9960   0.9999   1.0080   1.0142   1.0178   1.0244   1.0339
  1.0371   1.0438   1.0516   1.0568   1.0614   1.0695   1.0729   1.0792
  1.0831   1.0890   1.0940   1.0976   1.1002   1.1081   1.1133   1.1180
  1.1293   1.1304   1.1325   1.1423   1.1446   1.1490   1.1535   1.1574
  1.1620   1.1689   1.1737   1.1824   1.1887   1.1940   1.1990   1.2019
  1.2040   1.2089   1.2095   1.2169   1.2249   1.2327   1.2380   1.2381
  1.2526   1.2580   1.2646   1.2743   1.2824   1.2896   1.2964   1.3033
  1.3176   1.3248   1.3297   1.3406   1.3422   1.3483   1.3578   1.3716
  1.3759   1.3771   1.3795   1.3864   1.3953   1.4053   1.4144   1.4185
  1.4226   1.4241   1.4375   1.4457   1.4483   1.4550   1.4640   1.4685
  1.4801   1.4827   1.4893   1.4983   1.5003   1.5046   1.5121   1.5232
  1.5306   1.5351   1.5457   1.5490   1.5548   1.5572   1.5604   1.5673
  1.5704   1.5734   1.5864   1.5868   1.5901   1.6028   1.6180   1.6298
  1.6392   1.6461   1.6605   1.6672   1.6788   1.6836   1.6875   1.7033
  1.7058   1.7083   1.7261   1.7304   1.7316   1.7368   1.7431   1.7473
  1.7618   1.7651   1.7682   1.7718   1.7916   1.7960   1.8003   1.8122
  1.8193   1.8258   1.8340   1.8397   1.8507   1.8589   1.8605   1.8674
  1.8721   1.8787   1.8888   1.9042   1.9181   1.9274   1.9379   1.9486
  1.9589   1.9720   1.9747   1.9843   1.9965   2.0006   2.0324   2.0364
  2.0400   2.0595   2.0718   2.0931   2.0992   2.1122   2.1309   2.1431
  2.1490   2.1576   2.1667   2.1980   2.2072   2.2210   2.2258   2.2402
  2.2481   2.2576   2.2628   2.2718   2.2841   2.2879   2.3011   2.3055
  2.3097   2.3282   2.3511   2.3565   2.3644   2.3729   2.3982   2.4015
  2.4239   2.4378   2.4456   2.4480   2.4511   2.4573   2.4756   2.4820
  2.4942   2.4982   2.5026   2.5175   2.5246   2.5345   2.5425   2.5565
  2.5693   2.5743   2.5867   2.5939   2.5991   2.6093   2.6128   2.6165
  2.6261   2.6316   2.6419   2.6464   2.6620   2.6631   2.6667   2.6732
  2.6873   2.6980   2.7024   2.7106   2.7169   2.7201   2.7313   2.7393
  2.7470   2.7479   2.7530   2.7706   2.7751   2.7850   2.7966   2.8068
  2.8194   2.8271   2.8330   2.8437   2.8530   2.8552   2.8617   2.8638
  2.8729   2.8811   2.8843   2.8965   2.9036   2.9043   2.9056   2.9138
  2.9267   2.9320   2.9439   2.9508   2.9567   2.9638   2.9718   2.9760
  2.9801   2.9931   2.9968   3.0059   3.0089   3.0140   3.0183   3.0223
  3.0316   3.0370   3.0483   3.0512   3.0610   3.0716   3.0816   3.0891
  3.0896   3.0949   3.1020   3.1112   3.1155   3.1178   3.1215   3.1295
  3.1340   3.1450   3.1582   3.1671   3.1703   3.1762   3.1807   3.1875
  3.1969   3.1996   3.2063   3.2079   3.2151   3.2182   3.2232   3.2297
  3.2374   3.2409   3.2440   3.2523   3.2555   3.2577   3.2589   3.2672
  3.2708   3.2779   3.2806   3.2837   3.2912   3.2966   3.3036   3.3055
  3.3136   3.3171   3.3180   3.3245   3.3303   3.3343   3.3362   3.3416
  3.3450   3.3487   3.3571   3.3586   3.3636   3.3699   3.3763   3.3782
  3.3840   3.3863   3.3930   3.4019   3.4066   3.4105   3.4159   3.4202
  3.4267   3.4323   3.4411   3.4437   3.4492   3.4508   3.4537   3.4555
  3.4591   3.4726   3.4761   3.4819   3.4843   3.4878   3.4913   3.4948
  3.4975   3.5030   3.5061   3.5136   3.5202   3.5274   3.5308   3.5370
  3.5428   3.5438   3.5533   3.5553   3.5618   3.5767   3.5841   3.5864
  3.5963   3.5979   3.6055   3.6087   3.6243   3.6261   3.6276   3.6368
  3.6401   3.6482   3.6514   3.6621   3.6671   3.6751   3.6787   3.6812
  3.6930   3.7036   3.7060   3.7106   3.7144   3.7152   3.7251   3.7300
  3.7369   3.7441   3.7473   3.7512   3.7564   3.7625   3.7689   3.7707
  3.7811   3.7857   3.7892   3.7912   3.7996   3.8025   3.8085   3.8120
  3.8155   3.8287   3.8384   3.8399   3.8433   3.8540   3.8604   3.8625
  3.8692   3.8808   3.8851   3.8926   3.8999   3.9103   3.9294   3.9344
  3.9363   3.9451   3.9525   3.9555   3.9593   3.9658   3.9797   3.9836
  3.9997   4.0018   4.0088   4.0125   4.0184   4.0367   4.0487   4.0547
  4.0587   4.0673   4.0766   4.0828   4.0881   4.0904   4.1029   4.1106
  4.1256   4.1308   4.1414   4.1453   4.1586   4.1607   4.1721   4.1778
  4.1837   4.1894   4.1984   4.2056   4.2099   4.2272   4.2366   4.2398
  4.2526   4.2545   4.2660   4.2756   4.2774   4.2815   4.2863   4.2922
  4.2986   4.3019   4.3062   4.3217   4.3233   4.3289   4.3375   4.3442
  4.3497   4.3532   4.3591   4.3626   4.3664   4.3734   4.3798   4.3837
  4.3887   4.3973   4.4065   4.4110   4.4209   4.4299   4.4329   4.4408
  4.4598   4.4709   4.4793   4.4856   4.4954   4.5122   4.5190   4.5228
  4.5319   4.5386   4.5440   4.5467   4.5480   4.5551   4.5626   4.5702
  4.5782   4.5811   4.5871   4.5939   4.6148   4.6187   4.6323   4.6463
  4.6572   4.6638   4.6648   4.6720   4.6772   4.6890   4.6895   4.6992
  4.7229   4.7270   4.7411   4.7537   4.7756   4.7800   4.7898   4.8087
  4.8135   4.8243   4.8316   4.8398   4.8561   4.8663   4.8733   4.8808
  4.8920   4.9030   4.9059   4.9329   4.9377   4.9545   4.9721   4.9865
  4.9942   5.0165   5.0308   5.0322   5.0437   5.0523   5.0534   5.0674
  5.0896   5.1001   5.1105   5.1155   5.1275   5.1345   5.1426   5.1546
  5.1718   5.1758   5.1877   5.1960   5.2034   5.2311   5.2370   5.2515
  5.2588   5.2739   5.2924   5.3119   5.3180   5.3225   5.3295   5.3395
  5.3588   5.3915   5.4008   5.4027   5.4137   5.4323   5.4358   5.4624
  5.4960   5.4999   5.5032   5.5041   5.5089   5.5395   5.5463   5.5492
  5.5566   5.5583   5.5595   5.5647   5.5767   5.5885   5.6010   5.6167
  5.6201   5.6330   5.6483   5.6526   5.6555   5.6712   5.6763   5.6879
  5.6963   5.7041   5.7214   5.7314   5.7448   5.7580   5.7627   5.7677
  5.7729   5.7873   5.8097   5.8243   5.8668   5.8838   5.9069   5.9331
  5.9481   5.9687   5.9996   6.0170   6.0209   6.0249   6.0375   6.0670
  6.0774   6.0955   6.1095   6.1180   6.1404   6.1791   6.1880   6.2077
  6.2153   6.2189   6.2375   6.2609   6.2768   6.2938   6.3191   6.3467
  6.3615   6.3754   6.4146   6.4480   6.4634   6.5217   6.5476   6.5620
  6.5777   6.5900   6.6331   6.6391   6.6523   6.6543   6.7050   6.8281
  6.8315   6.8807   6.8852   6.8937   6.9107   6.9220   7.0217   7.0784
  7.1298   7.1487   7.1794   7.2128   7.3189   7.3316   7.3388   7.3440
  7.3553   7.4609   7.5460   7.5566   7.5726   7.5785   7.6335   7.6490
  7.6750   7.7128   7.8403   8.3601   9.9597  10.3220  11.0830  11.2594
 11.7050  11.7852  12.1065  12.3761  12.5115  12.7747  12.8669  12.9668
 13.2859  13.5516  13.8207  13.9459  14.0857  14.1326  14.2477  14.3725
 14.4160  14.7577  15.3263  15.7310  15.9950
 --------------------------------------------------------------
 
          Ground-State Mulliken Net Atomic Charges

     Atom                 Charge (a.u.)
  ----------------------------------------
      1 C                    -0.161398
      2 C                    -0.104235
      3 C                    -0.021607
      4 C                    -0.013435
      5 H                     0.187699
      6 C                    -0.011730
      7 C                     0.093274
      8 C                     0.000284
      9 C                    -0.155060
     10 C                    -0.150498
     11 C                     0.123926
     12 H                     0.181437
     13 C                     0.361015
     14 C                     0.364118
     15 N                    -0.101760
     16 C                     0.362798
     17 C                     0.443218
     18 N                    -0.085008
     19 O                    -0.462199
     20 O                    -0.473625
     21 O                    -0.476722
     22 O                    -0.379719
     23 C                    -0.201087
     24 H                     0.141100
     25 H                     0.112520
     26 H                     0.112711
     27 C                    -0.198772
     28 H                     0.137948
     29 H                     0.116119
     30 H                     0.115659
     31 H                     0.211123
     32 C                    -0.138410
     33 S                     0.201100
     34 C                    -0.267315
     35 C                    -0.189996
     36 C                    -0.247725
     37 H                     0.184822
     38 H                     0.185732
     39 H                     0.203699
  ----------------------------------------
  Sum of atomic charges =     0.000000

 -----------------------------------------------------------------
                    Cartesian Multipole Moments
 -----------------------------------------------------------------
    Charge (ESU x 10^10)
                -0.0000
    Dipole Moment (Debye)
         X       2.4315      Y      -0.5319      Z       2.1879
       Tot       3.3139
    Quadrupole Moments (Debye-Ang)
        XX    -162.3260     XY       3.1425     YY    -177.6974
        XZ      -3.2199     YZ      -1.4107     ZZ    -166.2209
    Octopole Moments (Debye-Ang^2)
       XXX    -121.4256    XXY     513.3344    XYY     -32.6421
       YYY    1635.6581    XXZ     -20.1394    XYZ      33.0648
       YYZ     -22.2907    XZZ     -29.1331    YZZ     540.4831
       ZZZ     -76.3420
    Hexadecapole Moments (Debye-Ang^3)
      XXXX   -1914.8289   XXXY    -234.8968   XXYY   -3037.3833
      XYYY    -498.3398   YYYY  -17173.3154   XXXZ   -1273.9181
      XXYZ     -35.6661   XYYZ    -657.7529   YYYZ    -704.4992
      XXZZ   -1130.9774   XYZZ      33.4760   YYZZ   -3809.7705
      XZZZ   -1320.9360   YZZZ    -132.5761   ZZZZ   -4819.4052
 -----------------------------------------------------------------
 Total job time:  274.20s(wall), 8531.52s(cpu) 
 Wed Sep 20 09:18:30 2023

        *************************************************************
        *                                                           *
        *  Thank you very much for using Q-Chem.  Have a nice day.  *
        *                                                           *
        *************************************************************


0 sent ACK to 0 
now end server 0 ... 
cleanup process ... done
remove work dirs ./qchem2515105.0 -- ./qchem2515105.0
rm -rf ./qchem2515105.0
rm -rf ./qchem2515105
