You are running Q-Chem version: 5.4.0

#
# job setting
#
local host:  exp-4-16
current dir: /expanse/lustre/projects/csd626/rramji/aromodel/PNDIT/Rotation_Test
input file:  Dimethyl_Naphthalene_Dicarboximide_Phi_30_Theta_90_Thiophene.qcin
output file: 
nprocs     : 1
nthreads   : 64
#
# qchem installation setting
#
QC:          /cm/shared/apps/spack/cpu/opt/spack/linux-centos8-zen2/gcc-10.2.0/qchem-5.4-akfmr7b3t57bfs6qan3padb2wnb2i7cl
QCAUX:       /cm/shared/apps/spack/cpu/opt/spack/linux-centos8-zen2/gcc-10.2.0/qchem-5.4-akfmr7b3t57bfs6qan3padb2wnb2i7cl/qcaux
QCPROG:      /cm/shared/apps/spack/cpu/opt/spack/linux-centos8-zen2/gcc-10.2.0/qchem-5.4-akfmr7b3t57bfs6qan3padb2wnb2i7cl/exe/qcprog.exe
QCPROG_S:    /cm/shared/apps/spack/cpu/opt/spack/linux-centos8-zen2/gcc-10.2.0/qchem-5.4-akfmr7b3t57bfs6qan3padb2wnb2i7cl/exe/qcprog.exe_s
PARALLEL:    -DPARALLEL
QCMPI:       mpich
#
# qchem directory setting
#
qcrun:       qchem4139062
QCSCRATCH:   .
QCLOCALSCR:  
QCTMPDIR:    .
QCFILEPREF:  ./qchem4139062
QCSAVEDIR:   
workdirs:    ./qchem4139062
workdir0:    ./qchem4139062
partmpdirs =  
#
# parallel setting
#
QCRSH:           ssh
QCMPI:           mpich
QCMPIRUN:        /cm/shared/apps/spack/cpu/opt/spack/linux-centos8-zen2/gcc-10.2.0/qchem-5.4-akfmr7b3t57bfs6qan3padb2wnb2i7cl/bin/mpi/mpirun_qchem
QCMACHINEFILE:   ./qchem4139062/hostfile
exp-4-16

#
# env setting
#
exported envs:   QC QCAUX QCSCRATCH QCRUNNAME QCFILEPREF QCPROG QCPROG_S GUIFILE

Running Job 1 of 1 Dimethyl_Naphthalene_Dicarboximide_Phi_30_Theta_90_Thiophene.qcin
qchem Dimethyl_Naphthalene_Dicarboximide_Phi_30_Theta_90_Thiophene.qcin_4139062.0 ./qchem4139062/ 1
/cm/shared/apps/spack/cpu/opt/spack/linux-centos8-zen2/gcc-10.2.0/qchem-5.4-akfmr7b3t57bfs6qan3padb2wnb2i7cl/bin/mpi/mpirun_qchem -machinefile ./qchem4139062/hostfile -np 1 /cm/shared/apps/spack/cpu/opt/spack/linux-centos8-zen2/gcc-10.2.0/qchem-5.4-akfmr7b3t57bfs6qan3padb2wnb2i7cl/exe/qcprog.exe Dimethyl_Naphthalene_Dicarboximide_Phi_30_Theta_90_Thiophene.qcin_4139062.0 ./qchem4139062/

Process 0 of 1 is on exp-4-16 - thread support 0
initial socket setup ...start
initial socket setup ...done 
now start server 0 ... 
                  Welcome to Q-Chem
     A Quantum Leap Into The Future Of Chemistry


 Q-Chem 5.4, Q-Chem, Inc., Pleasanton, CA (2021)

 License issued to: University of California, San Diego (site)

 E. Epifanovsky,  A. T. B. Gilbert,  Xintian Feng,  Joonho Lee,  Yuezhi Mao,  
 N. Mardirossian,  P. Pokhilko,  A. White,  M. Wormit,  M. P. Coons,  
 A. L. Dempwolff,  Zhengting Gan,  D. Hait,  P. R. Horn,  L. D. Jacobson,  
 I. Kaliman,  J. Kussmann,  A. W. Lange,  Ka Un Lao,  D. S. Levine,  Jie Liu,  
 S. C. McKenzie,  A. F. Morrison,  K. Nanda,  F. Plasser,  D. R. Rehn,  
 M. L. Vidal,  Zhi-Qiang You,  Ying Zhu,  B. Alam,  B. Albrecht,  
 A. Aldossary,  E. Alguire,  J. H. Andersen,  D. Barton,  K. Begam,  A. Behn,  
 Y. A. Bernard,  E. J. Berquist,  H. Burton,  A. Carreras,  K. Carter-Fenk,  
 R. Chakraborty,  A. D. Chien,  K. D. Closser,  V. Cofer-Shabica,  
 S. Dasgupta,  Jia Deng,  M. de Wergifosse,  M. Diedenhofen,  Hainam Do,  
 S. Ehlert,  Po-Tung Fang,  S. Fatehi,  Qingguo Feng,  J. Gayvert,  
 Qinghui Ge,  G. Gidofalvi,  M. Goldey,  J. Gomes,  C. Gonzalez-Espinoza,  
 S. Gulania,  A. Gunina,  M. W. D. Hanson-Heine,  P. H. P. Harbach,  
 A. W. Hauser,  M. F. Herbst,  M. Hernandez Vera,  M. Hodecker,  
 Z. C. Holden,  S. Houck,  Xunkun Huang,  Kerwin Hui,  B. C. Huynh,  
 M. Ivanov,  Hyunjun Ji,  Hanjie Jiang,  B. Kaduk,  S. Kaehler,  
 K. Khistyaev,  Jaehoon Kim,  P. Klunzinger,  Z. Koczor-Benda,  
 Joong Hoon Koh,  D. Kosenkov,  L. Koulias,  T. Kowalczyk,  C. M. Krauter,  
 K. Kue,  A. Kunitsa,  T. Kus,  A. Landau,  K. V. Lawler,  D. Lefrancois,  
 S. Lehtola,  Rain Li,  Yi-Pei Li,  Jiashu Liang,  M. Liebenthal,  
 Hung-Hsuan Lin,  You-Sheng Lin,  Fenglai Liu,  Kuan-Yu Liu,  
 M. Loipersberger,  A. Luenser,  A. Manjanath,  P. Manohar,  E. Mansoor,  
 S. F. Manzer,  Shan-Ping Mao,  A. V. Marenich,  T. Markovich,  S. Mason,  
 S. A. Maurer,  P. F. McLaughlin,  M. F. S. J. Menger,  J.-M. Mewes,  
 S. A. Mewes,  P. Morgante,  J. W. Mullinax,  T. S. Nguyen-Beck,  
 K. J. Oosterbaan,  G. Paran,  Alexander C. Paul,  Suranjan K. Paul,  
 F. Pavosevic,  Zheng Pei,  S. Prager,  E. I. Proynov,  E. Ramos,  B. Rana,  
 A. E. Rask,  A. Rettig,  R. M. Richard,  F. Rob,  E. Rossomme,  T. Scheele,  
 M. Scheurer,  M. Schneider,  N. Sergueev,  S. M. Sharada,  W. Skomorowski,  
 D. W. Small,  C. J. Stein,  Yu-Chuan Su,  E. J. Sundstrom,  Zhen Tao,  
 J. Thirman,  T. Tsuchimochi,  N. M. Tubman,  S. P. Veccham,  O. Vydrov,  
 J. Wenzel,  J. Witte,  A. Yamada,  Kun Yao,  S. Yeganeh,  S. R. Yost,  
 A. Zech,  Igor Ying Zhang,  Xing Zhang,  Yu Zhang,  D. Zuev,  
 A. Aspuru-Guzik,  A. T. Bell,  N. A. Besley,  K. B. Bravaya,  B. R. Brooks,  
 D. Casanova,  Jeng-Da Chai,  S. Coriani,  C. J. Cramer,  
 A. E. DePrince, III,  R. A. DiStasio Jr.,  A. Dreuw,  B. D. Dunietz,  
 T. R. Furlani,  W. A. Goddard III,  S. Grimme,  S. Hammes-Schiffer,  
 T. Head-Gordon,  W. J. Hehre,  Chao-Ping Hsu,  T.-C. Jagau,  Yousung Jung,  
 A. Klamt,  Jing Kong,  D. S. Lambrecht,  WanZhen Liang,  N. J. Mayhall,  
 C. W. McCurdy,  J. B. Neaton,  C. Ochsenfeld,  J. A. Parkhill,  R. Peverati,  
 V. A. Rassolov,  Yihan Shao,  L. V. Slipchenko,  T. Stauch,  R. P. Steele,  
 J. E. Subotnik,  A. J. W. Thom,  A. Tkatchenko,  D. G. Truhlar,  
 T. Van Voorhis,  T. A. Wesolowski,  K. B. Whaley,  H. L. Woodcock III,  
 P. M. Zimmerman,  S. Faraji,  P. M. W. Gill,  M. Head-Gordon,  
 J. M. Herbert,  A. I. Krylov

 Contributors to earlier versions of Q-Chem not listed above: 
 R. D. Adamson,  B. Austin,  R. Baer,  J. Baker,  G. J. O. Beran,  
 K. Brandhorst,  S. T. Brown,  E. F. C. Byrd,  A. K. Chakraborty,  
 G. K. L. Chan,  Chun-Min Chang,  Yunqing Chen,  C.-L. Cheng,  
 Siu Hung Chien,  D. M. Chipman,  D. L. Crittenden,  H. Dachsel,  
 R. J. Doerksen,  A. D. Dutoi,  R. G. Edgar,  J. Fosso-Tande,  
 L. Fusti-Molnar,  D. Ghosh,  A. Ghysels,  A. Golubeva-Zadorozhnaya,  
 J. Gonthier,  M. S. Gordon,  S. R. Gwaltney,  G. Hawkins,  J. E. Herr,  
 A. Heyden,  S. Hirata,  E. G. Hohenstein,  G. Kedziora,  F. J. Keil,  
 C. Kelley,  Jihan Kim,  R. A. King,  R. Z. Khaliullin,  P. P. Korambath,  
 W. Kurlancheek,  A. Laurent,  A. M. Lee,  M. S. Lee,  S. V. Levchenko,  
 Ching Yeh Lin,  D. Liotard,  E. Livshits,  R. C. Lochan,  I. Lotan,  
 L. A. Martinez-Martinez,  P. E. Maslen,  N. Nair,  D. P. O'Neill,  
 D. Neuhauser,  E. Neuscamman,  C. M. Oana,  R. Olivares-Amaya,  R. Olson,  
 T. M. Perrine,  B. Peters,  P. A. Pieniazek,  A. Prociuk,  Y. M. Rhee,  
 J. Ritchie,  M. A. Rohrdanz,  E. Rosta,  N. J. Russ,  H. F. Schaefer III,  
 M. W. Schmidt,  N. E. Schultz,  S. Sharma,  N. Shenvi,  C. D. Sherrill,  
 A. C. Simmonett,  A. Sodt,  T. Stein,  D. Stuck,  K. S. Thanthiriwatte,  
 V. Vanovschi,  L. Vogt,  Tao Wang,  A. Warshel,  M. A. Watson,  
 C. F. Williams,  Q. Wu,  X. Xu,  Jun Yang,  W. Zhang,  Yan Zhao

 Please cite Q-Chem as follows:
 Y. Shao et al., Mol. Phys. 113, 184-215 (2015)
 DOI: 10.1080/00268976.2014.952696

 Q-Chem 5.4.0 for Intel X86 EM64T Linux

 Parts of Q-Chem use Armadillo 9.800.1 (Horizon Scraper).
 http://arma.sourceforge.net/

 Q-Chem begins on Wed Sep 20 08:43:04 2023  

 Host: 
0

     Scratch files written to ./qchem4139062//
 May1621 |scratch|qcdevops|jenkins|workspace|build_RNUM    
 Parallel job on  1  processors
 Processing $rem in /cm/shared/apps/spack/cpu/opt/spack/linux-centos8-zen2/gcc-10.2.0/qchem-5.4-akfmr7b3t57bfs6qan3padb2wnb2i7cl/config/preferences:
 Processing $rem in /home/rramji/.qchemrc:
 Symmetry turned off for PCM/SM12/SMD calculation
 Core orbitals will be frozen

 Checking the input file for inconsistencies... 	...done.

 Q-Chem warning in module forms1/BasisType.C, line 2236:

 You are not using the predefined 5D/6D in this basis set.


--------------------------------------------------------------
User input:
--------------------------------------------------------------
$molecule
0 1
C	0.256927	-6.741404	-0.001478
C	1.562675	-6.155638	-0.001603
C	-0.827197	-5.791452	-0.001931
C	1.841253	-4.803786	-0.001374
H	2.440709	-6.821518	-0.001794
C	-0.535488	-4.378638	-0.001227
C	0.794999	-3.838032	-0.000872
C	-1.580529	-3.413062	-0.000658
C	1.084374	-2.426473	-0.000186
C	-1.305258	-2.059348	-0.000046
C	0.000000	-1.478216	0.000000
H	-2.184267	-1.394783	0.000369
C	-2.269719	-6.187987	-0.003770
C	-3.011152	-3.798164	-0.000767
N	-3.254617	-5.170003	-0.002465
C	3.275775	-4.424987	-0.001433
C	2.527951	-2.036627	0.000576
N	3.513104	-3.049156	-0.000400
O	-2.661046	-7.353131	-0.006623
O	-3.934410	-2.986854	0.000172
O	4.188059	-5.248946	-0.002151
O	2.940845	-0.878829	0.002006
C	-4.667206	-5.563799	-0.003509
H	-4.712423	-6.664085	-0.004658
H	-5.169231	-5.147101	-0.897610
H	-5.169992	-5.148785	0.890935
C	4.904229	-2.587487	0.000039
H	5.546833	-3.483329	-0.001022
H	5.095998	-1.964972	0.894545
H	5.095858	-1.962932	-0.893071
H	0.070974	-7.822318	-0.001797
C	0.000000	0.000000	0.000000
S	0.396411	0.687007	1.580530
C	1.215245	2.105322	0.904911
C	0.498850	0.864369	-0.985400
C	1.158885	2.007781	-0.493528
H	0.381046	0.660280	-2.059934
H	1.599289	2.770727	-1.152593
H	1.655514	2.868056	1.556025
$end

$rem
JOBTYPE		SP
EXCHANGE	HF
CORRELATION	pRIMP2
BASIS		cc-pvtz
METHOD		rimp2
AUX_BASIS	rimp2-cc-pvtz
SOLVENT_METHOD	PCM
PURECART	11111
SYMMETRY	false
MEM_TOTAL	110000
SCF_CONVERGENCE = 6
THRESH=10
GUI = 2
$end



$solvent
dielectric 4.90
$end
--------------------------------------------------------------
 ----------------------------------------------------------------
             Standard Nuclear Orientation (Angstroms)
    I     Atom           X                Y                Z
 ----------------------------------------------------------------
    1      C       0.2569270000    -6.7414040000    -0.0014780000
    2      C       1.5626750000    -6.1556380000    -0.0016030000
    3      C      -0.8271970000    -5.7914520000    -0.0019310000
    4      C       1.8412530000    -4.8037860000    -0.0013740000
    5      H       2.4407090000    -6.8215180000    -0.0017940000
    6      C      -0.5354880000    -4.3786380000    -0.0012270000
    7      C       0.7949990000    -3.8380320000    -0.0008720000
    8      C      -1.5805290000    -3.4130620000    -0.0006580000
    9      C       1.0843740000    -2.4264730000    -0.0001860000
   10      C      -1.3052580000    -2.0593480000    -0.0000460000
   11      C       0.0000000000    -1.4782160000     0.0000000000
   12      H      -2.1842670000    -1.3947830000     0.0003690000
   13      C      -2.2697190000    -6.1879870000    -0.0037700000
   14      C      -3.0111520000    -3.7981640000    -0.0007670000
   15      N      -3.2546170000    -5.1700030000    -0.0024650000
   16      C       3.2757750000    -4.4249870000    -0.0014330000
   17      C       2.5279510000    -2.0366270000     0.0005760000
   18      N       3.5131040000    -3.0491560000    -0.0004000000
   19      O      -2.6610460000    -7.3531310000    -0.0066230000
   20      O      -3.9344100000    -2.9868540000     0.0001720000
   21      O       4.1880590000    -5.2489460000    -0.0021510000
   22      O       2.9408450000    -0.8788290000     0.0020060000
   23      C      -4.6672060000    -5.5637990000    -0.0035090000
   24      H      -4.7124230000    -6.6640850000    -0.0046580000
   25      H      -5.1692310000    -5.1471010000    -0.8976100000
   26      H      -5.1699920000    -5.1487850000     0.8909350000
   27      C       4.9042290000    -2.5874870000     0.0000390000
   28      H       5.5468330000    -3.4833290000    -0.0010220000
   29      H       5.0959980000    -1.9649720000     0.8945450000
   30      H       5.0958580000    -1.9629320000    -0.8930710000
   31      H       0.0709740000    -7.8223180000    -0.0017970000
   32      C       0.0000000000     0.0000000000     0.0000000000
   33      S       0.3964110000     0.6870070000     1.5805300000
   34      C       1.2152450000     2.1053220000     0.9049110000
   35      C       0.4988500000     0.8643690000    -0.9854000000
   36      C       1.1588850000     2.0077810000    -0.4935280000
   37      H       0.3810460000     0.6602800000    -2.0599340000
   38      H       1.5992890000     2.7707270000    -1.1525930000
   39      H       1.6555140000     2.8680560000     1.5560250000
 ----------------------------------------------------------------
 Nuclear Repulsion Energy =        2509.23965265 hartrees
 There are       97 alpha and       97 beta electrons
 Requested basis set is cc-pVTZ
 There are 344 shells and 982 basis functions

 Total QAlloc Memory Limit 110000 MB
 Mega-Array Size       188 MB
 MEM_STATIC part       192 MB
 Discretize the solute cavity surface with Lebedev spheres
	Using 110 Lebedev grid points for each H atom
	Using 194 Lebedev grid points for other atoms
	Atomic van der Waals radii will be scaled by 1.20
 Remove points where switching function is < 1.0e-08
 Keep 2512 surface tesserae and discard 4046 interior tesserae
 Molecular Surface Area = 366.987 Angst**2
 Requested basis set is rimp2-cc-pVTZ
 There are 750 shells and 2588 basis functions
 A cutoff of  1.0D-10 yielded  31974 shell pairs
 There are    246320 function pairs (    320273 Cartesian)
 Smallest overlap matrix eigenvalue = 9.41E-06

 Q-Chem warning in module stvman/mkSTV.C, line 323:

 Overlap eigenvalue is smaller than square root of threshold
 Use THRESH >= 12 to get rid of this warning


 Scale SEOQF with 1.000000e-02/1.000000e-02/1.000000e-01

 Standard Electronic Orientation quadrupole field applied
 Nucleus-field energy     =     0.0000000204 hartrees
 Guess from superposition of atomic densities
 Warning:  Energy on first SCF cycle will be non-variational
 SAD guess density has 194.000000 electrons

 -----------------------------------------------------------------------
  General SCF calculation program by
  Eric Jon Sundstrom, Paul Horn, Yuezhi Mao, Dmitri Zuev, Alec White,
  David Stuck, Shaama M.S., Shane Yost, Joonho Lee, David Small,
  Daniel Levine, Susi Lehtola, Hugh Burton, Evgeny Epifanovsky,
  Bang C. Huynh
 -----------------------------------------------------------------------
 Hartree-Fock
 using 64 threads for integral computing
 -------------------------------------------------------
 OpenMP Integral computing Module                
 Release: version 1.0, May 2013, Q-Chem Inc. Pittsburgh 
 -------------------------------------------------------
 A restricted SCF calculation will be
 performed using DIIS
 SCF converges when DIIS error is below 1.0e-06
 ---------------------------------------
  Cycle       Energy         DIIS error
 ---------------------------------------
    1   -1581.2923422593      1.87e-02  
    2   -1570.1017792270      2.09e-03  
    3   -1570.4271597725      1.64e-03  
    4   -1570.6594278873      2.57e-04  
    5   -1570.6714660151      7.52e-05  
    6   -1570.6725157359      2.80e-05  
    7   -1570.6727556556      1.42e-05  
    8   -1570.6728326439      6.08e-06  
    9   -1570.6728451078      2.34e-06  
   10   -1570.6728473963      8.29e-07  Convergence criterion met
 ---------------------------------------
 SCF time:   CPU 6067.17s  wall 223.00s 

************** Final PCM Free Energy Summary **************
 G_electrostatic  =      -0.02430270 hartree =     -15.25017268 kcal/mol
 G_cavitation     =       0.00000000 hartree =       0.00000000 kcal/mol
 G_dispersion     =       0.00000000 hartree =       0.00000000 kcal/mol
 G_repulsion      =       0.00000000 hartree =       0.00000000 kcal/mol
 --------------------------------------------------
 Non-electrostatic Free Energy =       0.00000000 hartree =       0.00000000 kcal/mol
 Total                         =      -0.02430270 hartree =     -15.25017268 kcal/mol
 --------------------------------------------------
 SCF Energy (H0 + V/2)                       =   -1570.67284740 
 Solute Internal Energy (H0)                 =   -1570.64854470 
 Total Free Energy (H0 + V/2 + non-elec)     =   -1570.67284740 hartree
                                             = -985612.08758374 kcal/mol
***********************************************************

 SCF   energy in the final basis set =    -1570.6728473963
 Total energy in the final basis set =    -1570.6728473963


 --------------------------------------------------------------
  Generalized many-body perturbation theory program
  by Joonho Lee, Fazle Rob, Xintian Feng, Evgeny Epifanovsky

 No regularization used 
 (reg. param. = 0.0000e+00)
  (P|Q)^-1/2 Time:  CPU 270.64 s  wall 4.37 s

 In RI-MP2 calculation: 
 # of frozen core orbitals: 31

 Components of the RIMP2 correlation energy:
        aaaa    correlation energy =        -0.6170799177 a.u.
        abab    correlation energy =        -3.3949421111 a.u.
        bbbb    correlation energy =        -0.6170799177 a.u.
        non-Brillouin singles      =        -0.0000000000 a.u.
        total same-spin energy     =        -1.2341598355 a.u.
        total opposite-spin energy =        -3.3949421111 a.u.

 Total  RIMP2   correlation energy =        -4.6291019466 a.u.
        RIMP2         total energy =     -1575.3019493429 a.u.

 RI-MP2 Energy Time:  CPU 2028.93 s  wall 33.21 s
 
 --------------------------------------------------------------
 
                    Orbital Energies (a.u.)
 --------------------------------------------------------------
 
 Alpha MOs
 -- Occupied --
-91.9894 -20.5582 -20.5555 -20.5549 -20.5546 -15.6307 -15.6300 -11.3998
-11.3947 -11.3922 -11.3897 -11.3131 -11.3051 -11.3024 -11.3002 -11.2982
-11.2981 -11.2862 -11.2860 -11.2842 -11.2808 -11.2802 -11.2747 -11.2644
-11.2643 -11.2593 -11.2485  -8.9888  -6.6696  -6.6690  -6.6685  -1.4244
 -1.4231  -1.4037  -1.4022  -1.2670  -1.2645  -1.2168  -1.1743  -1.1430
 -1.1167  -1.0616  -1.0491  -0.9926  -0.9882  -0.9826  -0.9588  -0.9482
 -0.8962  -0.8791  -0.8751  -0.8606  -0.7934  -0.7763  -0.7726  -0.7590
 -0.7361  -0.7181  -0.7049  -0.6946  -0.6794  -0.6714  -0.6658  -0.6617
 -0.6565  -0.6421  -0.6368  -0.6338  -0.6292  -0.6118  -0.5849  -0.5838
 -0.5766  -0.5732  -0.5659  -0.5637  -0.5603  -0.5548  -0.5523  -0.5482
 -0.5360  -0.5263  -0.5199  -0.5072  -0.4818  -0.4701  -0.4644  -0.4595
 -0.4564  -0.4507  -0.4274  -0.4177  -0.4083  -0.3551  -0.3460  -0.3308
 -0.3258
 -- Virtual --
 -0.0185   0.0655   0.0762   0.0808   0.1153   0.1551   0.1579   0.1597
  0.1654   0.1670   0.1777   0.1842   0.1845   0.1922   0.1972   0.2071
  0.2132   0.2242   0.2275   0.2303   0.2325   0.2382   0.2612   0.2617
  0.2636   0.2908   0.3068   0.3134   0.3165   0.3219   0.3227   0.3337
  0.3425   0.3431   0.3527   0.3549   0.3583   0.3631   0.3694   0.3715
  0.3762   0.3788   0.3896   0.3980   0.4013   0.4031   0.4042   0.4118
  0.4121   0.4213   0.4300   0.4345   0.4396   0.4412   0.4510   0.4530
  0.4555   0.4592   0.4652   0.4659   0.4721   0.4841   0.4889   0.4936
  0.5018   0.5039   0.5093   0.5121   0.5139   0.5238   0.5272   0.5309
  0.5338   0.5397   0.5425   0.5471   0.5507   0.5562   0.5617   0.5666
  0.5727   0.5736   0.5791   0.5799   0.5915   0.5939   0.5956   0.5993
  0.6053   0.6080   0.6109   0.6182   0.6221   0.6238   0.6243   0.6321
  0.6344   0.6357   0.6390   0.6417   0.6456   0.6459   0.6591   0.6674
  0.6763   0.6797   0.6824   0.6941   0.7035   0.7089   0.7102   0.7147
  0.7220   0.7302   0.7346   0.7365   0.7483   0.7566   0.7584   0.7657
  0.7707   0.7724   0.7801   0.7852   0.7929   0.7974   0.8051   0.8124
  0.8193   0.8224   0.8304   0.8361   0.8432   0.8439   0.8500   0.8591
  0.8656   0.8689   0.8729   0.8768   0.8828   0.8915   0.8946   0.8984
  0.9072   0.9193   0.9239   0.9270   0.9305   0.9345   0.9420   0.9444
  0.9535   0.9566   0.9583   0.9678   0.9721   0.9811   0.9873   0.9881
  0.9926   0.9972   1.0007   1.0029   1.0076   1.0176   1.0226   1.0289
  1.0335   1.0388   1.0430   1.0495   1.0609   1.0683   1.0709   1.0762
  1.0772   1.0815   1.0874   1.0886   1.0928   1.0990   1.1122   1.1148
  1.1215   1.1272   1.1347   1.1384   1.1411   1.1496   1.1546   1.1563
  1.1614   1.1690   1.1710   1.1766   1.1813   1.1854   1.1898   1.1988
  1.1994   1.2074   1.2134   1.2147   1.2249   1.2278   1.2355   1.2431
  1.2451   1.2480   1.2527   1.2538   1.2735   1.2771   1.2857   1.2989
  1.3077   1.3267   1.3302   1.3352   1.3396   1.3445   1.3493   1.3609
  1.3741   1.3784   1.3817   1.3837   1.3947   1.4008   1.4101   1.4138
  1.4232   1.4271   1.4350   1.4400   1.4472   1.4519   1.4614   1.4683
  1.4756   1.4827   1.4876   1.4925   1.4978   1.5065   1.5122   1.5210
  1.5280   1.5320   1.5349   1.5441   1.5546   1.5565   1.5582   1.5612
  1.5692   1.5742   1.5754   1.5872   1.5988   1.6099   1.6185   1.6331
  1.6374   1.6459   1.6526   1.6591   1.6660   1.6720   1.6810   1.6895
  1.6967   1.7063   1.7089   1.7147   1.7265   1.7359   1.7396   1.7455
  1.7527   1.7607   1.7675   1.7770   1.7890   1.7954   1.8061   1.8087
  1.8147   1.8239   1.8354   1.8409   1.8510   1.8545   1.8618   1.8678
  1.8731   1.8820   1.8955   1.9082   1.9165   1.9173   1.9398   1.9517
  1.9580   1.9643   1.9741   1.9836   1.9905   1.9998   2.0100   2.0273
  2.0497   2.0585   2.0618   2.0726   2.0973   2.1121   2.1181   2.1385
  2.1435   2.1461   2.1578   2.1722   2.1819   2.2063   2.2090   2.2170
  2.2273   2.2344   2.2564   2.2653   2.2706   2.2891   2.2951   2.2959
  2.3036   2.3198   2.3238   2.3378   2.3576   2.3602   2.3767   2.3870
  2.4103   2.4292   2.4352   2.4417   2.4519   2.4531   2.4567   2.4682
  2.4767   2.4808   2.4958   2.5012   2.5046   2.5222   2.5332   2.5360
  2.5412   2.5615   2.5798   2.5810   2.5876   2.5955   2.6062   2.6106
  2.6167   2.6180   2.6287   2.6456   2.6506   2.6586   2.6653   2.6703
  2.6801   2.6872   2.7031   2.7064   2.7117   2.7158   2.7197   2.7273
  2.7319   2.7461   2.7506   2.7562   2.7625   2.7672   2.7719   2.7946
  2.7996   2.8224   2.8243   2.8291   2.8393   2.8453   2.8489   2.8579
  2.8663   2.8733   2.8809   2.8842   2.8911   2.8940   2.8973   2.9114
  2.9194   2.9275   2.9301   2.9355   2.9453   2.9540   2.9592   2.9705
  2.9771   2.9778   2.9845   2.9907   3.0026   3.0097   3.0152   3.0167
  3.0232   3.0302   3.0344   3.0411   3.0449   3.0609   3.0669   3.0720
  3.0873   3.0915   3.0984   3.1015   3.1079   3.1126   3.1209   3.1231
  3.1242   3.1306   3.1462   3.1571   3.1611   3.1727   3.1756   3.1838
  3.1897   3.1959   3.2007   3.2060   3.2166   3.2197   3.2202   3.2222
  3.2269   3.2316   3.2414   3.2455   3.2501   3.2535   3.2622   3.2658
  3.2700   3.2715   3.2836   3.2847   3.2900   3.2909   3.2935   3.2967
  3.3042   3.3077   3.3149   3.3208   3.3262   3.3298   3.3379   3.3400
  3.3435   3.3465   3.3512   3.3553   3.3603   3.3643   3.3715   3.3765
  3.3783   3.3841   3.3887   3.3958   3.3972   3.4012   3.4082   3.4154
  3.4276   3.4312   3.4335   3.4404   3.4452   3.4457   3.4543   3.4584
  3.4601   3.4664   3.4688   3.4730   3.4841   3.4852   3.4870   3.4927
  3.4977   3.4999   3.5037   3.5062   3.5117   3.5223   3.5262   3.5309
  3.5362   3.5386   3.5520   3.5582   3.5680   3.5708   3.5793   3.5823
  3.5856   3.5907   3.5985   3.6061   3.6121   3.6225   3.6254   3.6343
  3.6364   3.6379   3.6415   3.6490   3.6532   3.6588   3.6658   3.6703
  3.6878   3.6918   3.6978   3.7081   3.7112   3.7122   3.7156   3.7274
  3.7306   3.7338   3.7393   3.7491   3.7540   3.7546   3.7577   3.7658
  3.7727   3.7792   3.7822   3.7890   3.7921   3.7977   3.8013   3.8013
  3.8092   3.8212   3.8286   3.8333   3.8419   3.8503   3.8540   3.8604
  3.8620   3.8732   3.8797   3.8877   3.8947   3.9007   3.9098   3.9129
  3.9251   3.9353   3.9400   3.9469   3.9493   3.9571   3.9616   3.9695
  3.9785   3.9871   4.0049   4.0075   4.0142   4.0259   4.0309   4.0360
  4.0545   4.0596   4.0685   4.0747   4.0834   4.0897   4.0984   4.1058
  4.1159   4.1261   4.1320   4.1380   4.1442   4.1546   4.1696   4.1745
  4.1835   4.1845   4.1878   4.1996   4.2033   4.2225   4.2263   4.2335
  4.2489   4.2590   4.2674   4.2689   4.2732   4.2783   4.2831   4.2898
  4.2949   4.2966   4.3000   4.3015   4.3104   4.3286   4.3316   4.3353
  4.3446   4.3497   4.3577   4.3658   4.3675   4.3708   4.3775   4.3793
  4.3872   4.3990   4.4029   4.4094   4.4155   4.4232   4.4275   4.4401
  4.4495   4.4572   4.4670   4.4763   4.4897   4.5005   4.5152   4.5173
  4.5243   4.5284   4.5370   4.5445   4.5489   4.5584   4.5623   4.5687
  4.5771   4.5797   4.5817   4.5929   4.6002   4.6136   4.6320   4.6335
  4.6423   4.6535   4.6560   4.6705   4.6738   4.6800   4.6898   4.6917
  4.7196   4.7288   4.7358   4.7430   4.7486   4.7683   4.7728   4.7863
  4.8069   4.8157   4.8235   4.8422   4.8474   4.8613   4.8710   4.8760
  4.8913   4.9083   4.9196   4.9246   4.9317   4.9523   4.9606   4.9837
  4.9926   5.0075   5.0265   5.0366   5.0425   5.0462   5.0528   5.0536
  5.0911   5.0988   5.1044   5.1144   5.1259   5.1340   5.1397   5.1429
  5.1631   5.1738   5.1792   5.1942   5.2163   5.2219   5.2348   5.2569
  5.2606   5.2787   5.2864   5.2879   5.3211   5.3280   5.3332   5.3400
  5.3494   5.3957   5.3984   5.4031   5.4162   5.4277   5.4328   5.4653
  5.4899   5.4986   5.5075   5.5090   5.5132   5.5332   5.5406   5.5465
  5.5561   5.5605   5.5610   5.5741   5.5779   5.5896   5.6050   5.6108
  5.6172   5.6358   5.6524   5.6544   5.6562   5.6767   5.6772   5.6873
  5.7004   5.7090   5.7162   5.7361   5.7537   5.7581   5.7652   5.7677
  5.7747   5.7834   5.8148   5.8229   5.8456   5.8591   5.8735   5.9111
  5.9371   5.9531   5.9809   5.9919   6.0213   6.0227   6.0305   6.0418
  6.0729   6.0970   6.1009   6.1128   6.1167   6.1552   6.1910   6.2093
  6.2177   6.2185   6.2212   6.2507   6.2642   6.2681   6.3001   6.3411
  6.3511   6.3829   6.4208   6.4454   6.4664   6.5240   6.5624   6.5703
  6.5852   6.6005   6.6365   6.6431   6.6487   6.6600   6.7029   6.8292
  6.8354   6.8798   6.8864   6.8954   6.9118   6.9270   6.9384   7.0773
  7.1017   7.1387   7.1847   7.1904   7.2277   7.3327   7.3414   7.3448
  7.3568   7.4668   7.5455   7.5582   7.5733   7.5780   7.5988   7.6336
  7.6701   7.6849   7.7234   8.3009   9.8966  10.2894  11.1184  11.2205
 11.6651  11.7410  12.0540  12.3668  12.4446  12.7017  12.8598  12.9285
 13.2483  13.5690  13.8092  13.9433  13.9924  14.0995  14.2113  14.3446
 14.4090  14.7286  15.3216  15.7096  15.9552
 --------------------------------------------------------------
 
          Ground-State Mulliken Net Atomic Charges

     Atom                 Charge (a.u.)
  ----------------------------------------
      1 C                    -0.131446
      2 C                    -0.108068
      3 C                    -0.043972
      4 C                    -0.000287
      5 H                     0.188488
      6 C                    -0.006745
      7 C                     0.067526
      8 C                     0.018803
      9 C                     0.009885
     10 C                    -0.154525
     11 C                     0.070890
     12 H                     0.179490
     13 C                     0.360960
     14 C                     0.366238
     15 N                    -0.101558
     16 C                     0.357566
     17 C                     0.363022
     18 N                    -0.094089
     19 O                    -0.465267
     20 O                    -0.476189
     21 O                    -0.480956
     22 O                    -0.454992
     23 C                    -0.201123
     24 H                     0.140915
     25 H                     0.112202
     26 H                     0.112425
     27 C                    -0.196912
     28 H                     0.133784
     29 H                     0.113005
     30 H                     0.112213
     31 H                     0.214257
     32 C                    -0.064392
     33 S                     0.029115
     34 C                    -0.193587
     35 C                    -0.178509
     36 C                    -0.186718
     37 H                     0.187070
     38 H                     0.189809
     39 H                     0.211675
  ----------------------------------------
  Sum of atomic charges =     0.000000

 -----------------------------------------------------------------
                    Cartesian Multipole Moments
 -----------------------------------------------------------------
    Charge (ESU x 10^10)
                 0.0000
    Dipole Moment (Debye)
         X       1.4291      Y       1.0737      Z      -0.9773
       Tot       2.0372
    Quadrupole Moments (Debye-Ang)
        XX    -181.8517     XY       4.2560     YY    -168.0925
        XZ       0.4883     YZ       0.6322     ZZ    -157.4473
    Octopole Moments (Debye-Ang^2)
       XXX    -126.0157    XXY     564.2112    XYY     -15.9113
       YYY    1595.8630    XXZ     -14.8581    XYZ       3.7036
       YYZ     -10.0843    XZZ     -33.9771    YZZ     482.9299
       ZZZ     -54.5860
    Hexadecapole Moments (Debye-Ang^3)
      XXXX   -6336.1629   XXXY     -99.8143   XXYY   -4223.0207
      XYYY    -868.3365   YYYY  -17071.5428   XXXZ     -22.8117
      XXYZ     -11.0276   XYYZ       1.0416   YYYZ     -35.7033
      XXZZ   -1075.8305   XYZZ    -139.3876   YYZZ   -2684.9119
      XZZZ     -21.6900   YZZZ     -40.6011   ZZZZ    -460.3341
 -----------------------------------------------------------------
 Total job time:  261.60s(wall), 8214.50s(cpu) 
 Wed Sep 20 08:47:26 2023

        *************************************************************
        *                                                           *
        *  Thank you very much for using Q-Chem.  Have a nice day.  *
        *                                                           *
        *************************************************************


0 sent ACK to 0 
now end server 0 ... 
cleanup process ... done
remove work dirs ./qchem4139062.0 -- ./qchem4139062.0
rm -rf ./qchem4139062.0
rm -rf ./qchem4139062
