You are running Q-Chem version: 5.4.0

#
# job setting
#
local host:  exp-2-39
current dir: /expanse/lustre/projects/csd626/rramji/aromodel/PNDIT/Rotation_Test
input file:  Dimethyl_Naphthalene_Dicarboximide_Phi_60_Theta_300_Thiophene.qcin
output file: 
nprocs     : 1
nthreads   : 64
#
# qchem installation setting
#
QC:          /cm/shared/apps/spack/cpu/opt/spack/linux-centos8-zen2/gcc-10.2.0/qchem-5.4-akfmr7b3t57bfs6qan3padb2wnb2i7cl
QCAUX:       /cm/shared/apps/spack/cpu/opt/spack/linux-centos8-zen2/gcc-10.2.0/qchem-5.4-akfmr7b3t57bfs6qan3padb2wnb2i7cl/qcaux
QCPROG:      /cm/shared/apps/spack/cpu/opt/spack/linux-centos8-zen2/gcc-10.2.0/qchem-5.4-akfmr7b3t57bfs6qan3padb2wnb2i7cl/exe/qcprog.exe
QCPROG_S:    /cm/shared/apps/spack/cpu/opt/spack/linux-centos8-zen2/gcc-10.2.0/qchem-5.4-akfmr7b3t57bfs6qan3padb2wnb2i7cl/exe/qcprog.exe_s
PARALLEL:    -DPARALLEL
QCMPI:       mpich
#
# qchem directory setting
#
qcrun:       qchem50905
QCSCRATCH:   .
QCLOCALSCR:  
QCTMPDIR:    .
QCFILEPREF:  ./qchem50905
QCSAVEDIR:   
workdirs:    ./qchem50905
workdir0:    ./qchem50905
partmpdirs =  
#
# parallel setting
#
QCRSH:           ssh
QCMPI:           mpich
QCMPIRUN:        /cm/shared/apps/spack/cpu/opt/spack/linux-centos8-zen2/gcc-10.2.0/qchem-5.4-akfmr7b3t57bfs6qan3padb2wnb2i7cl/bin/mpi/mpirun_qchem
QCMACHINEFILE:   ./qchem50905/hostfile
exp-2-39

#
# env setting
#
exported envs:   QC QCAUX QCSCRATCH QCRUNNAME QCFILEPREF QCPROG QCPROG_S GUIFILE

Running Job 1 of 1 Dimethyl_Naphthalene_Dicarboximide_Phi_60_Theta_300_Thiophene.qcin
qchem Dimethyl_Naphthalene_Dicarboximide_Phi_60_Theta_300_Thiophene.qcin_50905.0 ./qchem50905/ 1
/cm/shared/apps/spack/cpu/opt/spack/linux-centos8-zen2/gcc-10.2.0/qchem-5.4-akfmr7b3t57bfs6qan3padb2wnb2i7cl/bin/mpi/mpirun_qchem -machinefile ./qchem50905/hostfile -np 1 /cm/shared/apps/spack/cpu/opt/spack/linux-centos8-zen2/gcc-10.2.0/qchem-5.4-akfmr7b3t57bfs6qan3padb2wnb2i7cl/exe/qcprog.exe Dimethyl_Naphthalene_Dicarboximide_Phi_60_Theta_300_Thiophene.qcin_50905.0 ./qchem50905/

Process 0 of 1 is on exp-2-39 - thread support 0
initial socket setup ...start
initial socket setup ...done 
now start server 0 ... 
                  Welcome to Q-Chem
     A Quantum Leap Into The Future Of Chemistry


 Q-Chem 5.4, Q-Chem, Inc., Pleasanton, CA (2021)

 License issued to: University of California, San Diego (site)

 E. Epifanovsky,  A. T. B. Gilbert,  Xintian Feng,  Joonho Lee,  Yuezhi Mao,  
 N. Mardirossian,  P. Pokhilko,  A. White,  M. Wormit,  M. P. Coons,  
 A. L. Dempwolff,  Zhengting Gan,  D. Hait,  P. R. Horn,  L. D. Jacobson,  
 I. Kaliman,  J. Kussmann,  A. W. Lange,  Ka Un Lao,  D. S. Levine,  Jie Liu,  
 S. C. McKenzie,  A. F. Morrison,  K. Nanda,  F. Plasser,  D. R. Rehn,  
 M. L. Vidal,  Zhi-Qiang You,  Ying Zhu,  B. Alam,  B. Albrecht,  
 A. Aldossary,  E. Alguire,  J. H. Andersen,  D. Barton,  K. Begam,  A. Behn,  
 Y. A. Bernard,  E. J. Berquist,  H. Burton,  A. Carreras,  K. Carter-Fenk,  
 R. Chakraborty,  A. D. Chien,  K. D. Closser,  V. Cofer-Shabica,  
 S. Dasgupta,  Jia Deng,  M. de Wergifosse,  M. Diedenhofen,  Hainam Do,  
 S. Ehlert,  Po-Tung Fang,  S. Fatehi,  Qingguo Feng,  J. Gayvert,  
 Qinghui Ge,  G. Gidofalvi,  M. Goldey,  J. Gomes,  C. Gonzalez-Espinoza,  
 S. Gulania,  A. Gunina,  M. W. D. Hanson-Heine,  P. H. P. Harbach,  
 A. W. Hauser,  M. F. Herbst,  M. Hernandez Vera,  M. Hodecker,  
 Z. C. Holden,  S. Houck,  Xunkun Huang,  Kerwin Hui,  B. C. Huynh,  
 M. Ivanov,  Hyunjun Ji,  Hanjie Jiang,  B. Kaduk,  S. Kaehler,  
 K. Khistyaev,  Jaehoon Kim,  P. Klunzinger,  Z. Koczor-Benda,  
 Joong Hoon Koh,  D. Kosenkov,  L. Koulias,  T. Kowalczyk,  C. M. Krauter,  
 K. Kue,  A. Kunitsa,  T. Kus,  A. Landau,  K. V. Lawler,  D. Lefrancois,  
 S. Lehtola,  Rain Li,  Yi-Pei Li,  Jiashu Liang,  M. Liebenthal,  
 Hung-Hsuan Lin,  You-Sheng Lin,  Fenglai Liu,  Kuan-Yu Liu,  
 M. Loipersberger,  A. Luenser,  A. Manjanath,  P. Manohar,  E. Mansoor,  
 S. F. Manzer,  Shan-Ping Mao,  A. V. Marenich,  T. Markovich,  S. Mason,  
 S. A. Maurer,  P. F. McLaughlin,  M. F. S. J. Menger,  J.-M. Mewes,  
 S. A. Mewes,  P. Morgante,  J. W. Mullinax,  T. S. Nguyen-Beck,  
 K. J. Oosterbaan,  G. Paran,  Alexander C. Paul,  Suranjan K. Paul,  
 F. Pavosevic,  Zheng Pei,  S. Prager,  E. I. Proynov,  E. Ramos,  B. Rana,  
 A. E. Rask,  A. Rettig,  R. M. Richard,  F. Rob,  E. Rossomme,  T. Scheele,  
 M. Scheurer,  M. Schneider,  N. Sergueev,  S. M. Sharada,  W. Skomorowski,  
 D. W. Small,  C. J. Stein,  Yu-Chuan Su,  E. J. Sundstrom,  Zhen Tao,  
 J. Thirman,  T. Tsuchimochi,  N. M. Tubman,  S. P. Veccham,  O. Vydrov,  
 J. Wenzel,  J. Witte,  A. Yamada,  Kun Yao,  S. Yeganeh,  S. R. Yost,  
 A. Zech,  Igor Ying Zhang,  Xing Zhang,  Yu Zhang,  D. Zuev,  
 A. Aspuru-Guzik,  A. T. Bell,  N. A. Besley,  K. B. Bravaya,  B. R. Brooks,  
 D. Casanova,  Jeng-Da Chai,  S. Coriani,  C. J. Cramer,  
 A. E. DePrince, III,  R. A. DiStasio Jr.,  A. Dreuw,  B. D. Dunietz,  
 T. R. Furlani,  W. A. Goddard III,  S. Grimme,  S. Hammes-Schiffer,  
 T. Head-Gordon,  W. J. Hehre,  Chao-Ping Hsu,  T.-C. Jagau,  Yousung Jung,  
 A. Klamt,  Jing Kong,  D. S. Lambrecht,  WanZhen Liang,  N. J. Mayhall,  
 C. W. McCurdy,  J. B. Neaton,  C. Ochsenfeld,  J. A. Parkhill,  R. Peverati,  
 V. A. Rassolov,  Yihan Shao,  L. V. Slipchenko,  T. Stauch,  R. P. Steele,  
 J. E. Subotnik,  A. J. W. Thom,  A. Tkatchenko,  D. G. Truhlar,  
 T. Van Voorhis,  T. A. Wesolowski,  K. B. Whaley,  H. L. Woodcock III,  
 P. M. Zimmerman,  S. Faraji,  P. M. W. Gill,  M. Head-Gordon,  
 J. M. Herbert,  A. I. Krylov

 Contributors to earlier versions of Q-Chem not listed above: 
 R. D. Adamson,  B. Austin,  R. Baer,  J. Baker,  G. J. O. Beran,  
 K. Brandhorst,  S. T. Brown,  E. F. C. Byrd,  A. K. Chakraborty,  
 G. K. L. Chan,  Chun-Min Chang,  Yunqing Chen,  C.-L. Cheng,  
 Siu Hung Chien,  D. M. Chipman,  D. L. Crittenden,  H. Dachsel,  
 R. J. Doerksen,  A. D. Dutoi,  R. G. Edgar,  J. Fosso-Tande,  
 L. Fusti-Molnar,  D. Ghosh,  A. Ghysels,  A. Golubeva-Zadorozhnaya,  
 J. Gonthier,  M. S. Gordon,  S. R. Gwaltney,  G. Hawkins,  J. E. Herr,  
 A. Heyden,  S. Hirata,  E. G. Hohenstein,  G. Kedziora,  F. J. Keil,  
 C. Kelley,  Jihan Kim,  R. A. King,  R. Z. Khaliullin,  P. P. Korambath,  
 W. Kurlancheek,  A. Laurent,  A. M. Lee,  M. S. Lee,  S. V. Levchenko,  
 Ching Yeh Lin,  D. Liotard,  E. Livshits,  R. C. Lochan,  I. Lotan,  
 L. A. Martinez-Martinez,  P. E. Maslen,  N. Nair,  D. P. O'Neill,  
 D. Neuhauser,  E. Neuscamman,  C. M. Oana,  R. Olivares-Amaya,  R. Olson,  
 T. M. Perrine,  B. Peters,  P. A. Pieniazek,  A. Prociuk,  Y. M. Rhee,  
 J. Ritchie,  M. A. Rohrdanz,  E. Rosta,  N. J. Russ,  H. F. Schaefer III,  
 M. W. Schmidt,  N. E. Schultz,  S. Sharma,  N. Shenvi,  C. D. Sherrill,  
 A. C. Simmonett,  A. Sodt,  T. Stein,  D. Stuck,  K. S. Thanthiriwatte,  
 V. Vanovschi,  L. Vogt,  Tao Wang,  A. Warshel,  M. A. Watson,  
 C. F. Williams,  Q. Wu,  X. Xu,  Jun Yang,  W. Zhang,  Yan Zhao

 Please cite Q-Chem as follows:
 Y. Shao et al., Mol. Phys. 113, 184-215 (2015)
 DOI: 10.1080/00268976.2014.952696

 Q-Chem 5.4.0 for Intel X86 EM64T Linux

 Parts of Q-Chem use Armadillo 9.800.1 (Horizon Scraper).
 http://arma.sourceforge.net/

 Q-Chem begins on Wed Sep 20 10:31:37 2023  

 Host: 
0

     Scratch files written to ./qchem50905//
 May1621 |scratch|qcdevops|jenkins|workspace|build_RNUM    
 Parallel job on  1  processors
 Processing $rem in /cm/shared/apps/spack/cpu/opt/spack/linux-centos8-zen2/gcc-10.2.0/qchem-5.4-akfmr7b3t57bfs6qan3padb2wnb2i7cl/config/preferences:
 Processing $rem in /home/rramji/.qchemrc:
 Symmetry turned off for PCM/SM12/SMD calculation
 Core orbitals will be frozen

 Checking the input file for inconsistencies... 	...done.

 Q-Chem warning in module forms1/BasisType.C, line 2236:

 You are not using the predefined 5D/6D in this basis set.


--------------------------------------------------------------
User input:
--------------------------------------------------------------
$molecule
0 1
C	-0.223244	-6.741404	-0.127184
C	-1.354118	-6.155638	-0.779949
C	0.715408	-5.791452	0.415271
C	-1.595259	-4.803786	-0.919437
H	-2.114613	-6.821518	-1.218801
C	0.463133	-4.378638	0.268806
C	-0.688925	-3.838032	-0.396744
C	1.368449	-3.413062	0.790835
C	-0.939189	-2.426473	-0.542026
C	1.130363	-2.059348	0.652669
C	-0.000000	-1.478216	-0.000000
H	1.891815	-1.394783	1.091814
C	1.963749	-6.187987	1.138124
C	2.607351	-3.798164	1.506241
N	2.817348	-5.170003	1.629443
C	-2.837621	-4.424987	-1.636646
C	-2.188982	-2.036627	-1.264474
N	-3.042637	-3.049156	-1.756205
O	2.301222	-7.353131	1.336258
O	3.407386	-2.986854	1.967056
O	-3.628041	-5.248946	-2.092167
O	-2.545844	-0.878829	-1.472160
C	4.040164	-5.563799	2.336642
H	4.078749	-6.664085	2.360245
H	4.027880	-5.147101	3.361968
H	4.922811	-5.148785	1.813424
C	-4.247167	-2.587487	-2.452149
H	-4.804209	-3.483329	-2.772531
H	-3.965991	-1.964972	-3.322697
H	-4.859678	-1.962932	-1.774507
H	-0.062364	-7.822318	-0.033931
C	0.000000	0.000000	0.000000
S	0.686805	0.396760	1.580530
C	2.105095	1.215640	0.904911
C	0.864201	0.499140	-0.985400
C	2.007514	1.159347	-0.493528
H	0.660136	0.381296	-2.059934
H	2.770388	1.599875	-1.152593
H	2.867745	1.656053	1.556025
$end

$rem
JOBTYPE		SP
EXCHANGE	HF
CORRELATION	pRIMP2
BASIS		cc-pvtz
METHOD		rimp2
AUX_BASIS	rimp2-cc-pvtz
SOLVENT_METHOD	PCM
PURECART	11111
SYMMETRY	false
MEM_TOTAL	110000
SCF_CONVERGENCE = 6
THRESH=10
GUI = 2
$end



$solvent
dielectric 4.90
$end
--------------------------------------------------------------
 ----------------------------------------------------------------
             Standard Nuclear Orientation (Angstroms)
    I     Atom           X                Y                Z
 ----------------------------------------------------------------
    1      C      -0.2232440000    -6.7414040000    -0.1271840000
    2      C      -1.3541180000    -6.1556380000    -0.7799490000
    3      C       0.7154080000    -5.7914520000     0.4152710000
    4      C      -1.5952590000    -4.8037860000    -0.9194370000
    5      H      -2.1146130000    -6.8215180000    -1.2188010000
    6      C       0.4631330000    -4.3786380000     0.2688060000
    7      C      -0.6889250000    -3.8380320000    -0.3967440000
    8      C       1.3684490000    -3.4130620000     0.7908350000
    9      C      -0.9391890000    -2.4264730000    -0.5420260000
   10      C       1.1303630000    -2.0593480000     0.6526690000
   11      C       0.0000000000    -1.4782160000     0.0000000000
   12      H       1.8918150000    -1.3947830000     1.0918140000
   13      C       1.9637490000    -6.1879870000     1.1381240000
   14      C       2.6073510000    -3.7981640000     1.5062410000
   15      N       2.8173480000    -5.1700030000     1.6294430000
   16      C      -2.8376210000    -4.4249870000    -1.6366460000
   17      C      -2.1889820000    -2.0366270000    -1.2644740000
   18      N      -3.0426370000    -3.0491560000    -1.7562050000
   19      O       2.3012220000    -7.3531310000     1.3362580000
   20      O       3.4073860000    -2.9868540000     1.9670560000
   21      O      -3.6280410000    -5.2489460000    -2.0921670000
   22      O      -2.5458440000    -0.8788290000    -1.4721600000
   23      C       4.0401640000    -5.5637990000     2.3366420000
   24      H       4.0787490000    -6.6640850000     2.3602450000
   25      H       4.0278800000    -5.1471010000     3.3619680000
   26      H       4.9228110000    -5.1487850000     1.8134240000
   27      C      -4.2471670000    -2.5874870000    -2.4521490000
   28      H      -4.8042090000    -3.4833290000    -2.7725310000
   29      H      -3.9659910000    -1.9649720000    -3.3226970000
   30      H      -4.8596780000    -1.9629320000    -1.7745070000
   31      H      -0.0623640000    -7.8223180000    -0.0339310000
   32      C       0.0000000000     0.0000000000     0.0000000000
   33      S       0.6868050000     0.3967600000     1.5805300000
   34      C       2.1050950000     1.2156400000     0.9049110000
   35      C       0.8642010000     0.4991400000    -0.9854000000
   36      C       2.0075140000     1.1593470000    -0.4935280000
   37      H       0.6601360000     0.3812960000    -2.0599340000
   38      H       2.7703880000     1.5998750000    -1.1525930000
   39      H       2.8677450000     1.6560530000     1.5560250000
 ----------------------------------------------------------------
 Nuclear Repulsion Energy =        2528.02523029 hartrees
 There are       97 alpha and       97 beta electrons
 Requested basis set is cc-pVTZ
 There are 344 shells and 982 basis functions

 Total QAlloc Memory Limit 110000 MB
 Mega-Array Size       188 MB
 MEM_STATIC part       192 MB
 Discretize the solute cavity surface with Lebedev spheres
	Using 110 Lebedev grid points for each H atom
	Using 194 Lebedev grid points for other atoms
	Atomic van der Waals radii will be scaled by 1.20
 Remove points where switching function is < 1.0e-08
 Keep 2498 surface tesserae and discard 4060 interior tesserae
 Molecular Surface Area = 364.775 Angst**2
 Requested basis set is rimp2-cc-pVTZ
 There are 750 shells and 2588 basis functions
 A cutoff of  1.0D-10 yielded  32472 shell pairs
 There are    249688 function pairs (    324325 Cartesian)
 Smallest overlap matrix eigenvalue = 8.53E-06

 Q-Chem warning in module stvman/mkSTV.C, line 323:

 Overlap eigenvalue is smaller than square root of threshold
 Use THRESH >= 12 to get rid of this warning


 Scale SEOQF with 1.000000e-01/1.000000e-02/1.000000e-01

 Standard Electronic Orientation quadrupole field applied
 Nucleus-field energy     =     0.0000000183 hartrees
 Guess from superposition of atomic densities
 Warning:  Energy on first SCF cycle will be non-variational
 SAD guess density has 194.000000 electrons

 -----------------------------------------------------------------------
  General SCF calculation program by
  Eric Jon Sundstrom, Paul Horn, Yuezhi Mao, Dmitri Zuev, Alec White,
  David Stuck, Shaama M.S., Shane Yost, Joonho Lee, David Small,
  Daniel Levine, Susi Lehtola, Hugh Burton, Evgeny Epifanovsky,
  Bang C. Huynh
 -----------------------------------------------------------------------
 Hartree-Fock
 using 64 threads for integral computing
 -------------------------------------------------------
 OpenMP Integral computing Module                
 Release: version 1.0, May 2013, Q-Chem Inc. Pittsburgh 
 -------------------------------------------------------
 A restricted SCF calculation will be
 performed using DIIS
 SCF converges when DIIS error is below 1.0e-06
 ---------------------------------------
  Cycle       Energy         DIIS error
 ---------------------------------------
    1   -1581.4714352948      1.88e-02  
    2   -1570.0540731600      2.08e-03  
    3   -1570.3820848195      1.61e-03  
    4   -1570.6054394894      2.59e-04  
    5   -1570.6178378461      7.87e-05  
    6   -1570.6189938164      2.92e-05  
    7   -1570.6192739444      1.47e-05  
    8   -1570.6193659666      6.71e-06  
    9   -1570.6193827308      2.51e-06  
   10   -1570.6193861499      1.06e-06  
   11   -1570.6193867532      4.38e-07  Convergence criterion met
 ---------------------------------------
 SCF time:   CPU 6057.06s  wall 245.00s 

************** Final PCM Free Energy Summary **************
 G_electrostatic  =      -0.02601200 hartree =     -16.32277559 kcal/mol
 G_cavitation     =       0.00000000 hartree =       0.00000000 kcal/mol
 G_dispersion     =       0.00000000 hartree =       0.00000000 kcal/mol
 G_repulsion      =       0.00000000 hartree =       0.00000000 kcal/mol
 --------------------------------------------------
 Non-electrostatic Free Energy =       0.00000000 hartree =       0.00000000 kcal/mol
 Total                         =      -0.02601200 hartree =     -16.32277559 kcal/mol
 --------------------------------------------------
 SCF Energy (H0 + V/2)                       =   -1570.61938675 
 Solute Internal Energy (H0)                 =   -1570.59337475 
 Total Free Energy (H0 + V/2 + non-elec)     =   -1570.61938675 hartree
                                             = -985578.54052386 kcal/mol
***********************************************************

 SCF   energy in the final basis set =    -1570.6193867532
 Total energy in the final basis set =    -1570.6193867532


 --------------------------------------------------------------
  Generalized many-body perturbation theory program
  by Joonho Lee, Fazle Rob, Xintian Feng, Evgeny Epifanovsky

 No regularization used 
 (reg. param. = 0.0000e+00)
  (P|Q)^-1/2 Time:  CPU 147.90 s  wall 2.37 s

 In RI-MP2 calculation: 
 # of frozen core orbitals: 31

 Components of the RIMP2 correlation energy:
        aaaa    correlation energy =        -0.6199106766 a.u.
        abab    correlation energy =        -3.4015409050 a.u.
        bbbb    correlation energy =        -0.6199106766 a.u.
        non-Brillouin singles      =        -0.0000000000 a.u.
        total same-spin energy     =        -1.2398213533 a.u.
        total opposite-spin energy =        -3.4015409050 a.u.

 Total  RIMP2   correlation energy =        -4.6413622583 a.u.
        RIMP2         total energy =     -1575.2607490115 a.u.

 RI-MP2 Energy Time:  CPU 1837.37 s  wall 29.99 s
 
 --------------------------------------------------------------
 
                    Orbital Energies (a.u.)
 --------------------------------------------------------------
 
 Alpha MOs
 -- Occupied --
-91.9920 -20.5569 -20.5544 -20.5521 -20.5520 -15.6296 -15.6277 -11.3982
-11.3920 -11.3895 -11.3884 -11.3171 -11.3077 -11.2990 -11.2953 -11.2921
-11.2921 -11.2918 -11.2825 -11.2811 -11.2804 -11.2759 -11.2749 -11.2709
-11.2639 -11.2629 -11.2591  -8.9930  -6.6736  -6.6728  -6.6727  -1.4232
 -1.4206  -1.4025  -1.3997  -1.2654  -1.2624  -1.2183  -1.1926  -1.1396
 -1.1129  -1.0625  -1.0460  -0.9997  -0.9937  -0.9902  -0.9570  -0.9444
 -0.8944  -0.8762  -0.8731  -0.8557  -0.7966  -0.7783  -0.7713  -0.7653
 -0.7363  -0.7179  -0.7070  -0.6930  -0.6809  -0.6735  -0.6643  -0.6601
 -0.6542  -0.6442  -0.6352  -0.6310  -0.6265  -0.6111  -0.5899  -0.5834
 -0.5800  -0.5785  -0.5675  -0.5622  -0.5599  -0.5547  -0.5522  -0.5469
 -0.5438  -0.5254  -0.5156  -0.4871  -0.4810  -0.4734  -0.4657  -0.4619
 -0.4580  -0.4507  -0.4256  -0.4167  -0.4058  -0.3764  -0.3454  -0.3292
 -0.3130
 -- Virtual --
 -0.0128   0.0497   0.0706   0.0813   0.1173   0.1499   0.1574   0.1588
  0.1646   0.1674   0.1698   0.1846   0.1877   0.1897   0.2058   0.2092
  0.2196   0.2254   0.2286   0.2299   0.2376   0.2394   0.2592   0.2631
  0.2657   0.2905   0.3041   0.3092   0.3147   0.3200   0.3236   0.3311
  0.3398   0.3447   0.3480   0.3566   0.3586   0.3604   0.3636   0.3660
  0.3738   0.3794   0.3887   0.3969   0.3992   0.4018   0.4079   0.4117
  0.4148   0.4186   0.4302   0.4362   0.4389   0.4454   0.4494   0.4534
  0.4554   0.4601   0.4672   0.4701   0.4799   0.4869   0.4887   0.4928
  0.5004   0.5042   0.5080   0.5153   0.5208   0.5222   0.5284   0.5373
  0.5386   0.5430   0.5472   0.5502   0.5550   0.5577   0.5635   0.5680
  0.5720   0.5757   0.5826   0.5884   0.5932   0.5972   0.5978   0.5999
  0.6020   0.6101   0.6113   0.6146   0.6176   0.6247   0.6272   0.6317
  0.6337   0.6348   0.6396   0.6424   0.6499   0.6519   0.6573   0.6696
  0.6826   0.6909   0.6948   0.7009   0.7042   0.7114   0.7143   0.7205
  0.7237   0.7271   0.7316   0.7367   0.7374   0.7545   0.7614   0.7648
  0.7710   0.7743   0.7849   0.7979   0.8014   0.8077   0.8124   0.8181
  0.8228   0.8263   0.8291   0.8409   0.8444   0.8479   0.8537   0.8587
  0.8651   0.8676   0.8759   0.8830   0.8860   0.8881   0.9012   0.9020
  0.9102   0.9153   0.9196   0.9291   0.9322   0.9354   0.9433   0.9486
  0.9539   0.9587   0.9664   0.9705   0.9791   0.9833   0.9912   0.9958
  0.9986   1.0019   1.0101   1.0155   1.0206   1.0237   1.0266   1.0354
  1.0386   1.0483   1.0539   1.0575   1.0678   1.0693   1.0724   1.0788
  1.0804   1.0846   1.0858   1.0923   1.0980   1.1044   1.1150   1.1194
  1.1323   1.1337   1.1363   1.1414   1.1499   1.1525   1.1624   1.1654
  1.1664   1.1719   1.1750   1.1820   1.1871   1.1911   1.1972   1.2057
  1.2108   1.2125   1.2195   1.2248   1.2263   1.2343   1.2390   1.2427
  1.2489   1.2529   1.2612   1.2664   1.2815   1.2846   1.3005   1.3090
  1.3203   1.3222   1.3333   1.3370   1.3452   1.3483   1.3579   1.3646
  1.3755   1.3810   1.3872   1.3896   1.3969   1.4021   1.4051   1.4104
  1.4208   1.4303   1.4416   1.4444   1.4534   1.4572   1.4622   1.4704
  1.4809   1.4886   1.4914   1.4975   1.5004   1.5063   1.5148   1.5219
  1.5311   1.5344   1.5347   1.5403   1.5538   1.5577   1.5595   1.5662
  1.5697   1.5732   1.5808   1.5819   1.5955   1.6034   1.6148   1.6395
  1.6435   1.6473   1.6585   1.6593   1.6639   1.6736   1.6889   1.6926
  1.7009   1.7072   1.7093   1.7216   1.7259   1.7356   1.7433   1.7493
  1.7530   1.7606   1.7721   1.7806   1.7846   1.7968   1.8077   1.8116
  1.8169   1.8206   1.8463   1.8482   1.8551   1.8588   1.8647   1.8692
  1.8778   1.8843   1.8920   1.9105   1.9177   1.9370   1.9422   1.9462
  1.9582   1.9680   1.9741   1.9886   1.9957   2.0056   2.0117   2.0166
  2.0330   2.0621   2.0667   2.0790   2.0915   2.1011   2.1141   2.1166
  2.1378   2.1445   2.1618   2.1731   2.1972   2.2112   2.2165   2.2212
  2.2411   2.2489   2.2586   2.2709   2.2890   2.2901   2.2958   2.3058
  2.3210   2.3260   2.3346   2.3549   2.3646   2.3678   2.3812   2.3918
  2.4165   2.4291   2.4323   2.4343   2.4470   2.4520   2.4605   2.4608
  2.4689   2.4901   2.4908   2.5024   2.5052   2.5177   2.5332   2.5422
  2.5599   2.5794   2.5861   2.5905   2.5981   2.6042   2.6103   2.6153
  2.6173   2.6235   2.6291   2.6512   2.6594   2.6646   2.6730   2.6763
  2.6837   2.6910   2.6989   2.7067   2.7099   2.7208   2.7294   2.7369
  2.7436   2.7454   2.7571   2.7644   2.7716   2.7727   2.7819   2.7923
  2.8005   2.8217   2.8361   2.8381   2.8450   2.8493   2.8589   2.8677
  2.8712   2.8761   2.8796   2.8898   2.8953   2.8986   2.9043   2.9120
  2.9245   2.9316   2.9384   2.9474   2.9486   2.9632   2.9661   2.9710
  2.9795   2.9865   2.9902   3.0027   3.0037   3.0086   3.0161   3.0176
  3.0241   3.0422   3.0453   3.0530   3.0639   3.0669   3.0740   3.0812
  3.0892   3.0927   3.1009   3.1027   3.1085   3.1117   3.1161   3.1284
  3.1334   3.1354   3.1486   3.1504   3.1638   3.1796   3.1798   3.1851
  3.1973   3.2006   3.2063   3.2076   3.2092   3.2138   3.2215   3.2220
  3.2266   3.2379   3.2414   3.2490   3.2528   3.2553   3.2574   3.2675
  3.2706   3.2775   3.2806   3.2832   3.2906   3.2931   3.2966   3.3040
  3.3066   3.3144   3.3190   3.3202   3.3316   3.3336   3.3430   3.3450
  3.3459   3.3491   3.3551   3.3627   3.3650   3.3673   3.3728   3.3771
  3.3806   3.3863   3.3894   3.3941   3.4018   3.4059   3.4098   3.4181
  3.4250   3.4288   3.4349   3.4402   3.4415   3.4497   3.4544   3.4553
  3.4594   3.4669   3.4779   3.4828   3.4850   3.4908   3.4935   3.5005
  3.5026   3.5066   3.5107   3.5167   3.5217   3.5267   3.5284   3.5396
  3.5435   3.5535   3.5570   3.5584   3.5649   3.5794   3.5852   3.5904
  3.5943   3.6002   3.6102   3.6203   3.6229   3.6275   3.6289   3.6335
  3.6339   3.6424   3.6478   3.6529   3.6605   3.6748   3.6815   3.6844
  3.6952   3.7001   3.7035   3.7091   3.7149   3.7215   3.7304   3.7338
  3.7357   3.7372   3.7491   3.7522   3.7560   3.7635   3.7684   3.7764
  3.7815   3.7881   3.7896   3.7969   3.7979   3.8007   3.8095   3.8204
  3.8228   3.8277   3.8335   3.8444   3.8500   3.8564   3.8597   3.8668
  3.8726   3.8816   3.8871   3.8903   3.9065   3.9130   3.9192   3.9245
  3.9346   3.9392   3.9464   3.9509   3.9528   3.9614   3.9673   3.9811
  3.9951   4.0033   4.0127   4.0275   4.0296   4.0324   4.0419   4.0546
  4.0577   4.0709   4.0731   4.0836   4.0924   4.1010   4.1068   4.1136
  4.1278   4.1401   4.1468   4.1558   4.1624   4.1633   4.1650   4.1736
  4.1835   4.1900   4.2015   4.2039   4.2164   4.2273   4.2412   4.2429
  4.2507   4.2562   4.2709   4.2780   4.2835   4.2838   4.2871   4.2915
  4.2957   4.3023   4.3087   4.3174   4.3292   4.3371   4.3444   4.3452
  4.3468   4.3537   4.3639   4.3674   4.3709   4.3753   4.3816   4.3842
  4.3910   4.4009   4.4060   4.4139   4.4238   4.4253   4.4392   4.4502
  4.4607   4.4627   4.4829   4.4870   4.4888   4.5085   4.5134   4.5222
  4.5283   4.5356   4.5379   4.5465   4.5541   4.5605   4.5699   4.5777
  4.5814   4.5834   4.5904   4.6054   4.6148   4.6159   4.6275   4.6338
  4.6512   4.6534   4.6566   4.6627   4.6792   4.6832   4.6958   4.7041
  4.7115   4.7249   4.7406   4.7462   4.7519   4.7701   4.7820   4.7997
  4.8155   4.8259   4.8432   4.8446   4.8499   4.8629   4.8740   4.8754
  4.8879   4.9011   4.9190   4.9343   4.9420   4.9512   4.9645   4.9833
  4.9920   5.0084   5.0166   5.0378   5.0485   5.0526   5.0545   5.0696
  5.0914   5.1038   5.1111   5.1211   5.1250   5.1339   5.1388   5.1480
  5.1653   5.1711   5.1746   5.1874   5.1946   5.2244   5.2392   5.2582
  5.2671   5.2767   5.2801   5.3007   5.3163   5.3262   5.3321   5.3447
  5.3544   5.3969   5.4039   5.4052   5.4237   5.4344   5.4382   5.4596
  5.4785   5.4996   5.5093   5.5100   5.5147   5.5226   5.5468   5.5573
  5.5599   5.5612   5.5662   5.5756   5.5790   5.5943   5.6096   5.6119
  5.6225   5.6281   5.6419   5.6538   5.6561   5.6704   5.6782   5.6849
  5.6902   5.7090   5.7184   5.7348   5.7413   5.7580   5.7604   5.7712
  5.7759   5.7796   5.8135   5.8282   5.8454   5.8718   5.9098   5.9339
  5.9520   5.9627   5.9867   6.0184   6.0238   6.0312   6.0354   6.0523
  6.0846   6.1011   6.1037   6.1182   6.1241   6.1585   6.1864   6.2088
  6.2183   6.2216   6.2220   6.2530   6.2677   6.2771   6.3026   6.3443
  6.3525   6.3744   6.3959   6.4477   6.4678   6.5301   6.5433   6.5639
  6.5720   6.5900   6.6014   6.6498   6.6587   6.6621   6.7073   6.8317
  6.8349   6.8822   6.8877   6.8958   6.9130   6.9258   6.9279   7.0802
  7.1000   7.1421   7.1842   7.1904   7.2291   7.3340   7.3429   7.3460
  7.3535   7.4692   7.5465   7.5594   7.5756   7.5768   7.5889   7.6356
  7.6703   7.6842   7.7243   8.3932  10.0202  10.3037  11.1115  11.2488
 11.7150  11.7983  12.2128  12.3737  12.4647  12.7037  12.8500  13.0277
 13.2760  13.5884  13.8177  13.9395  14.0154  14.1224  14.2111  14.3509
 14.4152  14.7814  15.3095  15.7417  16.0610
 --------------------------------------------------------------
 
          Ground-State Mulliken Net Atomic Charges

     Atom                 Charge (a.u.)
  ----------------------------------------
      1 C                    -0.146256
      2 C                    -0.114255
      3 C                    -0.030514
      4 C                     0.002294
      5 H                     0.186922
      6 C                    -0.007015
      7 C                     0.070014
      8 C                     0.011235
      9 C                    -0.050076
     10 C                    -0.160487
     11 C                     0.059483
     12 H                     0.184649
     13 C                     0.358094
     14 C                     0.359813
     15 N                    -0.100491
     16 C                     0.355875
     17 C                     0.366378
     18 N                    -0.095756
     19 O                    -0.466644
     20 O                    -0.482375
     21 O                    -0.483671
     22 O                    -0.466695
     23 C                    -0.201932
     24 H                     0.140965
     25 H                     0.111875
     26 H                     0.111542
     27 C                    -0.197841
     28 H                     0.133047
     29 H                     0.111671
     30 H                     0.112766
     31 H                     0.211766
     32 C                    -0.100388
     33 S                     0.036913
     34 C                    -0.142941
     35 C                    -0.063553
     36 C                    -0.226841
     37 H                     0.198806
     38 H                     0.195137
     39 H                     0.218484
  ----------------------------------------
  Sum of atomic charges =     0.000000

 -----------------------------------------------------------------
                    Cartesian Multipole Moments
 -----------------------------------------------------------------
    Charge (ESU x 10^10)
                 0.0000
    Dipole Moment (Debye)
         X       3.3068      Y       2.0981      Z      -0.7462
       Tot       3.9867
    Quadrupole Moments (Debye-Ang)
        XX    -170.8948     XY       6.2062     YY    -180.9883
        XZ      -8.6610     YZ       0.3647     ZZ    -161.8399
    Octopole Moments (Debye-Ang^2)
       XXX     -46.6156    XXY     576.1637    XYY     -21.4606
       YYY    1680.1001    XXZ       2.3903    XYZ      42.7442
       YYZ      -8.9401    XZZ     -12.4904    YZZ     520.0238
       ZZZ     -28.5880
    Hexadecapole Moments (Debye-Ang^3)
      XXXX   -4981.8300   XXXY       6.9580   XXYY   -3855.3466
      XYYY     566.2437   YYYY  -17193.8156   XXXZ   -1368.4040
      XXYZ     -73.1860   XYYZ    -695.5451   YYYZ     370.7672
      XXZZ   -1162.2807   XYZZ       2.7422   YYZZ   -3064.2257
      XZZZ   -1307.8914   YZZZ     110.2542   ZZZZ   -1900.5374
 -----------------------------------------------------------------
 Total job time:  294.71s(wall), 8342.80s(cpu) 
 Wed Sep 20 10:36:31 2023

        *************************************************************
        *                                                           *
        *  Thank you very much for using Q-Chem.  Have a nice day.  *
        *                                                           *
        *************************************************************


0 sent ACK to 0 
now end server 0 ... 
cleanup process ... done
remove work dirs ./qchem50905.0 -- ./qchem50905.0
rm -rf ./qchem50905.0
rm -rf ./qchem50905
