You are running Q-Chem version: 5.4.0

#
# job setting
#
local host:  exp-3-18
current dir: /expanse/lustre/projects/csd626/rramji/aromodel/PNDIT/Rotation_Test
input file:  Dimethyl_Naphthalene_Dicarboximide_Phi_10_Theta_350_Thiophene.qcin
output file: 
nprocs     : 1
nthreads   : 64
#
# qchem installation setting
#
QC:          /cm/shared/apps/spack/cpu/opt/spack/linux-centos8-zen2/gcc-10.2.0/qchem-5.4-akfmr7b3t57bfs6qan3padb2wnb2i7cl
QCAUX:       /cm/shared/apps/spack/cpu/opt/spack/linux-centos8-zen2/gcc-10.2.0/qchem-5.4-akfmr7b3t57bfs6qan3padb2wnb2i7cl/qcaux
QCPROG:      /cm/shared/apps/spack/cpu/opt/spack/linux-centos8-zen2/gcc-10.2.0/qchem-5.4-akfmr7b3t57bfs6qan3padb2wnb2i7cl/exe/qcprog.exe
QCPROG_S:    /cm/shared/apps/spack/cpu/opt/spack/linux-centos8-zen2/gcc-10.2.0/qchem-5.4-akfmr7b3t57bfs6qan3padb2wnb2i7cl/exe/qcprog.exe_s
PARALLEL:    -DPARALLEL
QCMPI:       mpich
#
# qchem directory setting
#
qcrun:       qchem3587784
QCSCRATCH:   .
QCLOCALSCR:  
QCTMPDIR:    .
QCFILEPREF:  ./qchem3587784
QCSAVEDIR:   
workdirs:    ./qchem3587784
workdir0:    ./qchem3587784
partmpdirs =  
#
# parallel setting
#
QCRSH:           ssh
QCMPI:           mpich
QCMPIRUN:        /cm/shared/apps/spack/cpu/opt/spack/linux-centos8-zen2/gcc-10.2.0/qchem-5.4-akfmr7b3t57bfs6qan3padb2wnb2i7cl/bin/mpi/mpirun_qchem
QCMACHINEFILE:   ./qchem3587784/hostfile
exp-3-18

#
# env setting
#
exported envs:   QC QCAUX QCSCRATCH QCRUNNAME QCFILEPREF QCPROG QCPROG_S GUIFILE

Running Job 1 of 1 Dimethyl_Naphthalene_Dicarboximide_Phi_10_Theta_350_Thiophene.qcin
qchem Dimethyl_Naphthalene_Dicarboximide_Phi_10_Theta_350_Thiophene.qcin_3587784.0 ./qchem3587784/ 1
/cm/shared/apps/spack/cpu/opt/spack/linux-centos8-zen2/gcc-10.2.0/qchem-5.4-akfmr7b3t57bfs6qan3padb2wnb2i7cl/bin/mpi/mpirun_qchem -machinefile ./qchem3587784/hostfile -np 1 /cm/shared/apps/spack/cpu/opt/spack/linux-centos8-zen2/gcc-10.2.0/qchem-5.4-akfmr7b3t57bfs6qan3padb2wnb2i7cl/exe/qcprog.exe Dimethyl_Naphthalene_Dicarboximide_Phi_10_Theta_350_Thiophene.qcin_3587784.0 ./qchem3587784/

Process 0 of 1 is on exp-3-18 - thread support 0
initial socket setup ...start
initial socket setup ...done 
now start server 0 ... 
                  Welcome to Q-Chem
     A Quantum Leap Into The Future Of Chemistry


 Q-Chem 5.4, Q-Chem, Inc., Pleasanton, CA (2021)

 License issued to: University of California, San Diego (site)

 E. Epifanovsky,  A. T. B. Gilbert,  Xintian Feng,  Joonho Lee,  Yuezhi Mao,  
 N. Mardirossian,  P. Pokhilko,  A. White,  M. Wormit,  M. P. Coons,  
 A. L. Dempwolff,  Zhengting Gan,  D. Hait,  P. R. Horn,  L. D. Jacobson,  
 I. Kaliman,  J. Kussmann,  A. W. Lange,  Ka Un Lao,  D. S. Levine,  Jie Liu,  
 S. C. McKenzie,  A. F. Morrison,  K. Nanda,  F. Plasser,  D. R. Rehn,  
 M. L. Vidal,  Zhi-Qiang You,  Ying Zhu,  B. Alam,  B. Albrecht,  
 A. Aldossary,  E. Alguire,  J. H. Andersen,  D. Barton,  K. Begam,  A. Behn,  
 Y. A. Bernard,  E. J. Berquist,  H. Burton,  A. Carreras,  K. Carter-Fenk,  
 R. Chakraborty,  A. D. Chien,  K. D. Closser,  V. Cofer-Shabica,  
 S. Dasgupta,  Jia Deng,  M. de Wergifosse,  M. Diedenhofen,  Hainam Do,  
 S. Ehlert,  Po-Tung Fang,  S. Fatehi,  Qingguo Feng,  J. Gayvert,  
 Qinghui Ge,  G. Gidofalvi,  M. Goldey,  J. Gomes,  C. Gonzalez-Espinoza,  
 S. Gulania,  A. Gunina,  M. W. D. Hanson-Heine,  P. H. P. Harbach,  
 A. W. Hauser,  M. F. Herbst,  M. Hernandez Vera,  M. Hodecker,  
 Z. C. Holden,  S. Houck,  Xunkun Huang,  Kerwin Hui,  B. C. Huynh,  
 M. Ivanov,  Hyunjun Ji,  Hanjie Jiang,  B. Kaduk,  S. Kaehler,  
 K. Khistyaev,  Jaehoon Kim,  P. Klunzinger,  Z. Koczor-Benda,  
 Joong Hoon Koh,  D. Kosenkov,  L. Koulias,  T. Kowalczyk,  C. M. Krauter,  
 K. Kue,  A. Kunitsa,  T. Kus,  A. Landau,  K. V. Lawler,  D. Lefrancois,  
 S. Lehtola,  Rain Li,  Yi-Pei Li,  Jiashu Liang,  M. Liebenthal,  
 Hung-Hsuan Lin,  You-Sheng Lin,  Fenglai Liu,  Kuan-Yu Liu,  
 M. Loipersberger,  A. Luenser,  A. Manjanath,  P. Manohar,  E. Mansoor,  
 S. F. Manzer,  Shan-Ping Mao,  A. V. Marenich,  T. Markovich,  S. Mason,  
 S. A. Maurer,  P. F. McLaughlin,  M. F. S. J. Menger,  J.-M. Mewes,  
 S. A. Mewes,  P. Morgante,  J. W. Mullinax,  T. S. Nguyen-Beck,  
 K. J. Oosterbaan,  G. Paran,  Alexander C. Paul,  Suranjan K. Paul,  
 F. Pavosevic,  Zheng Pei,  S. Prager,  E. I. Proynov,  E. Ramos,  B. Rana,  
 A. E. Rask,  A. Rettig,  R. M. Richard,  F. Rob,  E. Rossomme,  T. Scheele,  
 M. Scheurer,  M. Schneider,  N. Sergueev,  S. M. Sharada,  W. Skomorowski,  
 D. W. Small,  C. J. Stein,  Yu-Chuan Su,  E. J. Sundstrom,  Zhen Tao,  
 J. Thirman,  T. Tsuchimochi,  N. M. Tubman,  S. P. Veccham,  O. Vydrov,  
 J. Wenzel,  J. Witte,  A. Yamada,  Kun Yao,  S. Yeganeh,  S. R. Yost,  
 A. Zech,  Igor Ying Zhang,  Xing Zhang,  Yu Zhang,  D. Zuev,  
 A. Aspuru-Guzik,  A. T. Bell,  N. A. Besley,  K. B. Bravaya,  B. R. Brooks,  
 D. Casanova,  Jeng-Da Chai,  S. Coriani,  C. J. Cramer,  
 A. E. DePrince, III,  R. A. DiStasio Jr.,  A. Dreuw,  B. D. Dunietz,  
 T. R. Furlani,  W. A. Goddard III,  S. Grimme,  S. Hammes-Schiffer,  
 T. Head-Gordon,  W. J. Hehre,  Chao-Ping Hsu,  T.-C. Jagau,  Yousung Jung,  
 A. Klamt,  Jing Kong,  D. S. Lambrecht,  WanZhen Liang,  N. J. Mayhall,  
 C. W. McCurdy,  J. B. Neaton,  C. Ochsenfeld,  J. A. Parkhill,  R. Peverati,  
 V. A. Rassolov,  Yihan Shao,  L. V. Slipchenko,  T. Stauch,  R. P. Steele,  
 J. E. Subotnik,  A. J. W. Thom,  A. Tkatchenko,  D. G. Truhlar,  
 T. Van Voorhis,  T. A. Wesolowski,  K. B. Whaley,  H. L. Woodcock III,  
 P. M. Zimmerman,  S. Faraji,  P. M. W. Gill,  M. Head-Gordon,  
 J. M. Herbert,  A. I. Krylov

 Contributors to earlier versions of Q-Chem not listed above: 
 R. D. Adamson,  B. Austin,  R. Baer,  J. Baker,  G. J. O. Beran,  
 K. Brandhorst,  S. T. Brown,  E. F. C. Byrd,  A. K. Chakraborty,  
 G. K. L. Chan,  Chun-Min Chang,  Yunqing Chen,  C.-L. Cheng,  
 Siu Hung Chien,  D. M. Chipman,  D. L. Crittenden,  H. Dachsel,  
 R. J. Doerksen,  A. D. Dutoi,  R. G. Edgar,  J. Fosso-Tande,  
 L. Fusti-Molnar,  D. Ghosh,  A. Ghysels,  A. Golubeva-Zadorozhnaya,  
 J. Gonthier,  M. S. Gordon,  S. R. Gwaltney,  G. Hawkins,  J. E. Herr,  
 A. Heyden,  S. Hirata,  E. G. Hohenstein,  G. Kedziora,  F. J. Keil,  
 C. Kelley,  Jihan Kim,  R. A. King,  R. Z. Khaliullin,  P. P. Korambath,  
 W. Kurlancheek,  A. Laurent,  A. M. Lee,  M. S. Lee,  S. V. Levchenko,  
 Ching Yeh Lin,  D. Liotard,  E. Livshits,  R. C. Lochan,  I. Lotan,  
 L. A. Martinez-Martinez,  P. E. Maslen,  N. Nair,  D. P. O'Neill,  
 D. Neuhauser,  E. Neuscamman,  C. M. Oana,  R. Olivares-Amaya,  R. Olson,  
 T. M. Perrine,  B. Peters,  P. A. Pieniazek,  A. Prociuk,  Y. M. Rhee,  
 J. Ritchie,  M. A. Rohrdanz,  E. Rosta,  N. J. Russ,  H. F. Schaefer III,  
 M. W. Schmidt,  N. E. Schultz,  S. Sharma,  N. Shenvi,  C. D. Sherrill,  
 A. C. Simmonett,  A. Sodt,  T. Stein,  D. Stuck,  K. S. Thanthiriwatte,  
 V. Vanovschi,  L. Vogt,  Tao Wang,  A. Warshel,  M. A. Watson,  
 C. F. Williams,  Q. Wu,  X. Xu,  Jun Yang,  W. Zhang,  Yan Zhao

 Please cite Q-Chem as follows:
 Y. Shao et al., Mol. Phys. 113, 184-215 (2015)
 DOI: 10.1080/00268976.2014.952696

 Q-Chem 5.4.0 for Intel X86 EM64T Linux

 Parts of Q-Chem use Armadillo 9.800.1 (Horizon Scraper).
 http://arma.sourceforge.net/

 Q-Chem begins on Wed Sep 20 10:48:30 2023  

 Host: 
0

     Scratch files written to ./qchem3587784//
 May1621 |scratch|qcdevops|jenkins|workspace|build_RNUM    
 Parallel job on  1  processors
 Processing $rem in /cm/shared/apps/spack/cpu/opt/spack/linux-centos8-zen2/gcc-10.2.0/qchem-5.4-akfmr7b3t57bfs6qan3padb2wnb2i7cl/config/preferences:
 Processing $rem in /home/rramji/.qchemrc:
 Symmetry turned off for PCM/SM12/SMD calculation
 Core orbitals will be frozen

 Checking the input file for inconsistencies... 	...done.

 Q-Chem warning in module forms1/BasisType.C, line 2236:

 You are not using the predefined 5D/6D in this basis set.


--------------------------------------------------------------
User input:
--------------------------------------------------------------
$molecule
0 1
C	-0.046070	-6.741404	-0.252767
C	-0.272935	-6.155638	-1.538656
C	0.141739	-5.791452	0.814966
C	-0.321083	-4.803786	-1.813042
H	-0.425592	-6.821518	-2.403318
C	0.091779	-4.378638	0.527566
C	-0.138909	-3.838032	-0.782769
C	0.273808	-3.413062	1.556632
C	-0.188483	-2.426473	-1.067868
C	0.226610	-2.059348	1.285436
C	0.000000	-1.478216	0.000000
H	0.379657	-1.394783	2.151019
C	0.390420	-6.187987	2.235891
C	0.522125	-3.798164	2.965540
N	0.562731	-5.170003	3.205600
C	-0.570244	-4.424987	-3.225760
C	-0.438407	-2.036627	-2.489646
N	-0.610438	-3.049156	-3.459662
O	0.455563	-7.353131	2.621768
O	0.683373	-2.986854	3.874608
O	-0.729367	-5.248946	-4.124059
O	-0.508697	-0.878829	-2.896516
C	0.806996	-5.563799	4.596910
H	0.813717	-6.664085	4.641640
H	0.013655	-5.147101	5.246567
H	1.775159	-5.148785	4.936739
C	-0.851572	-2.587487	-4.829729
H	-0.964204	-3.483329	-5.462387
H	-0.003956	-1.964972	-5.173914
H	-1.764390	-1.962932	-4.863360
H	-0.014094	-7.822318	-0.069584
C	0.000000	0.000000	0.000000
S	0.137535	0.781156	1.580530
C	0.421895	2.393994	0.904911
C	0.173134	0.982857	-0.985400
C	0.402294	2.283058	-0.493528
H	0.132237	0.750786	-2.059934
H	0.555196	3.150621	-1.152593
H	0.574741	3.261310	1.556025
$end

$rem
JOBTYPE		SP
EXCHANGE	HF
CORRELATION	pRIMP2
BASIS		cc-pvtz
METHOD		rimp2
AUX_BASIS	rimp2-cc-pvtz
SOLVENT_METHOD	PCM
PURECART	11111
SYMMETRY	false
MEM_TOTAL	110000
SCF_CONVERGENCE = 6
THRESH=10
GUI = 2
$end



$solvent
dielectric 4.90
$end
--------------------------------------------------------------
 ----------------------------------------------------------------
             Standard Nuclear Orientation (Angstroms)
    I     Atom           X                Y                Z
 ----------------------------------------------------------------
    1      C      -0.0460700000    -6.7414040000    -0.2527670000
    2      C      -0.2729350000    -6.1556380000    -1.5386560000
    3      C       0.1417390000    -5.7914520000     0.8149660000
    4      C      -0.3210830000    -4.8037860000    -1.8130420000
    5      H      -0.4255920000    -6.8215180000    -2.4033180000
    6      C       0.0917790000    -4.3786380000     0.5275660000
    7      C      -0.1389090000    -3.8380320000    -0.7827690000
    8      C       0.2738080000    -3.4130620000     1.5566320000
    9      C      -0.1884830000    -2.4264730000    -1.0678680000
   10      C       0.2266100000    -2.0593480000     1.2854360000
   11      C       0.0000000000    -1.4782160000     0.0000000000
   12      H       0.3796570000    -1.3947830000     2.1510190000
   13      C       0.3904200000    -6.1879870000     2.2358910000
   14      C       0.5221250000    -3.7981640000     2.9655400000
   15      N       0.5627310000    -5.1700030000     3.2056000000
   16      C      -0.5702440000    -4.4249870000    -3.2257600000
   17      C      -0.4384070000    -2.0366270000    -2.4896460000
   18      N      -0.6104380000    -3.0491560000    -3.4596620000
   19      O       0.4555630000    -7.3531310000     2.6217680000
   20      O       0.6833730000    -2.9868540000     3.8746080000
   21      O      -0.7293670000    -5.2489460000    -4.1240590000
   22      O      -0.5086970000    -0.8788290000    -2.8965160000
   23      C       0.8069960000    -5.5637990000     4.5969100000
   24      H       0.8137170000    -6.6640850000     4.6416400000
   25      H       0.0136550000    -5.1471010000     5.2465670000
   26      H       1.7751590000    -5.1487850000     4.9367390000
   27      C      -0.8515720000    -2.5874870000    -4.8297290000
   28      H      -0.9642040000    -3.4833290000    -5.4623870000
   29      H      -0.0039560000    -1.9649720000    -5.1739140000
   30      H      -1.7643900000    -1.9629320000    -4.8633600000
   31      H      -0.0140940000    -7.8223180000    -0.0695840000
   32      C       0.0000000000     0.0000000000     0.0000000000
   33      S       0.1375350000     0.7811560000     1.5805300000
   34      C       0.4218950000     2.3939940000     0.9049110000
   35      C       0.1731340000     0.9828570000    -0.9854000000
   36      C       0.4022940000     2.2830580000    -0.4935280000
   37      H       0.1322370000     0.7507860000    -2.0599340000
   38      H       0.5551960000     3.1506210000    -1.1525930000
   39      H       0.5747410000     3.2613100000     1.5560250000
 ----------------------------------------------------------------
 Nuclear Repulsion Energy =        2497.38287860 hartrees
 There are       97 alpha and       97 beta electrons
 Requested basis set is cc-pVTZ
 There are 344 shells and 982 basis functions

 Total QAlloc Memory Limit 110000 MB
 Mega-Array Size       188 MB
 MEM_STATIC part       192 MB
 Discretize the solute cavity surface with Lebedev spheres
	Using 110 Lebedev grid points for each H atom
	Using 194 Lebedev grid points for other atoms
	Atomic van der Waals radii will be scaled by 1.20
 Remove points where switching function is < 1.0e-08
 Keep 2543 surface tesserae and discard 4015 interior tesserae
 Molecular Surface Area = 359.944 Angst**2
 Requested basis set is rimp2-cc-pVTZ
 There are 750 shells and 2588 basis functions
 A cutoff of  1.0D-10 yielded  31685 shell pairs
 There are    244165 function pairs (    317327 Cartesian)
 Smallest overlap matrix eigenvalue = 9.67E-06

 Q-Chem warning in module stvman/mkSTV.C, line 323:

 Overlap eigenvalue is smaller than square root of threshold
 Use THRESH >= 12 to get rid of this warning


 Scale SEOQF with 1.000000e-01/1.000000e-02/1.000000e-02

 Standard Electronic Orientation quadrupole field applied
 Nucleus-field energy     =     0.0000000106 hartrees
 Guess from superposition of atomic densities
 Warning:  Energy on first SCF cycle will be non-variational
 SAD guess density has 194.000000 electrons

 -----------------------------------------------------------------------
  General SCF calculation program by
  Eric Jon Sundstrom, Paul Horn, Yuezhi Mao, Dmitri Zuev, Alec White,
  David Stuck, Shaama M.S., Shane Yost, Joonho Lee, David Small,
  Daniel Levine, Susi Lehtola, Hugh Burton, Evgeny Epifanovsky,
  Bang C. Huynh
 -----------------------------------------------------------------------
 Hartree-Fock
 using 64 threads for integral computing
 -------------------------------------------------------
 OpenMP Integral computing Module                
 Release: version 1.0, May 2013, Q-Chem Inc. Pittsburgh 
 -------------------------------------------------------
 A restricted SCF calculation will be
 performed using DIIS
 SCF converges when DIIS error is below 1.0e-06
 ---------------------------------------
  Cycle       Energy         DIIS error
 ---------------------------------------
    1   -1581.3896842457      1.87e-02  
    2   -1570.1160393685      2.08e-03  
    3   -1570.4452998346      1.61e-03  
    4   -1570.6712314645      2.59e-04  
    5   -1570.6834695840      7.76e-05  
    6   -1570.6845826418      2.85e-05  
    7   -1570.6848408060      1.42e-05  
    8   -1570.6849212122      5.93e-06  
    9   -1570.6849337166      2.27e-06  
   10   -1570.6849358461      7.88e-07  Convergence criterion met
 ---------------------------------------
 SCF time:   CPU 5835.55s  wall 245.00s 

************** Final PCM Free Energy Summary **************
 G_electrostatic  =      -0.02110974 hartree =     -13.24656036 kcal/mol
 G_cavitation     =       0.00000000 hartree =       0.00000000 kcal/mol
 G_dispersion     =       0.00000000 hartree =       0.00000000 kcal/mol
 G_repulsion      =       0.00000000 hartree =       0.00000000 kcal/mol
 --------------------------------------------------
 Non-electrostatic Free Energy =       0.00000000 hartree =       0.00000000 kcal/mol
 Total                         =      -0.02110974 hartree =     -13.24656036 kcal/mol
 --------------------------------------------------
 SCF Energy (H0 + V/2)                       =   -1570.68493585 
 Solute Internal Energy (H0)                 =   -1570.66382611 
 Total Free Energy (H0 + V/2 + non-elec)     =   -1570.68493585 hartree
                                             = -985619.67320048 kcal/mol
***********************************************************

 SCF   energy in the final basis set =    -1570.6849358461
 Total energy in the final basis set =    -1570.6849358461


 --------------------------------------------------------------
  Generalized many-body perturbation theory program
  by Joonho Lee, Fazle Rob, Xintian Feng, Evgeny Epifanovsky

 No regularization used 
 (reg. param. = 0.0000e+00)
  (P|Q)^-1/2 Time:  CPU 190.00 s  wall 3.36 s

 In RI-MP2 calculation: 
 # of frozen core orbitals: 31

 Components of the RIMP2 correlation energy:
        aaaa    correlation energy =        -0.6176414432 a.u.
        abab    correlation energy =        -3.3927109642 a.u.
        bbbb    correlation energy =        -0.6176414432 a.u.
        non-Brillouin singles      =        -0.0000000000 a.u.
        total same-spin energy     =        -1.2352828865 a.u.
        total opposite-spin energy =        -3.3927109642 a.u.

 Total  RIMP2   correlation energy =        -4.6279938507 a.u.
        RIMP2         total energy =     -1575.3129296968 a.u.

 RI-MP2 Energy Time:  CPU 9831.51 s  wall 165.33 s
 
 --------------------------------------------------------------
 
                    Orbital Energies (a.u.)
 --------------------------------------------------------------
 
 Alpha MOs
 -- Occupied --
-91.9933 -20.5585 -20.5565 -20.5558 -20.5536 -15.6312 -15.6306 -11.3998
-11.3970 -11.3914 -11.3908 -11.3198 -11.3021 -11.3003 -11.2986 -11.2954
-11.2943 -11.2917 -11.2905 -11.2874 -11.2834 -11.2791 -11.2782 -11.2649
-11.2644 -11.2546 -11.2503  -8.9932  -6.6741  -6.6735  -6.6729  -1.4253
 -1.4248  -1.4042  -1.4039  -1.2675  -1.2653  -1.2171  -1.1779  -1.1441
 -1.1164  -1.0638  -1.0495  -0.9926  -0.9904  -0.9874  -0.9588  -0.9474
 -0.8973  -0.8792  -0.8788  -0.8615  -0.7967  -0.7801  -0.7731  -0.7623
 -0.7359  -0.7224  -0.7035  -0.6943  -0.6822  -0.6741  -0.6665  -0.6623
 -0.6561  -0.6416  -0.6373  -0.6338  -0.6282  -0.6130  -0.5911  -0.5838
 -0.5795  -0.5715  -0.5662  -0.5636  -0.5619  -0.5561  -0.5538  -0.5472
 -0.5364  -0.5257  -0.5246  -0.5154  -0.4821  -0.4693  -0.4658  -0.4619
 -0.4586  -0.4515  -0.4292  -0.4191  -0.4099  -0.3771  -0.3554  -0.3366
 -0.2998
 -- Virtual --
 -0.0201   0.0513   0.0677   0.1038   0.1337   0.1539   0.1586   0.1589
  0.1665   0.1720   0.1762   0.1858   0.1966   0.2028   0.2065   0.2093
  0.2235   0.2276   0.2295   0.2353   0.2490   0.2538   0.2632   0.2666
  0.2699   0.3079   0.3106   0.3154   0.3203   0.3358   0.3380   0.3420
  0.3470   0.3483   0.3527   0.3562   0.3580   0.3638   0.3725   0.3797
  0.3827   0.3881   0.3962   0.3986   0.4031   0.4072   0.4111   0.4185
  0.4254   0.4272   0.4338   0.4392   0.4433   0.4467   0.4528   0.4561
  0.4606   0.4664   0.4681   0.4706   0.4787   0.4842   0.4903   0.4909
  0.5027   0.5108   0.5117   0.5155   0.5213   0.5231   0.5261   0.5314
  0.5362   0.5375   0.5477   0.5554   0.5579   0.5603   0.5645   0.5672
  0.5714   0.5723   0.5838   0.5897   0.5914   0.5946   0.5973   0.5992
  0.6029   0.6062   0.6160   0.6181   0.6203   0.6233   0.6283   0.6311
  0.6342   0.6352   0.6368   0.6438   0.6532   0.6629   0.6728   0.6797
  0.6818   0.6887   0.6959   0.6985   0.7073   0.7126   0.7155   0.7206
  0.7270   0.7345   0.7393   0.7455   0.7552   0.7590   0.7663   0.7669
  0.7736   0.7818   0.7838   0.7886   0.8073   0.8100   0.8152   0.8234
  0.8250   0.8350   0.8418   0.8445   0.8462   0.8535   0.8602   0.8633
  0.8657   0.8660   0.8739   0.8781   0.8852   0.8969   0.9046   0.9059
  0.9132   0.9201   0.9224   0.9284   0.9318   0.9355   0.9390   0.9500
  0.9541   0.9581   0.9643   0.9696   0.9760   0.9792   0.9800   0.9888
  0.9935   0.9975   1.0077   1.0117   1.0134   1.0216   1.0288   1.0321
  1.0379   1.0428   1.0547   1.0569   1.0616   1.0634   1.0700   1.0746
  1.0759   1.0820   1.0849   1.0874   1.0918   1.1008   1.1123   1.1216
  1.1250   1.1287   1.1364   1.1370   1.1460   1.1493   1.1586   1.1618
  1.1637   1.1683   1.1727   1.1767   1.1835   1.1865   1.1925   1.2012
  1.2096   1.2109   1.2145   1.2236   1.2267   1.2300   1.2336   1.2377
  1.2425   1.2449   1.2555   1.2606   1.2644   1.2750   1.2780   1.3069
  1.3180   1.3264   1.3300   1.3347   1.3402   1.3443   1.3479   1.3576
  1.3622   1.3802   1.3828   1.3860   1.3947   1.3951   1.4026   1.4188
  1.4232   1.4245   1.4349   1.4424   1.4494   1.4535   1.4537   1.4634
  1.4727   1.4792   1.4878   1.4918   1.4971   1.5013   1.5166   1.5226
  1.5279   1.5323   1.5387   1.5490   1.5572   1.5593   1.5603   1.5695
  1.5736   1.5769   1.5892   1.5996   1.6068   1.6113   1.6316   1.6384
  1.6419   1.6458   1.6546   1.6576   1.6651   1.6740   1.6851   1.6931
  1.6946   1.7115   1.7276   1.7318   1.7389   1.7411   1.7479   1.7522
  1.7665   1.7746   1.7767   1.7877   1.7952   1.8033   1.8084   1.8251
  1.8310   1.8393   1.8429   1.8536   1.8591   1.8609   1.8640   1.8679
  1.8782   1.8915   1.8969   1.9134   1.9262   1.9295   1.9383   1.9519
  1.9630   1.9684   1.9728   1.9798   1.9962   2.0107   2.0172   2.0357
  2.0501   2.0590   2.0792   2.0869   2.0963   2.1090   2.1233   2.1400
  2.1540   2.1593   2.1656   2.1715   2.1992   2.2108   2.2219   2.2332
  2.2406   2.2466   2.2626   2.2729   2.2847   2.2879   2.2922   2.3137
  2.3211   2.3217   2.3348   2.3515   2.3624   2.3702   2.3753   2.3830
  2.4074   2.4233   2.4337   2.4422   2.4500   2.4579   2.4654   2.4822
  2.4887   2.4923   2.4995   2.5052   2.5097   2.5209   2.5416   2.5506
  2.5618   2.5681   2.5851   2.5855   2.5928   2.5981   2.6053   2.6147
  2.6223   2.6248   2.6385   2.6472   2.6556   2.6609   2.6668   2.6689
  2.6764   2.6866   2.6897   2.7022   2.7118   2.7166   2.7245   2.7288
  2.7422   2.7473   2.7487   2.7555   2.7691   2.7705   2.7835   2.7911
  2.8023   2.8070   2.8271   2.8368   2.8433   2.8485   2.8541   2.8600
  2.8641   2.8691   2.8780   2.8821   2.8838   2.8921   2.9058   2.9105
  2.9206   2.9273   2.9357   2.9438   2.9515   2.9632   2.9703   2.9745
  2.9756   2.9763   2.9962   3.0001   3.0024   3.0066   3.0104   3.0160
  3.0212   3.0373   3.0389   3.0409   3.0469   3.0620   3.0638   3.0762
  3.0868   3.0878   3.0969   3.0986   3.1025   3.1098   3.1150   3.1206
  3.1312   3.1332   3.1355   3.1438   3.1645   3.1737   3.1752   3.1831
  3.1945   3.1963   3.2023   3.2109   3.2155   3.2158   3.2225   3.2252
  3.2321   3.2330   3.2380   3.2454   3.2513   3.2600   3.2630   3.2657
  3.2694   3.2732   3.2802   3.2818   3.2873   3.2950   3.2997   3.3074
  3.3121   3.3138   3.3183   3.3238   3.3303   3.3322   3.3335   3.3382
  3.3450   3.3467   3.3511   3.3549   3.3626   3.3682   3.3707   3.3738
  3.3743   3.3829   3.3905   3.3971   3.3998   3.4076   3.4144   3.4203
  3.4231   3.4290   3.4348   3.4370   3.4400   3.4486   3.4518   3.4584
  3.4622   3.4651   3.4710   3.4766   3.4850   3.4879   3.4906   3.4963
  3.4982   3.5023   3.5066   3.5108   3.5147   3.5168   3.5218   3.5276
  3.5325   3.5368   3.5462   3.5525   3.5634   3.5688   3.5781   3.5862
  3.5919   3.5970   3.6059   3.6066   3.6111   3.6137   3.6207   3.6309
  3.6329   3.6372   3.6419   3.6455   3.6512   3.6685   3.6695   3.6792
  3.6829   3.6868   3.6973   3.7002   3.7064   3.7091   3.7134   3.7203
  3.7302   3.7334   3.7413   3.7447   3.7503   3.7510   3.7568   3.7610
  3.7713   3.7829   3.7845   3.7913   3.7960   3.7999   3.8048   3.8105
  3.8168   3.8248   3.8268   3.8396   3.8462   3.8522   3.8606   3.8664
  3.8742   3.8782   3.8815   3.8864   3.8990   3.9156   3.9180   3.9198
  3.9332   3.9359   3.9398   3.9462   3.9576   3.9644   3.9680   3.9886
  3.9934   4.0030   4.0058   4.0133   4.0155   4.0263   4.0453   4.0465
  4.0605   4.0704   4.0768   4.0824   4.0864   4.0940   4.1048   4.1079
  4.1284   4.1310   4.1380   4.1393   4.1500   4.1529   4.1626   4.1722
  4.1752   4.1862   4.1907   4.1973   4.2068   4.2174   4.2313   4.2390
  4.2485   4.2595   4.2709   4.2752   4.2780   4.2822   4.2856   4.2925
  4.2996   4.3007   4.3066   4.3155   4.3237   4.3291   4.3328   4.3476
  4.3500   4.3549   4.3658   4.3673   4.3685   4.3783   4.3826   4.3864
  4.3930   4.3991   4.4063   4.4089   4.4139   4.4233   4.4384   4.4404
  4.4572   4.4603   4.4786   4.4945   4.5025   4.5111   4.5154   4.5222
  4.5240   4.5269   4.5431   4.5468   4.5589   4.5626   4.5702   4.5733
  4.5792   4.5849   4.5882   4.5959   4.6066   4.6157   4.6272   4.6407
  4.6451   4.6531   4.6614   4.6723   4.6752   4.6880   4.6910   4.6966
  4.7139   4.7267   4.7375   4.7522   4.7767   4.7795   4.7850   4.7987
  4.8219   4.8283   4.8387   4.8419   4.8495   4.8612   4.8803   4.8858
  4.8881   4.9027   4.9350   4.9402   4.9552   4.9732   4.9790   4.9883
  5.0074   5.0088   5.0241   5.0366   5.0469   5.0500   5.0527   5.0636
  5.1049   5.1064   5.1163   5.1215   5.1254   5.1354   5.1483   5.1643
  5.1719   5.1786   5.1895   5.2061   5.2150   5.2390   5.2564   5.2617
  5.2747   5.2827   5.2881   5.3000   5.3136   5.3237   5.3343   5.3409
  5.3664   5.3953   5.3989   5.4025   5.4252   5.4316   5.4329   5.4692
  5.4807   5.5077   5.5087   5.5124   5.5155   5.5400   5.5489   5.5571
  5.5601   5.5632   5.5733   5.5751   5.5776   5.5931   5.6072   5.6121
  5.6305   5.6405   5.6524   5.6547   5.6580   5.6767   5.6790   5.6935
  5.7041   5.7211   5.7236   5.7448   5.7537   5.7608   5.7691   5.7750
  5.7806   5.7920   5.8134   5.8293   5.8544   5.8926   5.9155   5.9297
  5.9529   5.9604   6.0006   6.0195   6.0238   6.0410   6.0517   6.0694
  6.1016   6.1065   6.1097   6.1203   6.1341   6.1881   6.2063   6.2150
  6.2177   6.2211   6.2390   6.2706   6.2717   6.2846   6.3069   6.3493
  6.3572   6.3964   6.4478   6.4500   6.4684   6.5281   6.5623   6.5739
  6.5893   6.6165   6.6477   6.6496   6.6602   6.7060   6.7379   6.8332
  6.8397   6.8824   6.8861   6.8973   6.9113   6.9338   6.9732   7.0804
  7.1273   7.1469   7.1913   7.2043   7.2441   7.3325   7.3423   7.3443
  7.3626   7.4700   7.5487   7.5588   7.5753   7.5816   7.6256   7.6351
  7.6818   7.7111   7.7717   8.4582   9.9360  10.3876  11.1713  11.2358
 11.7248  11.7754  12.0160  12.3866  12.5053  12.6099  12.8490  13.1630
 13.4455  13.5570  13.8198  13.9542  14.0385  14.1578  14.3206  14.4062
 14.5068  14.7692  15.3678  15.7496  16.0288
 --------------------------------------------------------------
 
          Ground-State Mulliken Net Atomic Charges

     Atom                 Charge (a.u.)
  ----------------------------------------
      1 C                    -0.143659
      2 C                    -0.111307
      3 C                    -0.029406
      4 C                    -0.003881
      5 H                     0.188044
      6 C                     0.004240
      7 C                     0.071705
      8 C                     0.053321
      9 C                    -0.073385
     10 C                    -0.174488
     11 C                     0.045450
     12 H                     0.169270
     13 C                     0.358119
     14 C                     0.363799
     15 N                    -0.101480
     16 C                     0.359424
     17 C                     0.382179
     18 N                    -0.092632
     19 O                    -0.464166
     20 O                    -0.476640
     21 O                    -0.483133
     22 O                    -0.480033
     23 C                    -0.201179
     24 H                     0.141136
     25 H                     0.112562
     26 H                     0.112469
     27 C                    -0.197931
     28 H                     0.134442
     29 H                     0.112298
     30 H                     0.112966
     31 H                     0.212745
     32 C                    -0.005218
     33 S                     0.005024
     34 C                    -0.179153
     35 C                    -0.112097
     36 C                    -0.247282
     37 H                     0.226863
     38 H                     0.191758
     39 H                     0.219258
  ----------------------------------------
  Sum of atomic charges =     0.000000

 -----------------------------------------------------------------
                    Cartesian Multipole Moments
 -----------------------------------------------------------------
    Charge (ESU x 10^10)
                -0.0000
    Dipole Moment (Debye)
         X       0.4865      Y       2.1349      Z      -0.8003
       Tot       2.3313
    Quadrupole Moments (Debye-Ang)
        XX    -164.2616     XY       1.8993     YY    -167.9531
        XZ      -3.4092     YZ       0.5825     ZZ    -177.4787
    Octopole Moments (Debye-Ang^2)
       XXX     -16.8475    XXY     468.3170    XYY       2.4898
       YYY    1613.8056    XXZ      -0.3716    XYZ      15.6346
       YYZ       5.1133    XZZ      -1.4436    YZZ     560.7349
       ZZZ       3.1222
    Hexadecapole Moments (Debye-Ang^3)
      XXXX    -378.8194   XXXY       6.8010   XXYY   -2739.2653
      XYYY     106.9270   YYYY  -17257.6486   XXXZ    -496.6331
      XXYZ      88.2477   XYYZ    -263.1775   YYYZ     732.2602
      XXZZ   -1074.4444   XYZZ     -51.5912   YYZZ   -4209.0218
      XZZZ    -545.9303   YZZZ     -49.3417   ZZZZ   -6275.6995
 -----------------------------------------------------------------
 Total job time:  426.80s(wall), 15792.66s(cpu) 
 Wed Sep 20 10:55:37 2023

        *************************************************************
        *                                                           *
        *  Thank you very much for using Q-Chem.  Have a nice day.  *
        *                                                           *
        *************************************************************


0 sent ACK to 0 
now end server 0 ... 
cleanup process ... done
remove work dirs ./qchem3587784.0 -- ./qchem3587784.0
rm -rf ./qchem3587784.0
rm -rf ./qchem3587784
