You are running Q-Chem version: 5.4.0

#
# job setting
#
local host:  exp-3-18
current dir: /expanse/lustre/projects/csd626/rramji/aromodel/PNDIT/Rotation_Test
input file:  Dimethyl_Naphthalene_Dicarboximide_Phi_10_Theta_150_Thiophene.qcin
output file: 
nprocs     : 1
nthreads   : 64
#
# qchem installation setting
#
QC:          /cm/shared/apps/spack/cpu/opt/spack/linux-centos8-zen2/gcc-10.2.0/qchem-5.4-akfmr7b3t57bfs6qan3padb2wnb2i7cl
QCAUX:       /cm/shared/apps/spack/cpu/opt/spack/linux-centos8-zen2/gcc-10.2.0/qchem-5.4-akfmr7b3t57bfs6qan3padb2wnb2i7cl/qcaux
QCPROG:      /cm/shared/apps/spack/cpu/opt/spack/linux-centos8-zen2/gcc-10.2.0/qchem-5.4-akfmr7b3t57bfs6qan3padb2wnb2i7cl/exe/qcprog.exe
QCPROG_S:    /cm/shared/apps/spack/cpu/opt/spack/linux-centos8-zen2/gcc-10.2.0/qchem-5.4-akfmr7b3t57bfs6qan3padb2wnb2i7cl/exe/qcprog.exe_s
PARALLEL:    -DPARALLEL
QCMPI:       mpich
#
# qchem directory setting
#
qcrun:       qchem3560008
QCSCRATCH:   .
QCLOCALSCR:  
QCTMPDIR:    .
QCFILEPREF:  ./qchem3560008
QCSAVEDIR:   
workdirs:    ./qchem3560008
workdir0:    ./qchem3560008
partmpdirs =  
#
# parallel setting
#
QCRSH:           ssh
QCMPI:           mpich
QCMPIRUN:        /cm/shared/apps/spack/cpu/opt/spack/linux-centos8-zen2/gcc-10.2.0/qchem-5.4-akfmr7b3t57bfs6qan3padb2wnb2i7cl/bin/mpi/mpirun_qchem
QCMACHINEFILE:   ./qchem3560008/hostfile
exp-3-18

#
# env setting
#
exported envs:   QC QCAUX QCSCRATCH QCRUNNAME QCFILEPREF QCPROG QCPROG_S GUIFILE

Running Job 1 of 1 Dimethyl_Naphthalene_Dicarboximide_Phi_10_Theta_150_Thiophene.qcin
qchem Dimethyl_Naphthalene_Dicarboximide_Phi_10_Theta_150_Thiophene.qcin_3560008.0 ./qchem3560008/ 1
/cm/shared/apps/spack/cpu/opt/spack/linux-centos8-zen2/gcc-10.2.0/qchem-5.4-akfmr7b3t57bfs6qan3padb2wnb2i7cl/bin/mpi/mpirun_qchem -machinefile ./qchem3560008/hostfile -np 1 /cm/shared/apps/spack/cpu/opt/spack/linux-centos8-zen2/gcc-10.2.0/qchem-5.4-akfmr7b3t57bfs6qan3padb2wnb2i7cl/exe/qcprog.exe Dimethyl_Naphthalene_Dicarboximide_Phi_10_Theta_150_Thiophene.qcin_3560008.0 ./qchem3560008/

Process 0 of 1 is on exp-3-18 - thread support 0
initial socket setup ...start
initial socket setup ...done 
now start server 0 ... 
                  Welcome to Q-Chem
     A Quantum Leap Into The Future Of Chemistry


 Q-Chem 5.4, Q-Chem, Inc., Pleasanton, CA (2021)

 License issued to: University of California, San Diego (site)

 E. Epifanovsky,  A. T. B. Gilbert,  Xintian Feng,  Joonho Lee,  Yuezhi Mao,  
 N. Mardirossian,  P. Pokhilko,  A. White,  M. Wormit,  M. P. Coons,  
 A. L. Dempwolff,  Zhengting Gan,  D. Hait,  P. R. Horn,  L. D. Jacobson,  
 I. Kaliman,  J. Kussmann,  A. W. Lange,  Ka Un Lao,  D. S. Levine,  Jie Liu,  
 S. C. McKenzie,  A. F. Morrison,  K. Nanda,  F. Plasser,  D. R. Rehn,  
 M. L. Vidal,  Zhi-Qiang You,  Ying Zhu,  B. Alam,  B. Albrecht,  
 A. Aldossary,  E. Alguire,  J. H. Andersen,  D. Barton,  K. Begam,  A. Behn,  
 Y. A. Bernard,  E. J. Berquist,  H. Burton,  A. Carreras,  K. Carter-Fenk,  
 R. Chakraborty,  A. D. Chien,  K. D. Closser,  V. Cofer-Shabica,  
 S. Dasgupta,  Jia Deng,  M. de Wergifosse,  M. Diedenhofen,  Hainam Do,  
 S. Ehlert,  Po-Tung Fang,  S. Fatehi,  Qingguo Feng,  J. Gayvert,  
 Qinghui Ge,  G. Gidofalvi,  M. Goldey,  J. Gomes,  C. Gonzalez-Espinoza,  
 S. Gulania,  A. Gunina,  M. W. D. Hanson-Heine,  P. H. P. Harbach,  
 A. W. Hauser,  M. F. Herbst,  M. Hernandez Vera,  M. Hodecker,  
 Z. C. Holden,  S. Houck,  Xunkun Huang,  Kerwin Hui,  B. C. Huynh,  
 M. Ivanov,  Hyunjun Ji,  Hanjie Jiang,  B. Kaduk,  S. Kaehler,  
 K. Khistyaev,  Jaehoon Kim,  P. Klunzinger,  Z. Koczor-Benda,  
 Joong Hoon Koh,  D. Kosenkov,  L. Koulias,  T. Kowalczyk,  C. M. Krauter,  
 K. Kue,  A. Kunitsa,  T. Kus,  A. Landau,  K. V. Lawler,  D. Lefrancois,  
 S. Lehtola,  Rain Li,  Yi-Pei Li,  Jiashu Liang,  M. Liebenthal,  
 Hung-Hsuan Lin,  You-Sheng Lin,  Fenglai Liu,  Kuan-Yu Liu,  
 M. Loipersberger,  A. Luenser,  A. Manjanath,  P. Manohar,  E. Mansoor,  
 S. F. Manzer,  Shan-Ping Mao,  A. V. Marenich,  T. Markovich,  S. Mason,  
 S. A. Maurer,  P. F. McLaughlin,  M. F. S. J. Menger,  J.-M. Mewes,  
 S. A. Mewes,  P. Morgante,  J. W. Mullinax,  T. S. Nguyen-Beck,  
 K. J. Oosterbaan,  G. Paran,  Alexander C. Paul,  Suranjan K. Paul,  
 F. Pavosevic,  Zheng Pei,  S. Prager,  E. I. Proynov,  E. Ramos,  B. Rana,  
 A. E. Rask,  A. Rettig,  R. M. Richard,  F. Rob,  E. Rossomme,  T. Scheele,  
 M. Scheurer,  M. Schneider,  N. Sergueev,  S. M. Sharada,  W. Skomorowski,  
 D. W. Small,  C. J. Stein,  Yu-Chuan Su,  E. J. Sundstrom,  Zhen Tao,  
 J. Thirman,  T. Tsuchimochi,  N. M. Tubman,  S. P. Veccham,  O. Vydrov,  
 J. Wenzel,  J. Witte,  A. Yamada,  Kun Yao,  S. Yeganeh,  S. R. Yost,  
 A. Zech,  Igor Ying Zhang,  Xing Zhang,  Yu Zhang,  D. Zuev,  
 A. Aspuru-Guzik,  A. T. Bell,  N. A. Besley,  K. B. Bravaya,  B. R. Brooks,  
 D. Casanova,  Jeng-Da Chai,  S. Coriani,  C. J. Cramer,  
 A. E. DePrince, III,  R. A. DiStasio Jr.,  A. Dreuw,  B. D. Dunietz,  
 T. R. Furlani,  W. A. Goddard III,  S. Grimme,  S. Hammes-Schiffer,  
 T. Head-Gordon,  W. J. Hehre,  Chao-Ping Hsu,  T.-C. Jagau,  Yousung Jung,  
 A. Klamt,  Jing Kong,  D. S. Lambrecht,  WanZhen Liang,  N. J. Mayhall,  
 C. W. McCurdy,  J. B. Neaton,  C. Ochsenfeld,  J. A. Parkhill,  R. Peverati,  
 V. A. Rassolov,  Yihan Shao,  L. V. Slipchenko,  T. Stauch,  R. P. Steele,  
 J. E. Subotnik,  A. J. W. Thom,  A. Tkatchenko,  D. G. Truhlar,  
 T. Van Voorhis,  T. A. Wesolowski,  K. B. Whaley,  H. L. Woodcock III,  
 P. M. Zimmerman,  S. Faraji,  P. M. W. Gill,  M. Head-Gordon,  
 J. M. Herbert,  A. I. Krylov

 Contributors to earlier versions of Q-Chem not listed above: 
 R. D. Adamson,  B. Austin,  R. Baer,  J. Baker,  G. J. O. Beran,  
 K. Brandhorst,  S. T. Brown,  E. F. C. Byrd,  A. K. Chakraborty,  
 G. K. L. Chan,  Chun-Min Chang,  Yunqing Chen,  C.-L. Cheng,  
 Siu Hung Chien,  D. M. Chipman,  D. L. Crittenden,  H. Dachsel,  
 R. J. Doerksen,  A. D. Dutoi,  R. G. Edgar,  J. Fosso-Tande,  
 L. Fusti-Molnar,  D. Ghosh,  A. Ghysels,  A. Golubeva-Zadorozhnaya,  
 J. Gonthier,  M. S. Gordon,  S. R. Gwaltney,  G. Hawkins,  J. E. Herr,  
 A. Heyden,  S. Hirata,  E. G. Hohenstein,  G. Kedziora,  F. J. Keil,  
 C. Kelley,  Jihan Kim,  R. A. King,  R. Z. Khaliullin,  P. P. Korambath,  
 W. Kurlancheek,  A. Laurent,  A. M. Lee,  M. S. Lee,  S. V. Levchenko,  
 Ching Yeh Lin,  D. Liotard,  E. Livshits,  R. C. Lochan,  I. Lotan,  
 L. A. Martinez-Martinez,  P. E. Maslen,  N. Nair,  D. P. O'Neill,  
 D. Neuhauser,  E. Neuscamman,  C. M. Oana,  R. Olivares-Amaya,  R. Olson,  
 T. M. Perrine,  B. Peters,  P. A. Pieniazek,  A. Prociuk,  Y. M. Rhee,  
 J. Ritchie,  M. A. Rohrdanz,  E. Rosta,  N. J. Russ,  H. F. Schaefer III,  
 M. W. Schmidt,  N. E. Schultz,  S. Sharma,  N. Shenvi,  C. D. Sherrill,  
 A. C. Simmonett,  A. Sodt,  T. Stein,  D. Stuck,  K. S. Thanthiriwatte,  
 V. Vanovschi,  L. Vogt,  Tao Wang,  A. Warshel,  M. A. Watson,  
 C. F. Williams,  Q. Wu,  X. Xu,  Jun Yang,  W. Zhang,  Yan Zhao

 Please cite Q-Chem as follows:
 Y. Shao et al., Mol. Phys. 113, 184-215 (2015)
 DOI: 10.1080/00268976.2014.952696

 Q-Chem 5.4.0 for Intel X86 EM64T Linux

 Parts of Q-Chem use Armadillo 9.800.1 (Horizon Scraper).
 http://arma.sourceforge.net/

 Q-Chem begins on Wed Sep 20 09:11:00 2023  

 Host: 
0

     Scratch files written to ./qchem3560008//
 May1621 |scratch|qcdevops|jenkins|workspace|build_RNUM    
 Parallel job on  1  processors
 Processing $rem in /cm/shared/apps/spack/cpu/opt/spack/linux-centos8-zen2/gcc-10.2.0/qchem-5.4-akfmr7b3t57bfs6qan3padb2wnb2i7cl/config/preferences:
 Processing $rem in /home/rramji/.qchemrc:
 Symmetry turned off for PCM/SM12/SMD calculation
 Core orbitals will be frozen

 Checking the input file for inconsistencies... 	...done.

 Q-Chem warning in module forms1/BasisType.C, line 2236:

 You are not using the predefined 5D/6D in this basis set.


--------------------------------------------------------------
User input:
--------------------------------------------------------------
$molecule
0 1
C	0.129743	-6.741404	0.221766
C	0.782726	-6.155638	1.352515
C	-0.411926	-5.791452	-0.717339
C	0.921816	-4.803786	1.593885
H	1.221908	-6.821518	2.112819
C	-0.266682	-4.378638	-0.464360
C	0.398255	-3.838032	0.688053
C	-0.789694	-3.413062	-1.369108
C	0.542349	-2.426473	0.939002
C	-0.652589	-2.059348	-1.130409
C	0.000000	-1.478216	0.000000
H	-1.092453	-1.394783	-1.891446
C	-1.131595	-6.187987	-1.967519
C	-1.504912	-3.798164	-2.608118
N	-1.625174	-5.170003	-2.819813
C	1.639129	-4.424987	2.836188
C	1.263477	-2.036627	2.189558
N	1.756898	-3.049156	3.042237
O	-1.324787	-7.353131	-2.307845
O	-1.967354	-2.986854	-3.407213
O	2.095892	-5.248946	3.625890
O	1.468685	-0.878829	2.547850
C	-2.330564	-5.563799	-4.043674
H	-2.352178	-6.664085	-4.083407
H	-1.807263	-5.147101	-4.925490
H	-3.356568	-5.148785	-4.031877
C	2.452080	-2.587487	4.247206
H	2.774302	-3.483329	4.803187
H	1.773301	-1.964972	4.860536
H	3.321351	-1.962932	3.966607
H	0.037043	-7.822318	0.060567
C	0.000000	0.000000	0.000000
S	0.137535	0.781156	1.580530
C	0.421895	2.393994	0.904911
C	0.173134	0.982857	-0.985400
C	0.402294	2.283058	-0.493528
H	0.132237	0.750786	-2.059934
H	0.555196	3.150621	-1.152593
H	0.574741	3.261310	1.556025
$end

$rem
JOBTYPE		SP
EXCHANGE	HF
CORRELATION	pRIMP2
BASIS		cc-pvtz
METHOD		rimp2
AUX_BASIS	rimp2-cc-pvtz
SOLVENT_METHOD	PCM
PURECART	11111
SYMMETRY	false
MEM_TOTAL	110000
SCF_CONVERGENCE = 6
THRESH=10
GUI = 2
$end



$solvent
dielectric 4.90
$end
--------------------------------------------------------------
 ----------------------------------------------------------------
             Standard Nuclear Orientation (Angstroms)
    I     Atom           X                Y                Z
 ----------------------------------------------------------------
    1      C       0.1297430000    -6.7414040000     0.2217660000
    2      C       0.7827260000    -6.1556380000     1.3525150000
    3      C      -0.4119260000    -5.7914520000    -0.7173390000
    4      C       0.9218160000    -4.8037860000     1.5938850000
    5      H       1.2219080000    -6.8215180000     2.1128190000
    6      C      -0.2666820000    -4.3786380000    -0.4643600000
    7      C       0.3982550000    -3.8380320000     0.6880530000
    8      C      -0.7896940000    -3.4130620000    -1.3691080000
    9      C       0.5423490000    -2.4264730000     0.9390020000
   10      C      -0.6525890000    -2.0593480000    -1.1304090000
   11      C       0.0000000000    -1.4782160000     0.0000000000
   12      H      -1.0924530000    -1.3947830000    -1.8914460000
   13      C      -1.1315950000    -6.1879870000    -1.9675190000
   14      C      -1.5049120000    -3.7981640000    -2.6081180000
   15      N      -1.6251740000    -5.1700030000    -2.8198130000
   16      C       1.6391290000    -4.4249870000     2.8361880000
   17      C       1.2634770000    -2.0366270000     2.1895580000
   18      N       1.7568980000    -3.0491560000     3.0422370000
   19      O      -1.3247870000    -7.3531310000    -2.3078450000
   20      O      -1.9673540000    -2.9868540000    -3.4072130000
   21      O       2.0958920000    -5.2489460000     3.6258900000
   22      O       1.4686850000    -0.8788290000     2.5478500000
   23      C      -2.3305640000    -5.5637990000    -4.0436740000
   24      H      -2.3521780000    -6.6640850000    -4.0834070000
   25      H      -1.8072630000    -5.1471010000    -4.9254900000
   26      H      -3.3565680000    -5.1487850000    -4.0318770000
   27      C       2.4520800000    -2.5874870000     4.2472060000
   28      H       2.7743020000    -3.4833290000     4.8031870000
   29      H       1.7733010000    -1.9649720000     4.8605360000
   30      H       3.3213510000    -1.9629320000     3.9666070000
   31      H       0.0370430000    -7.8223180000     0.0605670000
   32      C       0.0000000000     0.0000000000     0.0000000000
   33      S       0.1375350000     0.7811560000     1.5805300000
   34      C       0.4218950000     2.3939940000     0.9049110000
   35      C       0.1731340000     0.9828570000    -0.9854000000
   36      C       0.4022940000     2.2830580000    -0.4935280000
   37      H       0.1322370000     0.7507860000    -2.0599340000
   38      H       0.5551960000     3.1506210000    -1.1525930000
   39      H       0.5747410000     3.2613100000     1.5560250000
 ----------------------------------------------------------------
 Nuclear Repulsion Energy =        2510.38048737 hartrees
 There are       97 alpha and       97 beta electrons
 Requested basis set is cc-pVTZ
 There are 344 shells and 982 basis functions

 Total QAlloc Memory Limit 110000 MB
 Mega-Array Size       188 MB
 MEM_STATIC part       192 MB
 Discretize the solute cavity surface with Lebedev spheres
	Using 110 Lebedev grid points for each H atom
	Using 194 Lebedev grid points for other atoms
	Atomic van der Waals radii will be scaled by 1.20
 Remove points where switching function is < 1.0e-08
 Keep 2520 surface tesserae and discard 4038 interior tesserae
 Molecular Surface Area = 361.988 Angst**2
 Requested basis set is rimp2-cc-pVTZ
 There are 750 shells and 2588 basis functions
 A cutoff of  1.0D-10 yielded  31725 shell pairs
 There are    244387 function pairs (    317541 Cartesian)
 Smallest overlap matrix eigenvalue = 9.95E-06

 Q-Chem warning in module stvman/mkSTV.C, line 323:

 Overlap eigenvalue is smaller than square root of threshold
 Use THRESH >= 12 to get rid of this warning


 Scale SEOQF with 1.000000e-01/1.000000e-02/1.000000e-01

 Standard Electronic Orientation quadrupole field applied
 Nucleus-field energy     =    -0.0000000736 hartrees
 Guess from superposition of atomic densities
 Warning:  Energy on first SCF cycle will be non-variational
 SAD guess density has 194.000000 electrons

 -----------------------------------------------------------------------
  General SCF calculation program by
  Eric Jon Sundstrom, Paul Horn, Yuezhi Mao, Dmitri Zuev, Alec White,
  David Stuck, Shaama M.S., Shane Yost, Joonho Lee, David Small,
  Daniel Levine, Susi Lehtola, Hugh Burton, Evgeny Epifanovsky,
  Bang C. Huynh
 -----------------------------------------------------------------------
 Hartree-Fock
 using 64 threads for integral computing
 -------------------------------------------------------
 OpenMP Integral computing Module                
 Release: version 1.0, May 2013, Q-Chem Inc. Pittsburgh 
 -------------------------------------------------------
 A restricted SCF calculation will be
 performed using DIIS
 SCF converges when DIIS error is below 1.0e-06
 ---------------------------------------
  Cycle       Energy         DIIS error
 ---------------------------------------
    1   -1581.3849932848      1.87e-02  
    2   -1570.0909070719      2.09e-03  
    3   -1570.4155795328      1.62e-03  
    4   -1570.6444346012      2.59e-04  
    5   -1570.6565439678      7.64e-05  
    6   -1570.6576012756      2.79e-05  
    7   -1570.6578442587      1.43e-05  
    8   -1570.6579226339      5.86e-06  
    9   -1570.6579354758      2.34e-06  
   10   -1570.6579378199      8.17e-07  Convergence criterion met
 ---------------------------------------
 SCF time:   CPU 5875.65s  wall 233.00s 

************** Final PCM Free Energy Summary **************
 G_electrostatic  =      -0.02249387 hartree =     -14.11511748 kcal/mol
 G_cavitation     =       0.00000000 hartree =       0.00000000 kcal/mol
 G_dispersion     =       0.00000000 hartree =       0.00000000 kcal/mol
 G_repulsion      =       0.00000000 hartree =       0.00000000 kcal/mol
 --------------------------------------------------
 Non-electrostatic Free Energy =       0.00000000 hartree =       0.00000000 kcal/mol
 Total                         =      -0.02249387 hartree =     -14.11511748 kcal/mol
 --------------------------------------------------
 SCF Energy (H0 + V/2)                       =   -1570.65793782 
 Solute Internal Energy (H0)                 =   -1570.63544395 
 Total Free Energy (H0 + V/2 + non-elec)     =   -1570.65793782 hartree
                                             = -985602.73168329 kcal/mol
***********************************************************

 SCF   energy in the final basis set =    -1570.6579378199
 Total energy in the final basis set =    -1570.6579378199


 --------------------------------------------------------------
  Generalized many-body perturbation theory program
  by Joonho Lee, Fazle Rob, Xintian Feng, Evgeny Epifanovsky

 No regularization used 
 (reg. param. = 0.0000e+00)
  (P|Q)^-1/2 Time:  CPU 108.08 s  wall 1.71 s

 In RI-MP2 calculation: 
 # of frozen core orbitals: 31

 Components of the RIMP2 correlation energy:
        aaaa    correlation energy =        -0.6194487269 a.u.
        abab    correlation energy =        -3.3976034616 a.u.
        bbbb    correlation energy =        -0.6194487269 a.u.
        non-Brillouin singles      =        -0.0000000000 a.u.
        total same-spin energy     =        -1.2388974538 a.u.
        total opposite-spin energy =        -3.3976034616 a.u.

 Total  RIMP2   correlation energy =        -4.6365009154 a.u.
        RIMP2         total energy =     -1575.2944387352 a.u.

 RI-MP2 Energy Time:  CPU 1938.68 s  wall 31.31 s
 
 --------------------------------------------------------------
 
                    Orbital Energies (a.u.)
 --------------------------------------------------------------
 
 Alpha MOs
 -- Occupied --
-91.9807 -20.5588 -20.5567 -20.5543 -20.5531 -15.6314 -15.6311 -11.4002
-11.3979 -11.3919 -11.3910 -11.3193 -11.3025 -11.3015 -11.3005 -11.2962
-11.2951 -11.2871 -11.2870 -11.2842 -11.2796 -11.2789 -11.2778 -11.2650
-11.2647 -11.2589 -11.2419  -8.9806  -6.6610  -6.6602  -6.6596  -1.4278
 -1.4251  -1.4056  -1.4045  -1.2683  -1.2661  -1.2170  -1.1718  -1.1427
 -1.1169  -1.0618  -1.0496  -0.9930  -0.9881  -0.9806  -0.9592  -0.9471
 -0.8968  -0.8800  -0.8775  -0.8625  -0.7934  -0.7774  -0.7752  -0.7592
 -0.7324  -0.7216  -0.7031  -0.6930  -0.6866  -0.6739  -0.6669  -0.6627
 -0.6570  -0.6406  -0.6383  -0.6361  -0.6281  -0.6138  -0.5841  -0.5821
 -0.5797  -0.5715  -0.5688  -0.5650  -0.5639  -0.5559  -0.5550  -0.5489
 -0.5337  -0.5238  -0.5215  -0.5177  -0.4854  -0.4719  -0.4650  -0.4637
 -0.4570  -0.4359  -0.4247  -0.4161  -0.4091  -0.3717  -0.3370  -0.3287
 -0.2995
 -- Virtual --
 -0.0207   0.0577   0.0698   0.1059   0.1287   0.1551   0.1578   0.1598
  0.1662   0.1743   0.1813   0.1832   0.1854   0.1971   0.2070   0.2093
  0.2237   0.2272   0.2282   0.2345   0.2452   0.2516   0.2630   0.2640
  0.2667   0.3068   0.3130   0.3147   0.3247   0.3272   0.3309   0.3382
  0.3428   0.3508   0.3522   0.3567   0.3602   0.3612   0.3703   0.3762
  0.3821   0.3848   0.3902   0.3955   0.4004   0.4063   0.4097   0.4129
  0.4230   0.4267   0.4332   0.4403   0.4455   0.4461   0.4521   0.4582
  0.4601   0.4616   0.4636   0.4761   0.4800   0.4819   0.4893   0.4948
  0.5060   0.5066   0.5111   0.5148   0.5177   0.5214   0.5259   0.5330
  0.5378   0.5427   0.5469   0.5503   0.5537   0.5571   0.5599   0.5679
  0.5726   0.5769   0.5787   0.5874   0.5907   0.5936   0.5988   0.6024
  0.6044   0.6091   0.6139   0.6178   0.6190   0.6233   0.6274   0.6296
  0.6323   0.6356   0.6380   0.6394   0.6447   0.6529   0.6600   0.6691
  0.6801   0.6819   0.6933   0.6973   0.7031   0.7112   0.7127   0.7236
  0.7312   0.7353   0.7401   0.7438   0.7489   0.7569   0.7594   0.7647
  0.7758   0.7782   0.7801   0.8033   0.8042   0.8093   0.8117   0.8202
  0.8283   0.8324   0.8411   0.8437   0.8460   0.8482   0.8568   0.8625
  0.8641   0.8674   0.8747   0.8777   0.8832   0.9000   0.9046   0.9071
  0.9117   0.9130   0.9159   0.9281   0.9306   0.9433   0.9473   0.9521
  0.9553   0.9568   0.9605   0.9698   0.9731   0.9774   0.9824   0.9865
  0.9916   0.9944   1.0004   1.0086   1.0109   1.0199   1.0227   1.0299
  1.0375   1.0427   1.0500   1.0589   1.0625   1.0661   1.0719   1.0764
  1.0781   1.0830   1.0866   1.0890   1.0928   1.1028   1.1083   1.1124
  1.1267   1.1325   1.1357   1.1411   1.1458   1.1473   1.1490   1.1585
  1.1622   1.1651   1.1690   1.1756   1.1836   1.1894   1.1916   1.1963
  1.2051   1.2083   1.2117   1.2169   1.2239   1.2272   1.2399   1.2441
  1.2453   1.2510   1.2564   1.2592   1.2629   1.2785   1.2823   1.2923
  1.3173   1.3228   1.3259   1.3329   1.3401   1.3445   1.3547   1.3620
  1.3667   1.3720   1.3787   1.3821   1.3881   1.3929   1.3998   1.4175
  1.4200   1.4313   1.4376   1.4410   1.4491   1.4529   1.4599   1.4667
  1.4735   1.4801   1.4830   1.4886   1.5025   1.5071   1.5182   1.5269
  1.5277   1.5311   1.5383   1.5428   1.5521   1.5592   1.5612   1.5676
  1.5721   1.5735   1.5776   1.5971   1.6023   1.6057   1.6157   1.6340
  1.6379   1.6490   1.6538   1.6590   1.6710   1.6744   1.6823   1.6928
  1.6962   1.7137   1.7156   1.7194   1.7240   1.7356   1.7414   1.7449
  1.7500   1.7643   1.7698   1.7756   1.7912   1.8010   1.8061   1.8104
  1.8215   1.8287   1.8362   1.8461   1.8510   1.8572   1.8604   1.8679
  1.8771   1.8832   1.8979   1.9115   1.9162   1.9215   1.9344   1.9463
  1.9628   1.9665   1.9729   1.9774   1.9834   2.0119   2.0288   2.0358
  2.0512   2.0694   2.0804   2.0866   2.1021   2.1170   2.1330   2.1442
  2.1481   2.1655   2.1728   2.1866   2.2036   2.2257   2.2298   2.2408
  2.2436   2.2496   2.2645   2.2799   2.2857   2.2913   2.2975   2.3029
  2.3218   2.3286   2.3345   2.3532   2.3563   2.3682   2.3748   2.3939
  2.4223   2.4310   2.4344   2.4420   2.4515   2.4566   2.4656   2.4750
  2.4845   2.4908   2.4917   2.5015   2.5094   2.5336   2.5377   2.5522
  2.5577   2.5734   2.5847   2.5867   2.5974   2.5978   2.6111   2.6127
  2.6231   2.6259   2.6409   2.6467   2.6581   2.6624   2.6684   2.6744
  2.6776   2.6829   2.6875   2.7051   2.7110   2.7199   2.7290   2.7297
  2.7346   2.7435   2.7519   2.7551   2.7572   2.7700   2.7770   2.7929
  2.7991   2.8084   2.8179   2.8281   2.8376   2.8473   2.8526   2.8607
  2.8673   2.8690   2.8782   2.8830   2.8860   2.8889   2.8966   2.9012
  2.9108   2.9167   2.9284   2.9316   2.9460   2.9483   2.9584   2.9657
  2.9716   2.9752   2.9876   2.9998   3.0011   3.0061   3.0102   3.0116
  3.0274   3.0375   3.0392   3.0445   3.0504   3.0564   3.0618   3.0738
  3.0851   3.0908   3.0987   3.1023   3.1053   3.1094   3.1170   3.1220
  3.1291   3.1307   3.1324   3.1523   3.1598   3.1678   3.1701   3.1809
  3.1866   3.1975   3.1997   3.2074   3.2091   3.2166   3.2195   3.2225
  3.2274   3.2316   3.2419   3.2507   3.2537   3.2581   3.2632   3.2664
  3.2687   3.2760   3.2786   3.2854   3.2867   3.2929   3.2989   3.3025
  3.3061   3.3154   3.3223   3.3253   3.3297   3.3329   3.3355   3.3401
  3.3420   3.3438   3.3461   3.3540   3.3593   3.3683   3.3691   3.3727
  3.3787   3.3800   3.3880   3.3912   3.3981   3.4018   3.4053   3.4217
  3.4247   3.4315   3.4351   3.4415   3.4469   3.4496   3.4517   3.4544
  3.4598   3.4637   3.4698   3.4724   3.4805   3.4844   3.4863   3.4942
  3.4977   3.5031   3.5065   3.5103   3.5183   3.5200   3.5271   3.5296
  3.5351   3.5399   3.5417   3.5481   3.5558   3.5621   3.5670   3.5797
  3.5813   3.5862   3.5946   3.6021   3.6140   3.6205   3.6254   3.6305
  3.6360   3.6388   3.6416   3.6482   3.6537   3.6598   3.6688   3.6784
  3.6848   3.6901   3.6939   3.7028   3.7076   3.7097   3.7140   3.7225
  3.7282   3.7297   3.7345   3.7418   3.7515   3.7544   3.7570   3.7638
  3.7733   3.7829   3.7837   3.7849   3.7935   3.7965   3.7988   3.8042
  3.8190   3.8257   3.8356   3.8387   3.8413   3.8494   3.8542   3.8585
  3.8601   3.8660   3.8742   3.8837   3.8945   3.8978   3.9178   3.9258
  3.9302   3.9307   3.9356   3.9419   3.9502   3.9543   3.9643   3.9838
  3.9904   3.9912   3.9967   4.0093   4.0114   4.0178   4.0305   4.0450
  4.0481   4.0607   4.0698   4.0813   4.0825   4.0997   4.1019   4.1054
  4.1227   4.1267   4.1307   4.1457   4.1510   4.1568   4.1719   4.1754
  4.1782   4.1842   4.1916   4.1985   4.2071   4.2187   4.2209   4.2326
  4.2424   4.2459   4.2592   4.2671   4.2752   4.2766   4.2780   4.2859
  4.2965   4.2992   4.3038   4.3124   4.3234   4.3252   4.3359   4.3464
  4.3483   4.3518   4.3566   4.3624   4.3652   4.3677   4.3713   4.3800
  4.3897   4.3996   4.4065   4.4140   4.4218   4.4267   4.4346   4.4453
  4.4503   4.4656   4.4730   4.4784   4.4830   4.5061   4.5133   4.5204
  4.5217   4.5325   4.5355   4.5444   4.5473   4.5531   4.5679   4.5764
  4.5788   4.5805   4.5891   4.5935   4.6092   4.6144   4.6209   4.6331
  4.6406   4.6622   4.6642   4.6693   4.6738   4.6829   4.6880   4.6921
  4.7155   4.7254   4.7337   4.7479   4.7511   4.7801   4.7824   4.7860
  4.8146   4.8311   4.8371   4.8411   4.8481   4.8644   4.8691   4.8744
  4.8859   4.8890   4.9170   4.9319   4.9389   4.9613   4.9655   4.9799
  4.9934   5.0126   5.0279   5.0374   5.0404   5.0461   5.0503   5.0521
  5.0927   5.0998   5.1049   5.1144   5.1242   5.1253   5.1421   5.1445
  5.1694   5.1798   5.1846   5.1879   5.1980   5.2351   5.2426   5.2564
  5.2666   5.2774   5.2847   5.2916   5.3201   5.3262   5.3321   5.3417
  5.3533   5.3819   5.3961   5.4034   5.4252   5.4312   5.4433   5.4498
  5.4892   5.5065   5.5085   5.5126   5.5137   5.5341   5.5498   5.5565
  5.5598   5.5609   5.5739   5.5774   5.5834   5.5904   5.6035   5.6073
  5.6274   5.6339   5.6519   5.6530   5.6560   5.6735   5.6765   5.6938
  5.6996   5.7096   5.7298   5.7441   5.7486   5.7574   5.7619   5.7749
  5.7779   5.7801   5.8142   5.8219   5.8572   5.8833   5.9082   5.9346
  5.9480   5.9674   6.0138   6.0174   6.0232   6.0306   6.0380   6.0587
  6.0705   6.1004   6.1061   6.1159   6.1420   6.1759   6.1986   6.2101
  6.2175   6.2186   6.2224   6.2632   6.2741   6.2776   6.3088   6.3439
  6.3518   6.3679   6.4444   6.4565   6.4724   6.5267   6.5617   6.5694
  6.5872   6.6074   6.6374   6.6470   6.6589   6.6693   6.7096   6.8328
  6.8365   6.8806   6.8858   6.8973   6.9111   6.9272   6.9898   7.0789
  7.1220   7.1430   7.1853   7.2045   7.2362   7.3321   7.3415   7.3439
  7.3577   7.4666   7.5448   7.5569   7.5735   7.5787   7.6176   7.6338
  7.6745   7.6865   7.7252   8.3938   9.8851  10.3101  11.1495  11.2517
 11.6797  11.7310  11.9573  12.3777  12.4518  12.7919  12.8569  12.9168
 13.3011  13.5576  13.8165  13.9326  14.0468  14.1883  14.2843  14.3597
 14.4305  14.7311  15.3425  15.7309  15.9556
 --------------------------------------------------------------
 
          Ground-State Mulliken Net Atomic Charges

     Atom                 Charge (a.u.)
  ----------------------------------------
      1 C                    -0.143073
      2 C                    -0.109198
      3 C                    -0.035188
      4 C                    -0.004855
      5 H                     0.188355
      6 C                    -0.003440
      7 C                     0.082759
      8 C                     0.002457
      9 C                    -0.082290
     10 C                    -0.151573
     11 C                     0.107773
     12 H                     0.183359
     13 C                     0.360502
     14 C                     0.367186
     15 N                    -0.101529
     16 C                     0.359540
     17 C                     0.396153
     18 N                    -0.094914
     19 O                    -0.464162
     20 O                    -0.476441
     21 O                    -0.481858
     22 O                    -0.458210
     23 C                    -0.201018
     24 H                     0.141171
     25 H                     0.112263
     26 H                     0.112502
     27 C                    -0.197506
     28 H                     0.134495
     29 H                     0.113125
     30 H                     0.113125
     31 H                     0.212962
     32 C                    -0.066546
     33 S                     0.087170
     34 C                    -0.199864
     35 C                    -0.146933
     36 C                    -0.242226
     37 H                     0.189896
     38 H                     0.186406
     39 H                     0.209625
  ----------------------------------------
  Sum of atomic charges =     0.000000

 -----------------------------------------------------------------
                    Cartesian Multipole Moments
 -----------------------------------------------------------------
    Charge (ESU x 10^10)
                 0.0000
    Dipole Moment (Debye)
         X       0.6830      Y       1.1549      Z      -0.1869
       Tot       1.3547
    Quadrupole Moments (Debye-Ang)
        XX    -168.6663     XY       1.8902     YY    -169.1423
        XZ      -7.7492     YZ       0.6661     ZZ    -171.4748
    Octopole Moments (Debye-Ang^2)
       XXX     -51.7079    XXY     485.5401    XYY      -8.1646
       YYY    1603.3870    XXZ     -31.5632    XYZ      37.3991
       YYZ     -19.5697    XZZ     -15.3295    YZZ     539.9690
       ZZZ     -96.5920
    Hexadecapole Moments (Debye-Ang^3)
      XXXX   -1647.8889   XXXY    -178.3693   XXYY   -3081.2695
      XYYY    -402.3354   YYYY  -17241.3372   XXXZ   -1272.2750
      XXYZ     -39.3667   XYYZ    -670.4003   YYYZ    -700.1222
      XXZZ   -1121.3971   XYZZ      70.3527   YYZZ   -3868.5852
      XZZZ   -1334.6458   YZZZ    -115.1583   ZZZZ   -4891.4090
 -----------------------------------------------------------------
 Total job time:  287.94s(wall), 8975.65s(cpu) 
 Wed Sep 20 09:15:48 2023

        *************************************************************
        *                                                           *
        *  Thank you very much for using Q-Chem.  Have a nice day.  *
        *                                                           *
        *************************************************************


0 sent ACK to 0 
now end server 0 ... 
cleanup process ... done
remove work dirs ./qchem3560008.0 -- ./qchem3560008.0
rm -rf ./qchem3560008.0
rm -rf ./qchem3560008
