You are running Q-Chem version: 5.4.0

#
# job setting
#
local host:  exp-3-18
current dir: /expanse/lustre/projects/csd626/rramji/aromodel/PNDIT/Rotation_Test
input file:  Dimethyl_Naphthalene_Dicarboximide_Phi_10_Theta_160_Thiophene.qcin
output file: 
nprocs     : 1
nthreads   : 64
#
# qchem installation setting
#
QC:          /cm/shared/apps/spack/cpu/opt/spack/linux-centos8-zen2/gcc-10.2.0/qchem-5.4-akfmr7b3t57bfs6qan3padb2wnb2i7cl
QCAUX:       /cm/shared/apps/spack/cpu/opt/spack/linux-centos8-zen2/gcc-10.2.0/qchem-5.4-akfmr7b3t57bfs6qan3padb2wnb2i7cl/qcaux
QCPROG:      /cm/shared/apps/spack/cpu/opt/spack/linux-centos8-zen2/gcc-10.2.0/qchem-5.4-akfmr7b3t57bfs6qan3padb2wnb2i7cl/exe/qcprog.exe
QCPROG_S:    /cm/shared/apps/spack/cpu/opt/spack/linux-centos8-zen2/gcc-10.2.0/qchem-5.4-akfmr7b3t57bfs6qan3padb2wnb2i7cl/exe/qcprog.exe_s
PARALLEL:    -DPARALLEL
QCMPI:       mpich
#
# qchem directory setting
#
qcrun:       qchem3561103
QCSCRATCH:   .
QCLOCALSCR:  
QCTMPDIR:    .
QCFILEPREF:  ./qchem3561103
QCSAVEDIR:   
workdirs:    ./qchem3561103
workdir0:    ./qchem3561103
partmpdirs =  
#
# parallel setting
#
QCRSH:           ssh
QCMPI:           mpich
QCMPIRUN:        /cm/shared/apps/spack/cpu/opt/spack/linux-centos8-zen2/gcc-10.2.0/qchem-5.4-akfmr7b3t57bfs6qan3padb2wnb2i7cl/bin/mpi/mpirun_qchem
QCMACHINEFILE:   ./qchem3561103/hostfile
exp-3-18

#
# env setting
#
exported envs:   QC QCAUX QCSCRATCH QCRUNNAME QCFILEPREF QCPROG QCPROG_S GUIFILE

Running Job 1 of 1 Dimethyl_Naphthalene_Dicarboximide_Phi_10_Theta_160_Thiophene.qcin
qchem Dimethyl_Naphthalene_Dicarboximide_Phi_10_Theta_160_Thiophene.qcin_3561103.0 ./qchem3561103/ 1
/cm/shared/apps/spack/cpu/opt/spack/linux-centos8-zen2/gcc-10.2.0/qchem-5.4-akfmr7b3t57bfs6qan3padb2wnb2i7cl/bin/mpi/mpirun_qchem -machinefile ./qchem3561103/hostfile -np 1 /cm/shared/apps/spack/cpu/opt/spack/linux-centos8-zen2/gcc-10.2.0/qchem-5.4-akfmr7b3t57bfs6qan3padb2wnb2i7cl/exe/qcprog.exe Dimethyl_Naphthalene_Dicarboximide_Phi_10_Theta_160_Thiophene.qcin_3561103.0 ./qchem3561103/

Process 0 of 1 is on exp-3-18 - thread support 0
initial socket setup ...start
initial socket setup ...done 
now start server 0 ... 
                  Welcome to Q-Chem
     A Quantum Leap Into The Future Of Chemistry


 Q-Chem 5.4, Q-Chem, Inc., Pleasanton, CA (2021)

 License issued to: University of California, San Diego (site)

 E. Epifanovsky,  A. T. B. Gilbert,  Xintian Feng,  Joonho Lee,  Yuezhi Mao,  
 N. Mardirossian,  P. Pokhilko,  A. White,  M. Wormit,  M. P. Coons,  
 A. L. Dempwolff,  Zhengting Gan,  D. Hait,  P. R. Horn,  L. D. Jacobson,  
 I. Kaliman,  J. Kussmann,  A. W. Lange,  Ka Un Lao,  D. S. Levine,  Jie Liu,  
 S. C. McKenzie,  A. F. Morrison,  K. Nanda,  F. Plasser,  D. R. Rehn,  
 M. L. Vidal,  Zhi-Qiang You,  Ying Zhu,  B. Alam,  B. Albrecht,  
 A. Aldossary,  E. Alguire,  J. H. Andersen,  D. Barton,  K. Begam,  A. Behn,  
 Y. A. Bernard,  E. J. Berquist,  H. Burton,  A. Carreras,  K. Carter-Fenk,  
 R. Chakraborty,  A. D. Chien,  K. D. Closser,  V. Cofer-Shabica,  
 S. Dasgupta,  Jia Deng,  M. de Wergifosse,  M. Diedenhofen,  Hainam Do,  
 S. Ehlert,  Po-Tung Fang,  S. Fatehi,  Qingguo Feng,  J. Gayvert,  
 Qinghui Ge,  G. Gidofalvi,  M. Goldey,  J. Gomes,  C. Gonzalez-Espinoza,  
 S. Gulania,  A. Gunina,  M. W. D. Hanson-Heine,  P. H. P. Harbach,  
 A. W. Hauser,  M. F. Herbst,  M. Hernandez Vera,  M. Hodecker,  
 Z. C. Holden,  S. Houck,  Xunkun Huang,  Kerwin Hui,  B. C. Huynh,  
 M. Ivanov,  Hyunjun Ji,  Hanjie Jiang,  B. Kaduk,  S. Kaehler,  
 K. Khistyaev,  Jaehoon Kim,  P. Klunzinger,  Z. Koczor-Benda,  
 Joong Hoon Koh,  D. Kosenkov,  L. Koulias,  T. Kowalczyk,  C. M. Krauter,  
 K. Kue,  A. Kunitsa,  T. Kus,  A. Landau,  K. V. Lawler,  D. Lefrancois,  
 S. Lehtola,  Rain Li,  Yi-Pei Li,  Jiashu Liang,  M. Liebenthal,  
 Hung-Hsuan Lin,  You-Sheng Lin,  Fenglai Liu,  Kuan-Yu Liu,  
 M. Loipersberger,  A. Luenser,  A. Manjanath,  P. Manohar,  E. Mansoor,  
 S. F. Manzer,  Shan-Ping Mao,  A. V. Marenich,  T. Markovich,  S. Mason,  
 S. A. Maurer,  P. F. McLaughlin,  M. F. S. J. Menger,  J.-M. Mewes,  
 S. A. Mewes,  P. Morgante,  J. W. Mullinax,  T. S. Nguyen-Beck,  
 K. J. Oosterbaan,  G. Paran,  Alexander C. Paul,  Suranjan K. Paul,  
 F. Pavosevic,  Zheng Pei,  S. Prager,  E. I. Proynov,  E. Ramos,  B. Rana,  
 A. E. Rask,  A. Rettig,  R. M. Richard,  F. Rob,  E. Rossomme,  T. Scheele,  
 M. Scheurer,  M. Schneider,  N. Sergueev,  S. M. Sharada,  W. Skomorowski,  
 D. W. Small,  C. J. Stein,  Yu-Chuan Su,  E. J. Sundstrom,  Zhen Tao,  
 J. Thirman,  T. Tsuchimochi,  N. M. Tubman,  S. P. Veccham,  O. Vydrov,  
 J. Wenzel,  J. Witte,  A. Yamada,  Kun Yao,  S. Yeganeh,  S. R. Yost,  
 A. Zech,  Igor Ying Zhang,  Xing Zhang,  Yu Zhang,  D. Zuev,  
 A. Aspuru-Guzik,  A. T. Bell,  N. A. Besley,  K. B. Bravaya,  B. R. Brooks,  
 D. Casanova,  Jeng-Da Chai,  S. Coriani,  C. J. Cramer,  
 A. E. DePrince, III,  R. A. DiStasio Jr.,  A. Dreuw,  B. D. Dunietz,  
 T. R. Furlani,  W. A. Goddard III,  S. Grimme,  S. Hammes-Schiffer,  
 T. Head-Gordon,  W. J. Hehre,  Chao-Ping Hsu,  T.-C. Jagau,  Yousung Jung,  
 A. Klamt,  Jing Kong,  D. S. Lambrecht,  WanZhen Liang,  N. J. Mayhall,  
 C. W. McCurdy,  J. B. Neaton,  C. Ochsenfeld,  J. A. Parkhill,  R. Peverati,  
 V. A. Rassolov,  Yihan Shao,  L. V. Slipchenko,  T. Stauch,  R. P. Steele,  
 J. E. Subotnik,  A. J. W. Thom,  A. Tkatchenko,  D. G. Truhlar,  
 T. Van Voorhis,  T. A. Wesolowski,  K. B. Whaley,  H. L. Woodcock III,  
 P. M. Zimmerman,  S. Faraji,  P. M. W. Gill,  M. Head-Gordon,  
 J. M. Herbert,  A. I. Krylov

 Contributors to earlier versions of Q-Chem not listed above: 
 R. D. Adamson,  B. Austin,  R. Baer,  J. Baker,  G. J. O. Beran,  
 K. Brandhorst,  S. T. Brown,  E. F. C. Byrd,  A. K. Chakraborty,  
 G. K. L. Chan,  Chun-Min Chang,  Yunqing Chen,  C.-L. Cheng,  
 Siu Hung Chien,  D. M. Chipman,  D. L. Crittenden,  H. Dachsel,  
 R. J. Doerksen,  A. D. Dutoi,  R. G. Edgar,  J. Fosso-Tande,  
 L. Fusti-Molnar,  D. Ghosh,  A. Ghysels,  A. Golubeva-Zadorozhnaya,  
 J. Gonthier,  M. S. Gordon,  S. R. Gwaltney,  G. Hawkins,  J. E. Herr,  
 A. Heyden,  S. Hirata,  E. G. Hohenstein,  G. Kedziora,  F. J. Keil,  
 C. Kelley,  Jihan Kim,  R. A. King,  R. Z. Khaliullin,  P. P. Korambath,  
 W. Kurlancheek,  A. Laurent,  A. M. Lee,  M. S. Lee,  S. V. Levchenko,  
 Ching Yeh Lin,  D. Liotard,  E. Livshits,  R. C. Lochan,  I. Lotan,  
 L. A. Martinez-Martinez,  P. E. Maslen,  N. Nair,  D. P. O'Neill,  
 D. Neuhauser,  E. Neuscamman,  C. M. Oana,  R. Olivares-Amaya,  R. Olson,  
 T. M. Perrine,  B. Peters,  P. A. Pieniazek,  A. Prociuk,  Y. M. Rhee,  
 J. Ritchie,  M. A. Rohrdanz,  E. Rosta,  N. J. Russ,  H. F. Schaefer III,  
 M. W. Schmidt,  N. E. Schultz,  S. Sharma,  N. Shenvi,  C. D. Sherrill,  
 A. C. Simmonett,  A. Sodt,  T. Stein,  D. Stuck,  K. S. Thanthiriwatte,  
 V. Vanovschi,  L. Vogt,  Tao Wang,  A. Warshel,  M. A. Watson,  
 C. F. Williams,  Q. Wu,  X. Xu,  Jun Yang,  W. Zhang,  Yan Zhao

 Please cite Q-Chem as follows:
 Y. Shao et al., Mol. Phys. 113, 184-215 (2015)
 DOI: 10.1080/00268976.2014.952696

 Q-Chem 5.4.0 for Intel X86 EM64T Linux

 Parts of Q-Chem use Armadillo 9.800.1 (Horizon Scraper).
 http://arma.sourceforge.net/

 Q-Chem begins on Wed Sep 20 09:15:51 2023  

 Host: 
0

     Scratch files written to ./qchem3561103//
 May1621 |scratch|qcdevops|jenkins|workspace|build_RNUM    
 Parallel job on  1  processors
 Processing $rem in /cm/shared/apps/spack/cpu/opt/spack/linux-centos8-zen2/gcc-10.2.0/qchem-5.4-akfmr7b3t57bfs6qan3padb2wnb2i7cl/config/preferences:
 Processing $rem in /home/rramji/.qchemrc:
 Symmetry turned off for PCM/SM12/SMD calculation
 Core orbitals will be frozen

 Checking the input file for inconsistencies... 	...done.

 Q-Chem warning in module forms1/BasisType.C, line 2236:

 You are not using the predefined 5D/6D in this basis set.


--------------------------------------------------------------
User input:
--------------------------------------------------------------
$molecule
0 1
C	0.089263	-6.741404	0.240927
C	0.535973	-6.155638	1.467886
C	-0.281103	-5.791452	-0.777972
C	0.631036	-4.803786	1.729742
H	0.836458	-6.821518	2.292903
C	-0.181995	-4.378638	-0.503614
C	0.272725	-3.838032	0.746756
C	-0.539954	-3.413062	-1.485437
C	0.371053	-2.426473	1.018915
C	-0.446381	-2.059348	-1.226557
C	0.000000	-1.478216	0.000000
H	-0.747410	-1.394783	-2.052413
C	-0.772747	-6.187987	-2.134128
C	-1.029154	-3.798164	-2.829820
N	-1.110828	-5.170003	-3.059182
C	1.121728	-4.424987	3.077731
C	0.864069	-2.036627	2.375694
N	1.201928	-3.049156	3.301101
O	-0.903908	-7.353131	-2.502830
O	-1.345809	-2.986854	-3.697078
O	1.434422	-5.248946	3.934752
O	1.003943	-0.878829	2.764177
C	-1.592981	-5.563799	-4.386939
H	-1.607367	-6.664085	-4.429822
H	-0.924504	-5.147101	-5.164489
H	-2.605446	-5.148785	-4.553486
C	1.677308	-2.587487	4.608481
H	1.898089	-3.483329	5.211969
H	0.902337	-1.964972	5.094624
H	2.582098	-1.962932	4.483092
H	0.025963	-7.822318	0.066080
C	0.000000	0.000000	0.000000
S	0.137535	0.781156	1.580530
C	0.421895	2.393994	0.904911
C	0.173134	0.982857	-0.985400
C	0.402294	2.283058	-0.493528
H	0.132237	0.750786	-2.059934
H	0.555196	3.150621	-1.152593
H	0.574741	3.261310	1.556025
$end

$rem
JOBTYPE		SP
EXCHANGE	HF
CORRELATION	pRIMP2
BASIS		cc-pvtz
METHOD		rimp2
AUX_BASIS	rimp2-cc-pvtz
SOLVENT_METHOD	PCM
PURECART	11111
SYMMETRY	false
MEM_TOTAL	110000
SCF_CONVERGENCE = 6
THRESH=10
GUI = 2
$end



$solvent
dielectric 4.90
$end
--------------------------------------------------------------
 ----------------------------------------------------------------
             Standard Nuclear Orientation (Angstroms)
    I     Atom           X                Y                Z
 ----------------------------------------------------------------
    1      C       0.0892630000    -6.7414040000     0.2409270000
    2      C       0.5359730000    -6.1556380000     1.4678860000
    3      C      -0.2811030000    -5.7914520000    -0.7779720000
    4      C       0.6310360000    -4.8037860000     1.7297420000
    5      H       0.8364580000    -6.8215180000     2.2929030000
    6      C      -0.1819950000    -4.3786380000    -0.5036140000
    7      C       0.2727250000    -3.8380320000     0.7467560000
    8      C      -0.5399540000    -3.4130620000    -1.4854370000
    9      C       0.3710530000    -2.4264730000     1.0189150000
   10      C      -0.4463810000    -2.0593480000    -1.2265570000
   11      C       0.0000000000    -1.4782160000     0.0000000000
   12      H      -0.7474100000    -1.3947830000    -2.0524130000
   13      C      -0.7727470000    -6.1879870000    -2.1341280000
   14      C      -1.0291540000    -3.7981640000    -2.8298200000
   15      N      -1.1108280000    -5.1700030000    -3.0591820000
   16      C       1.1217280000    -4.4249870000     3.0777310000
   17      C       0.8640690000    -2.0366270000     2.3756940000
   18      N       1.2019280000    -3.0491560000     3.3011010000
   19      O      -0.9039080000    -7.3531310000    -2.5028300000
   20      O      -1.3458090000    -2.9868540000    -3.6970780000
   21      O       1.4344220000    -5.2489460000     3.9347520000
   22      O       1.0039430000    -0.8788290000     2.7641770000
   23      C      -1.5929810000    -5.5637990000    -4.3869390000
   24      H      -1.6073670000    -6.6640850000    -4.4298220000
   25      H      -0.9245040000    -5.1471010000    -5.1644890000
   26      H      -2.6054460000    -5.1487850000    -4.5534860000
   27      C       1.6773080000    -2.5874870000     4.6084810000
   28      H       1.8980890000    -3.4833290000     5.2119690000
   29      H       0.9023370000    -1.9649720000     5.0946240000
   30      H       2.5820980000    -1.9629320000     4.4830920000
   31      H       0.0259630000    -7.8223180000     0.0660800000
   32      C       0.0000000000     0.0000000000     0.0000000000
   33      S       0.1375350000     0.7811560000     1.5805300000
   34      C       0.4218950000     2.3939940000     0.9049110000
   35      C       0.1731340000     0.9828570000    -0.9854000000
   36      C       0.4022940000     2.2830580000    -0.4935280000
   37      H       0.1322370000     0.7507860000    -2.0599340000
   38      H       0.5551960000     3.1506210000    -1.1525930000
   39      H       0.5747410000     3.2613100000     1.5560250000
 ----------------------------------------------------------------
 Nuclear Repulsion Energy =        2512.90643623 hartrees
 There are       97 alpha and       97 beta electrons
 Requested basis set is cc-pVTZ
 There are 344 shells and 982 basis functions

 Total QAlloc Memory Limit 110000 MB
 Mega-Array Size       188 MB
 MEM_STATIC part       192 MB
 Discretize the solute cavity surface with Lebedev spheres
	Using 110 Lebedev grid points for each H atom
	Using 194 Lebedev grid points for other atoms
	Atomic van der Waals radii will be scaled by 1.20
 Remove points where switching function is < 1.0e-08
 Keep 2521 surface tesserae and discard 4037 interior tesserae
 Molecular Surface Area = 359.738 Angst**2
 Requested basis set is rimp2-cc-pVTZ
 There are 750 shells and 2588 basis functions
 A cutoff of  1.0D-10 yielded  31746 shell pairs
 There are    244390 function pairs (    317505 Cartesian)
 Smallest overlap matrix eigenvalue = 9.89E-06

 Q-Chem warning in module stvman/mkSTV.C, line 323:

 Overlap eigenvalue is smaller than square root of threshold
 Use THRESH >= 12 to get rid of this warning


 Scale SEOQF with 1.000000e-01/1.000000e-02/1.000000e-01

 Standard Electronic Orientation quadrupole field applied
 Nucleus-field energy     =    -0.0000000975 hartrees
 Guess from superposition of atomic densities
 Warning:  Energy on first SCF cycle will be non-variational
 SAD guess density has 194.000000 electrons

 -----------------------------------------------------------------------
  General SCF calculation program by
  Eric Jon Sundstrom, Paul Horn, Yuezhi Mao, Dmitri Zuev, Alec White,
  David Stuck, Shaama M.S., Shane Yost, Joonho Lee, David Small,
  Daniel Levine, Susi Lehtola, Hugh Burton, Evgeny Epifanovsky,
  Bang C. Huynh
 -----------------------------------------------------------------------
 Hartree-Fock
 using 64 threads for integral computing
 -------------------------------------------------------
 OpenMP Integral computing Module                
 Release: version 1.0, May 2013, Q-Chem Inc. Pittsburgh 
 -------------------------------------------------------
 A restricted SCF calculation will be
 performed using DIIS
 SCF converges when DIIS error is below 1.0e-06
 ---------------------------------------
  Cycle       Energy         DIIS error
 ---------------------------------------
    1   -1581.4327677244      1.87e-02  
    2   -1570.0826745539      2.08e-03  
    3   -1570.4075337657      1.61e-03  
    4   -1570.6340151063      2.60e-04  
    5   -1570.6461829711      7.67e-05  
    6   -1570.6472484768      2.82e-05  
    7   -1570.6474969655      1.45e-05  
    8   -1570.6475787216      5.91e-06  
    9   -1570.6475923448      2.35e-06  
   10   -1570.6475948337      8.61e-07  Convergence criterion met
 ---------------------------------------
 SCF time:   CPU 5885.00s  wall 230.00s 

************** Final PCM Free Energy Summary **************
 G_electrostatic  =      -0.02209512 hartree =     -13.86489657 kcal/mol
 G_cavitation     =       0.00000000 hartree =       0.00000000 kcal/mol
 G_dispersion     =       0.00000000 hartree =       0.00000000 kcal/mol
 G_repulsion      =       0.00000000 hartree =       0.00000000 kcal/mol
 --------------------------------------------------
 Non-electrostatic Free Energy =       0.00000000 hartree =       0.00000000 kcal/mol
 Total                         =      -0.02209512 hartree =     -13.86489657 kcal/mol
 --------------------------------------------------
 SCF Energy (H0 + V/2)                       =   -1570.64759483 
 Solute Internal Energy (H0)                 =   -1570.62549971 
 Total Free Energy (H0 + V/2 + non-elec)     =   -1570.64759483 hartree
                                             = -985596.24136153 kcal/mol
***********************************************************

 SCF   energy in the final basis set =    -1570.6475948337
 Total energy in the final basis set =    -1570.6475948337


 --------------------------------------------------------------
  Generalized many-body perturbation theory program
  by Joonho Lee, Fazle Rob, Xintian Feng, Evgeny Epifanovsky

 No regularization used 
 (reg. param. = 0.0000e+00)
  (P|Q)^-1/2 Time:  CPU 339.64 s  wall 5.63 s

 In RI-MP2 calculation: 
 # of frozen core orbitals: 31

 Components of the RIMP2 correlation energy:
        aaaa    correlation energy =        -0.6201703818 a.u.
        abab    correlation energy =        -3.3987599544 a.u.
        bbbb    correlation energy =        -0.6201703818 a.u.
        non-Brillouin singles      =        -0.0000000000 a.u.
        total same-spin energy     =        -1.2403407636 a.u.
        total opposite-spin energy =        -3.3987599544 a.u.

 Total  RIMP2   correlation energy =        -4.6391007180 a.u.
        RIMP2         total energy =     -1575.2866955518 a.u.

 RI-MP2 Energy Time:  CPU 2888.38 s  wall 47.06 s
 
 --------------------------------------------------------------
 
                    Orbital Energies (a.u.)
 --------------------------------------------------------------
 
 Alpha MOs
 -- Occupied --
-91.9789 -20.5590 -20.5570 -20.5563 -20.5544 -15.6322 -15.6316 -11.4003
-11.4002 -11.3921 -11.3912 -11.3208 -11.3026 -11.3015 -11.3000 -11.2958
-11.2943 -11.2876 -11.2876 -11.2838 -11.2795 -11.2783 -11.2736 -11.2656
-11.2648 -11.2589 -11.2409  -8.9787  -6.6591  -6.6580  -6.6572  -1.4319
 -1.4253  -1.4074  -1.4047  -1.2696  -1.2667  -1.2172  -1.1715  -1.1424
 -1.1170  -1.0617  -1.0498  -0.9934  -0.9889  -0.9802  -0.9595  -0.9469
 -0.8975  -0.8805  -0.8780  -0.8633  -0.7934  -0.7782  -0.7766  -0.7590
 -0.7322  -0.7255  -0.7028  -0.6929  -0.6888  -0.6742  -0.6679  -0.6634
 -0.6575  -0.6406  -0.6393  -0.6367  -0.6278  -0.6144  -0.5844  -0.5819
 -0.5810  -0.5741  -0.5700  -0.5651  -0.5626  -0.5563  -0.5560  -0.5493
 -0.5333  -0.5232  -0.5227  -0.5191  -0.4874  -0.4719  -0.4683  -0.4638
 -0.4571  -0.4332  -0.4216  -0.4108  -0.4057  -0.3738  -0.3376  -0.3280
 -0.2966
 -- Virtual --
 -0.0202   0.0571   0.0684   0.1074   0.1264   0.1556   0.1576   0.1602
  0.1662   0.1773   0.1819   0.1841   0.1873   0.1989   0.2072   0.2119
  0.2259   0.2269   0.2282   0.2359   0.2530   0.2557   0.2638   0.2671
  0.2705   0.3076   0.3123   0.3150   0.3258   0.3300   0.3321   0.3390
  0.3436   0.3511   0.3545   0.3566   0.3608   0.3633   0.3707   0.3766
  0.3830   0.3857   0.3938   0.3961   0.4010   0.4075   0.4118   0.4144
  0.4243   0.4261   0.4340   0.4404   0.4454   0.4480   0.4502   0.4579
  0.4620   0.4633   0.4675   0.4757   0.4777   0.4801   0.4900   0.4942
  0.5050   0.5071   0.5099   0.5169   0.5177   0.5206   0.5259   0.5320
  0.5382   0.5424   0.5473   0.5532   0.5555   0.5595   0.5603   0.5698
  0.5720   0.5775   0.5809   0.5885   0.5896   0.5949   0.5994   0.6029
  0.6038   0.6105   0.6126   0.6186   0.6210   0.6233   0.6253   0.6283
  0.6332   0.6359   0.6389   0.6403   0.6447   0.6560   0.6669   0.6703
  0.6799   0.6862   0.6947   0.6982   0.7045   0.7117   0.7153   0.7309
  0.7348   0.7366   0.7403   0.7480   0.7554   0.7572   0.7599   0.7680
  0.7737   0.7781   0.7847   0.8036   0.8050   0.8113   0.8140   0.8225
  0.8272   0.8365   0.8417   0.8447   0.8484   0.8528   0.8597   0.8628
  0.8648   0.8661   0.8763   0.8835   0.8867   0.9002   0.9057   0.9083
  0.9115   0.9139   0.9166   0.9291   0.9297   0.9429   0.9465   0.9487
  0.9519   0.9565   0.9597   0.9689   0.9746   0.9785   0.9797   0.9905
  0.9936   0.9951   1.0001   1.0097   1.0121   1.0148   1.0264   1.0300
  1.0380   1.0442   1.0514   1.0595   1.0631   1.0666   1.0720   1.0768
  1.0821   1.0826   1.0901   1.0921   1.0965   1.1079   1.1137   1.1176
  1.1216   1.1311   1.1320   1.1384   1.1439   1.1505   1.1518   1.1590
  1.1645   1.1680   1.1697   1.1769   1.1818   1.1896   1.1945   1.1982
  1.2064   1.2092   1.2124   1.2212   1.2243   1.2286   1.2393   1.2442
  1.2460   1.2538   1.2560   1.2581   1.2646   1.2771   1.2799   1.2942
  1.3151   1.3237   1.3242   1.3335   1.3391   1.3449   1.3503   1.3559
  1.3667   1.3757   1.3811   1.3839   1.3861   1.3951   1.4007   1.4185
  1.4195   1.4326   1.4377   1.4492   1.4528   1.4539   1.4656   1.4679
  1.4749   1.4786   1.4826   1.4924   1.5030   1.5089   1.5199   1.5257
  1.5301   1.5384   1.5407   1.5458   1.5553   1.5586   1.5622   1.5655
  1.5734   1.5745   1.5774   1.5955   1.6042   1.6091   1.6204   1.6337
  1.6385   1.6500   1.6530   1.6561   1.6724   1.6751   1.6799   1.6935
  1.6982   1.7124   1.7202   1.7235   1.7309   1.7346   1.7420   1.7471
  1.7519   1.7651   1.7706   1.7779   1.7924   1.8008   1.8062   1.8159
  1.8230   1.8341   1.8420   1.8442   1.8497   1.8596   1.8621   1.8720
  1.8788   1.8905   1.9011   1.9124   1.9193   1.9238   1.9326   1.9444
  1.9616   1.9655   1.9733   1.9749   1.9878   2.0167   2.0266   2.0374
  2.0581   2.0714   2.0902   2.0963   2.1019   2.1217   2.1362   2.1450
  2.1543   2.1650   2.1832   2.1899   2.1986   2.2239   2.2262   2.2330
  2.2441   2.2498   2.2675   2.2819   2.2864   2.2946   2.2981   2.3071
  2.3248   2.3341   2.3411   2.3548   2.3587   2.3646   2.3745   2.3984
  2.4252   2.4322   2.4393   2.4442   2.4518   2.4566   2.4674   2.4760
  2.4886   2.4917   2.4964   2.5055   2.5112   2.5366   2.5373   2.5488
  2.5550   2.5736   2.5839   2.5905   2.5967   2.5972   2.6105   2.6151
  2.6212   2.6278   2.6435   2.6463   2.6556   2.6632   2.6680   2.6742
  2.6789   2.6830   2.6974   2.7069   2.7111   2.7223   2.7292   2.7325
  2.7382   2.7437   2.7493   2.7559   2.7646   2.7712   2.7777   2.7905
  2.7980   2.8101   2.8196   2.8345   2.8388   2.8466   2.8519   2.8610
  2.8713   2.8752   2.8793   2.8845   2.8883   2.8896   2.8956   2.9066
  2.9133   2.9154   2.9304   2.9375   2.9465   2.9497   2.9591   2.9698
  2.9727   2.9754   2.9829   3.0002   3.0014   3.0075   3.0123   3.0130
  3.0317   3.0366   3.0398   3.0454   3.0531   3.0580   3.0611   3.0752
  3.0845   3.0928   3.0971   3.1015   3.1056   3.1103   3.1160   3.1223
  3.1267   3.1307   3.1325   3.1550   3.1644   3.1700   3.1751   3.1810
  3.1870   3.1981   3.2012   3.2084   3.2130   3.2179   3.2210   3.2227
  3.2272   3.2320   3.2407   3.2503   3.2511   3.2589   3.2634   3.2659
  3.2736   3.2776   3.2799   3.2829   3.2877   3.2948   3.2960   3.2996
  3.3061   3.3175   3.3208   3.3251   3.3272   3.3309   3.3362   3.3371
  3.3428   3.3458   3.3475   3.3545   3.3622   3.3662   3.3700   3.3738
  3.3815   3.3849   3.3906   3.3927   3.3966   3.4043   3.4103   3.4172
  3.4258   3.4328   3.4376   3.4405   3.4478   3.4529   3.4541   3.4553
  3.4619   3.4650   3.4668   3.4759   3.4833   3.4839   3.4870   3.4944
  3.4973   3.5032   3.5064   3.5115   3.5192   3.5240   3.5275   3.5313
  3.5355   3.5404   3.5447   3.5477   3.5544   3.5654   3.5710   3.5806
  3.5878   3.5900   3.5981   3.6025   3.6156   3.6202   3.6228   3.6306
  3.6362   3.6396   3.6425   3.6507   3.6553   3.6645   3.6694   3.6779
  3.6805   3.6876   3.6947   3.7045   3.7069   3.7115   3.7143   3.7206
  3.7301   3.7314   3.7384   3.7420   3.7524   3.7551   3.7592   3.7644
  3.7760   3.7832   3.7843   3.7867   3.7939   3.7965   3.7985   3.8062
  3.8194   3.8256   3.8313   3.8371   3.8444   3.8461   3.8554   3.8589
  3.8613   3.8672   3.8739   3.8830   3.8948   3.8973   3.9156   3.9246
  3.9336   3.9349   3.9395   3.9430   3.9474   3.9553   3.9685   3.9825
  3.9893   3.9948   4.0027   4.0135   4.0169   4.0212   4.0269   4.0478
  4.0505   4.0637   4.0707   4.0813   4.0851   4.0993   4.1031   4.1058
  4.1243   4.1282   4.1310   4.1444   4.1466   4.1578   4.1680   4.1754
  4.1767   4.1853   4.1921   4.1998   4.2067   4.2182   4.2297   4.2370
  4.2447   4.2525   4.2604   4.2717   4.2752   4.2784   4.2811   4.2874
  4.2969   4.2996   4.3031   4.3101   4.3263   4.3282   4.3350   4.3443
  4.3508   4.3571   4.3599   4.3618   4.3664   4.3671   4.3715   4.3791
  4.3909   4.4001   4.4065   4.4159   4.4191   4.4269   4.4344   4.4482
  4.4505   4.4670   4.4755   4.4792   4.4887   4.5093   4.5145   4.5207
  4.5235   4.5301   4.5427   4.5449   4.5497   4.5537   4.5684   4.5743
  4.5772   4.5821   4.5870   4.5935   4.6109   4.6147   4.6234   4.6343
  4.6396   4.6641   4.6686   4.6708   4.6729   4.6822   4.6871   4.6908
  4.7160   4.7276   4.7341   4.7405   4.7570   4.7793   4.7805   4.7865
  4.8181   4.8301   4.8365   4.8387   4.8586   4.8673   4.8711   4.8830
  4.8870   4.8987   4.9190   4.9320   4.9440   4.9642   4.9682   4.9878
  4.9963   5.0123   5.0284   5.0380   5.0423   5.0482   5.0525   5.0545
  5.0942   5.1032   5.1061   5.1155   5.1248   5.1315   5.1418   5.1454
  5.1701   5.1817   5.1863   5.1884   5.1997   5.2405   5.2443   5.2557
  5.2685   5.2767   5.2857   5.2912   5.3181   5.3246   5.3316   5.3479
  5.3566   5.3869   5.3953   5.4025   5.4283   5.4316   5.4451   5.4513
  5.4889   5.5073   5.5082   5.5115   5.5149   5.5367   5.5504   5.5542
  5.5593   5.5615   5.5730   5.5771   5.5834   5.5904   5.6035   5.6103
  5.6277   5.6342   5.6519   5.6539   5.6602   5.6738   5.6763   5.6919
  5.6993   5.7115   5.7330   5.7469   5.7503   5.7571   5.7626   5.7766
  5.7785   5.7835   5.8165   5.8239   5.8640   5.8819   5.9114   5.9365
  5.9515   5.9663   6.0166   6.0218   6.0228   6.0321   6.0344   6.0622
  6.0720   6.0999   6.1053   6.1150   6.1443   6.1840   6.2035   6.2105
  6.2173   6.2201   6.2239   6.2650   6.2772   6.2822   6.3140   6.3467
  6.3533   6.3684   6.4456   6.4582   6.4788   6.5286   6.5612   6.5670
  6.5877   6.6157   6.6376   6.6461   6.6579   6.6791   6.7131   6.8338
  6.8371   6.8814   6.8856   6.8969   6.9108   6.9286   6.9830   7.0791
  7.1298   7.1465   7.1852   7.2123   7.2620   7.3319   7.3414   7.3437
  7.3571   7.4668   7.5460   7.5572   7.5742   7.5793   7.6262   7.6342
  7.6763   7.7007   7.7362   8.4184   9.8934  10.3277  11.1739  11.2382
 11.6888  11.7528  11.9770  12.3898  12.4631  12.7955  12.8659  12.9252
 13.3437  13.5489  13.8179  13.9337  14.0505  14.2021  14.3117  14.3712
 14.4596  14.7358  15.3475  15.7424  15.9647
 --------------------------------------------------------------
 
          Ground-State Mulliken Net Atomic Charges

     Atom                 Charge (a.u.)
  ----------------------------------------
      1 C                    -0.145652
      2 C                    -0.110122
      3 C                    -0.032150
      4 C                    -0.004513
      5 H                     0.188219
      6 C                    -0.001258
      7 C                     0.084521
      8 C                     0.000146
      9 C                    -0.091631
     10 C                    -0.145190
     11 C                     0.097856
     12 H                     0.183500
     13 C                     0.360066
     14 C                     0.366392
     15 N                    -0.101814
     16 C                     0.359907
     17 C                     0.394069
     18 N                    -0.094024
     19 O                    -0.463798
     20 O                    -0.476427
     21 O                    -0.481910
     22 O                    -0.448022
     23 C                    -0.201027
     24 H                     0.141197
     25 H                     0.112411
     26 H                     0.112479
     27 C                    -0.198515
     28 H                     0.134946
     29 H                     0.113567
     30 H                     0.113520
     31 H                     0.212745
     32 C                    -0.053863
     33 S                     0.091553
     34 C                    -0.208040
     35 C                    -0.139065
     36 C                    -0.249147
     37 H                     0.187184
     38 H                     0.184213
     39 H                     0.207679
  ----------------------------------------
  Sum of atomic charges =     0.000000

 -----------------------------------------------------------------
                    Cartesian Multipole Moments
 -----------------------------------------------------------------
    Charge (ESU x 10^10)
                 0.0000
    Dipole Moment (Debye)
         X       0.6115      Y       1.0269      Z      -0.0430
       Tot       1.1960
    Quadrupole Moments (Debye-Ang)
        XX    -165.9863     XY       1.7505     YY    -170.0194
        XZ      -5.4336     YZ       0.4932     ZZ    -173.5189
    Octopole Moments (Debye-Ang^2)
       XXX     -43.4720    XXY     474.3811    XYY      -6.7218
       YYY    1605.5140    XXZ     -31.9785    XYZ      27.6522
       YYZ     -21.5866    XZZ     -12.0020    YZZ     549.2836
       ZZZ     -99.0518
    Hexadecapole Moments (Debye-Ang^3)
      XXXX    -876.1451   XXXY    -153.9376   XXYY   -2875.2552
      XYYY    -278.8360   YYYY  -17269.0154   XXXZ    -932.2784
      XXYZ     -87.4261   XYYZ    -495.4544   YYYZ    -751.5619
      XXZZ   -1094.3153   XYZZ      61.3380   YYZZ   -4073.1588
      XZZZ   -1001.8547   YZZZ     -78.0288   ZZZZ   -5703.4442
 -----------------------------------------------------------------
 Total job time:  281.70s(wall), 8905.16s(cpu) 
 Wed Sep 20 09:20:33 2023

        *************************************************************
        *                                                           *
        *  Thank you very much for using Q-Chem.  Have a nice day.  *
        *                                                           *
        *************************************************************


0 sent ACK to 0 
now end server 0 ... 
cleanup process ... done
remove work dirs ./qchem3561103.0 -- ./qchem3561103.0
rm -rf ./qchem3561103.0
rm -rf ./qchem3561103
