You are running Q-Chem version: 5.4.0

#
# job setting
#
local host:  exp-4-16
current dir: /expanse/lustre/projects/csd626/rramji/aromodel/PNDIT/Rotation_Test
input file:  Dimethyl_Naphthalene_Dicarboximide_Phi_30_Theta_210_Thiophene.qcin
output file: 
nprocs     : 1
nthreads   : 64
#
# qchem installation setting
#
QC:          /cm/shared/apps/spack/cpu/opt/spack/linux-centos8-zen2/gcc-10.2.0/qchem-5.4-akfmr7b3t57bfs6qan3padb2wnb2i7cl
QCAUX:       /cm/shared/apps/spack/cpu/opt/spack/linux-centos8-zen2/gcc-10.2.0/qchem-5.4-akfmr7b3t57bfs6qan3padb2wnb2i7cl/qcaux
QCPROG:      /cm/shared/apps/spack/cpu/opt/spack/linux-centos8-zen2/gcc-10.2.0/qchem-5.4-akfmr7b3t57bfs6qan3padb2wnb2i7cl/exe/qcprog.exe
QCPROG_S:    /cm/shared/apps/spack/cpu/opt/spack/linux-centos8-zen2/gcc-10.2.0/qchem-5.4-akfmr7b3t57bfs6qan3padb2wnb2i7cl/exe/qcprog.exe_s
PARALLEL:    -DPARALLEL
QCMPI:       mpich
#
# qchem directory setting
#
qcrun:       qchem4148668
QCSCRATCH:   .
QCLOCALSCR:  
QCTMPDIR:    .
QCFILEPREF:  ./qchem4148668
QCSAVEDIR:   
workdirs:    ./qchem4148668
workdir0:    ./qchem4148668
partmpdirs =  
#
# parallel setting
#
QCRSH:           ssh
QCMPI:           mpich
QCMPIRUN:        /cm/shared/apps/spack/cpu/opt/spack/linux-centos8-zen2/gcc-10.2.0/qchem-5.4-akfmr7b3t57bfs6qan3padb2wnb2i7cl/bin/mpi/mpirun_qchem
QCMACHINEFILE:   ./qchem4148668/hostfile
exp-4-16

#
# env setting
#
exported envs:   QC QCAUX QCSCRATCH QCRUNNAME QCFILEPREF QCPROG QCPROG_S GUIFILE

Running Job 1 of 1 Dimethyl_Naphthalene_Dicarboximide_Phi_30_Theta_210_Thiophene.qcin
qchem Dimethyl_Naphthalene_Dicarboximide_Phi_30_Theta_210_Thiophene.qcin_4148668.0 ./qchem4148668/ 1
/cm/shared/apps/spack/cpu/opt/spack/linux-centos8-zen2/gcc-10.2.0/qchem-5.4-akfmr7b3t57bfs6qan3padb2wnb2i7cl/bin/mpi/mpirun_qchem -machinefile ./qchem4148668/hostfile -np 1 /cm/shared/apps/spack/cpu/opt/spack/linux-centos8-zen2/gcc-10.2.0/qchem-5.4-akfmr7b3t57bfs6qan3padb2wnb2i7cl/exe/qcprog.exe Dimethyl_Naphthalene_Dicarboximide_Phi_30_Theta_210_Thiophene.qcin_4148668.0 ./qchem4148668/

Process 0 of 1 is on exp-4-16 - thread support 0
initial socket setup ...start
initial socket setup ...done 
now start server 0 ... 
                  Welcome to Q-Chem
     A Quantum Leap Into The Future Of Chemistry


 Q-Chem 5.4, Q-Chem, Inc., Pleasanton, CA (2021)

 License issued to: University of California, San Diego (site)

 E. Epifanovsky,  A. T. B. Gilbert,  Xintian Feng,  Joonho Lee,  Yuezhi Mao,  
 N. Mardirossian,  P. Pokhilko,  A. White,  M. Wormit,  M. P. Coons,  
 A. L. Dempwolff,  Zhengting Gan,  D. Hait,  P. R. Horn,  L. D. Jacobson,  
 I. Kaliman,  J. Kussmann,  A. W. Lange,  Ka Un Lao,  D. S. Levine,  Jie Liu,  
 S. C. McKenzie,  A. F. Morrison,  K. Nanda,  F. Plasser,  D. R. Rehn,  
 M. L. Vidal,  Zhi-Qiang You,  Ying Zhu,  B. Alam,  B. Albrecht,  
 A. Aldossary,  E. Alguire,  J. H. Andersen,  D. Barton,  K. Begam,  A. Behn,  
 Y. A. Bernard,  E. J. Berquist,  H. Burton,  A. Carreras,  K. Carter-Fenk,  
 R. Chakraborty,  A. D. Chien,  K. D. Closser,  V. Cofer-Shabica,  
 S. Dasgupta,  Jia Deng,  M. de Wergifosse,  M. Diedenhofen,  Hainam Do,  
 S. Ehlert,  Po-Tung Fang,  S. Fatehi,  Qingguo Feng,  J. Gayvert,  
 Qinghui Ge,  G. Gidofalvi,  M. Goldey,  J. Gomes,  C. Gonzalez-Espinoza,  
 S. Gulania,  A. Gunina,  M. W. D. Hanson-Heine,  P. H. P. Harbach,  
 A. W. Hauser,  M. F. Herbst,  M. Hernandez Vera,  M. Hodecker,  
 Z. C. Holden,  S. Houck,  Xunkun Huang,  Kerwin Hui,  B. C. Huynh,  
 M. Ivanov,  Hyunjun Ji,  Hanjie Jiang,  B. Kaduk,  S. Kaehler,  
 K. Khistyaev,  Jaehoon Kim,  P. Klunzinger,  Z. Koczor-Benda,  
 Joong Hoon Koh,  D. Kosenkov,  L. Koulias,  T. Kowalczyk,  C. M. Krauter,  
 K. Kue,  A. Kunitsa,  T. Kus,  A. Landau,  K. V. Lawler,  D. Lefrancois,  
 S. Lehtola,  Rain Li,  Yi-Pei Li,  Jiashu Liang,  M. Liebenthal,  
 Hung-Hsuan Lin,  You-Sheng Lin,  Fenglai Liu,  Kuan-Yu Liu,  
 M. Loipersberger,  A. Luenser,  A. Manjanath,  P. Manohar,  E. Mansoor,  
 S. F. Manzer,  Shan-Ping Mao,  A. V. Marenich,  T. Markovich,  S. Mason,  
 S. A. Maurer,  P. F. McLaughlin,  M. F. S. J. Menger,  J.-M. Mewes,  
 S. A. Mewes,  P. Morgante,  J. W. Mullinax,  T. S. Nguyen-Beck,  
 K. J. Oosterbaan,  G. Paran,  Alexander C. Paul,  Suranjan K. Paul,  
 F. Pavosevic,  Zheng Pei,  S. Prager,  E. I. Proynov,  E. Ramos,  B. Rana,  
 A. E. Rask,  A. Rettig,  R. M. Richard,  F. Rob,  E. Rossomme,  T. Scheele,  
 M. Scheurer,  M. Schneider,  N. Sergueev,  S. M. Sharada,  W. Skomorowski,  
 D. W. Small,  C. J. Stein,  Yu-Chuan Su,  E. J. Sundstrom,  Zhen Tao,  
 J. Thirman,  T. Tsuchimochi,  N. M. Tubman,  S. P. Veccham,  O. Vydrov,  
 J. Wenzel,  J. Witte,  A. Yamada,  Kun Yao,  S. Yeganeh,  S. R. Yost,  
 A. Zech,  Igor Ying Zhang,  Xing Zhang,  Yu Zhang,  D. Zuev,  
 A. Aspuru-Guzik,  A. T. Bell,  N. A. Besley,  K. B. Bravaya,  B. R. Brooks,  
 D. Casanova,  Jeng-Da Chai,  S. Coriani,  C. J. Cramer,  
 A. E. DePrince, III,  R. A. DiStasio Jr.,  A. Dreuw,  B. D. Dunietz,  
 T. R. Furlani,  W. A. Goddard III,  S. Grimme,  S. Hammes-Schiffer,  
 T. Head-Gordon,  W. J. Hehre,  Chao-Ping Hsu,  T.-C. Jagau,  Yousung Jung,  
 A. Klamt,  Jing Kong,  D. S. Lambrecht,  WanZhen Liang,  N. J. Mayhall,  
 C. W. McCurdy,  J. B. Neaton,  C. Ochsenfeld,  J. A. Parkhill,  R. Peverati,  
 V. A. Rassolov,  Yihan Shao,  L. V. Slipchenko,  T. Stauch,  R. P. Steele,  
 J. E. Subotnik,  A. J. W. Thom,  A. Tkatchenko,  D. G. Truhlar,  
 T. Van Voorhis,  T. A. Wesolowski,  K. B. Whaley,  H. L. Woodcock III,  
 P. M. Zimmerman,  S. Faraji,  P. M. W. Gill,  M. Head-Gordon,  
 J. M. Herbert,  A. I. Krylov

 Contributors to earlier versions of Q-Chem not listed above: 
 R. D. Adamson,  B. Austin,  R. Baer,  J. Baker,  G. J. O. Beran,  
 K. Brandhorst,  S. T. Brown,  E. F. C. Byrd,  A. K. Chakraborty,  
 G. K. L. Chan,  Chun-Min Chang,  Yunqing Chen,  C.-L. Cheng,  
 Siu Hung Chien,  D. M. Chipman,  D. L. Crittenden,  H. Dachsel,  
 R. J. Doerksen,  A. D. Dutoi,  R. G. Edgar,  J. Fosso-Tande,  
 L. Fusti-Molnar,  D. Ghosh,  A. Ghysels,  A. Golubeva-Zadorozhnaya,  
 J. Gonthier,  M. S. Gordon,  S. R. Gwaltney,  G. Hawkins,  J. E. Herr,  
 A. Heyden,  S. Hirata,  E. G. Hohenstein,  G. Kedziora,  F. J. Keil,  
 C. Kelley,  Jihan Kim,  R. A. King,  R. Z. Khaliullin,  P. P. Korambath,  
 W. Kurlancheek,  A. Laurent,  A. M. Lee,  M. S. Lee,  S. V. Levchenko,  
 Ching Yeh Lin,  D. Liotard,  E. Livshits,  R. C. Lochan,  I. Lotan,  
 L. A. Martinez-Martinez,  P. E. Maslen,  N. Nair,  D. P. O'Neill,  
 D. Neuhauser,  E. Neuscamman,  C. M. Oana,  R. Olivares-Amaya,  R. Olson,  
 T. M. Perrine,  B. Peters,  P. A. Pieniazek,  A. Prociuk,  Y. M. Rhee,  
 J. Ritchie,  M. A. Rohrdanz,  E. Rosta,  N. J. Russ,  H. F. Schaefer III,  
 M. W. Schmidt,  N. E. Schultz,  S. Sharma,  N. Shenvi,  C. D. Sherrill,  
 A. C. Simmonett,  A. Sodt,  T. Stein,  D. Stuck,  K. S. Thanthiriwatte,  
 V. Vanovschi,  L. Vogt,  Tao Wang,  A. Warshel,  M. A. Watson,  
 C. F. Williams,  Q. Wu,  X. Xu,  Jun Yang,  W. Zhang,  Yan Zhao

 Please cite Q-Chem as follows:
 Y. Shao et al., Mol. Phys. 113, 184-215 (2015)
 DOI: 10.1080/00268976.2014.952696

 Q-Chem 5.4.0 for Intel X86 EM64T Linux

 Parts of Q-Chem use Armadillo 9.800.1 (Horizon Scraper).
 http://arma.sourceforge.net/

 Q-Chem begins on Wed Sep 20 09:38:38 2023  

 Host: 
0

     Scratch files written to ./qchem4148668//
 May1621 |scratch|qcdevops|jenkins|workspace|build_RNUM    
 Parallel job on  1  processors
 Processing $rem in /cm/shared/apps/spack/cpu/opt/spack/linux-centos8-zen2/gcc-10.2.0/qchem-5.4-akfmr7b3t57bfs6qan3padb2wnb2i7cl/config/preferences:
 Processing $rem in /home/rramji/.qchemrc:
 Symmetry turned off for PCM/SM12/SMD calculation
 Core orbitals will be frozen

 Checking the input file for inconsistencies... 	...done.

 Q-Chem warning in module forms1/BasisType.C, line 2236:

 You are not using the predefined 5D/6D in this basis set.


--------------------------------------------------------------
User input:
--------------------------------------------------------------
$molecule
0 1
C	-0.127184	-6.741404	0.223244
C	-0.779949	-6.155638	1.354118
C	0.415271	-5.791452	-0.715408
C	-0.919437	-4.803786	1.595259
H	-1.218801	-6.821518	2.114613
C	0.268806	-4.378638	-0.463133
C	-0.396744	-3.838032	0.688925
C	0.790835	-3.413062	-1.368449
C	-0.542026	-2.426473	0.939189
C	0.652669	-2.059348	-1.130363
C	0.000000	-1.478216	0.000000
H	1.091814	-1.394783	-1.891815
C	1.138124	-6.187987	-1.963749
C	1.506241	-3.798164	-2.607351
N	1.629443	-5.170003	-2.817348
C	-1.636646	-4.424987	2.837621
C	-1.264474	-2.036627	2.188982
N	-1.756205	-3.049156	3.042637
O	1.336258	-7.353131	-2.301222
O	1.967056	-2.986854	-3.407386
O	-2.092167	-5.248946	3.628041
O	-1.472160	-0.878829	2.545844
C	2.336642	-5.563799	-4.040164
H	2.360245	-6.664085	-4.078749
H	3.361968	-5.147101	-4.027880
H	1.813424	-5.148785	-4.922811
C	-2.452149	-2.587487	4.247167
H	-2.772531	-3.483329	4.804209
H	-3.322697	-1.964972	3.965991
H	-1.774507	-1.962932	4.859678
H	-0.033931	-7.822318	0.062364
C	0.000000	0.000000	0.000000
S	0.396411	0.687007	1.580530
C	1.215245	2.105322	0.904911
C	0.498850	0.864369	-0.985400
C	1.158885	2.007781	-0.493528
H	0.381046	0.660280	-2.059934
H	1.599289	2.770727	-1.152593
H	1.655514	2.868056	1.556025
$end

$rem
JOBTYPE		SP
EXCHANGE	HF
CORRELATION	pRIMP2
BASIS		cc-pvtz
METHOD		rimp2
AUX_BASIS	rimp2-cc-pvtz
SOLVENT_METHOD	PCM
PURECART	11111
SYMMETRY	false
MEM_TOTAL	110000
SCF_CONVERGENCE = 6
THRESH=10
GUI = 2
$end



$solvent
dielectric 4.90
$end
--------------------------------------------------------------
 ----------------------------------------------------------------
             Standard Nuclear Orientation (Angstroms)
    I     Atom           X                Y                Z
 ----------------------------------------------------------------
    1      C      -0.1271840000    -6.7414040000     0.2232440000
    2      C      -0.7799490000    -6.1556380000     1.3541180000
    3      C       0.4152710000    -5.7914520000    -0.7154080000
    4      C      -0.9194370000    -4.8037860000     1.5952590000
    5      H      -1.2188010000    -6.8215180000     2.1146130000
    6      C       0.2688060000    -4.3786380000    -0.4631330000
    7      C      -0.3967440000    -3.8380320000     0.6889250000
    8      C       0.7908350000    -3.4130620000    -1.3684490000
    9      C      -0.5420260000    -2.4264730000     0.9391890000
   10      C       0.6526690000    -2.0593480000    -1.1303630000
   11      C       0.0000000000    -1.4782160000     0.0000000000
   12      H       1.0918140000    -1.3947830000    -1.8918150000
   13      C       1.1381240000    -6.1879870000    -1.9637490000
   14      C       1.5062410000    -3.7981640000    -2.6073510000
   15      N       1.6294430000    -5.1700030000    -2.8173480000
   16      C      -1.6366460000    -4.4249870000     2.8376210000
   17      C      -1.2644740000    -2.0366270000     2.1889820000
   18      N      -1.7562050000    -3.0491560000     3.0426370000
   19      O       1.3362580000    -7.3531310000    -2.3012220000
   20      O       1.9670560000    -2.9868540000    -3.4073860000
   21      O      -2.0921670000    -5.2489460000     3.6280410000
   22      O      -1.4721600000    -0.8788290000     2.5458440000
   23      C       2.3366420000    -5.5637990000    -4.0401640000
   24      H       2.3602450000    -6.6640850000    -4.0787490000
   25      H       3.3619680000    -5.1471010000    -4.0278800000
   26      H       1.8134240000    -5.1487850000    -4.9228110000
   27      C      -2.4521490000    -2.5874870000     4.2471670000
   28      H      -2.7725310000    -3.4833290000     4.8042090000
   29      H      -3.3226970000    -1.9649720000     3.9659910000
   30      H      -1.7745070000    -1.9629320000     4.8596780000
   31      H      -0.0339310000    -7.8223180000     0.0623640000
   32      C       0.0000000000     0.0000000000     0.0000000000
   33      S       0.3964110000     0.6870070000     1.5805300000
   34      C       1.2152450000     2.1053220000     0.9049110000
   35      C       0.4988500000     0.8643690000    -0.9854000000
   36      C       1.1588850000     2.0077810000    -0.4935280000
   37      H       0.3810460000     0.6602800000    -2.0599340000
   38      H       1.5992890000     2.7707270000    -1.1525930000
   39      H       1.6555140000     2.8680560000     1.5560250000
 ----------------------------------------------------------------
 Nuclear Repulsion Energy =        2511.28159869 hartrees
 There are       97 alpha and       97 beta electrons
 Requested basis set is cc-pVTZ
 There are 344 shells and 982 basis functions

 Total QAlloc Memory Limit 110000 MB
 Mega-Array Size       188 MB
 MEM_STATIC part       192 MB
 Discretize the solute cavity surface with Lebedev spheres
	Using 110 Lebedev grid points for each H atom
	Using 194 Lebedev grid points for other atoms
	Atomic van der Waals radii will be scaled by 1.20
 Remove points where switching function is < 1.0e-08
 Keep 2501 surface tesserae and discard 4057 interior tesserae
 Molecular Surface Area = 362.174 Angst**2
 Requested basis set is rimp2-cc-pVTZ
 There are 750 shells and 2588 basis functions
 A cutoff of  1.0D-10 yielded  31788 shell pairs
 There are    244780 function pairs (    318039 Cartesian)
 Smallest overlap matrix eigenvalue = 9.44E-06

 Q-Chem warning in module stvman/mkSTV.C, line 323:

 Overlap eigenvalue is smaller than square root of threshold
 Use THRESH >= 12 to get rid of this warning


 Scale SEOQF with 1.000000e-01/1.000000e-02/1.000000e-01

 Standard Electronic Orientation quadrupole field applied
 Nucleus-field energy     =    -0.0000000729 hartrees
 Guess from superposition of atomic densities
 Warning:  Energy on first SCF cycle will be non-variational
 SAD guess density has 194.000000 electrons

 -----------------------------------------------------------------------
  General SCF calculation program by
  Eric Jon Sundstrom, Paul Horn, Yuezhi Mao, Dmitri Zuev, Alec White,
  David Stuck, Shaama M.S., Shane Yost, Joonho Lee, David Small,
  Daniel Levine, Susi Lehtola, Hugh Burton, Evgeny Epifanovsky,
  Bang C. Huynh
 -----------------------------------------------------------------------
 Hartree-Fock
 using 64 threads for integral computing
 -------------------------------------------------------
 OpenMP Integral computing Module                
 Release: version 1.0, May 2013, Q-Chem Inc. Pittsburgh 
 -------------------------------------------------------
 A restricted SCF calculation will be
 performed using DIIS
 SCF converges when DIIS error is below 1.0e-06
 ---------------------------------------
  Cycle       Energy         DIIS error
 ---------------------------------------
    1   -1581.3616065873      1.87e-02  
    2   -1570.1062219755      2.08e-03  
    3   -1570.4324916623      1.62e-03  
    4   -1570.6590698374      2.58e-04  
    5   -1570.6712373246      7.64e-05  
    6   -1570.6723212998      2.83e-05  
    7   -1570.6725780181      1.45e-05  
    8   -1570.6726613027      6.10e-06  
    9   -1570.6726750710      2.32e-06  
   10   -1570.6726775255      8.48e-07  Convergence criterion met
 ---------------------------------------
 SCF time:   CPU 5917.69s  wall 222.00s 

************** Final PCM Free Energy Summary **************
 G_electrostatic  =      -0.02359764 hartree =     -14.80774255 kcal/mol
 G_cavitation     =       0.00000000 hartree =       0.00000000 kcal/mol
 G_dispersion     =       0.00000000 hartree =       0.00000000 kcal/mol
 G_repulsion      =       0.00000000 hartree =       0.00000000 kcal/mol
 --------------------------------------------------
 Non-electrostatic Free Energy =       0.00000000 hartree =       0.00000000 kcal/mol
 Total                         =      -0.02359764 hartree =     -14.80774255 kcal/mol
 --------------------------------------------------
 SCF Energy (H0 + V/2)                       =   -1570.67267753 
 Solute Internal Energy (H0)                 =   -1570.64907989 
 Total Free Energy (H0 + V/2 + non-elec)     =   -1570.67267753 hartree
                                             = -985611.98098820 kcal/mol
***********************************************************

 SCF   energy in the final basis set =    -1570.6726775255
 Total energy in the final basis set =    -1570.6726775255


 --------------------------------------------------------------
  Generalized many-body perturbation theory program
  by Joonho Lee, Fazle Rob, Xintian Feng, Evgeny Epifanovsky

 No regularization used 
 (reg. param. = 0.0000e+00)
  (P|Q)^-1/2 Time:  CPU 175.44 s  wall 2.88 s

 In RI-MP2 calculation: 
 # of frozen core orbitals: 31

 Components of the RIMP2 correlation energy:
        aaaa    correlation energy =        -0.6183117815 a.u.
        abab    correlation energy =        -3.3957009959 a.u.
        bbbb    correlation energy =        -0.6183117815 a.u.
        non-Brillouin singles      =        -0.0000000000 a.u.
        total same-spin energy     =        -1.2366235631 a.u.
        total opposite-spin energy =        -3.3957009959 a.u.

 Total  RIMP2   correlation energy =        -4.6323245590 a.u.
        RIMP2         total energy =     -1575.3050020845 a.u.

 RI-MP2 Energy Time:  CPU 2154.29 s  wall 35.62 s
 
 --------------------------------------------------------------
 
                    Orbital Energies (a.u.)
 --------------------------------------------------------------
 
 Alpha MOs
 -- Occupied --
-91.9874 -20.5585 -20.5565 -20.5552 -20.5531 -15.6312 -15.6297 -11.3997
-11.3955 -11.3908 -11.3907 -11.3190 -11.3017 -11.2997 -11.2972 -11.2946
-11.2939 -11.2879 -11.2873 -11.2862 -11.2828 -11.2787 -11.2764 -11.2658
-11.2646 -11.2640 -11.2501  -8.9868  -6.6673  -6.6666  -6.6661  -1.4249
 -1.4246  -1.4043  -1.4033  -1.2672  -1.2648  -1.2163  -1.1780  -1.1428
 -1.1157  -1.0621  -1.0485  -0.9923  -0.9900  -0.9866  -0.9584  -0.9469
 -0.8961  -0.8785  -0.8764  -0.8605  -0.7936  -0.7765  -0.7744  -0.7642
 -0.7322  -0.7177  -0.7052  -0.6936  -0.6843  -0.6745  -0.6661  -0.6619
 -0.6561  -0.6401  -0.6364  -0.6333  -0.6271  -0.6135  -0.5840  -0.5836
 -0.5811  -0.5719  -0.5687  -0.5666  -0.5639  -0.5553  -0.5543  -0.5482
 -0.5317  -0.5254  -0.5200  -0.5169  -0.4858  -0.4730  -0.4632  -0.4604
 -0.4573  -0.4421  -0.4269  -0.4171  -0.4084  -0.3723  -0.3508  -0.3358
 -0.3012
 -- Virtual --
 -0.0196   0.0535   0.0697   0.0990   0.1226   0.1546   0.1585   0.1599
  0.1666   0.1750   0.1805   0.1822   0.1852   0.1949   0.2077   0.2115
  0.2268   0.2277   0.2284   0.2366   0.2487   0.2550   0.2643   0.2655
  0.2733   0.3045   0.3152   0.3165   0.3211   0.3267   0.3350   0.3389
  0.3421   0.3455   0.3517   0.3539   0.3585   0.3606   0.3747   0.3749
  0.3821   0.3891   0.3899   0.3940   0.3973   0.4050   0.4105   0.4124
  0.4219   0.4262   0.4335   0.4370   0.4403   0.4438   0.4510   0.4545
  0.4598   0.4603   0.4695   0.4755   0.4802   0.4828   0.4925   0.4935
  0.4993   0.5030   0.5089   0.5131   0.5159   0.5194   0.5276   0.5343
  0.5370   0.5402   0.5494   0.5496   0.5530   0.5560   0.5675   0.5684
  0.5730   0.5785   0.5815   0.5869   0.5903   0.5953   0.5979   0.6015
  0.6054   0.6096   0.6146   0.6188   0.6207   0.6258   0.6263   0.6308
  0.6322   0.6339   0.6359   0.6379   0.6427   0.6504   0.6613   0.6691
  0.6817   0.6879   0.6897   0.6955   0.6976   0.7083   0.7131   0.7245
  0.7312   0.7362   0.7370   0.7467   0.7507   0.7582   0.7622   0.7647
  0.7689   0.7799   0.7878   0.7903   0.8003   0.8048   0.8119   0.8154
  0.8209   0.8326   0.8373   0.8467   0.8473   0.8527   0.8545   0.8614
  0.8658   0.8680   0.8697   0.8737   0.8865   0.8955   0.8980   0.9029
  0.9083   0.9181   0.9194   0.9270   0.9303   0.9310   0.9374   0.9481
  0.9498   0.9630   0.9656   0.9704   0.9726   0.9778   0.9820   0.9864
  0.9896   0.9985   1.0046   1.0054   1.0090   1.0182   1.0223   1.0293
  1.0325   1.0407   1.0417   1.0522   1.0610   1.0671   1.0732   1.0765
  1.0798   1.0814   1.0855   1.0864   1.0964   1.1017   1.1096   1.1131
  1.1244   1.1273   1.1341   1.1402   1.1430   1.1458   1.1512   1.1601
  1.1613   1.1691   1.1714   1.1773   1.1789   1.1822   1.1959   1.1990
  1.2020   1.2060   1.2122   1.2228   1.2241   1.2273   1.2379   1.2397
  1.2461   1.2523   1.2561   1.2594   1.2665   1.2719   1.2877   1.3038
  1.3149   1.3202   1.3294   1.3341   1.3363   1.3445   1.3557   1.3657
  1.3716   1.3766   1.3818   1.3849   1.3856   1.3949   1.4005   1.4159
  1.4211   1.4316   1.4384   1.4419   1.4460   1.4520   1.4608   1.4729
  1.4768   1.4811   1.4829   1.4895   1.4962   1.5074   1.5112   1.5200
  1.5281   1.5314   1.5380   1.5451   1.5524   1.5565   1.5600   1.5671
  1.5732   1.5747   1.5866   1.5920   1.5982   1.6027   1.6219   1.6262
  1.6448   1.6464   1.6512   1.6548   1.6690   1.6781   1.6827   1.6864
  1.6970   1.7016   1.7152   1.7206   1.7278   1.7352   1.7417   1.7471
  1.7552   1.7579   1.7709   1.7816   1.7891   1.7993   1.8079   1.8145
  1.8157   1.8304   1.8387   1.8443   1.8530   1.8593   1.8635   1.8653
  1.8812   1.8883   1.8907   1.9140   1.9215   1.9332   1.9494   1.9545
  1.9647   1.9702   1.9747   1.9797   1.9912   1.9938   2.0258   2.0392
  2.0518   2.0574   2.0583   2.0822   2.1046   2.1167   2.1276   2.1402
  2.1520   2.1568   2.1705   2.1761   2.1903   2.2023   2.2210   2.2299
  2.2384   2.2519   2.2584   2.2810   2.2859   2.2924   2.2956   2.3053
  2.3172   2.3230   2.3284   2.3455   2.3588   2.3648   2.3780   2.3833
  2.3947   2.4099   2.4338   2.4454   2.4552   2.4556   2.4651   2.4660
  2.4762   2.4858   2.4924   2.5010   2.5042   2.5078   2.5362   2.5414
  2.5527   2.5598   2.5706   2.5893   2.5920   2.5941   2.5988   2.6098
  2.6118   2.6206   2.6249   2.6425   2.6526   2.6621   2.6645   2.6703
  2.6773   2.6808   2.6927   2.6968   2.7089   2.7137   2.7217   2.7301
  2.7342   2.7437   2.7469   2.7550   2.7584   2.7622   2.7711   2.7905
  2.7942   2.7998   2.8240   2.8343   2.8354   2.8514   2.8570   2.8617
  2.8730   2.8754   2.8768   2.8799   2.8926   2.8958   2.9037   2.9094
  2.9123   2.9233   2.9287   2.9330   2.9471   2.9518   2.9666   2.9705
  2.9739   2.9777   2.9889   2.9983   3.0038   3.0068   3.0112   3.0172
  3.0277   3.0317   3.0423   3.0455   3.0525   3.0635   3.0742   3.0812
  3.0851   3.0932   3.0967   3.1014   3.1037   3.1059   3.1124   3.1197
  3.1240   3.1311   3.1318   3.1462   3.1575   3.1683   3.1700   3.1809
  3.1864   3.1909   3.1950   3.2024   3.2086   3.2127   3.2149   3.2212
  3.2252   3.2302   3.2363   3.2423   3.2440   3.2528   3.2539   3.2605
  3.2725   3.2749   3.2784   3.2818   3.2863   3.2889   3.2949   3.2990
  3.3008   3.3098   3.3195   3.3239   3.3271   3.3297   3.3344   3.3361
  3.3415   3.3435   3.3459   3.3531   3.3606   3.3654   3.3686   3.3741
  3.3810   3.3855   3.3904   3.3977   3.4002   3.4029   3.4089   3.4136
  3.4187   3.4227   3.4320   3.4359   3.4400   3.4465   3.4525   3.4558
  3.4601   3.4663   3.4695   3.4727   3.4798   3.4824   3.4901   3.4923
  3.4957   3.5015   3.5038   3.5071   3.5116   3.5229   3.5257   3.5346
  3.5352   3.5387   3.5445   3.5521   3.5582   3.5661   3.5791   3.5833
  3.5868   3.5971   3.6058   3.6085   3.6114   3.6147   3.6241   3.6306
  3.6313   3.6360   3.6411   3.6502   3.6532   3.6685   3.6696   3.6749
  3.6823   3.6881   3.6970   3.7029   3.7074   3.7111   3.7133   3.7210
  3.7307   3.7349   3.7379   3.7504   3.7552   3.7584   3.7615   3.7703
  3.7739   3.7791   3.7880   3.7910   3.7952   3.7984   3.8019   3.8103
  3.8152   3.8252   3.8330   3.8376   3.8437   3.8463   3.8546   3.8631
  3.8674   3.8695   3.8740   3.8814   3.8919   3.8994   3.9117   3.9266
  3.9327   3.9342   3.9358   3.9495   3.9561   3.9618   3.9675   3.9708
  3.9822   4.0043   4.0091   4.0116   4.0216   4.0243   4.0324   4.0477
  4.0549   4.0595   4.0656   4.0839   4.0926   4.0949   4.1017   4.1131
  4.1234   4.1335   4.1378   4.1437   4.1547   4.1599   4.1664   4.1715
  4.1779   4.1866   4.1911   4.2027   4.2089   4.2163   4.2257   4.2411
  4.2485   4.2601   4.2666   4.2728   4.2767   4.2800   4.2864   4.2911
  4.2987   4.3017   4.3033   4.3087   4.3183   4.3297   4.3417   4.3435
  4.3503   4.3584   4.3659   4.3673   4.3704   4.3725   4.3789   4.3833
  4.3940   4.3995   4.4043   4.4132   4.4163   4.4221   4.4267   4.4413
  4.4595   4.4639   4.4762   4.4790   4.5018   4.5123   4.5148   4.5183
  4.5225   4.5256   4.5351   4.5428   4.5503   4.5565   4.5665   4.5751
  4.5794   4.5848   4.5918   4.5978   4.6104   4.6165   4.6271   4.6337
  4.6462   4.6506   4.6649   4.6699   4.6771   4.6797   4.6857   4.6950
  4.7142   4.7275   4.7335   4.7449   4.7638   4.7742   4.7799   4.7927
  4.8044   4.8224   4.8333   4.8389   4.8467   4.8616   4.8706   4.8712
  4.8815   4.8946   4.9115   4.9201   4.9441   4.9575   4.9608   4.9730
  4.9987   5.0086   5.0245   5.0377   5.0439   5.0478   5.0528   5.0811
  5.0891   5.0988   5.1070   5.1200   5.1257   5.1308   5.1377   5.1462
  5.1547   5.1740   5.1851   5.1918   5.1994   5.2237   5.2465   5.2572
  5.2709   5.2780   5.2875   5.2963   5.3081   5.3231   5.3322   5.3455
  5.3512   5.3968   5.4034   5.4090   5.4167   5.4291   5.4334   5.4549
  5.4879   5.5040   5.5087   5.5088   5.5142   5.5292   5.5472   5.5570
  5.5601   5.5615   5.5732   5.5758   5.5782   5.5912   5.5955   5.6069
  5.6232   5.6337   5.6528   5.6568   5.6623   5.6733   5.6766   5.6961
  5.6983   5.7126   5.7316   5.7402   5.7420   5.7583   5.7618   5.7730
  5.7778   5.7830   5.8198   5.8296   5.8380   5.8706   5.9063   5.9236
  5.9393   5.9638   5.9909   6.0039   6.0233   6.0297   6.0360   6.0379
  6.0758   6.0869   6.1010   6.1175   6.1190   6.1693   6.1928   6.2083
  6.2177   6.2191   6.2226   6.2561   6.2663   6.2732   6.3039   6.3418
  6.3498   6.3751   6.4140   6.4469   6.4648   6.5234   6.5619   6.5695
  6.5779   6.6005   6.6194   6.6475   6.6597   6.6725   6.7108   6.8317
  6.8359   6.8809   6.8861   6.8984   6.9113   6.9308   6.9804   7.0788
  7.1039   7.1409   7.1846   7.1901   7.2285   7.3324   7.3425   7.3441
  7.3581   7.4669   7.5442   7.5580   7.5737   7.5792   7.6008   7.6343
  7.6774   7.6878   7.7236   8.3735   9.9429  10.3128  11.0794  11.1953
 11.6986  11.7602  12.0547  12.3752  12.4197  12.6529  12.8457  12.9308
 13.3159  13.5501  13.8155  13.9305  14.0320  14.1329  14.2534  14.3514
 14.4308  14.7298  15.3206  15.7448  15.9921
 --------------------------------------------------------------
 
          Ground-State Mulliken Net Atomic Charges

     Atom                 Charge (a.u.)
  ----------------------------------------
      1 C                    -0.145577
      2 C                    -0.109325
      3 C                    -0.030827
      4 C                    -0.005775
      5 H                     0.188132
      6 C                    -0.002331
      7 C                     0.085351
      8 C                     0.010667
      9 C                    -0.076945
     10 C                    -0.145947
     11 C                     0.084666
     12 H                     0.181390
     13 C                     0.358659
     14 C                     0.364170
     15 N                    -0.101562
     16 C                     0.357603
     17 C                     0.366815
     18 N                    -0.094767
     19 O                    -0.464403
     20 O                    -0.477748
     21 O                    -0.483068
     22 O                    -0.474208
     23 C                    -0.201378
     24 H                     0.141233
     25 H                     0.112332
     26 H                     0.112204
     27 C                    -0.197282
     28 H                     0.133953
     29 H                     0.112915
     30 H                     0.112802
     31 H                     0.212492
     32 C                    -0.007472
     33 S                     0.088019
     34 C                    -0.200520
     35 C                    -0.202210
     36 C                    -0.197783
     37 H                     0.190863
     38 H                     0.191970
     39 H                     0.212893
  ----------------------------------------
  Sum of atomic charges =     0.000000

 -----------------------------------------------------------------
                    Cartesian Multipole Moments
 -----------------------------------------------------------------
    Charge (ESU x 10^10)
                 0.0000
    Dipole Moment (Debye)
         X       1.2187      Y       1.8731      Z      -0.7988
       Tot       2.3731
    Quadrupole Moments (Debye-Ang)
        XX    -166.4455     XY       4.9960     YY    -171.7275
        XZ       9.4188     YZ       0.8886     ZZ    -172.4304
    Octopole Moments (Debye-Ang^2)
       XXX     -44.4457    XXY     502.0425    XYY      -1.2866
       YYY    1620.7488    XXZ     -31.1572    XYZ     -32.8526
       YYZ     -22.5714    XZZ      -7.3265    YZZ     546.9214
       ZZZ    -101.0033
    Hexadecapole Moments (Debye-Ang^3)
      XXXX   -1770.1239   XXXY      25.9509   XXYY   -3055.6843
      XYYY     322.5957   YYYY  -17230.4416   XXXZ    1244.6082
      XXYZ     -30.7228   XYYZ     679.8153   YYYZ    -689.9378
      XXZZ   -1135.5159   XYZZ     -99.3134   YYZZ   -3860.5981
      XZZZ    1313.9352   YZZZ    -103.3526   ZZZZ   -4901.1478
 -----------------------------------------------------------------
 Total job time:  261.96s(wall), 8195.02s(cpu) 
 Wed Sep 20 09:43:00 2023

        *************************************************************
        *                                                           *
        *  Thank you very much for using Q-Chem.  Have a nice day.  *
        *                                                           *
        *************************************************************


0 sent ACK to 0 
now end server 0 ... 
cleanup process ... done
remove work dirs ./qchem4148668.0 -- ./qchem4148668.0
rm -rf ./qchem4148668.0
rm -rf ./qchem4148668
