You are running Q-Chem version: 5.4.0

#
# job setting
#
local host:  exp-2-02
current dir: /expanse/lustre/projects/csd626/rramji/aromodel/PNDIT/Rotation_Test
input file:  Dimethyl_Naphthalene_Dicarboximide_Phi_15_Theta_110_Thiophene.qcin
output file: 
nprocs     : 1
nthreads   : 64
#
# qchem installation setting
#
QC:          /cm/shared/apps/spack/cpu/opt/spack/linux-centos8-zen2/gcc-10.2.0/qchem-5.4-akfmr7b3t57bfs6qan3padb2wnb2i7cl
QCAUX:       /cm/shared/apps/spack/cpu/opt/spack/linux-centos8-zen2/gcc-10.2.0/qchem-5.4-akfmr7b3t57bfs6qan3padb2wnb2i7cl/qcaux
QCPROG:      /cm/shared/apps/spack/cpu/opt/spack/linux-centos8-zen2/gcc-10.2.0/qchem-5.4-akfmr7b3t57bfs6qan3padb2wnb2i7cl/exe/qcprog.exe
QCPROG_S:    /cm/shared/apps/spack/cpu/opt/spack/linux-centos8-zen2/gcc-10.2.0/qchem-5.4-akfmr7b3t57bfs6qan3padb2wnb2i7cl/exe/qcprog.exe_s
PARALLEL:    -DPARALLEL
QCMPI:       mpich
#
# qchem directory setting
#
qcrun:       qchem3109934
QCSCRATCH:   .
QCLOCALSCR:  
QCTMPDIR:    .
QCFILEPREF:  ./qchem3109934
QCSAVEDIR:   
workdirs:    ./qchem3109934
workdir0:    ./qchem3109934
partmpdirs =  
#
# parallel setting
#
QCRSH:           ssh
QCMPI:           mpich
QCMPIRUN:        /cm/shared/apps/spack/cpu/opt/spack/linux-centos8-zen2/gcc-10.2.0/qchem-5.4-akfmr7b3t57bfs6qan3padb2wnb2i7cl/bin/mpi/mpirun_qchem
QCMACHINEFILE:   ./qchem3109934/hostfile
exp-2-02

#
# env setting
#
exported envs:   QC QCAUX QCSCRATCH QCRUNNAME QCFILEPREF QCPROG QCPROG_S GUIFILE

Running Job 1 of 1 Dimethyl_Naphthalene_Dicarboximide_Phi_15_Theta_110_Thiophene.qcin
qchem Dimethyl_Naphthalene_Dicarboximide_Phi_15_Theta_110_Thiophene.qcin_3109934.0 ./qchem3109934/ 1
/cm/shared/apps/spack/cpu/opt/spack/linux-centos8-zen2/gcc-10.2.0/qchem-5.4-akfmr7b3t57bfs6qan3padb2wnb2i7cl/bin/mpi/mpirun_qchem -machinefile ./qchem3109934/hostfile -np 1 /cm/shared/apps/spack/cpu/opt/spack/linux-centos8-zen2/gcc-10.2.0/qchem-5.4-akfmr7b3t57bfs6qan3padb2wnb2i7cl/exe/qcprog.exe Dimethyl_Naphthalene_Dicarboximide_Phi_15_Theta_110_Thiophene.qcin_3109934.0 ./qchem3109934/

Process 0 of 1 is on exp-2-02 - thread support 0
initial socket setup ...start
initial socket setup ...done 
now start server 0 ... 
                  Welcome to Q-Chem
     A Quantum Leap Into The Future Of Chemistry


 Q-Chem 5.4, Q-Chem, Inc., Pleasanton, CA (2021)

 License issued to: University of California, San Diego (site)

 E. Epifanovsky,  A. T. B. Gilbert,  Xintian Feng,  Joonho Lee,  Yuezhi Mao,  
 N. Mardirossian,  P. Pokhilko,  A. White,  M. Wormit,  M. P. Coons,  
 A. L. Dempwolff,  Zhengting Gan,  D. Hait,  P. R. Horn,  L. D. Jacobson,  
 I. Kaliman,  J. Kussmann,  A. W. Lange,  Ka Un Lao,  D. S. Levine,  Jie Liu,  
 S. C. McKenzie,  A. F. Morrison,  K. Nanda,  F. Plasser,  D. R. Rehn,  
 M. L. Vidal,  Zhi-Qiang You,  Ying Zhu,  B. Alam,  B. Albrecht,  
 A. Aldossary,  E. Alguire,  J. H. Andersen,  D. Barton,  K. Begam,  A. Behn,  
 Y. A. Bernard,  E. J. Berquist,  H. Burton,  A. Carreras,  K. Carter-Fenk,  
 R. Chakraborty,  A. D. Chien,  K. D. Closser,  V. Cofer-Shabica,  
 S. Dasgupta,  Jia Deng,  M. de Wergifosse,  M. Diedenhofen,  Hainam Do,  
 S. Ehlert,  Po-Tung Fang,  S. Fatehi,  Qingguo Feng,  J. Gayvert,  
 Qinghui Ge,  G. Gidofalvi,  M. Goldey,  J. Gomes,  C. Gonzalez-Espinoza,  
 S. Gulania,  A. Gunina,  M. W. D. Hanson-Heine,  P. H. P. Harbach,  
 A. W. Hauser,  M. F. Herbst,  M. Hernandez Vera,  M. Hodecker,  
 Z. C. Holden,  S. Houck,  Xunkun Huang,  Kerwin Hui,  B. C. Huynh,  
 M. Ivanov,  Hyunjun Ji,  Hanjie Jiang,  B. Kaduk,  S. Kaehler,  
 K. Khistyaev,  Jaehoon Kim,  P. Klunzinger,  Z. Koczor-Benda,  
 Joong Hoon Koh,  D. Kosenkov,  L. Koulias,  T. Kowalczyk,  C. M. Krauter,  
 K. Kue,  A. Kunitsa,  T. Kus,  A. Landau,  K. V. Lawler,  D. Lefrancois,  
 S. Lehtola,  Rain Li,  Yi-Pei Li,  Jiashu Liang,  M. Liebenthal,  
 Hung-Hsuan Lin,  You-Sheng Lin,  Fenglai Liu,  Kuan-Yu Liu,  
 M. Loipersberger,  A. Luenser,  A. Manjanath,  P. Manohar,  E. Mansoor,  
 S. F. Manzer,  Shan-Ping Mao,  A. V. Marenich,  T. Markovich,  S. Mason,  
 S. A. Maurer,  P. F. McLaughlin,  M. F. S. J. Menger,  J.-M. Mewes,  
 S. A. Mewes,  P. Morgante,  J. W. Mullinax,  T. S. Nguyen-Beck,  
 K. J. Oosterbaan,  G. Paran,  Alexander C. Paul,  Suranjan K. Paul,  
 F. Pavosevic,  Zheng Pei,  S. Prager,  E. I. Proynov,  E. Ramos,  B. Rana,  
 A. E. Rask,  A. Rettig,  R. M. Richard,  F. Rob,  E. Rossomme,  T. Scheele,  
 M. Scheurer,  M. Schneider,  N. Sergueev,  S. M. Sharada,  W. Skomorowski,  
 D. W. Small,  C. J. Stein,  Yu-Chuan Su,  E. J. Sundstrom,  Zhen Tao,  
 J. Thirman,  T. Tsuchimochi,  N. M. Tubman,  S. P. Veccham,  O. Vydrov,  
 J. Wenzel,  J. Witte,  A. Yamada,  Kun Yao,  S. Yeganeh,  S. R. Yost,  
 A. Zech,  Igor Ying Zhang,  Xing Zhang,  Yu Zhang,  D. Zuev,  
 A. Aspuru-Guzik,  A. T. Bell,  N. A. Besley,  K. B. Bravaya,  B. R. Brooks,  
 D. Casanova,  Jeng-Da Chai,  S. Coriani,  C. J. Cramer,  
 A. E. DePrince, III,  R. A. DiStasio Jr.,  A. Dreuw,  B. D. Dunietz,  
 T. R. Furlani,  W. A. Goddard III,  S. Grimme,  S. Hammes-Schiffer,  
 T. Head-Gordon,  W. J. Hehre,  Chao-Ping Hsu,  T.-C. Jagau,  Yousung Jung,  
 A. Klamt,  Jing Kong,  D. S. Lambrecht,  WanZhen Liang,  N. J. Mayhall,  
 C. W. McCurdy,  J. B. Neaton,  C. Ochsenfeld,  J. A. Parkhill,  R. Peverati,  
 V. A. Rassolov,  Yihan Shao,  L. V. Slipchenko,  T. Stauch,  R. P. Steele,  
 J. E. Subotnik,  A. J. W. Thom,  A. Tkatchenko,  D. G. Truhlar,  
 T. Van Voorhis,  T. A. Wesolowski,  K. B. Whaley,  H. L. Woodcock III,  
 P. M. Zimmerman,  S. Faraji,  P. M. W. Gill,  M. Head-Gordon,  
 J. M. Herbert,  A. I. Krylov

 Contributors to earlier versions of Q-Chem not listed above: 
 R. D. Adamson,  B. Austin,  R. Baer,  J. Baker,  G. J. O. Beran,  
 K. Brandhorst,  S. T. Brown,  E. F. C. Byrd,  A. K. Chakraborty,  
 G. K. L. Chan,  Chun-Min Chang,  Yunqing Chen,  C.-L. Cheng,  
 Siu Hung Chien,  D. M. Chipman,  D. L. Crittenden,  H. Dachsel,  
 R. J. Doerksen,  A. D. Dutoi,  R. G. Edgar,  J. Fosso-Tande,  
 L. Fusti-Molnar,  D. Ghosh,  A. Ghysels,  A. Golubeva-Zadorozhnaya,  
 J. Gonthier,  M. S. Gordon,  S. R. Gwaltney,  G. Hawkins,  J. E. Herr,  
 A. Heyden,  S. Hirata,  E. G. Hohenstein,  G. Kedziora,  F. J. Keil,  
 C. Kelley,  Jihan Kim,  R. A. King,  R. Z. Khaliullin,  P. P. Korambath,  
 W. Kurlancheek,  A. Laurent,  A. M. Lee,  M. S. Lee,  S. V. Levchenko,  
 Ching Yeh Lin,  D. Liotard,  E. Livshits,  R. C. Lochan,  I. Lotan,  
 L. A. Martinez-Martinez,  P. E. Maslen,  N. Nair,  D. P. O'Neill,  
 D. Neuhauser,  E. Neuscamman,  C. M. Oana,  R. Olivares-Amaya,  R. Olson,  
 T. M. Perrine,  B. Peters,  P. A. Pieniazek,  A. Prociuk,  Y. M. Rhee,  
 J. Ritchie,  M. A. Rohrdanz,  E. Rosta,  N. J. Russ,  H. F. Schaefer III,  
 M. W. Schmidt,  N. E. Schultz,  S. Sharma,  N. Shenvi,  C. D. Sherrill,  
 A. C. Simmonett,  A. Sodt,  T. Stein,  D. Stuck,  K. S. Thanthiriwatte,  
 V. Vanovschi,  L. Vogt,  Tao Wang,  A. Warshel,  M. A. Watson,  
 C. F. Williams,  Q. Wu,  X. Xu,  Jun Yang,  W. Zhang,  Yan Zhao

 Please cite Q-Chem as follows:
 Y. Shao et al., Mol. Phys. 113, 184-215 (2015)
 DOI: 10.1080/00268976.2014.952696

 Q-Chem 5.4.0 for Intel X86 EM64T Linux

 Parts of Q-Chem use Armadillo 9.800.1 (Horizon Scraper).
 http://arma.sourceforge.net/

 Q-Chem begins on Sun Sep 24 15:41:13 2023  

 Host: 
0

     Scratch files written to ./qchem3109934//
 May1621 |scratch|qcdevops|jenkins|workspace|build_RNUM    
 Parallel job on  1  processors
 Processing $rem in /cm/shared/apps/spack/cpu/opt/spack/linux-centos8-zen2/gcc-10.2.0/qchem-5.4-akfmr7b3t57bfs6qan3padb2wnb2i7cl/config/preferences:
 Processing $rem in /home/rramji/.qchemrc:
 Symmetry turned off for PCM/SM12/SMD calculation
 Core orbitals will be frozen

 Checking the input file for inconsistencies... 	...done.

 Q-Chem warning in module forms1/BasisType.C, line 2236:

 You are not using the predefined 5D/6D in this basis set.


--------------------------------------------------------------
User input:
--------------------------------------------------------------
$molecule
0 1
C	0.241938	-6.741404	0.086486
C	1.468983	-6.155638	0.532960
C	-0.776651	-5.791452	-0.284733
C	1.730681	-4.803786	0.628455
H	2.294130	-6.821518	0.833086
C	-0.502775	-4.378638	-0.184300
C	0.747353	-3.838032	0.271086
C	-1.484986	-3.413062	-0.541191
C	1.019042	-2.426473	0.370703
C	-1.226525	-2.059348	-0.446468
C	0.000000	-1.478216	0.000000
H	-2.052666	-1.394783	-0.746717
C	-2.131549	-6.187987	-0.779832
C	-2.829295	-3.798164	-1.030596
N	-3.057496	-5.170003	-1.115461
C	3.078712	-4.424987	1.119034
C	2.375300	-2.036627	0.865151
N	3.301374	-3.049156	1.201176
O	-2.498300	-7.353131	-0.916355
O	-3.697195	-2.986854	-1.345486
O	3.936224	-5.248946	1.430379
O	2.762805	-0.878829	1.007714
C	-4.384539	-5.563799	-1.599576
H	-4.426636	-6.664085	-1.616121
H	-4.550487	-5.147101	-2.611458
H	-5.162921	-5.148785	-0.931037
C	4.608454	-2.587487	1.677382
H	5.212668	-3.483329	1.896168
H	4.482719	-1.964972	2.583531
H	5.093988	-1.962932	0.903674
H	0.067309	-7.822318	0.022586
C	0.000000	0.000000	0.000000
S	0.205093	0.766196	1.580530
C	0.628939	2.348114	0.904911
C	0.258137	0.964028	-0.985400
C	0.599745	2.239309	-0.493528
H	0.197169	0.736404	-2.059934
H	0.827678	3.090243	-1.152593
H	0.856796	3.198808	1.556025
$end

$rem
JOBTYPE		SP
EXCHANGE	HF
CORRELATION	pRIMP2
BASIS		cc-pvtz
METHOD		rimp2
AUX_BASIS	rimp2-cc-pvtz
SOLVENT_METHOD	PCM
PURECART	11111
SYMMETRY	false
MEM_TOTAL	110000
SCF_CONVERGENCE = 6
THRESH=10
GUI = 2
$end



$solvent
dielectric 4.90
$end
--------------------------------------------------------------
 ----------------------------------------------------------------
             Standard Nuclear Orientation (Angstroms)
    I     Atom           X                Y                Z
 ----------------------------------------------------------------
    1      C       0.2419380000    -6.7414040000     0.0864860000
    2      C       1.4689830000    -6.1556380000     0.5329600000
    3      C      -0.7766510000    -5.7914520000    -0.2847330000
    4      C       1.7306810000    -4.8037860000     0.6284550000
    5      H       2.2941300000    -6.8215180000     0.8330860000
    6      C      -0.5027750000    -4.3786380000    -0.1843000000
    7      C       0.7473530000    -3.8380320000     0.2710860000
    8      C      -1.4849860000    -3.4130620000    -0.5411910000
    9      C       1.0190420000    -2.4264730000     0.3707030000
   10      C      -1.2265250000    -2.0593480000    -0.4464680000
   11      C       0.0000000000    -1.4782160000     0.0000000000
   12      H      -2.0526660000    -1.3947830000    -0.7467170000
   13      C      -2.1315490000    -6.1879870000    -0.7798320000
   14      C      -2.8292950000    -3.7981640000    -1.0305960000
   15      N      -3.0574960000    -5.1700030000    -1.1154610000
   16      C       3.0787120000    -4.4249870000     1.1190340000
   17      C       2.3753000000    -2.0366270000     0.8651510000
   18      N       3.3013740000    -3.0491560000     1.2011760000
   19      O      -2.4983000000    -7.3531310000    -0.9163550000
   20      O      -3.6971950000    -2.9868540000    -1.3454860000
   21      O       3.9362240000    -5.2489460000     1.4303790000
   22      O       2.7628050000    -0.8788290000     1.0077140000
   23      C      -4.3845390000    -5.5637990000    -1.5995760000
   24      H      -4.4266360000    -6.6640850000    -1.6161210000
   25      H      -4.5504870000    -5.1471010000    -2.6114580000
   26      H      -5.1629210000    -5.1487850000    -0.9310370000
   27      C       4.6084540000    -2.5874870000     1.6773820000
   28      H       5.2126680000    -3.4833290000     1.8961680000
   29      H       4.4827190000    -1.9649720000     2.5835310000
   30      H       5.0939880000    -1.9629320000     0.9036740000
   31      H       0.0673090000    -7.8223180000     0.0225860000
   32      C       0.0000000000     0.0000000000     0.0000000000
   33      S       0.2050930000     0.7661960000     1.5805300000
   34      C       0.6289390000     2.3481140000     0.9049110000
   35      C       0.2581370000     0.9640280000    -0.9854000000
   36      C       0.5997450000     2.2393090000    -0.4935280000
   37      H       0.1971690000     0.7364040000    -2.0599340000
   38      H       0.8276780000     3.0902430000    -1.1525930000
   39      H       0.8567960000     3.1988080000     1.5560250000
 ----------------------------------------------------------------
 Nuclear Repulsion Energy =        2500.73659582 hartrees
 There are       97 alpha and       97 beta electrons
 Requested basis set is cc-pVTZ
 There are 344 shells and 982 basis functions

 Total QAlloc Memory Limit 110000 MB
 Mega-Array Size       188 MB
 MEM_STATIC part       192 MB
 Discretize the solute cavity surface with Lebedev spheres
	Using 110 Lebedev grid points for each H atom
	Using 194 Lebedev grid points for other atoms
	Atomic van der Waals radii will be scaled by 1.20
 Remove points where switching function is < 1.0e-08
 Keep 2544 surface tesserae and discard 4014 interior tesserae
 Molecular Surface Area = 368.095 Angst**2
 Requested basis set is rimp2-cc-pVTZ
 There are 750 shells and 2588 basis functions
 A cutoff of  1.0D-10 yielded  31732 shell pairs
 There are    244604 function pairs (    317958 Cartesian)
 Smallest overlap matrix eigenvalue = 9.50E-06

 Q-Chem warning in module stvman/mkSTV.C, line 323:

 Overlap eigenvalue is smaller than square root of threshold
 Use THRESH >= 12 to get rid of this warning


 Scale SEOQF with 1.000000e-01/1.000000e-02/1.000000e-01

 Standard Electronic Orientation quadrupole field applied
 Nucleus-field energy     =     0.0000000401 hartrees
 Guess from superposition of atomic densities
 Warning:  Energy on first SCF cycle will be non-variational
 SAD guess density has 194.000000 electrons

 -----------------------------------------------------------------------
  General SCF calculation program by
  Eric Jon Sundstrom, Paul Horn, Yuezhi Mao, Dmitri Zuev, Alec White,
  David Stuck, Shaama M.S., Shane Yost, Joonho Lee, David Small,
  Daniel Levine, Susi Lehtola, Hugh Burton, Evgeny Epifanovsky,
  Bang C. Huynh
 -----------------------------------------------------------------------
 Hartree-Fock
 using 64 threads for integral computing
 -------------------------------------------------------
 OpenMP Integral computing Module                
 Release: version 1.0, May 2013, Q-Chem Inc. Pittsburgh 
 -------------------------------------------------------
 A restricted SCF calculation will be
 performed using DIIS
 SCF converges when DIIS error is below 1.0e-06
 ---------------------------------------
  Cycle       Energy         DIIS error
 ---------------------------------------
    1   -1581.2826576009      1.87e-02  
    2   -1570.1119899798      2.09e-03  
    3   -1570.4377394923      1.64e-03  
    4   -1570.6701521659      2.56e-04  
    5   -1570.6821277104      7.51e-05  
    6   -1570.6831611413      2.77e-05  
    7   -1570.6833933248      1.42e-05  
    8   -1570.6834668403      5.87e-06  
    9   -1570.6834783308      2.29e-06  
   10   -1570.6834802908      7.24e-07  Convergence criterion met
 ---------------------------------------
 SCF time:   CPU 5641.22s  wall 229.00s 

************** Final PCM Free Energy Summary **************
 G_electrostatic  =      -0.02481744 hartree =     -15.57317953 kcal/mol
 G_cavitation     =       0.00000000 hartree =       0.00000000 kcal/mol
 G_dispersion     =       0.00000000 hartree =       0.00000000 kcal/mol
 G_repulsion      =       0.00000000 hartree =       0.00000000 kcal/mol
 --------------------------------------------------
 Non-electrostatic Free Energy =       0.00000000 hartree =       0.00000000 kcal/mol
 Total                         =      -0.02481744 hartree =     -15.57317953 kcal/mol
 --------------------------------------------------
 SCF Energy (H0 + V/2)                       =   -1570.68348029 
 Solute Internal Energy (H0)                 =   -1570.65866285 
 Total Free Energy (H0 + V/2 + non-elec)     =   -1570.68348029 hartree
                                             = -985618.75982570 kcal/mol
***********************************************************

 SCF   energy in the final basis set =    -1570.6834802908
 Total energy in the final basis set =    -1570.6834802908


 --------------------------------------------------------------
  Generalized many-body perturbation theory program
  by Joonho Lee, Fazle Rob, Xintian Feng, Evgeny Epifanovsky

 No regularization used 
 (reg. param. = 0.0000e+00)
  (P|Q)^-1/2 Time:  CPU 184.87 s  wall 3.53 s

 In RI-MP2 calculation: 
 # of frozen core orbitals: 31

 Components of the RIMP2 correlation energy:
        aaaa    correlation energy =        -0.6166530637 a.u.
        abab    correlation energy =        -3.3931466361 a.u.
        bbbb    correlation energy =        -0.6166530637 a.u.
        non-Brillouin singles      =        -0.0000000000 a.u.
        total same-spin energy     =        -1.2333061274 a.u.
        total opposite-spin energy =        -3.3931466361 a.u.

 Total  RIMP2   correlation energy =        -4.6264527635 a.u.
        RIMP2         total energy =     -1575.3099330543 a.u.

 RI-MP2 Energy Time:  CPU 1973.51 s  wall 33.09 s
 
 --------------------------------------------------------------
 
                    Orbital Energies (a.u.)
 --------------------------------------------------------------
 
 Alpha MOs
 -- Occupied --
-91.9872 -20.5587 -20.5563 -20.5553 -20.5551 -15.6313 -15.6306 -11.4004
-11.3959 -11.3927 -11.3906 -11.3154 -11.3071 -11.3031 -11.3014 -11.2992
-11.2988 -11.2894 -11.2869 -11.2859 -11.2823 -11.2808 -11.2775 -11.2647
-11.2645 -11.2579 -11.2487  -8.9867  -6.6674  -6.6669  -6.6664  -1.4250
 -1.4238  -1.4043  -1.4029  -1.2676  -1.2651  -1.2179  -1.1736  -1.1441
 -1.1179  -1.0629  -1.0502  -0.9931  -0.9887  -0.9819  -0.9593  -0.9487
 -0.8970  -0.8799  -0.8772  -0.8616  -0.7947  -0.7772  -0.7734  -0.7596
 -0.7356  -0.7191  -0.7052  -0.6950  -0.6807  -0.6730  -0.6664  -0.6622
 -0.6571  -0.6424  -0.6376  -0.6340  -0.6301  -0.6127  -0.5852  -0.5842
 -0.5777  -0.5722  -0.5662  -0.5642  -0.5631  -0.5553  -0.5531  -0.5485
 -0.5355  -0.5264  -0.5207  -0.5119  -0.4828  -0.4705  -0.4654  -0.4599
 -0.4576  -0.4526  -0.4281  -0.4182  -0.4091  -0.3562  -0.3482  -0.3349
 -0.3193
 -- Virtual --
 -0.0199   0.0635   0.0720   0.0957   0.1169   0.1557   0.1579   0.1592
  0.1654   0.1667   0.1769   0.1828   0.1852   0.1927   0.1985   0.2068
  0.2158   0.2217   0.2275   0.2299   0.2328   0.2391   0.2576   0.2613
  0.2642   0.2974   0.3059   0.3134   0.3171   0.3213   0.3230   0.3324
  0.3424   0.3435   0.3523   0.3563   0.3585   0.3620   0.3694   0.3720
  0.3785   0.3797   0.3844   0.3968   0.4002   0.4024   0.4037   0.4104
  0.4152   0.4241   0.4302   0.4339   0.4405   0.4441   0.4473   0.4546
  0.4559   0.4569   0.4608   0.4709   0.4724   0.4846   0.4888   0.4944
  0.5011   0.5062   0.5096   0.5164   0.5201   0.5278   0.5282   0.5290
  0.5327   0.5379   0.5445   0.5481   0.5524   0.5592   0.5610   0.5630
  0.5663   0.5731   0.5807   0.5833   0.5885   0.5913   0.5966   0.6003
  0.6050   0.6095   0.6111   0.6199   0.6213   0.6238   0.6256   0.6279
  0.6336   0.6339   0.6357   0.6383   0.6405   0.6477   0.6548   0.6616
  0.6735   0.6792   0.6877   0.6945   0.6980   0.7036   0.7075   0.7141
  0.7190   0.7310   0.7324   0.7373   0.7438   0.7564   0.7596   0.7634
  0.7699   0.7745   0.7808   0.7903   0.7955   0.8021   0.8040   0.8127
  0.8165   0.8267   0.8283   0.8386   0.8401   0.8440   0.8479   0.8506
  0.8637   0.8647   0.8705   0.8727   0.8800   0.8866   0.8986   0.9084
  0.9102   0.9206   0.9219   0.9234   0.9338   0.9350   0.9369   0.9407
  0.9493   0.9518   0.9624   0.9645   0.9732   0.9784   0.9823   0.9868
  0.9897   0.9930   1.0012   1.0022   1.0127   1.0162   1.0227   1.0285
  1.0299   1.0356   1.0407   1.0505   1.0570   1.0626   1.0669   1.0720
  1.0773   1.0795   1.0838   1.0860   1.0898   1.0963   1.1070   1.1114
  1.1251   1.1275   1.1350   1.1406   1.1415   1.1486   1.1513   1.1577
  1.1598   1.1622   1.1701   1.1761   1.1777   1.1810   1.1877   1.1973
  1.2014   1.2073   1.2126   1.2145   1.2243   1.2276   1.2329   1.2369
  1.2424   1.2497   1.2517   1.2549   1.2626   1.2746   1.2853   1.2953
  1.3062   1.3262   1.3267   1.3361   1.3405   1.3433   1.3461   1.3571
  1.3626   1.3729   1.3823   1.3835   1.3866   1.3940   1.4122   1.4178
  1.4226   1.4251   1.4344   1.4416   1.4433   1.4526   1.4578   1.4629
  1.4769   1.4859   1.4871   1.4888   1.4982   1.5043   1.5108   1.5176
  1.5266   1.5314   1.5349   1.5483   1.5493   1.5547   1.5599   1.5627
  1.5706   1.5767   1.5841   1.5903   1.5959   1.6046   1.6132   1.6332
  1.6366   1.6439   1.6492   1.6546   1.6707   1.6718   1.6753   1.6858
  1.6917   1.7064   1.7072   1.7154   1.7319   1.7382   1.7452   1.7475
  1.7520   1.7600   1.7658   1.7725   1.7889   1.7936   1.7995   1.8088
  1.8138   1.8233   1.8361   1.8430   1.8515   1.8568   1.8623   1.8638
  1.8689   1.8808   1.8980   1.9019   1.9185   1.9199   1.9363   1.9469
  1.9603   1.9710   1.9774   1.9805   1.9950   2.0027   2.0166   2.0279
  2.0461   2.0489   2.0603   2.0647   2.0971   2.1134   2.1181   2.1288
  2.1408   2.1453   2.1571   2.1751   2.1886   2.2022   2.2164   2.2209
  2.2329   2.2352   2.2553   2.2590   2.2851   2.2900   2.2937   2.2987
  2.3094   2.3188   2.3227   2.3357   2.3552   2.3590   2.3732   2.3794
  2.4045   2.4208   2.4320   2.4399   2.4443   2.4514   2.4563   2.4670
  2.4717   2.4843   2.4863   2.4966   2.5071   2.5223   2.5234   2.5333
  2.5394   2.5598   2.5733   2.5838   2.5874   2.5910   2.6021   2.6068
  2.6131   2.6194   2.6264   2.6377   2.6491   2.6611   2.6650   2.6673
  2.6717   2.6871   2.6988   2.7012   2.7059   2.7150   2.7185   2.7266
  2.7353   2.7445   2.7483   2.7502   2.7567   2.7683   2.7739   2.7901
  2.8065   2.8201   2.8234   2.8287   2.8347   2.8442   2.8495   2.8572
  2.8627   2.8676   2.8708   2.8802   2.8867   2.8920   2.8976   2.9061
  2.9148   2.9273   2.9285   2.9401   2.9450   2.9512   2.9561   2.9653
  2.9737   2.9767   2.9843   2.9911   3.0010   3.0034   3.0089   3.0130
  3.0284   3.0304   3.0352   3.0417   3.0516   3.0583   3.0630   3.0770
  3.0879   3.0908   3.0959   3.1011   3.1085   3.1112   3.1184   3.1271
  3.1287   3.1400   3.1480   3.1509   3.1614   3.1670   3.1753   3.1759
  3.1876   3.1954   3.2041   3.2056   3.2086   3.2158   3.2172   3.2215
  3.2255   3.2322   3.2371   3.2434   3.2516   3.2555   3.2611   3.2668
  3.2729   3.2771   3.2803   3.2839   3.2883   3.2910   3.2952   3.2970
  3.3047   3.3061   3.3188   3.3216   3.3255   3.3265   3.3344   3.3389
  3.3406   3.3448   3.3500   3.3571   3.3599   3.3632   3.3670   3.3728
  3.3732   3.3830   3.3878   3.3935   3.3977   3.4003   3.4088   3.4133
  3.4178   3.4241   3.4300   3.4325   3.4414   3.4479   3.4512   3.4561
  3.4578   3.4625   3.4721   3.4734   3.4758   3.4813   3.4868   3.4929
  3.4987   3.5019   3.5020   3.5107   3.5125   3.5165   3.5200   3.5213
  3.5350   3.5390   3.5421   3.5522   3.5572   3.5618   3.5700   3.5765
  3.5835   3.5878   3.5974   3.5988   3.6097   3.6150   3.6264   3.6291
  3.6341   3.6385   3.6431   3.6473   3.6508   3.6557   3.6639   3.6785
  3.6867   3.6883   3.6927   3.7048   3.7097   3.7109   3.7185   3.7219
  3.7288   3.7326   3.7350   3.7378   3.7518   3.7549   3.7559   3.7597
  3.7728   3.7806   3.7817   3.7844   3.7856   3.7940   3.7990   3.8002
  3.8040   3.8081   3.8216   3.8353   3.8367   3.8445   3.8530   3.8568
  3.8584   3.8630   3.8764   3.8801   3.8829   3.8999   3.9118   3.9219
  3.9300   3.9340   3.9364   3.9453   3.9509   3.9516   3.9601   3.9691
  3.9886   3.9891   4.0023   4.0076   4.0111   4.0193   4.0275   4.0479
  4.0540   4.0548   4.0658   4.0693   4.0863   4.0896   4.0961   4.1058
  4.1193   4.1277   4.1343   4.1473   4.1507   4.1524   4.1536   4.1801
  4.1848   4.1873   4.1897   4.1981   4.2020   4.2096   4.2187   4.2350
  4.2447   4.2526   4.2615   4.2674   4.2693   4.2776   4.2814   4.2841
  4.2925   4.2973   4.3013   4.3032   4.3141   4.3250   4.3298   4.3341
  4.3392   4.3498   4.3591   4.3642   4.3674   4.3694   4.3705   4.3794
  4.3878   4.3951   4.4019   4.4047   4.4149   4.4226   4.4263   4.4369
  4.4410   4.4650   4.4680   4.4811   4.4847   4.5085   4.5167   4.5197
  4.5217   4.5266   4.5335   4.5383   4.5415   4.5522   4.5650   4.5678
  4.5740   4.5803   4.5826   4.5858   4.6039   4.6117   4.6306   4.6365
  4.6407   4.6490   4.6627   4.6654   4.6718   4.6729   4.6889   4.6927
  4.7125   4.7183   4.7327   4.7383   4.7476   4.7641   4.7825   4.7834
  4.8117   4.8247   4.8328   4.8421   4.8464   4.8520   4.8697   4.8778
  4.8892   4.9015   4.9066   4.9280   4.9368   4.9554   4.9684   4.9769
  4.9873   5.0050   5.0198   5.0393   5.0403   5.0498   5.0516   5.0548
  5.0903   5.1001   5.1057   5.1079   5.1245   5.1328   5.1409   5.1476
  5.1661   5.1720   5.1797   5.1910   5.1978   5.2270   5.2354   5.2559
  5.2580   5.2767   5.2789   5.2889   5.3216   5.3293   5.3366   5.3423
  5.3521   5.3831   5.3955   5.4022   5.4179   5.4296   5.4373   5.4571
  5.4917   5.5053   5.5058   5.5085   5.5130   5.5236   5.5466   5.5554
  5.5588   5.5600   5.5737   5.5774   5.5797   5.5898   5.6040   5.6090
  5.6183   5.6342   5.6485   5.6521   5.6540   5.6758   5.6765   5.6853
  5.7018   5.7036   5.7197   5.7362   5.7539   5.7559   5.7625   5.7691
  5.7734   5.7778   5.8091   5.8201   5.8406   5.8791   5.8848   5.9216
  5.9390   5.9568   5.9904   6.0060   6.0207   6.0224   6.0297   6.0446
  6.0776   6.1004   6.1048   6.1116   6.1162   6.1576   6.1924   6.2078
  6.2174   6.2179   6.2209   6.2519   6.2634   6.2683   6.3000   6.3406
  6.3510   6.3826   6.4337   6.4437   6.4648   6.5227   6.5618   6.5694
  6.5860   6.5980   6.6397   6.6470   6.6557   6.6602   6.7023   6.8292
  6.8323   6.8784   6.8858   6.8945   6.9112   6.9240   6.9323   7.0770
  7.0995   7.1378   7.1831   7.1880   7.2270   7.3322   7.3409   7.3441
  7.3550   7.4660   7.5437   7.5572   7.5725   7.5759   7.5886   7.6331
  7.6686   7.6827   7.7214   8.3204   9.8637  10.2833  11.1099  11.2566
 11.6415  11.7174  11.9463  12.3562  12.4413  12.7784  12.8593  12.8946
 13.2461  13.5608  13.8053  13.9342  14.0243  14.0877  14.1981  14.3410
 14.4075  14.7202  15.3189  15.7108  15.9704
 --------------------------------------------------------------
 
          Ground-State Mulliken Net Atomic Charges

     Atom                 Charge (a.u.)
  ----------------------------------------
      1 C                    -0.130710
      2 C                    -0.108048
      3 C                    -0.043308
      4 C                    -0.001174
      5 H                     0.188900
      6 C                    -0.004961
      7 C                     0.071475
      8 C                     0.010557
      9 C                    -0.005851
     10 C                    -0.141157
     11 C                     0.072848
     12 H                     0.180245
     13 C                     0.361089
     14 C                     0.368829
     15 N                    -0.101818
     16 C                     0.358755
     17 C                     0.368315
     18 N                    -0.095705
     19 O                    -0.464829
     20 O                    -0.476313
     21 O                    -0.480348
     22 O                    -0.455848
     23 C                    -0.200953
     24 H                     0.141032
     25 H                     0.112276
     26 H                     0.112623
     27 C                    -0.196237
     28 H                     0.133616
     29 H                     0.113040
     30 H                     0.113090
     31 H                     0.214544
     32 C                    -0.058212
     33 S                     0.039882
     34 C                    -0.202349
     35 C                    -0.182506
     36 C                    -0.202351
     37 H                     0.190097
     38 H                     0.190964
     39 H                     0.210502
  ----------------------------------------
  Sum of atomic charges =     0.000000

 -----------------------------------------------------------------
                    Cartesian Multipole Moments
 -----------------------------------------------------------------
    Charge (ESU x 10^10)
                 0.0000
    Dipole Moment (Debye)
         X       0.7412      Y       0.8448      Z      -0.8316
       Tot       1.3981
    Quadrupole Moments (Debye-Ang)
        XX    -181.3668     XY       2.0547     YY    -165.1937
        XZ      -6.0486     YZ       0.2948     ZZ    -159.8291
    Octopole Moments (Debye-Ang^2)
       XXX     -90.7684    XXY     539.8911    XYY      -9.8927
       YYY    1584.1878    XXZ     -23.8132    XYZ      28.6908
       YYZ     -11.8956    XZZ     -24.7519    YZZ     488.6112
       ZZZ     -70.9655
    Hexadecapole Moments (Debye-Ang^3)
      XXXX   -5495.5881   XXXY    -102.7178   XXYY   -4055.5501
      XYYY    -779.5928   YYYY  -17077.7207   XXXZ   -1015.3863
      XXYZ      52.0682   XYYZ    -498.6553   YYYZ    -308.0232
      XXZZ   -1098.3652   XYZZ     -83.8219   YYZZ   -2876.0710
      XZZZ    -936.1586   YZZZ    -152.1839   ZZZZ   -1130.5487
 -----------------------------------------------------------------
 Total job time:  266.65s(wall), 7736.80s(cpu) 
 Sun Sep 24 15:45:39 2023

        *************************************************************
        *                                                           *
        *  Thank you very much for using Q-Chem.  Have a nice day.  *
        *                                                           *
        *************************************************************


0 sent ACK to 0 
now end server 0 ... 
cleanup process ... done
remove work dirs ./qchem3109934.0 -- ./qchem3109934.0
rm -rf ./qchem3109934.0
rm -rf ./qchem3109934
