You are running Q-Chem version: 5.4.0

#
# job setting
#
local host:  exp-2-14
current dir: /expanse/lustre/projects/csd626/rramji/aromodel/PNDIT/Rotation_Test
input file:  Dimethyl_Naphthalene_Dicarboximide_Phi_5_Theta_190_Thiophene.qcin
output file: 
nprocs     : 1
nthreads   : 64
#
# qchem installation setting
#
QC:          /cm/shared/apps/spack/cpu/opt/spack/linux-centos8-zen2/gcc-10.2.0/qchem-5.4-akfmr7b3t57bfs6qan3padb2wnb2i7cl
QCAUX:       /cm/shared/apps/spack/cpu/opt/spack/linux-centos8-zen2/gcc-10.2.0/qchem-5.4-akfmr7b3t57bfs6qan3padb2wnb2i7cl/qcaux
QCPROG:      /cm/shared/apps/spack/cpu/opt/spack/linux-centos8-zen2/gcc-10.2.0/qchem-5.4-akfmr7b3t57bfs6qan3padb2wnb2i7cl/exe/qcprog.exe
QCPROG_S:    /cm/shared/apps/spack/cpu/opt/spack/linux-centos8-zen2/gcc-10.2.0/qchem-5.4-akfmr7b3t57bfs6qan3padb2wnb2i7cl/exe/qcprog.exe_s
PARALLEL:    -DPARALLEL
QCMPI:       mpich
#
# qchem directory setting
#
qcrun:       qchem2998768
QCSCRATCH:   .
QCLOCALSCR:  
QCTMPDIR:    .
QCFILEPREF:  ./qchem2998768
QCSAVEDIR:   
workdirs:    ./qchem2998768
workdir0:    ./qchem2998768
partmpdirs =  
#
# parallel setting
#
QCRSH:           ssh
QCMPI:           mpich
QCMPIRUN:        /cm/shared/apps/spack/cpu/opt/spack/linux-centos8-zen2/gcc-10.2.0/qchem-5.4-akfmr7b3t57bfs6qan3padb2wnb2i7cl/bin/mpi/mpirun_qchem
QCMACHINEFILE:   ./qchem2998768/hostfile
exp-2-14

#
# env setting
#
exported envs:   QC QCAUX QCSCRATCH QCRUNNAME QCFILEPREF QCPROG QCPROG_S GUIFILE

Running Job 1 of 1 Dimethyl_Naphthalene_Dicarboximide_Phi_5_Theta_190_Thiophene.qcin
qchem Dimethyl_Naphthalene_Dicarboximide_Phi_5_Theta_190_Thiophene.qcin_2998768.0 ./qchem2998768/ 1
/cm/shared/apps/spack/cpu/opt/spack/linux-centos8-zen2/gcc-10.2.0/qchem-5.4-akfmr7b3t57bfs6qan3padb2wnb2i7cl/bin/mpi/mpirun_qchem -machinefile ./qchem2998768/hostfile -np 1 /cm/shared/apps/spack/cpu/opt/spack/linux-centos8-zen2/gcc-10.2.0/qchem-5.4-akfmr7b3t57bfs6qan3padb2wnb2i7cl/exe/qcprog.exe Dimethyl_Naphthalene_Dicarboximide_Phi_5_Theta_190_Thiophene.qcin_2998768.0 ./qchem2998768/

Process 0 of 1 is on exp-2-14 - thread support 0
initial socket setup ...start
initial socket setup ...done 
now start server 0 ... 
                  Welcome to Q-Chem
     A Quantum Leap Into The Future Of Chemistry


 Q-Chem 5.4, Q-Chem, Inc., Pleasanton, CA (2021)

 License issued to: University of California, San Diego (site)

 E. Epifanovsky,  A. T. B. Gilbert,  Xintian Feng,  Joonho Lee,  Yuezhi Mao,  
 N. Mardirossian,  P. Pokhilko,  A. White,  M. Wormit,  M. P. Coons,  
 A. L. Dempwolff,  Zhengting Gan,  D. Hait,  P. R. Horn,  L. D. Jacobson,  
 I. Kaliman,  J. Kussmann,  A. W. Lange,  Ka Un Lao,  D. S. Levine,  Jie Liu,  
 S. C. McKenzie,  A. F. Morrison,  K. Nanda,  F. Plasser,  D. R. Rehn,  
 M. L. Vidal,  Zhi-Qiang You,  Ying Zhu,  B. Alam,  B. Albrecht,  
 A. Aldossary,  E. Alguire,  J. H. Andersen,  D. Barton,  K. Begam,  A. Behn,  
 Y. A. Bernard,  E. J. Berquist,  H. Burton,  A. Carreras,  K. Carter-Fenk,  
 R. Chakraborty,  A. D. Chien,  K. D. Closser,  V. Cofer-Shabica,  
 S. Dasgupta,  Jia Deng,  M. de Wergifosse,  M. Diedenhofen,  Hainam Do,  
 S. Ehlert,  Po-Tung Fang,  S. Fatehi,  Qingguo Feng,  J. Gayvert,  
 Qinghui Ge,  G. Gidofalvi,  M. Goldey,  J. Gomes,  C. Gonzalez-Espinoza,  
 S. Gulania,  A. Gunina,  M. W. D. Hanson-Heine,  P. H. P. Harbach,  
 A. W. Hauser,  M. F. Herbst,  M. Hernandez Vera,  M. Hodecker,  
 Z. C. Holden,  S. Houck,  Xunkun Huang,  Kerwin Hui,  B. C. Huynh,  
 M. Ivanov,  Hyunjun Ji,  Hanjie Jiang,  B. Kaduk,  S. Kaehler,  
 K. Khistyaev,  Jaehoon Kim,  P. Klunzinger,  Z. Koczor-Benda,  
 Joong Hoon Koh,  D. Kosenkov,  L. Koulias,  T. Kowalczyk,  C. M. Krauter,  
 K. Kue,  A. Kunitsa,  T. Kus,  A. Landau,  K. V. Lawler,  D. Lefrancois,  
 S. Lehtola,  Rain Li,  Yi-Pei Li,  Jiashu Liang,  M. Liebenthal,  
 Hung-Hsuan Lin,  You-Sheng Lin,  Fenglai Liu,  Kuan-Yu Liu,  
 M. Loipersberger,  A. Luenser,  A. Manjanath,  P. Manohar,  E. Mansoor,  
 S. F. Manzer,  Shan-Ping Mao,  A. V. Marenich,  T. Markovich,  S. Mason,  
 S. A. Maurer,  P. F. McLaughlin,  M. F. S. J. Menger,  J.-M. Mewes,  
 S. A. Mewes,  P. Morgante,  J. W. Mullinax,  T. S. Nguyen-Beck,  
 K. J. Oosterbaan,  G. Paran,  Alexander C. Paul,  Suranjan K. Paul,  
 F. Pavosevic,  Zheng Pei,  S. Prager,  E. I. Proynov,  E. Ramos,  B. Rana,  
 A. E. Rask,  A. Rettig,  R. M. Richard,  F. Rob,  E. Rossomme,  T. Scheele,  
 M. Scheurer,  M. Schneider,  N. Sergueev,  S. M. Sharada,  W. Skomorowski,  
 D. W. Small,  C. J. Stein,  Yu-Chuan Su,  E. J. Sundstrom,  Zhen Tao,  
 J. Thirman,  T. Tsuchimochi,  N. M. Tubman,  S. P. Veccham,  O. Vydrov,  
 J. Wenzel,  J. Witte,  A. Yamada,  Kun Yao,  S. Yeganeh,  S. R. Yost,  
 A. Zech,  Igor Ying Zhang,  Xing Zhang,  Yu Zhang,  D. Zuev,  
 A. Aspuru-Guzik,  A. T. Bell,  N. A. Besley,  K. B. Bravaya,  B. R. Brooks,  
 D. Casanova,  Jeng-Da Chai,  S. Coriani,  C. J. Cramer,  
 A. E. DePrince, III,  R. A. DiStasio Jr.,  A. Dreuw,  B. D. Dunietz,  
 T. R. Furlani,  W. A. Goddard III,  S. Grimme,  S. Hammes-Schiffer,  
 T. Head-Gordon,  W. J. Hehre,  Chao-Ping Hsu,  T.-C. Jagau,  Yousung Jung,  
 A. Klamt,  Jing Kong,  D. S. Lambrecht,  WanZhen Liang,  N. J. Mayhall,  
 C. W. McCurdy,  J. B. Neaton,  C. Ochsenfeld,  J. A. Parkhill,  R. Peverati,  
 V. A. Rassolov,  Yihan Shao,  L. V. Slipchenko,  T. Stauch,  R. P. Steele,  
 J. E. Subotnik,  A. J. W. Thom,  A. Tkatchenko,  D. G. Truhlar,  
 T. Van Voorhis,  T. A. Wesolowski,  K. B. Whaley,  H. L. Woodcock III,  
 P. M. Zimmerman,  S. Faraji,  P. M. W. Gill,  M. Head-Gordon,  
 J. M. Herbert,  A. I. Krylov

 Contributors to earlier versions of Q-Chem not listed above: 
 R. D. Adamson,  B. Austin,  R. Baer,  J. Baker,  G. J. O. Beran,  
 K. Brandhorst,  S. T. Brown,  E. F. C. Byrd,  A. K. Chakraborty,  
 G. K. L. Chan,  Chun-Min Chang,  Yunqing Chen,  C.-L. Cheng,  
 Siu Hung Chien,  D. M. Chipman,  D. L. Crittenden,  H. Dachsel,  
 R. J. Doerksen,  A. D. Dutoi,  R. G. Edgar,  J. Fosso-Tande,  
 L. Fusti-Molnar,  D. Ghosh,  A. Ghysels,  A. Golubeva-Zadorozhnaya,  
 J. Gonthier,  M. S. Gordon,  S. R. Gwaltney,  G. Hawkins,  J. E. Herr,  
 A. Heyden,  S. Hirata,  E. G. Hohenstein,  G. Kedziora,  F. J. Keil,  
 C. Kelley,  Jihan Kim,  R. A. King,  R. Z. Khaliullin,  P. P. Korambath,  
 W. Kurlancheek,  A. Laurent,  A. M. Lee,  M. S. Lee,  S. V. Levchenko,  
 Ching Yeh Lin,  D. Liotard,  E. Livshits,  R. C. Lochan,  I. Lotan,  
 L. A. Martinez-Martinez,  P. E. Maslen,  N. Nair,  D. P. O'Neill,  
 D. Neuhauser,  E. Neuscamman,  C. M. Oana,  R. Olivares-Amaya,  R. Olson,  
 T. M. Perrine,  B. Peters,  P. A. Pieniazek,  A. Prociuk,  Y. M. Rhee,  
 J. Ritchie,  M. A. Rohrdanz,  E. Rosta,  N. J. Russ,  H. F. Schaefer III,  
 M. W. Schmidt,  N. E. Schultz,  S. Sharma,  N. Shenvi,  C. D. Sherrill,  
 A. C. Simmonett,  A. Sodt,  T. Stein,  D. Stuck,  K. S. Thanthiriwatte,  
 V. Vanovschi,  L. Vogt,  Tao Wang,  A. Warshel,  M. A. Watson,  
 C. F. Williams,  Q. Wu,  X. Xu,  Jun Yang,  W. Zhang,  Yan Zhao

 Please cite Q-Chem as follows:
 Y. Shao et al., Mol. Phys. 113, 184-215 (2015)
 DOI: 10.1080/00268976.2014.952696

 Q-Chem 5.4.0 for Intel X86 EM64T Linux

 Parts of Q-Chem use Armadillo 9.800.1 (Horizon Scraper).
 http://arma.sourceforge.net/

 Q-Chem begins on Sun Sep 24 16:16:36 2023  

 Host: 
0

     Scratch files written to ./qchem2998768//
 May1621 |scratch|qcdevops|jenkins|workspace|build_RNUM    
 Parallel job on  1  processors
 Processing $rem in /cm/shared/apps/spack/cpu/opt/spack/linux-centos8-zen2/gcc-10.2.0/qchem-5.4-akfmr7b3t57bfs6qan3padb2wnb2i7cl/config/preferences:
 Processing $rem in /home/rramji/.qchemrc:
 Symmetry turned off for PCM/SM12/SMD calculation
 Core orbitals will be frozen

 Checking the input file for inconsistencies... 	...done.

 Q-Chem warning in module forms1/BasisType.C, line 2236:

 You are not using the predefined 5D/6D in this basis set.


--------------------------------------------------------------
User input:
--------------------------------------------------------------
$molecule
0 1
C	-0.043160	-6.741404	0.253280
C	-0.269777	-6.155638	1.539213
C	0.145543	-5.791452	-0.814295
C	-0.318377	-4.803786	1.813519
H	-0.422058	-6.821518	2.403941
C	0.094194	-4.378638	-0.527140
C	-0.137191	-3.838032	0.783072
C	0.275104	-3.413062	-1.556403
C	-0.188116	-2.426473	1.067932
C	0.226701	-2.059348	-1.285420
C	0.000000	-1.478216	0.000000
H	0.378931	-1.394783	-2.151147
C	0.397845	-6.187987	-2.234582
C	0.523637	-3.798164	-2.965273
N	0.567586	-5.170003	-3.204744
C	-0.567421	-4.424987	3.226257
C	-0.439541	-2.036627	2.489446
N	-0.609650	-3.049156	3.459801
O	0.468608	-7.353131	-2.619468
O	0.683034	-2.986854	-3.874668
O	-0.725131	-5.248946	4.124806
O	-0.512648	-0.878829	2.895819
C	0.813908	-5.563799	-4.595691
H	0.822891	-6.664085	-4.640022
H	1.781600	-5.147101	-4.934830
H	0.020360	-5.148785	-5.246157
C	-0.851649	-2.587487	4.829716
H	-0.962191	-3.483329	5.462742
H	-1.765865	-1.964972	4.863242
H	-0.005383	-1.962932	5.173521
H	-0.010555	-7.822318	0.070208
C	0.000000	0.000000	0.000000
S	0.068929	0.790170	1.580530
C	0.211639	2.421655	0.904911
C	0.086813	0.994207	-0.985400
C	0.201782	2.309433	-0.493528
H	0.066299	0.759454	-2.059934
H	0.278488	3.187020	-1.152593
H	0.288312	3.298992	1.556025
$end

$rem
JOBTYPE		SP
EXCHANGE	HF
CORRELATION	pRIMP2
BASIS		cc-pvtz
METHOD		rimp2
AUX_BASIS	rimp2-cc-pvtz
SOLVENT_METHOD	PCM
PURECART	11111
SYMMETRY	false
MEM_TOTAL	110000
SCF_CONVERGENCE = 6
THRESH=10
GUI = 2
$end



$solvent
dielectric 4.90
$end
--------------------------------------------------------------
 ----------------------------------------------------------------
             Standard Nuclear Orientation (Angstroms)
    I     Atom           X                Y                Z
 ----------------------------------------------------------------
    1      C      -0.0431600000    -6.7414040000     0.2532800000
    2      C      -0.2697770000    -6.1556380000     1.5392130000
    3      C       0.1455430000    -5.7914520000    -0.8142950000
    4      C      -0.3183770000    -4.8037860000     1.8135190000
    5      H      -0.4220580000    -6.8215180000     2.4039410000
    6      C       0.0941940000    -4.3786380000    -0.5271400000
    7      C      -0.1371910000    -3.8380320000     0.7830720000
    8      C       0.2751040000    -3.4130620000    -1.5564030000
    9      C      -0.1881160000    -2.4264730000     1.0679320000
   10      C       0.2267010000    -2.0593480000    -1.2854200000
   11      C       0.0000000000    -1.4782160000     0.0000000000
   12      H       0.3789310000    -1.3947830000    -2.1511470000
   13      C       0.3978450000    -6.1879870000    -2.2345820000
   14      C       0.5236370000    -3.7981640000    -2.9652730000
   15      N       0.5675860000    -5.1700030000    -3.2047440000
   16      C      -0.5674210000    -4.4249870000     3.2262570000
   17      C      -0.4395410000    -2.0366270000     2.4894460000
   18      N      -0.6096500000    -3.0491560000     3.4598010000
   19      O       0.4686080000    -7.3531310000    -2.6194680000
   20      O       0.6830340000    -2.9868540000    -3.8746680000
   21      O      -0.7251310000    -5.2489460000     4.1248060000
   22      O      -0.5126480000    -0.8788290000     2.8958190000
   23      C       0.8139080000    -5.5637990000    -4.5956910000
   24      H       0.8228910000    -6.6640850000    -4.6400220000
   25      H       1.7816000000    -5.1471010000    -4.9348300000
   26      H       0.0203600000    -5.1487850000    -5.2461570000
   27      C      -0.8516490000    -2.5874870000     4.8297160000
   28      H      -0.9621910000    -3.4833290000     5.4627420000
   29      H      -1.7658650000    -1.9649720000     4.8632420000
   30      H      -0.0053830000    -1.9629320000     5.1735210000
   31      H      -0.0105550000    -7.8223180000     0.0702080000
   32      C       0.0000000000     0.0000000000     0.0000000000
   33      S       0.0689290000     0.7901700000     1.5805300000
   34      C       0.2116390000     2.4216550000     0.9049110000
   35      C       0.0868130000     0.9942070000    -0.9854000000
   36      C       0.2017820000     2.3094330000    -0.4935280000
   37      H       0.0662990000     0.7594540000    -2.0599340000
   38      H       0.2784880000     3.1870200000    -1.1525930000
   39      H       0.2883120000     3.2989920000     1.5560250000
 ----------------------------------------------------------------
 Nuclear Repulsion Energy =        2512.02085411 hartrees
 There are       97 alpha and       97 beta electrons
 Requested basis set is cc-pVTZ
 There are 344 shells and 982 basis functions

 Total QAlloc Memory Limit 110000 MB
 Mega-Array Size       188 MB
 MEM_STATIC part       192 MB
 Discretize the solute cavity surface with Lebedev spheres
	Using 110 Lebedev grid points for each H atom
	Using 194 Lebedev grid points for other atoms
	Atomic van der Waals radii will be scaled by 1.20
 Remove points where switching function is < 1.0e-08
 Keep 2559 surface tesserae and discard 3999 interior tesserae
 Molecular Surface Area = 357.915 Angst**2
 Requested basis set is rimp2-cc-pVTZ
 There are 750 shells and 2588 basis functions
 A cutoff of  1.0D-10 yielded  31691 shell pairs
 There are    244079 function pairs (    317096 Cartesian)
 Smallest overlap matrix eigenvalue = 9.63E-06

 Q-Chem warning in module stvman/mkSTV.C, line 323:

 Overlap eigenvalue is smaller than square root of threshold
 Use THRESH >= 12 to get rid of this warning


 Scale SEOQF with 1.000000e-01/1.000000e-02/1.000000e-02

 Standard Electronic Orientation quadrupole field applied
 Nucleus-field energy     =     0.0000000105 hartrees
 Guess from superposition of atomic densities
 Warning:  Energy on first SCF cycle will be non-variational
 SAD guess density has 194.000000 electrons

 -----------------------------------------------------------------------
  General SCF calculation program by
  Eric Jon Sundstrom, Paul Horn, Yuezhi Mao, Dmitri Zuev, Alec White,
  David Stuck, Shaama M.S., Shane Yost, Joonho Lee, David Small,
  Daniel Levine, Susi Lehtola, Hugh Burton, Evgeny Epifanovsky,
  Bang C. Huynh
 -----------------------------------------------------------------------
 Hartree-Fock
 using 64 threads for integral computing
 -------------------------------------------------------
 OpenMP Integral computing Module                
 Release: version 1.0, May 2013, Q-Chem Inc. Pittsburgh 
 -------------------------------------------------------
 A restricted SCF calculation will be
 performed using DIIS
 SCF converges when DIIS error is below 1.0e-06
 ---------------------------------------
  Cycle       Energy         DIIS error
 ---------------------------------------
    1   -1581.4419361968      1.87e-02  
    2   -1570.0896673553      2.08e-03  
    3   -1570.4153644438      1.61e-03  
    4   -1570.6409904978      2.60e-04  
    5   -1570.6531805874      7.66e-05  
    6   -1570.6542474962      2.83e-05  
    7   -1570.6544984324      1.46e-05  
    8   -1570.6545812765      5.88e-06  
    9   -1570.6545947411      2.28e-06  
   10   -1570.6545970400      8.31e-07  Convergence criterion met
 ---------------------------------------
 SCF time:   CPU 5829.41s  wall 242.00s 

************** Final PCM Free Energy Summary **************
 G_electrostatic  =      -0.02220148 hartree =     -13.93163661 kcal/mol
 G_cavitation     =       0.00000000 hartree =       0.00000000 kcal/mol
 G_dispersion     =       0.00000000 hartree =       0.00000000 kcal/mol
 G_repulsion      =       0.00000000 hartree =       0.00000000 kcal/mol
 --------------------------------------------------
 Non-electrostatic Free Energy =       0.00000000 hartree =       0.00000000 kcal/mol
 Total                         =      -0.02220148 hartree =     -13.93163661 kcal/mol
 --------------------------------------------------
 SCF Energy (H0 + V/2)                       =   -1570.65459704 
 Solute Internal Energy (H0)                 =   -1570.63239556 
 Total Free Energy (H0 + V/2 + non-elec)     =   -1570.65459704 hartree
                                             = -985600.63531228 kcal/mol
***********************************************************

 SCF   energy in the final basis set =    -1570.6545970400
 Total energy in the final basis set =    -1570.6545970400


 --------------------------------------------------------------
  Generalized many-body perturbation theory program
  by Joonho Lee, Fazle Rob, Xintian Feng, Evgeny Epifanovsky

 No regularization used 
 (reg. param. = 0.0000e+00)
  (P|Q)^-1/2 Time:  CPU 157.45 s  wall 2.62 s

 In RI-MP2 calculation: 
 # of frozen core orbitals: 31

 Components of the RIMP2 correlation energy:
        aaaa    correlation energy =        -0.6197738460 a.u.
        abab    correlation energy =        -3.3975822286 a.u.
        bbbb    correlation energy =        -0.6197738460 a.u.
        non-Brillouin singles      =        -0.0000000000 a.u.
        total same-spin energy     =        -1.2395476919 a.u.
        total opposite-spin energy =        -3.3975822286 a.u.

 Total  RIMP2   correlation energy =        -4.6371299205 a.u.
        RIMP2         total energy =     -1575.2917269605 a.u.

 RI-MP2 Energy Time:  CPU 1788.84 s  wall 29.42 s
 
 --------------------------------------------------------------
 
                    Orbital Energies (a.u.)
 --------------------------------------------------------------
 
 Alpha MOs
 -- Occupied --
-91.9769 -20.5593 -20.5591 -20.5572 -20.5544 -15.6325 -15.6318 -11.4006
-11.4004 -11.3922 -11.3915 -11.3216 -11.3028 -11.3018 -11.3004 -11.2960
-11.2944 -11.2903 -11.2880 -11.2840 -11.2796 -11.2792 -11.2700 -11.2657
-11.2649 -11.2605 -11.2429  -8.9765  -6.6570  -6.6556  -6.6548  -1.4333
 -1.4255  -1.4078  -1.4049  -1.2700  -1.2669  -1.2176  -1.1722  -1.1428
 -1.1173  -1.0622  -1.0502  -0.9935  -0.9895  -0.9804  -0.9597  -0.9470
 -0.8979  -0.8808  -0.8787  -0.8637  -0.7939  -0.7788  -0.7772  -0.7599
 -0.7324  -0.7269  -0.7028  -0.6934  -0.6895  -0.6748  -0.6683  -0.6636
 -0.6577  -0.6411  -0.6390  -0.6368  -0.6277  -0.6148  -0.5845  -0.5830
 -0.5815  -0.5754  -0.5711  -0.5653  -0.5624  -0.5565  -0.5563  -0.5495
 -0.5331  -0.5247  -0.5216  -0.5197  -0.4897  -0.4729  -0.4688  -0.4639
 -0.4572  -0.4328  -0.4212  -0.4105  -0.3941  -0.3754  -0.3413  -0.3379
 -0.2959
 -- Virtual --
 -0.0205   0.0552   0.0673   0.1077   0.1252   0.1556   0.1576   0.1602
  0.1662   0.1799   0.1815   0.1848   0.1877   0.2022   0.2072   0.2146
  0.2268   0.2272   0.2282   0.2368   0.2572   0.2605   0.2680   0.2725
  0.2795   0.3081   0.3124   0.3152   0.3254   0.3295   0.3340   0.3391
  0.3446   0.3521   0.3527   0.3566   0.3613   0.3638   0.3751   0.3779
  0.3827   0.3886   0.3948   0.3965   0.4013   0.4086   0.4114   0.4186
  0.4255   0.4342   0.4359   0.4395   0.4434   0.4447   0.4532   0.4579
  0.4605   0.4664   0.4707   0.4716   0.4771   0.4795   0.4889   0.4960
  0.5042   0.5094   0.5106   0.5153   0.5174   0.5248   0.5307   0.5318
  0.5355   0.5397   0.5501   0.5538   0.5554   0.5618   0.5646   0.5678
  0.5753   0.5786   0.5829   0.5850   0.5910   0.5967   0.6004   0.6027
  0.6047   0.6072   0.6122   0.6170   0.6225   0.6248   0.6255   0.6279
  0.6351   0.6364   0.6383   0.6423   0.6457   0.6585   0.6659   0.6745
  0.6854   0.6913   0.6945   0.6999   0.7063   0.7126   0.7191   0.7331
  0.7363   0.7409   0.7426   0.7537   0.7552   0.7594   0.7659   0.7712
  0.7785   0.7808   0.7918   0.8007   0.8086   0.8112   0.8168   0.8282
  0.8347   0.8355   0.8408   0.8455   0.8502   0.8519   0.8616   0.8652
  0.8662   0.8698   0.8812   0.8854   0.8925   0.8978   0.9025   0.9102
  0.9175   0.9195   0.9247   0.9267   0.9336   0.9371   0.9393   0.9471
  0.9535   0.9555   0.9655   0.9695   0.9724   0.9769   0.9839   0.9886
  0.9975   0.9990   1.0013   1.0085   1.0110   1.0218   1.0244   1.0323
  1.0390   1.0453   1.0605   1.0630   1.0672   1.0720   1.0744   1.0774
  1.0798   1.0811   1.0862   1.0925   1.0990   1.1021   1.1099   1.1139
  1.1171   1.1299   1.1338   1.1413   1.1433   1.1493   1.1520   1.1603
  1.1672   1.1697   1.1779   1.1825   1.1844   1.1904   1.1973   1.2024
  1.2103   1.2123   1.2160   1.2242   1.2277   1.2313   1.2356   1.2390
  1.2443   1.2513   1.2583   1.2665   1.2698   1.2715   1.3001   1.3039
  1.3161   1.3242   1.3268   1.3346   1.3363   1.3428   1.3558   1.3649
  1.3670   1.3762   1.3821   1.3856   1.3920   1.3966   1.4074   1.4181
  1.4204   1.4322   1.4363   1.4427   1.4530   1.4588   1.4639   1.4693
  1.4787   1.4811   1.4864   1.4943   1.4956   1.5091   1.5147   1.5260
  1.5329   1.5370   1.5441   1.5503   1.5558   1.5614   1.5647   1.5690
  1.5721   1.5776   1.5875   1.5936   1.6068   1.6095   1.6283   1.6336
  1.6392   1.6465   1.6537   1.6600   1.6657   1.6804   1.6807   1.6974
  1.7070   1.7145   1.7254   1.7281   1.7324   1.7396   1.7493   1.7503
  1.7601   1.7704   1.7775   1.7827   1.7930   1.8044   1.8056   1.8222
  1.8320   1.8349   1.8442   1.8491   1.8540   1.8612   1.8637   1.8760
  1.8804   1.8893   1.9108   1.9153   1.9185   1.9326   1.9410   1.9459
  1.9541   1.9691   1.9728   1.9870   1.9891   2.0171   2.0278   2.0376
  2.0608   2.0775   2.0891   2.1009   2.1085   2.1209   2.1376   2.1438
  2.1563   2.1631   2.1784   2.1991   2.2121   2.2196   2.2242   2.2453
  2.2481   2.2574   2.2707   2.2786   2.2867   2.2939   2.2997   2.3145
  2.3253   2.3348   2.3374   2.3546   2.3605   2.3700   2.3841   2.4151
  2.4205   2.4309   2.4381   2.4440   2.4519   2.4563   2.4568   2.4789
  2.4829   2.4959   2.4981   2.5049   2.5142   2.5313   2.5373   2.5412
  2.5533   2.5684   2.5849   2.5867   2.5949   2.5983   2.6085   2.6168
  2.6200   2.6258   2.6467   2.6524   2.6554   2.6631   2.6649   2.6762
  2.6784   2.6848   2.6925   2.7040   2.7130   2.7219   2.7296   2.7352
  2.7404   2.7431   2.7529   2.7606   2.7691   2.7741   2.7819   2.7940
  2.7960   2.8153   2.8198   2.8288   2.8427   2.8486   2.8513   2.8578
  2.8685   2.8732   2.8779   2.8843   2.8911   2.8926   2.8969   2.9103
  2.9157   2.9201   2.9295   2.9376   2.9517   2.9525   2.9640   2.9730
  2.9733   2.9787   2.9879   2.9984   3.0007   3.0059   3.0142   3.0168
  3.0233   3.0392   3.0400   3.0462   3.0483   3.0595   3.0739   3.0760
  3.0858   3.0924   3.0966   3.1008   3.1050   3.1102   3.1117   3.1198
  3.1266   3.1304   3.1334   3.1602   3.1677   3.1734   3.1783   3.1808
  3.1893   3.1971   3.2048   3.2074   3.2157   3.2169   3.2233   3.2271
  3.2291   3.2343   3.2412   3.2496   3.2513   3.2564   3.2611   3.2665
  3.2720   3.2777   3.2818   3.2880   3.2919   3.2925   3.2966   3.3034
  3.3070   3.3095   3.3130   3.3197   3.3248   3.3267   3.3336   3.3385
  3.3396   3.3446   3.3458   3.3583   3.3609   3.3625   3.3665   3.3707
  3.3817   3.3861   3.3930   3.3984   3.3996   3.4009   3.4112   3.4170
  3.4214   3.4227   3.4352   3.4415   3.4455   3.4509   3.4540   3.4551
  3.4604   3.4660   3.4664   3.4749   3.4779   3.4867   3.4888   3.4950
  3.4979   3.5018   3.5065   3.5118   3.5157   3.5225   3.5240   3.5263
  3.5316   3.5364   3.5483   3.5498   3.5505   3.5635   3.5783   3.5804
  3.5938   3.5971   3.6003   3.6013   3.6117   3.6191   3.6285   3.6303
  3.6354   3.6397   3.6417   3.6507   3.6553   3.6670   3.6742   3.6751
  3.6815   3.6865   3.6914   3.7024   3.7049   3.7107   3.7131   3.7235
  3.7307   3.7363   3.7375   3.7428   3.7492   3.7562   3.7579   3.7675
  3.7791   3.7827   3.7850   3.7867   3.7943   3.7972   3.8005   3.8063
  3.8231   3.8250   3.8334   3.8381   3.8402   3.8433   3.8557   3.8574
  3.8632   3.8695   3.8757   3.8856   3.8919   3.8998   3.9152   3.9258
  3.9328   3.9369   3.9401   3.9446   3.9486   3.9556   3.9784   3.9811
  3.9879   4.0002   4.0101   4.0166   4.0216   4.0324   4.0429   4.0461
  4.0585   4.0608   4.0683   4.0851   4.0865   4.1049   4.1100   4.1174
  4.1221   4.1328   4.1369   4.1376   4.1425   4.1553   4.1657   4.1706
  4.1750   4.1880   4.1913   4.2027   4.2057   4.2160   4.2345   4.2386
  4.2464   4.2546   4.2702   4.2739   4.2758   4.2806   4.2860   4.2874
  4.2970   4.2982   4.3021   4.3069   4.3308   4.3338   4.3372   4.3412
  4.3537   4.3565   4.3635   4.3662   4.3693   4.3725   4.3738   4.3856
  4.3958   4.3997   4.4048   4.4137   4.4158   4.4191   4.4263   4.4447
  4.4582   4.4639   4.4692   4.4850   4.5055   4.5101   4.5138   4.5206
  4.5236   4.5333   4.5408   4.5479   4.5494   4.5518   4.5639   4.5750
  4.5783   4.5828   4.5916   4.6009   4.6159   4.6219   4.6254   4.6335
  4.6433   4.6570   4.6670   4.6728   4.6741   4.6838   4.6890   4.6973
  4.7073   4.7247   4.7352   4.7383   4.7668   4.7733   4.7795   4.7832
  4.8237   4.8281   4.8325   4.8381   4.8578   4.8661   4.8721   4.8804
  4.8982   4.9188   4.9257   4.9394   4.9477   4.9729   4.9799   4.9817
  5.0042   5.0150   5.0308   5.0386   5.0495   5.0523   5.0573   5.0604
  5.1016   5.1024   5.1098   5.1159   5.1247   5.1367   5.1458   5.1519
  5.1739   5.1774   5.1929   5.1962   5.2047   5.2421   5.2507   5.2552
  5.2696   5.2763   5.2921   5.2979   5.3088   5.3231   5.3307   5.3540
  5.3614   5.3946   5.3960   5.4020   5.4264   5.4316   5.4481   5.4513
  5.4884   5.5074   5.5081   5.5115   5.5164   5.5492   5.5500   5.5531
  5.5594   5.5622   5.5728   5.5754   5.5770   5.5908   5.6060   5.6114
  5.6266   5.6336   5.6517   5.6539   5.6653   5.6746   5.6761   5.6910
  5.6985   5.7144   5.7361   5.7497   5.7529   5.7576   5.7626   5.7748
  5.7836   5.7861   5.8198   5.8329   5.8693   5.8925   5.9135   5.9409
  5.9498   5.9687   6.0187   6.0221   6.0264   6.0316   6.0525   6.0671
  6.0827   6.0994   6.1083   6.1145   6.1455   6.1860   6.2087   6.2132
  6.2171   6.2201   6.2253   6.2664   6.2772   6.2882   6.3155   6.3500
  6.3517   6.3716   6.4458   6.4613   6.4888   6.5290   6.5606   6.5656
  6.5894   6.6206   6.6398   6.6454   6.6573   6.6944   6.7283   6.8342
  6.8395   6.8821   6.8854   6.8967   6.9106   6.9319   6.9732   7.0794
  7.1323   7.1477   7.1858   7.2140   7.2740   7.3318   7.3410   7.3433
  7.3536   7.4671   7.5470   7.5572   7.5747   7.5802   7.6321   7.6355
  7.6771   7.7042   7.7435   8.4476   9.9328  10.3499  11.1869  11.2650
 11.7096  11.7751  12.0083  12.3968  12.4609  12.7883  12.8613  12.9513
 13.4286  13.5442  13.8201  13.9361  14.0551  14.2103  14.3314  14.3833
 14.5385  14.7522  15.3579  15.7654  15.9938
 --------------------------------------------------------------
 
          Ground-State Mulliken Net Atomic Charges

     Atom                 Charge (a.u.)
  ----------------------------------------
      1 C                    -0.145769
      2 C                    -0.111307
      3 C                    -0.029428
      4 C                    -0.002652
      5 H                     0.188198
      6 C                     0.004431
      7 C                     0.082447
      8 C                    -0.001348
      9 C                    -0.077157
     10 C                    -0.129879
     11 C                     0.071343
     12 H                     0.182559
     13 C                     0.359051
     14 C                     0.364877
     15 N                    -0.101857
     16 C                     0.359700
     17 C                     0.374231
     18 N                    -0.092569
     19 O                    -0.463650
     20 O                    -0.476800
     21 O                    -0.482022
     22 O                    -0.448189
     23 C                    -0.201170
     24 H                     0.141329
     25 H                     0.112470
     26 H                     0.112493
     27 C                    -0.198547
     28 H                     0.135123
     29 H                     0.113771
     30 H                     0.113639
     31 H                     0.212749
     32 C                    -0.015193
     33 S                     0.097188
     34 C                    -0.228613
     35 C                    -0.158583
     36 C                    -0.239166
     37 H                     0.187731
     38 H                     0.183529
     39 H                     0.207042
  ----------------------------------------
  Sum of atomic charges =     0.000000

 -----------------------------------------------------------------
                    Cartesian Multipole Moments
 -----------------------------------------------------------------
    Charge (ESU x 10^10)
                 0.0000
    Dipole Moment (Debye)
         X       0.0027      Y       1.0167      Z      -0.2059
       Tot       1.0373
    Quadrupole Moments (Debye-Ang)
        XX    -164.6249     XY       0.9161     YY    -169.6187
        XZ       3.1020     YZ       0.2935     ZZ    -175.1833
    Octopole Moments (Debye-Ang^2)
       XXX      -5.4017    XXY     465.8561    XYY       1.1031
       YYY    1604.1587    XXZ     -33.1649    XYZ     -13.3301
       YYZ     -23.0399    XZZ      -0.6003    YZZ     555.1510
       ZZZ    -101.8174
    Hexadecapole Moments (Debye-Ang^3)
      XXXX    -366.9099   XXXY      36.7236   XXYY   -2745.1759
      XYYY     129.3642   YYYY  -17268.9885   XXXZ     483.2590
      XXYZ    -122.9356   XYYZ     266.7100   YYYZ    -780.7706
      XXZZ   -1071.2234   XYZZ     -43.7235   YYZZ   -4206.5305
      XZZZ     530.1352   YZZZ     -48.6386   ZZZZ   -6239.8950
 -----------------------------------------------------------------
 Total job time:  278.45s(wall), 7756.28s(cpu) 
 Sun Sep 24 16:21:14 2023

        *************************************************************
        *                                                           *
        *  Thank you very much for using Q-Chem.  Have a nice day.  *
        *                                                           *
        *************************************************************


0 sent ACK to 0 
now end server 0 ... 
cleanup process ... done
remove work dirs ./qchem2998768.0 -- ./qchem2998768.0
rm -rf ./qchem2998768.0
rm -rf ./qchem2998768
