You are running Q-Chem version: 5.4.0

#
# job setting
#
local host:  exp-6-03
current dir: /expanse/lustre/projects/csd626/rramji/aromodel/PNDIT/Rotation_Test
input file:  Dimethyl_Naphthalene_Dicarboximide_Phi_50_Theta_10_Thiophene.qcin
output file: 
nprocs     : 1
nthreads   : 64
#
# qchem installation setting
#
QC:          /cm/shared/apps/spack/cpu/opt/spack/linux-centos8-zen2/gcc-10.2.0/qchem-5.4-akfmr7b3t57bfs6qan3padb2wnb2i7cl
QCAUX:       /cm/shared/apps/spack/cpu/opt/spack/linux-centos8-zen2/gcc-10.2.0/qchem-5.4-akfmr7b3t57bfs6qan3padb2wnb2i7cl/qcaux
QCPROG:      /cm/shared/apps/spack/cpu/opt/spack/linux-centos8-zen2/gcc-10.2.0/qchem-5.4-akfmr7b3t57bfs6qan3padb2wnb2i7cl/exe/qcprog.exe
QCPROG_S:    /cm/shared/apps/spack/cpu/opt/spack/linux-centos8-zen2/gcc-10.2.0/qchem-5.4-akfmr7b3t57bfs6qan3padb2wnb2i7cl/exe/qcprog.exe_s
PARALLEL:    -DPARALLEL
QCMPI:       mpich
#
# qchem directory setting
#
qcrun:       qchem2499418
QCSCRATCH:   .
QCLOCALSCR:  
QCTMPDIR:    .
QCFILEPREF:  ./qchem2499418
QCSAVEDIR:   
workdirs:    ./qchem2499418
workdir0:    ./qchem2499418
partmpdirs =  
#
# parallel setting
#
QCRSH:           ssh
QCMPI:           mpich
QCMPIRUN:        /cm/shared/apps/spack/cpu/opt/spack/linux-centos8-zen2/gcc-10.2.0/qchem-5.4-akfmr7b3t57bfs6qan3padb2wnb2i7cl/bin/mpi/mpirun_qchem
QCMACHINEFILE:   ./qchem2499418/hostfile
exp-6-03

#
# env setting
#
exported envs:   QC QCAUX QCSCRATCH QCRUNNAME QCFILEPREF QCPROG QCPROG_S GUIFILE

Running Job 1 of 1 Dimethyl_Naphthalene_Dicarboximide_Phi_50_Theta_10_Thiophene.qcin
qchem Dimethyl_Naphthalene_Dicarboximide_Phi_50_Theta_10_Thiophene.qcin_2499418.0 ./qchem2499418/ 1
/cm/shared/apps/spack/cpu/opt/spack/linux-centos8-zen2/gcc-10.2.0/qchem-5.4-akfmr7b3t57bfs6qan3padb2wnb2i7cl/bin/mpi/mpirun_qchem -machinefile ./qchem2499418/hostfile -np 1 /cm/shared/apps/spack/cpu/opt/spack/linux-centos8-zen2/gcc-10.2.0/qchem-5.4-akfmr7b3t57bfs6qan3padb2wnb2i7cl/exe/qcprog.exe Dimethyl_Naphthalene_Dicarboximide_Phi_50_Theta_10_Thiophene.qcin_2499418.0 ./qchem2499418/

Process 0 of 1 is on exp-6-03 - thread support 0
initial socket setup ...start
initial socket setup ...done 
now start server 0 ... 
                  Welcome to Q-Chem
     A Quantum Leap Into The Future Of Chemistry


 Q-Chem 5.4, Q-Chem, Inc., Pleasanton, CA (2021)

 License issued to: University of California, San Diego (site)

 E. Epifanovsky,  A. T. B. Gilbert,  Xintian Feng,  Joonho Lee,  Yuezhi Mao,  
 N. Mardirossian,  P. Pokhilko,  A. White,  M. Wormit,  M. P. Coons,  
 A. L. Dempwolff,  Zhengting Gan,  D. Hait,  P. R. Horn,  L. D. Jacobson,  
 I. Kaliman,  J. Kussmann,  A. W. Lange,  Ka Un Lao,  D. S. Levine,  Jie Liu,  
 S. C. McKenzie,  A. F. Morrison,  K. Nanda,  F. Plasser,  D. R. Rehn,  
 M. L. Vidal,  Zhi-Qiang You,  Ying Zhu,  B. Alam,  B. Albrecht,  
 A. Aldossary,  E. Alguire,  J. H. Andersen,  D. Barton,  K. Begam,  A. Behn,  
 Y. A. Bernard,  E. J. Berquist,  H. Burton,  A. Carreras,  K. Carter-Fenk,  
 R. Chakraborty,  A. D. Chien,  K. D. Closser,  V. Cofer-Shabica,  
 S. Dasgupta,  Jia Deng,  M. de Wergifosse,  M. Diedenhofen,  Hainam Do,  
 S. Ehlert,  Po-Tung Fang,  S. Fatehi,  Qingguo Feng,  J. Gayvert,  
 Qinghui Ge,  G. Gidofalvi,  M. Goldey,  J. Gomes,  C. Gonzalez-Espinoza,  
 S. Gulania,  A. Gunina,  M. W. D. Hanson-Heine,  P. H. P. Harbach,  
 A. W. Hauser,  M. F. Herbst,  M. Hernandez Vera,  M. Hodecker,  
 Z. C. Holden,  S. Houck,  Xunkun Huang,  Kerwin Hui,  B. C. Huynh,  
 M. Ivanov,  Hyunjun Ji,  Hanjie Jiang,  B. Kaduk,  S. Kaehler,  
 K. Khistyaev,  Jaehoon Kim,  P. Klunzinger,  Z. Koczor-Benda,  
 Joong Hoon Koh,  D. Kosenkov,  L. Koulias,  T. Kowalczyk,  C. M. Krauter,  
 K. Kue,  A. Kunitsa,  T. Kus,  A. Landau,  K. V. Lawler,  D. Lefrancois,  
 S. Lehtola,  Rain Li,  Yi-Pei Li,  Jiashu Liang,  M. Liebenthal,  
 Hung-Hsuan Lin,  You-Sheng Lin,  Fenglai Liu,  Kuan-Yu Liu,  
 M. Loipersberger,  A. Luenser,  A. Manjanath,  P. Manohar,  E. Mansoor,  
 S. F. Manzer,  Shan-Ping Mao,  A. V. Marenich,  T. Markovich,  S. Mason,  
 S. A. Maurer,  P. F. McLaughlin,  M. F. S. J. Menger,  J.-M. Mewes,  
 S. A. Mewes,  P. Morgante,  J. W. Mullinax,  T. S. Nguyen-Beck,  
 K. J. Oosterbaan,  G. Paran,  Alexander C. Paul,  Suranjan K. Paul,  
 F. Pavosevic,  Zheng Pei,  S. Prager,  E. I. Proynov,  E. Ramos,  B. Rana,  
 A. E. Rask,  A. Rettig,  R. M. Richard,  F. Rob,  E. Rossomme,  T. Scheele,  
 M. Scheurer,  M. Schneider,  N. Sergueev,  S. M. Sharada,  W. Skomorowski,  
 D. W. Small,  C. J. Stein,  Yu-Chuan Su,  E. J. Sundstrom,  Zhen Tao,  
 J. Thirman,  T. Tsuchimochi,  N. M. Tubman,  S. P. Veccham,  O. Vydrov,  
 J. Wenzel,  J. Witte,  A. Yamada,  Kun Yao,  S. Yeganeh,  S. R. Yost,  
 A. Zech,  Igor Ying Zhang,  Xing Zhang,  Yu Zhang,  D. Zuev,  
 A. Aspuru-Guzik,  A. T. Bell,  N. A. Besley,  K. B. Bravaya,  B. R. Brooks,  
 D. Casanova,  Jeng-Da Chai,  S. Coriani,  C. J. Cramer,  
 A. E. DePrince, III,  R. A. DiStasio Jr.,  A. Dreuw,  B. D. Dunietz,  
 T. R. Furlani,  W. A. Goddard III,  S. Grimme,  S. Hammes-Schiffer,  
 T. Head-Gordon,  W. J. Hehre,  Chao-Ping Hsu,  T.-C. Jagau,  Yousung Jung,  
 A. Klamt,  Jing Kong,  D. S. Lambrecht,  WanZhen Liang,  N. J. Mayhall,  
 C. W. McCurdy,  J. B. Neaton,  C. Ochsenfeld,  J. A. Parkhill,  R. Peverati,  
 V. A. Rassolov,  Yihan Shao,  L. V. Slipchenko,  T. Stauch,  R. P. Steele,  
 J. E. Subotnik,  A. J. W. Thom,  A. Tkatchenko,  D. G. Truhlar,  
 T. Van Voorhis,  T. A. Wesolowski,  K. B. Whaley,  H. L. Woodcock III,  
 P. M. Zimmerman,  S. Faraji,  P. M. W. Gill,  M. Head-Gordon,  
 J. M. Herbert,  A. I. Krylov

 Contributors to earlier versions of Q-Chem not listed above: 
 R. D. Adamson,  B. Austin,  R. Baer,  J. Baker,  G. J. O. Beran,  
 K. Brandhorst,  S. T. Brown,  E. F. C. Byrd,  A. K. Chakraborty,  
 G. K. L. Chan,  Chun-Min Chang,  Yunqing Chen,  C.-L. Cheng,  
 Siu Hung Chien,  D. M. Chipman,  D. L. Crittenden,  H. Dachsel,  
 R. J. Doerksen,  A. D. Dutoi,  R. G. Edgar,  J. Fosso-Tande,  
 L. Fusti-Molnar,  D. Ghosh,  A. Ghysels,  A. Golubeva-Zadorozhnaya,  
 J. Gonthier,  M. S. Gordon,  S. R. Gwaltney,  G. Hawkins,  J. E. Herr,  
 A. Heyden,  S. Hirata,  E. G. Hohenstein,  G. Kedziora,  F. J. Keil,  
 C. Kelley,  Jihan Kim,  R. A. King,  R. Z. Khaliullin,  P. P. Korambath,  
 W. Kurlancheek,  A. Laurent,  A. M. Lee,  M. S. Lee,  S. V. Levchenko,  
 Ching Yeh Lin,  D. Liotard,  E. Livshits,  R. C. Lochan,  I. Lotan,  
 L. A. Martinez-Martinez,  P. E. Maslen,  N. Nair,  D. P. O'Neill,  
 D. Neuhauser,  E. Neuscamman,  C. M. Oana,  R. Olivares-Amaya,  R. Olson,  
 T. M. Perrine,  B. Peters,  P. A. Pieniazek,  A. Prociuk,  Y. M. Rhee,  
 J. Ritchie,  M. A. Rohrdanz,  E. Rosta,  N. J. Russ,  H. F. Schaefer III,  
 M. W. Schmidt,  N. E. Schultz,  S. Sharma,  N. Shenvi,  C. D. Sherrill,  
 A. C. Simmonett,  A. Sodt,  T. Stein,  D. Stuck,  K. S. Thanthiriwatte,  
 V. Vanovschi,  L. Vogt,  Tao Wang,  A. Warshel,  M. A. Watson,  
 C. F. Williams,  Q. Wu,  X. Xu,  Jun Yang,  W. Zhang,  Yan Zhao

 Please cite Q-Chem as follows:
 Y. Shao et al., Mol. Phys. 113, 184-215 (2015)
 DOI: 10.1080/00268976.2014.952696

 Q-Chem 5.4.0 for Intel X86 EM64T Linux

 Parts of Q-Chem use Armadillo 9.800.1 (Horizon Scraper).
 http://arma.sourceforge.net/

 Q-Chem begins on Wed Sep 20 08:08:20 2023  

 Host: 
0

     Scratch files written to ./qchem2499418//
 May1621 |scratch|qcdevops|jenkins|workspace|build_RNUM    
 Parallel job on  1  processors
 Processing $rem in /cm/shared/apps/spack/cpu/opt/spack/linux-centos8-zen2/gcc-10.2.0/qchem-5.4-akfmr7b3t57bfs6qan3padb2wnb2i7cl/config/preferences:
 Processing $rem in /home/rramji/.qchemrc:
 Symmetry turned off for PCM/SM12/SMD calculation
 Core orbitals will be frozen

 Checking the input file for inconsistencies... 	...done.

 Q-Chem warning in module forms1/BasisType.C, line 2236:

 You are not using the predefined 5D/6D in this basis set.


--------------------------------------------------------------
User input:
--------------------------------------------------------------
$molecule
0 1
C	0.043160	-6.741404	-0.253280
C	0.269777	-6.155638	-1.539213
C	-0.145543	-5.791452	0.814295
C	0.318377	-4.803786	-1.813519
H	0.422058	-6.821518	-2.403941
C	-0.094194	-4.378638	0.527140
C	0.137191	-3.838032	-0.783072
C	-0.275104	-3.413062	1.556403
C	0.188116	-2.426473	-1.067932
C	-0.226701	-2.059348	1.285420
C	-0.000000	-1.478216	-0.000000
H	-0.378931	-1.394783	2.151147
C	-0.397845	-6.187987	2.234582
C	-0.523637	-3.798164	2.965273
N	-0.567586	-5.170003	3.204744
C	0.567421	-4.424987	-3.226257
C	0.439541	-2.036627	-2.489446
N	0.609650	-3.049156	-3.459801
O	-0.468608	-7.353131	2.619468
O	-0.683034	-2.986854	3.874668
O	0.725131	-5.248946	-4.124806
O	0.512648	-0.878829	-2.895819
C	-0.813908	-5.563799	4.595691
H	-0.822891	-6.664085	4.640022
H	-1.781600	-5.147101	4.934830
H	-0.020360	-5.148785	5.246157
C	0.851649	-2.587487	-4.829716
H	0.962191	-3.483329	-5.462742
H	1.765865	-1.964972	-4.863242
H	0.005383	-1.962932	-5.173521
H	0.010555	-7.822318	-0.070208
C	0.000000	0.000000	0.000000
S	0.607475	0.509994	1.580530
C	1.862020	1.562717	0.904911
C	0.764397	0.641624	-0.985400
C	1.775697	1.490335	-0.493528
H	0.583895	0.490135	-2.059934
H	2.450484	2.056643	-1.152593
H	2.536607	2.128872	1.556025
$end

$rem
JOBTYPE		SP
EXCHANGE	HF
CORRELATION	pRIMP2
BASIS		cc-pvtz
METHOD		rimp2
AUX_BASIS	rimp2-cc-pvtz
SOLVENT_METHOD	PCM
PURECART	11111
SYMMETRY	false
MEM_TOTAL	110000
SCF_CONVERGENCE = 6
THRESH=10
GUI = 2
$end



$solvent
dielectric 4.90
$end
--------------------------------------------------------------
 ----------------------------------------------------------------
             Standard Nuclear Orientation (Angstroms)
    I     Atom           X                Y                Z
 ----------------------------------------------------------------
    1      C       0.0431600000    -6.7414040000    -0.2532800000
    2      C       0.2697770000    -6.1556380000    -1.5392130000
    3      C      -0.1455430000    -5.7914520000     0.8142950000
    4      C       0.3183770000    -4.8037860000    -1.8135190000
    5      H       0.4220580000    -6.8215180000    -2.4039410000
    6      C      -0.0941940000    -4.3786380000     0.5271400000
    7      C       0.1371910000    -3.8380320000    -0.7830720000
    8      C      -0.2751040000    -3.4130620000     1.5564030000
    9      C       0.1881160000    -2.4264730000    -1.0679320000
   10      C      -0.2267010000    -2.0593480000     1.2854200000
   11      C       0.0000000000    -1.4782160000     0.0000000000
   12      H      -0.3789310000    -1.3947830000     2.1511470000
   13      C      -0.3978450000    -6.1879870000     2.2345820000
   14      C      -0.5236370000    -3.7981640000     2.9652730000
   15      N      -0.5675860000    -5.1700030000     3.2047440000
   16      C       0.5674210000    -4.4249870000    -3.2262570000
   17      C       0.4395410000    -2.0366270000    -2.4894460000
   18      N       0.6096500000    -3.0491560000    -3.4598010000
   19      O      -0.4686080000    -7.3531310000     2.6194680000
   20      O      -0.6830340000    -2.9868540000     3.8746680000
   21      O       0.7251310000    -5.2489460000    -4.1248060000
   22      O       0.5126480000    -0.8788290000    -2.8958190000
   23      C      -0.8139080000    -5.5637990000     4.5956910000
   24      H      -0.8228910000    -6.6640850000     4.6400220000
   25      H      -1.7816000000    -5.1471010000     4.9348300000
   26      H      -0.0203600000    -5.1487850000     5.2461570000
   27      C       0.8516490000    -2.5874870000    -4.8297160000
   28      H       0.9621910000    -3.4833290000    -5.4627420000
   29      H       1.7658650000    -1.9649720000    -4.8632420000
   30      H       0.0053830000    -1.9629320000    -5.1735210000
   31      H       0.0105550000    -7.8223180000    -0.0702080000
   32      C       0.0000000000     0.0000000000     0.0000000000
   33      S       0.6074750000     0.5099940000     1.5805300000
   34      C       1.8620200000     1.5627170000     0.9049110000
   35      C       0.7643970000     0.6416240000    -0.9854000000
   36      C       1.7756970000     1.4903350000    -0.4935280000
   37      H       0.5838950000     0.4901350000    -2.0599340000
   38      H       2.4504840000     2.0566430000    -1.1525930000
   39      H       2.5366070000     2.1288720000     1.5560250000
 ----------------------------------------------------------------
 Nuclear Repulsion Energy =        2525.46158576 hartrees
 There are       97 alpha and       97 beta electrons
 Requested basis set is cc-pVTZ
 There are 344 shells and 982 basis functions

 Total QAlloc Memory Limit 110000 MB
 Mega-Array Size       188 MB
 MEM_STATIC part       192 MB
 Discretize the solute cavity surface with Lebedev spheres
	Using 110 Lebedev grid points for each H atom
	Using 194 Lebedev grid points for other atoms
	Atomic van der Waals radii will be scaled by 1.20
 Remove points where switching function is < 1.0e-08
 Keep 2501 surface tesserae and discard 4057 interior tesserae
 Molecular Surface Area = 356.623 Angst**2
 Requested basis set is rimp2-cc-pVTZ
 There are 750 shells and 2588 basis functions
 A cutoff of  1.0D-10 yielded  32378 shell pairs
 There are    249110 function pairs (    323601 Cartesian)
 Smallest overlap matrix eigenvalue = 9.33E-06

 Q-Chem warning in module stvman/mkSTV.C, line 323:

 Overlap eigenvalue is smaller than square root of threshold
 Use THRESH >= 12 to get rid of this warning


 Scale SEOQF with 1.000000e-01/1.000000e-02/1.000000e-02

 Standard Electronic Orientation quadrupole field applied
 Nucleus-field energy     =     0.0000000123 hartrees
 Guess from superposition of atomic densities
 Warning:  Energy on first SCF cycle will be non-variational
 SAD guess density has 194.000000 electrons

 -----------------------------------------------------------------------
  General SCF calculation program by
  Eric Jon Sundstrom, Paul Horn, Yuezhi Mao, Dmitri Zuev, Alec White,
  David Stuck, Shaama M.S., Shane Yost, Joonho Lee, David Small,
  Daniel Levine, Susi Lehtola, Hugh Burton, Evgeny Epifanovsky,
  Bang C. Huynh
 -----------------------------------------------------------------------
 Hartree-Fock
 using 64 threads for integral computing
 -------------------------------------------------------
 OpenMP Integral computing Module                
 Release: version 1.0, May 2013, Q-Chem Inc. Pittsburgh 
 -------------------------------------------------------
 A restricted SCF calculation will be
 performed using DIIS
 SCF converges when DIIS error is below 1.0e-06
 ---------------------------------------
  Cycle       Energy         DIIS error
 ---------------------------------------
    1   -1581.5497159005      1.88e-02  
    2   -1570.0602888652      2.07e-03  
    3   -1570.3907200139      1.58e-03  
    4   -1570.6091884962      2.61e-04  
    5   -1570.6219157263      7.99e-05  
    6   -1570.6231594823      3.07e-05  
    7   -1570.6234830862      1.52e-05  
    8   -1570.6235919559      7.02e-06  
    9   -1570.6236124108      2.74e-06  
   10   -1570.6236167926      1.24e-06  
   11   -1570.6236178071      5.69e-07  Convergence criterion met
 ---------------------------------------
 SCF time:   CPU 6605.40s  wall 244.00s 

************** Final PCM Free Energy Summary **************
 G_electrostatic  =      -0.02080441 hartree =     -13.05496613 kcal/mol
 G_cavitation     =       0.00000000 hartree =       0.00000000 kcal/mol
 G_dispersion     =       0.00000000 hartree =       0.00000000 kcal/mol
 G_repulsion      =       0.00000000 hartree =       0.00000000 kcal/mol
 --------------------------------------------------
 Non-electrostatic Free Energy =       0.00000000 hartree =       0.00000000 kcal/mol
 Total                         =      -0.02080441 hartree =     -13.05496613 kcal/mol
 --------------------------------------------------
 SCF Energy (H0 + V/2)                       =   -1570.62361781 
 Solute Internal Energy (H0)                 =   -1570.60281339 
 Total Free Energy (H0 + V/2 + non-elec)     =   -1570.62361781 hartree
                                             = -985581.19555025 kcal/mol
***********************************************************

 SCF   energy in the final basis set =    -1570.6236178071
 Total energy in the final basis set =    -1570.6236178071


 --------------------------------------------------------------
  Generalized many-body perturbation theory program
  by Joonho Lee, Fazle Rob, Xintian Feng, Evgeny Epifanovsky

 No regularization used 
 (reg. param. = 0.0000e+00)
  (P|Q)^-1/2 Time:  CPU 104.26 s  wall 1.93 s

 In RI-MP2 calculation: 
 # of frozen core orbitals: 31

 Components of the RIMP2 correlation energy:
        aaaa    correlation energy =        -0.6197091499 a.u.
        abab    correlation energy =        -3.3974111390 a.u.
        bbbb    correlation energy =        -0.6197091499 a.u.
        non-Brillouin singles      =        -0.0000000000 a.u.
        total same-spin energy     =        -1.2394182997 a.u.
        total opposite-spin energy =        -3.3974111390 a.u.

 Total  RIMP2   correlation energy =        -4.6368294387 a.u.
        RIMP2         total energy =     -1575.2604472458 a.u.

 RI-MP2 Energy Time:  CPU 1855.51 s  wall 30.51 s
 
 --------------------------------------------------------------
 
                    Orbital Energies (a.u.)
 --------------------------------------------------------------
 
 Alpha MOs
 -- Occupied --
-91.9916 -20.5573 -20.5551 -20.5533 -20.5513 -15.6298 -15.6297 -11.3982
-11.3971 -11.3892 -11.3891 -11.3208 -11.3074 -11.2994 -11.2967 -11.2890
-11.2878 -11.2868 -11.2842 -11.2783 -11.2755 -11.2735 -11.2735 -11.2646
-11.2637 -11.2595 -11.2500  -8.9924  -6.6731  -6.6724  -6.6719  -1.4278
 -1.4235  -1.4042  -1.4029  -1.2667  -1.2646  -1.2153  -1.1847  -1.1408
 -1.1125  -1.0619  -1.0463  -0.9954  -0.9906  -0.9906  -0.9574  -0.9453
 -0.8959  -0.8770  -0.8746  -0.8601  -0.7957  -0.7787  -0.7734  -0.7658
 -0.7347  -0.7322  -0.7007  -0.6923  -0.6814  -0.6728  -0.6657  -0.6615
 -0.6543  -0.6401  -0.6389  -0.6332  -0.6250  -0.6122  -0.5906  -0.5832
 -0.5778  -0.5730  -0.5699  -0.5631  -0.5594  -0.5555  -0.5540  -0.5456
 -0.5330  -0.5229  -0.5204  -0.5124  -0.4783  -0.4634  -0.4629  -0.4596
 -0.4556  -0.4420  -0.4282  -0.4186  -0.4082  -0.3777  -0.3541  -0.3332
 -0.2970
 -- Virtual --
 -0.0116   0.0474   0.0691   0.0963   0.1207   0.1527   0.1567   0.1591
  0.1680   0.1704   0.1765   0.1871   0.1932   0.1983   0.2088   0.2103
  0.2252   0.2274   0.2293   0.2375   0.2404   0.2511   0.2589   0.2641
  0.2667   0.3054   0.3132   0.3169   0.3225   0.3252   0.3324   0.3416
  0.3486   0.3531   0.3549   0.3579   0.3608   0.3694   0.3708   0.3774
  0.3800   0.3877   0.3907   0.3951   0.4037   0.4078   0.4095   0.4127
  0.4208   0.4279   0.4331   0.4359   0.4396   0.4447   0.4477   0.4513
  0.4591   0.4654   0.4712   0.4764   0.4807   0.4837   0.4870   0.4948
  0.4978   0.5018   0.5115   0.5154   0.5176   0.5261   0.5310   0.5324
  0.5381   0.5413   0.5469   0.5497   0.5557   0.5579   0.5601   0.5649
  0.5738   0.5781   0.5815   0.5886   0.5931   0.5968   0.5985   0.6021
  0.6080   0.6124   0.6165   0.6212   0.6233   0.6244   0.6317   0.6326
  0.6357   0.6375   0.6423   0.6439   0.6482   0.6624   0.6648   0.6772
  0.6833   0.6867   0.6923   0.6944   0.7022   0.7132   0.7141   0.7231
  0.7273   0.7347   0.7383   0.7474   0.7533   0.7577   0.7674   0.7692
  0.7761   0.7840   0.7933   0.7976   0.8031   0.8049   0.8130   0.8253
  0.8268   0.8332   0.8374   0.8424   0.8473   0.8519   0.8579   0.8639
  0.8650   0.8692   0.8716   0.8765   0.8810   0.8876   0.8932   0.9139
  0.9176   0.9181   0.9227   0.9267   0.9341   0.9380   0.9390   0.9439
  0.9529   0.9569   0.9639   0.9656   0.9748   0.9827   0.9894   0.9929
  0.9996   1.0043   1.0069   1.0103   1.0166   1.0243   1.0299   1.0349
  1.0443   1.0461   1.0517   1.0565   1.0682   1.0721   1.0733   1.0747
  1.0788   1.0850   1.0872   1.0907   1.0990   1.1092   1.1156   1.1174
  1.1197   1.1303   1.1351   1.1381   1.1503   1.1516   1.1600   1.1620
  1.1640   1.1750   1.1759   1.1792   1.1854   1.1955   1.1970   1.2066
  1.2090   1.2135   1.2159   1.2217   1.2264   1.2280   1.2409   1.2494
  1.2539   1.2585   1.2621   1.2637   1.2734   1.2825   1.2931   1.3006
  1.3137   1.3315   1.3321   1.3379   1.3448   1.3468   1.3526   1.3685
  1.3754   1.3771   1.3861   1.3867   1.3903   1.4009   1.4131   1.4164
  1.4258   1.4285   1.4329   1.4402   1.4443   1.4533   1.4641   1.4717
  1.4798   1.4835   1.4873   1.4969   1.5003   1.5098   1.5110   1.5245
  1.5319   1.5349   1.5444   1.5497   1.5531   1.5592   1.5625   1.5717
  1.5756   1.5769   1.5862   1.5900   1.6109   1.6148   1.6235   1.6363
  1.6440   1.6481   1.6501   1.6599   1.6704   1.6764   1.6872   1.6953
  1.7062   1.7155   1.7198   1.7347   1.7400   1.7461   1.7481   1.7520
  1.7634   1.7674   1.7781   1.7884   1.7928   1.8012   1.8043   1.8194
  1.8339   1.8420   1.8448   1.8547   1.8595   1.8652   1.8664   1.8746
  1.8766   1.8895   1.8945   1.9132   1.9180   1.9337   1.9487   1.9570
  1.9609   1.9734   1.9758   1.9834   2.0066   2.0229   2.0312   2.0395
  2.0454   2.0624   2.0818   2.1004   2.1042   2.1229   2.1322   2.1457
  2.1502   2.1596   2.1707   2.1781   2.1991   2.2158   2.2246   2.2360
  2.2396   2.2600   2.2662   2.2788   2.2866   2.2969   2.2985   2.3107
  2.3294   2.3329   2.3513   2.3598   2.3647   2.3737   2.3816   2.3847
  2.4020   2.4128   2.4305   2.4349   2.4497   2.4564   2.4609   2.4717
  2.4832   2.4933   2.5019   2.5049   2.5130   2.5297   2.5345   2.5463
  2.5555   2.5655   2.5663   2.5880   2.5936   2.5964   2.6106   2.6141
  2.6207   2.6334   2.6420   2.6477   2.6597   2.6673   2.6698   2.6736
  2.6804   2.6892   2.6961   2.7040   2.7081   2.7185   2.7244   2.7361
  2.7418   2.7458   2.7511   2.7630   2.7673   2.7738   2.7971   2.8029
  2.8127   2.8173   2.8334   2.8355   2.8485   2.8509   2.8566   2.8687
  2.8712   2.8772   2.8810   2.8920   2.8974   2.9078   2.9109   2.9248
  2.9314   2.9409   2.9486   2.9523   2.9573   2.9662   2.9726   2.9744
  2.9803   2.9851   2.9941   2.9989   3.0055   3.0084   3.0202   3.0214
  3.0246   3.0340   3.0410   3.0443   3.0498   3.0692   3.0726   3.0795
  3.0917   3.0921   3.1002   3.1015   3.1132   3.1142   3.1190   3.1274
  3.1319   3.1396   3.1442   3.1566   3.1655   3.1688   3.1859   3.1885
  3.1977   3.2005   3.2056   3.2084   3.2145   3.2187   3.2240   3.2261
  3.2368   3.2375   3.2434   3.2478   3.2510   3.2603   3.2636   3.2727
  3.2749   3.2760   3.2815   3.2872   3.2909   3.2958   3.3006   3.3035
  3.3094   3.3150   3.3196   3.3250   3.3319   3.3332   3.3343   3.3415
  3.3442   3.3461   3.3564   3.3619   3.3631   3.3676   3.3694   3.3753
  3.3788   3.3829   3.3907   3.3963   3.3986   3.4091   3.4158   3.4177
  3.4258   3.4311   3.4364   3.4446   3.4482   3.4530   3.4589   3.4614
  3.4674   3.4709   3.4730   3.4819   3.4861   3.4912   3.4952   3.5004
  3.5038   3.5072   3.5093   3.5120   3.5201   3.5249   3.5329   3.5373
  3.5453   3.5499   3.5516   3.5636   3.5660   3.5704   3.5816   3.5897
  3.5932   3.6043   3.6086   3.6130   3.6250   3.6264   3.6312   3.6335
  3.6425   3.6447   3.6517   3.6602   3.6694   3.6766   3.6815   3.6858
  3.6931   3.6967   3.7052   3.7084   3.7160   3.7184   3.7269   3.7339
  3.7355   3.7433   3.7471   3.7523   3.7561   3.7622   3.7759   3.7799
  3.7828   3.7893   3.7924   3.7939   3.7988   3.8006   3.8095   3.8125
  3.8170   3.8256   3.8309   3.8455   3.8478   3.8586   3.8603   3.8683
  3.8799   3.8861   3.8871   3.8922   3.9063   3.9189   3.9242   3.9313
  3.9338   3.9429   3.9466   3.9621   3.9652   3.9740   3.9841   3.9864
  3.9918   4.0066   4.0157   4.0229   4.0317   4.0388   4.0412   4.0588
  4.0670   4.0693   4.0771   4.0834   4.0897   4.1032   4.1104   4.1244
  4.1288   4.1363   4.1456   4.1501   4.1537   4.1634   4.1694   4.1793
  4.1854   4.1891   4.1921   4.2013   4.2131   4.2320   4.2418   4.2567
  4.2635   4.2719   4.2751   4.2779   4.2910   4.2937   4.2949   4.2983
  4.3031   4.3124   4.3173   4.3202   4.3353   4.3400   4.3425   4.3546
  4.3574   4.3611   4.3669   4.3687   4.3744   4.3836   4.3852   4.3909
  4.3966   4.4022   4.4070   4.4156   4.4267   4.4284   4.4530   4.4568
  4.4605   4.4734   4.4772   4.4964   4.5023   4.5208   4.5251   4.5267
  4.5313   4.5434   4.5466   4.5570   4.5646   4.5725   4.5772   4.5821
  4.5838   4.5861   4.5997   4.6081   4.6106   4.6224   4.6338   4.6379
  4.6449   4.6621   4.6652   4.6787   4.6807   4.6909   4.6952   4.7016
  4.7165   4.7266   4.7424   4.7636   4.7700   4.7761   4.7842   4.7922
  4.8124   4.8212   4.8397   4.8468   4.8568   4.8615   4.8765   4.8818
  4.8823   4.9044   4.9181   4.9316   4.9395   4.9494   4.9674   4.9811
  4.9950   5.0250   5.0332   5.0397   5.0464   5.0550   5.0567   5.0716
  5.1037   5.1057   5.1136   5.1263   5.1306   5.1388   5.1487   5.1565
  5.1693   5.1871   5.2010   5.2185   5.2303   5.2449   5.2570   5.2602
  5.2768   5.2808   5.2920   5.3084   5.3230   5.3260   5.3355   5.3481
  5.3541   5.3970   5.4036   5.4081   5.4233   5.4332   5.4363   5.4700
  5.4775   5.5051   5.5098   5.5136   5.5153   5.5380   5.5574   5.5602
  5.5627   5.5657   5.5689   5.5773   5.5795   5.5967   5.6055   5.6162
  5.6325   5.6392   5.6538   5.6568   5.6684   5.6759   5.6792   5.7003
  5.7084   5.7129   5.7246   5.7388   5.7567   5.7635   5.7741   5.7786
  5.7897   5.8080   5.8158   5.8388   5.8642   5.8982   5.9124   5.9172
  5.9390   5.9582   5.9945   5.9977   6.0249   6.0254   6.0464   6.0664
  6.0880   6.0968   6.1052   6.1269   6.1323   6.1770   6.1918   6.2148
  6.2187   6.2244   6.2396   6.2679   6.2757   6.3061   6.3130   6.3510
  6.3599   6.3925   6.4390   6.4598   6.4769   6.5315   6.5637   6.5750
  6.5778   6.5935   6.6431   6.6496   6.6618   6.6961   6.7210   6.8380
  6.8417   6.8875   6.8945   6.9001   6.9129   6.9317   7.0050   7.0819
  7.1477   7.1516   7.2066   7.2242   7.3296   7.3339   7.3448   7.3466
  7.3945   7.4760   7.5501   7.5649   7.5795   7.5825   7.6364   7.6725
  7.6832   7.7235   7.9619   8.3977   9.9649  10.3723  11.0649  11.2770
 11.7167  11.8160  12.1173  12.3949  12.5110  12.7065  12.8550  13.0530
 13.2640  13.5627  13.8239  13.9519  14.0539  14.1589  14.2525  14.3783
 14.4184  14.7557  15.3340  15.7371  16.0170
 --------------------------------------------------------------
 
          Ground-State Mulliken Net Atomic Charges

     Atom                 Charge (a.u.)
  ----------------------------------------
      1 C                    -0.161760
      2 C                    -0.111813
      3 C                    -0.023240
      4 C                    -0.002539
      5 H                     0.186280
      6 C                    -0.020151
      7 C                     0.079375
      8 C                     0.032263
      9 C                    -0.102809
     10 C                    -0.136955
     11 C                     0.058487
     12 H                     0.165905
     13 C                     0.359086
     14 C                     0.363710
     15 N                    -0.101205
     16 C                     0.356638
     17 C                     0.386143
     18 N                    -0.089962
     19 O                    -0.464681
     20 O                    -0.478136
     21 O                    -0.486024
     22 O                    -0.472178
     23 C                    -0.201598
     24 H                     0.140934
     25 H                     0.112112
     26 H                     0.111995
     27 C                    -0.199558
     28 H                     0.134721
     29 H                     0.111639
     30 H                     0.112577
     31 H                     0.210299
     32 C                    -0.068121
     33 S                     0.026044
     34 C                    -0.135047
     35 C                    -0.102653
     36 C                    -0.249236
     37 H                     0.246563
     38 H                     0.193660
     39 H                     0.219234
  ----------------------------------------
  Sum of atomic charges =     0.000000

 -----------------------------------------------------------------
                    Cartesian Multipole Moments
 -----------------------------------------------------------------
    Charge (ESU x 10^10)
                 0.0000
    Dipole Moment (Debye)
         X       2.6344      Y       3.1063      Z      -0.7369
       Tot       4.1391
    Quadrupole Moments (Debye-Ang)
        XX    -156.7748     XY       6.5905     YY    -181.5300
        XZ       4.5494     YZ      -0.4718     ZZ    -177.7370
    Octopole Moments (Debye-Ang^2)
       XXX     -99.4291    XXY     505.3932    XYY     -24.9213
       YYY    1683.3054    XXZ       5.6798    XYZ      -9.8197
       YYZ       6.2565    XZZ     -30.4219    YZZ     578.8201
       ZZZ       3.4291
    Hexadecapole Moments (Debye-Ang^3)
      XXXX    -635.1750   XXXY    -149.1679   XXYY   -2706.2221
      XYYY    -239.8267   YYYY  -17392.1435   XXXZ     465.6761
      XXYZ     106.1254   XYYZ     269.3343   YYYZ     702.4660
      XXZZ   -1100.3789   XYZZ      18.8617   YYZZ   -4208.0257
      XZZZ     509.4337   YZZZ     -41.9581   ZZZZ   -6294.0454
 -----------------------------------------------------------------
 Total job time:  284.59s(wall), 9006.70s(cpu) 
 Wed Sep 20 08:13:05 2023

        *************************************************************
        *                                                           *
        *  Thank you very much for using Q-Chem.  Have a nice day.  *
        *                                                           *
        *************************************************************


0 sent ACK to 0 
now end server 0 ... 
cleanup process ... done
remove work dirs ./qchem2499418.0 -- ./qchem2499418.0
rm -rf ./qchem2499418.0
rm -rf ./qchem2499418
