You are running Q-Chem version: 5.4.0

#
# job setting
#
local host:  exp-2-08
current dir: /expanse/lustre/projects/csd626/rramji/aromodel/PNDIT/Rotation_Test
input file:  Dimethyl_Naphthalene_Dicarboximide_Phi_0_Theta_140_Thiophene.qcin
output file: 
nprocs     : 1
nthreads   : 64
#
# qchem installation setting
#
QC:          /cm/shared/apps/spack/cpu/opt/spack/linux-centos8-zen2/gcc-10.2.0/qchem-5.4-akfmr7b3t57bfs6qan3padb2wnb2i7cl
QCAUX:       /cm/shared/apps/spack/cpu/opt/spack/linux-centos8-zen2/gcc-10.2.0/qchem-5.4-akfmr7b3t57bfs6qan3padb2wnb2i7cl/qcaux
QCPROG:      /cm/shared/apps/spack/cpu/opt/spack/linux-centos8-zen2/gcc-10.2.0/qchem-5.4-akfmr7b3t57bfs6qan3padb2wnb2i7cl/exe/qcprog.exe
QCPROG_S:    /cm/shared/apps/spack/cpu/opt/spack/linux-centos8-zen2/gcc-10.2.0/qchem-5.4-akfmr7b3t57bfs6qan3padb2wnb2i7cl/exe/qcprog.exe_s
PARALLEL:    -DPARALLEL
QCMPI:       mpich
#
# qchem directory setting
#
qcrun:       qchem672898
QCSCRATCH:   .
QCLOCALSCR:  
QCTMPDIR:    .
QCFILEPREF:  ./qchem672898
QCSAVEDIR:   
workdirs:    ./qchem672898
workdir0:    ./qchem672898
partmpdirs =  
#
# parallel setting
#
QCRSH:           ssh
QCMPI:           mpich
QCMPIRUN:        /cm/shared/apps/spack/cpu/opt/spack/linux-centos8-zen2/gcc-10.2.0/qchem-5.4-akfmr7b3t57bfs6qan3padb2wnb2i7cl/bin/mpi/mpirun_qchem
QCMACHINEFILE:   ./qchem672898/hostfile
exp-2-08

#
# env setting
#
exported envs:   QC QCAUX QCSCRATCH QCRUNNAME QCFILEPREF QCPROG QCPROG_S GUIFILE

Running Job 1 of 1 Dimethyl_Naphthalene_Dicarboximide_Phi_0_Theta_140_Thiophene.qcin
qchem Dimethyl_Naphthalene_Dicarboximide_Phi_0_Theta_140_Thiophene.qcin_672898.0 ./qchem672898/ 1
/cm/shared/apps/spack/cpu/opt/spack/linux-centos8-zen2/gcc-10.2.0/qchem-5.4-akfmr7b3t57bfs6qan3padb2wnb2i7cl/bin/mpi/mpirun_qchem -machinefile ./qchem672898/hostfile -np 1 /cm/shared/apps/spack/cpu/opt/spack/linux-centos8-zen2/gcc-10.2.0/qchem-5.4-akfmr7b3t57bfs6qan3padb2wnb2i7cl/exe/qcprog.exe Dimethyl_Naphthalene_Dicarboximide_Phi_0_Theta_140_Thiophene.qcin_672898.0 ./qchem672898/

Process 0 of 1 is on exp-2-08 - thread support 0
initial socket setup ...start
initial socket setup ...done 
now start server 0 ... 
                  Welcome to Q-Chem
     A Quantum Leap Into The Future Of Chemistry


 Q-Chem 5.4, Q-Chem, Inc., Pleasanton, CA (2021)

 License issued to: University of California, San Diego (site)

 E. Epifanovsky,  A. T. B. Gilbert,  Xintian Feng,  Joonho Lee,  Yuezhi Mao,  
 N. Mardirossian,  P. Pokhilko,  A. White,  M. Wormit,  M. P. Coons,  
 A. L. Dempwolff,  Zhengting Gan,  D. Hait,  P. R. Horn,  L. D. Jacobson,  
 I. Kaliman,  J. Kussmann,  A. W. Lange,  Ka Un Lao,  D. S. Levine,  Jie Liu,  
 S. C. McKenzie,  A. F. Morrison,  K. Nanda,  F. Plasser,  D. R. Rehn,  
 M. L. Vidal,  Zhi-Qiang You,  Ying Zhu,  B. Alam,  B. Albrecht,  
 A. Aldossary,  E. Alguire,  J. H. Andersen,  D. Barton,  K. Begam,  A. Behn,  
 Y. A. Bernard,  E. J. Berquist,  H. Burton,  A. Carreras,  K. Carter-Fenk,  
 R. Chakraborty,  A. D. Chien,  K. D. Closser,  V. Cofer-Shabica,  
 S. Dasgupta,  Jia Deng,  M. de Wergifosse,  M. Diedenhofen,  Hainam Do,  
 S. Ehlert,  Po-Tung Fang,  S. Fatehi,  Qingguo Feng,  J. Gayvert,  
 Qinghui Ge,  G. Gidofalvi,  M. Goldey,  J. Gomes,  C. Gonzalez-Espinoza,  
 S. Gulania,  A. Gunina,  M. W. D. Hanson-Heine,  P. H. P. Harbach,  
 A. W. Hauser,  M. F. Herbst,  M. Hernandez Vera,  M. Hodecker,  
 Z. C. Holden,  S. Houck,  Xunkun Huang,  Kerwin Hui,  B. C. Huynh,  
 M. Ivanov,  Hyunjun Ji,  Hanjie Jiang,  B. Kaduk,  S. Kaehler,  
 K. Khistyaev,  Jaehoon Kim,  P. Klunzinger,  Z. Koczor-Benda,  
 Joong Hoon Koh,  D. Kosenkov,  L. Koulias,  T. Kowalczyk,  C. M. Krauter,  
 K. Kue,  A. Kunitsa,  T. Kus,  A. Landau,  K. V. Lawler,  D. Lefrancois,  
 S. Lehtola,  Rain Li,  Yi-Pei Li,  Jiashu Liang,  M. Liebenthal,  
 Hung-Hsuan Lin,  You-Sheng Lin,  Fenglai Liu,  Kuan-Yu Liu,  
 M. Loipersberger,  A. Luenser,  A. Manjanath,  P. Manohar,  E. Mansoor,  
 S. F. Manzer,  Shan-Ping Mao,  A. V. Marenich,  T. Markovich,  S. Mason,  
 S. A. Maurer,  P. F. McLaughlin,  M. F. S. J. Menger,  J.-M. Mewes,  
 S. A. Mewes,  P. Morgante,  J. W. Mullinax,  T. S. Nguyen-Beck,  
 K. J. Oosterbaan,  G. Paran,  Alexander C. Paul,  Suranjan K. Paul,  
 F. Pavosevic,  Zheng Pei,  S. Prager,  E. I. Proynov,  E. Ramos,  B. Rana,  
 A. E. Rask,  A. Rettig,  R. M. Richard,  F. Rob,  E. Rossomme,  T. Scheele,  
 M. Scheurer,  M. Schneider,  N. Sergueev,  S. M. Sharada,  W. Skomorowski,  
 D. W. Small,  C. J. Stein,  Yu-Chuan Su,  E. J. Sundstrom,  Zhen Tao,  
 J. Thirman,  T. Tsuchimochi,  N. M. Tubman,  S. P. Veccham,  O. Vydrov,  
 J. Wenzel,  J. Witte,  A. Yamada,  Kun Yao,  S. Yeganeh,  S. R. Yost,  
 A. Zech,  Igor Ying Zhang,  Xing Zhang,  Yu Zhang,  D. Zuev,  
 A. Aspuru-Guzik,  A. T. Bell,  N. A. Besley,  K. B. Bravaya,  B. R. Brooks,  
 D. Casanova,  Jeng-Da Chai,  S. Coriani,  C. J. Cramer,  
 A. E. DePrince, III,  R. A. DiStasio Jr.,  A. Dreuw,  B. D. Dunietz,  
 T. R. Furlani,  W. A. Goddard III,  S. Grimme,  S. Hammes-Schiffer,  
 T. Head-Gordon,  W. J. Hehre,  Chao-Ping Hsu,  T.-C. Jagau,  Yousung Jung,  
 A. Klamt,  Jing Kong,  D. S. Lambrecht,  WanZhen Liang,  N. J. Mayhall,  
 C. W. McCurdy,  J. B. Neaton,  C. Ochsenfeld,  J. A. Parkhill,  R. Peverati,  
 V. A. Rassolov,  Yihan Shao,  L. V. Slipchenko,  T. Stauch,  R. P. Steele,  
 J. E. Subotnik,  A. J. W. Thom,  A. Tkatchenko,  D. G. Truhlar,  
 T. Van Voorhis,  T. A. Wesolowski,  K. B. Whaley,  H. L. Woodcock III,  
 P. M. Zimmerman,  S. Faraji,  P. M. W. Gill,  M. Head-Gordon,  
 J. M. Herbert,  A. I. Krylov

 Contributors to earlier versions of Q-Chem not listed above: 
 R. D. Adamson,  B. Austin,  R. Baer,  J. Baker,  G. J. O. Beran,  
 K. Brandhorst,  S. T. Brown,  E. F. C. Byrd,  A. K. Chakraborty,  
 G. K. L. Chan,  Chun-Min Chang,  Yunqing Chen,  C.-L. Cheng,  
 Siu Hung Chien,  D. M. Chipman,  D. L. Crittenden,  H. Dachsel,  
 R. J. Doerksen,  A. D. Dutoi,  R. G. Edgar,  J. Fosso-Tande,  
 L. Fusti-Molnar,  D. Ghosh,  A. Ghysels,  A. Golubeva-Zadorozhnaya,  
 J. Gonthier,  M. S. Gordon,  S. R. Gwaltney,  G. Hawkins,  J. E. Herr,  
 A. Heyden,  S. Hirata,  E. G. Hohenstein,  G. Kedziora,  F. J. Keil,  
 C. Kelley,  Jihan Kim,  R. A. King,  R. Z. Khaliullin,  P. P. Korambath,  
 W. Kurlancheek,  A. Laurent,  A. M. Lee,  M. S. Lee,  S. V. Levchenko,  
 Ching Yeh Lin,  D. Liotard,  E. Livshits,  R. C. Lochan,  I. Lotan,  
 L. A. Martinez-Martinez,  P. E. Maslen,  N. Nair,  D. P. O'Neill,  
 D. Neuhauser,  E. Neuscamman,  C. M. Oana,  R. Olivares-Amaya,  R. Olson,  
 T. M. Perrine,  B. Peters,  P. A. Pieniazek,  A. Prociuk,  Y. M. Rhee,  
 J. Ritchie,  M. A. Rohrdanz,  E. Rosta,  N. J. Russ,  H. F. Schaefer III,  
 M. W. Schmidt,  N. E. Schultz,  S. Sharma,  N. Shenvi,  C. D. Sherrill,  
 A. C. Simmonett,  A. Sodt,  T. Stein,  D. Stuck,  K. S. Thanthiriwatte,  
 V. Vanovschi,  L. Vogt,  Tao Wang,  A. Warshel,  M. A. Watson,  
 C. F. Williams,  Q. Wu,  X. Xu,  Jun Yang,  W. Zhang,  Yan Zhao

 Please cite Q-Chem as follows:
 Y. Shao et al., Mol. Phys. 113, 184-215 (2015)
 DOI: 10.1080/00268976.2014.952696

 Q-Chem 5.4.0 for Intel X86 EM64T Linux

 Parts of Q-Chem use Armadillo 9.800.1 (Horizon Scraper).
 http://arma.sourceforge.net/

 Q-Chem begins on Wed Sep 20 09:01:53 2023  

 Host: 
0

     Scratch files written to ./qchem672898//
 May1621 |scratch|qcdevops|jenkins|workspace|build_RNUM    
 Parallel job on  1  processors
 Processing $rem in /cm/shared/apps/spack/cpu/opt/spack/linux-centos8-zen2/gcc-10.2.0/qchem-5.4-akfmr7b3t57bfs6qan3padb2wnb2i7cl/config/preferences:
 Processing $rem in /home/rramji/.qchemrc:
 Symmetry turned off for PCM/SM12/SMD calculation
 Core orbitals will be frozen

 Checking the input file for inconsistencies... 	...done.

 Q-Chem warning in module forms1/BasisType.C, line 2236:

 You are not using the predefined 5D/6D in this basis set.


--------------------------------------------------------------
User input:
--------------------------------------------------------------
$molecule
0 1
C	0.166281	-6.741404	0.195868
C	1.005696	-6.155638	1.196048
C	-0.530233	-5.791452	-0.634911
C	1.184587	-4.803786	1.409599
H	1.570232	-6.821518	1.868538
C	-0.343266	-4.378638	-0.410996
C	0.511683	-3.838032	0.608444
C	-1.015440	-3.413062	-1.211179
C	0.697165	-2.426473	0.830559
C	-0.838968	-2.059348	-0.999915
C	-0.000000	-1.478216	-0.000000
H	-1.404302	-1.394783	-1.673009
C	-1.456059	-6.187987	-1.741129
C	-1.934944	-3.798164	-2.307170
N	-2.090139	-5.170003	-2.494766
C	2.106725	-4.424987	2.508468
C	1.624494	-2.036627	1.936893
N	2.258486	-3.049156	2.690936
O	-1.705414	-7.353131	-2.042736
O	-2.529122	-2.986854	-3.013823
O	2.693680	-5.248946	3.206857
O	1.888802	-0.878829	2.254108
C	-2.997334	-5.563799	-3.577543
H	-3.025519	-6.664085	-3.612920
H	-2.635109	-5.147101	-4.536833
H	-4.005702	-5.148785	-3.387762
C	3.152347	-2.587487	3.756883
H	3.566218	-3.483329	4.248464
H	2.590383	-1.964972	4.478763
H	3.959687	-1.962932	3.329599
H	0.046998	-7.822318	0.053215
C	0.000000	0.000000	0.000000
S	-0.000201	0.793171	1.580530
C	-0.000228	2.430885	0.904911
C	-0.000168	0.997990	-0.985400
C	-0.000267	2.318231	-0.493528
H	-0.000145	0.762343	-2.059934
H	-0.000339	3.199164	-1.152593
H	-0.000311	3.311566	1.556025
$end

$rem
JOBTYPE		SP
EXCHANGE	HF
CORRELATION	pRIMP2
BASIS		cc-pvtz
METHOD		rimp2
AUX_BASIS	rimp2-cc-pvtz
SOLVENT_METHOD	PCM
PURECART	11111
SYMMETRY	false
MEM_TOTAL	110000
SCF_CONVERGENCE = 6
THRESH=10
GUI = 2
$end



$solvent
dielectric 4.90
$end
--------------------------------------------------------------
 ----------------------------------------------------------------
             Standard Nuclear Orientation (Angstroms)
    I     Atom           X                Y                Z
 ----------------------------------------------------------------
    1      C       0.1662810000    -6.7414040000     0.1958680000
    2      C       1.0056960000    -6.1556380000     1.1960480000
    3      C      -0.5302330000    -5.7914520000    -0.6349110000
    4      C       1.1845870000    -4.8037860000     1.4095990000
    5      H       1.5702320000    -6.8215180000     1.8685380000
    6      C      -0.3432660000    -4.3786380000    -0.4109960000
    7      C       0.5116830000    -3.8380320000     0.6084440000
    8      C      -1.0154400000    -3.4130620000    -1.2111790000
    9      C       0.6971650000    -2.4264730000     0.8305590000
   10      C      -0.8389680000    -2.0593480000    -0.9999150000
   11      C       0.0000000000    -1.4782160000     0.0000000000
   12      H      -1.4043020000    -1.3947830000    -1.6730090000
   13      C      -1.4560590000    -6.1879870000    -1.7411290000
   14      C      -1.9349440000    -3.7981640000    -2.3071700000
   15      N      -2.0901390000    -5.1700030000    -2.4947660000
   16      C       2.1067250000    -4.4249870000     2.5084680000
   17      C       1.6244940000    -2.0366270000     1.9368930000
   18      N       2.2584860000    -3.0491560000     2.6909360000
   19      O      -1.7054140000    -7.3531310000    -2.0427360000
   20      O      -2.5291220000    -2.9868540000    -3.0138230000
   21      O       2.6936800000    -5.2489460000     3.2068570000
   22      O       1.8888020000    -0.8788290000     2.2541080000
   23      C      -2.9973340000    -5.5637990000    -3.5775430000
   24      H      -3.0255190000    -6.6640850000    -3.6129200000
   25      H      -2.6351090000    -5.1471010000    -4.5368330000
   26      H      -4.0057020000    -5.1487850000    -3.3877620000
   27      C       3.1523470000    -2.5874870000     3.7568830000
   28      H       3.5662180000    -3.4833290000     4.2484640000
   29      H       2.5903830000    -1.9649720000     4.4787630000
   30      H       3.9596870000    -1.9629320000     3.3295990000
   31      H       0.0469980000    -7.8223180000     0.0532150000
   32      C       0.0000000000     0.0000000000     0.0000000000
   33      S      -0.0002010000     0.7931710000     1.5805300000
   34      C      -0.0002280000     2.4308850000     0.9049110000
   35      C      -0.0001680000     0.9979900000    -0.9854000000
   36      C      -0.0002670000     2.3182310000    -0.4935280000
   37      H      -0.0001450000     0.7623430000    -2.0599340000
   38      H      -0.0003390000     3.1991640000    -1.1525930000
   39      H      -0.0003110000     3.3115660000     1.5560250000
 ----------------------------------------------------------------
 Nuclear Repulsion Energy =        2503.45352750 hartrees
 There are       97 alpha and       97 beta electrons
 Requested basis set is cc-pVTZ
 There are 344 shells and 982 basis functions

 Total QAlloc Memory Limit 110000 MB
 Mega-Array Size       188 MB
 MEM_STATIC part       192 MB
 Discretize the solute cavity surface with Lebedev spheres
	Using 110 Lebedev grid points for each H atom
	Using 194 Lebedev grid points for other atoms
	Atomic van der Waals radii will be scaled by 1.20
 Remove points where switching function is < 1.0e-08
 Keep 2517 surface tesserae and discard 4041 interior tesserae
 Molecular Surface Area = 363.745 Angst**2
 Requested basis set is rimp2-cc-pVTZ
 There are 750 shells and 2588 basis functions
 A cutoff of  1.0D-10 yielded  31630 shell pairs
 There are    243670 function pairs (    316661 Cartesian)
 Smallest overlap matrix eigenvalue = 9.98E-06

 Q-Chem warning in module stvman/mkSTV.C, line 323:

 Overlap eigenvalue is smaller than square root of threshold
 Use THRESH >= 12 to get rid of this warning


 Scale SEOQF with 1.000000e-01/1.000000e-02/1.000000e-01

 Standard Electronic Orientation quadrupole field applied
 Nucleus-field energy     =    -0.0000000444 hartrees
 Guess from superposition of atomic densities
 Warning:  Energy on first SCF cycle will be non-variational
 SAD guess density has 194.000000 electrons

 -----------------------------------------------------------------------
  General SCF calculation program by
  Eric Jon Sundstrom, Paul Horn, Yuezhi Mao, Dmitri Zuev, Alec White,
  David Stuck, Shaama M.S., Shane Yost, Joonho Lee, David Small,
  Daniel Levine, Susi Lehtola, Hugh Burton, Evgeny Epifanovsky,
  Bang C. Huynh
 -----------------------------------------------------------------------
 Hartree-Fock
 using 64 threads for integral computing
 -------------------------------------------------------
 OpenMP Integral computing Module                
 Release: version 1.0, May 2013, Q-Chem Inc. Pittsburgh 
 -------------------------------------------------------
 A restricted SCF calculation will be
 performed using DIIS
 SCF converges when DIIS error is below 1.0e-06
 ---------------------------------------
  Cycle       Energy         DIIS error
 ---------------------------------------
    1   -1581.3237843418      1.87e-02  
    2   -1570.1094880337      2.09e-03  
    3   -1570.4350396823      1.63e-03  
    4   -1570.6659066058      2.57e-04  
    5   -1570.6779458216      7.61e-05  
    6   -1570.6789988350      2.78e-05  
    7   -1570.6792389584      1.43e-05  
    8   -1570.6793153913      5.84e-06  
    9   -1570.6793275356      2.30e-06  
   10   -1570.6793296225      7.44e-07  Convergence criterion met
 ---------------------------------------
 SCF time:   CPU 5745.27s  wall 215.00s 

************** Final PCM Free Energy Summary **************
 G_electrostatic  =      -0.02345309 hartree =     -14.71703425 kcal/mol
 G_cavitation     =       0.00000000 hartree =       0.00000000 kcal/mol
 G_dispersion     =       0.00000000 hartree =       0.00000000 kcal/mol
 G_repulsion      =       0.00000000 hartree =       0.00000000 kcal/mol
 --------------------------------------------------
 Non-electrostatic Free Energy =       0.00000000 hartree =       0.00000000 kcal/mol
 Total                         =      -0.02345309 hartree =     -14.71703425 kcal/mol
 --------------------------------------------------
 SCF Energy (H0 + V/2)                       =   -1570.67932962 
 Solute Internal Energy (H0)                 =   -1570.65587654 
 Total Free Energy (H0 + V/2 + non-elec)     =   -1570.67932962 hartree
                                             = -985616.15524205 kcal/mol
***********************************************************

 SCF   energy in the final basis set =    -1570.6793296225
 Total energy in the final basis set =    -1570.6793296225


 --------------------------------------------------------------
  Generalized many-body perturbation theory program
  by Joonho Lee, Fazle Rob, Xintian Feng, Evgeny Epifanovsky

 No regularization used 
 (reg. param. = 0.0000e+00)
  (P|Q)^-1/2 Time:  CPU 149.25 s  wall 2.54 s

 In RI-MP2 calculation: 
 # of frozen core orbitals: 31

 Components of the RIMP2 correlation energy:
        aaaa    correlation energy =        -0.6178305429 a.u.
        abab    correlation energy =        -3.3944393610 a.u.
        bbbb    correlation energy =        -0.6178305429 a.u.
        non-Brillouin singles      =        -0.0000000000 a.u.
        total same-spin energy     =        -1.2356610859 a.u.
        total opposite-spin energy =        -3.3944393610 a.u.

 Total  RIMP2   correlation energy =        -4.6301004469 a.u.
        RIMP2         total energy =     -1575.3094300694 a.u.

 RI-MP2 Energy Time:  CPU 1894.97 s  wall 32.27 s
 
 --------------------------------------------------------------
 
                    Orbital Energies (a.u.)
 --------------------------------------------------------------
 
 Alpha MOs
 -- Occupied --
-91.9837 -20.5588 -20.5567 -20.5544 -20.5532 -15.6315 -15.6304 -11.4003
-11.3961 -11.3920 -11.3910 -11.3181 -11.3033 -11.3027 -11.3011 -11.2975
-11.2966 -11.2903 -11.2868 -11.2852 -11.2818 -11.2801 -11.2783 -11.2648
-11.2644 -11.2594 -11.2457  -8.9833  -6.6639  -6.6633  -6.6628  -1.4252
 -1.4246  -1.4045  -1.4036  -1.2677  -1.2653  -1.2174  -1.1731  -1.1436
 -1.1173  -1.0626  -1.0499  -0.9930  -0.9884  -0.9817  -0.9591  -0.9478
 -0.8968  -0.8797  -0.8777  -0.8618  -0.7943  -0.7771  -0.7741  -0.7605
 -0.7331  -0.7190  -0.7042  -0.6941  -0.6835  -0.6740  -0.6665  -0.6623
 -0.6569  -0.6411  -0.6374  -0.6343  -0.6289  -0.6134  -0.5843  -0.5832
 -0.5790  -0.5707  -0.5673  -0.5660  -0.5642  -0.5556  -0.5541  -0.5485
 -0.5336  -0.5242  -0.5210  -0.5175  -0.4843  -0.4722  -0.4642  -0.4614
 -0.4575  -0.4451  -0.4276  -0.4178  -0.4092  -0.3690  -0.3408  -0.3366
 -0.3043
 -- Virtual --
 -0.0213   0.0580   0.0702   0.1039   0.1273   0.1545   0.1583   0.1592
  0.1660   0.1719   0.1802   0.1815   0.1845   0.1976   0.2067   0.2083
  0.2218   0.2271   0.2282   0.2333   0.2403   0.2466   0.2619   0.2633
  0.2664   0.3066   0.3136   0.3151   0.3229   0.3267   0.3276   0.3380
  0.3425   0.3477   0.3519   0.3565   0.3595   0.3602   0.3724   0.3756
  0.3794   0.3846   0.3876   0.3929   0.4002   0.4044   0.4080   0.4123
  0.4220   0.4274   0.4338   0.4402   0.4420   0.4460   0.4532   0.4572
  0.4576   0.4601   0.4646   0.4757   0.4785   0.4860   0.4882   0.4959
  0.5051   0.5085   0.5099   0.5153   0.5169   0.5226   0.5283   0.5319
  0.5365   0.5399   0.5464   0.5498   0.5521   0.5561   0.5625   0.5650
  0.5720   0.5737   0.5759   0.5857   0.5907   0.5929   0.5963   0.6012
  0.6053   0.6089   0.6134   0.6146   0.6191   0.6235   0.6289   0.6302
  0.6303   0.6343   0.6366   0.6381   0.6467   0.6480   0.6562   0.6663
  0.6761   0.6855   0.6928   0.6955   0.7038   0.7057   0.7105   0.7156
  0.7232   0.7348   0.7415   0.7431   0.7448   0.7564   0.7597   0.7618
  0.7726   0.7795   0.7841   0.7945   0.8023   0.8090   0.8120   0.8234
  0.8281   0.8315   0.8352   0.8404   0.8460   0.8487   0.8531   0.8569
  0.8641   0.8671   0.8693   0.8736   0.8800   0.8883   0.9020   0.9070
  0.9133   0.9150   0.9188   0.9254   0.9315   0.9386   0.9431   0.9485
  0.9523   0.9564   0.9626   0.9671   0.9750   0.9768   0.9816   0.9875
  0.9891   0.9947   0.9996   1.0078   1.0093   1.0206   1.0270   1.0293
  1.0331   1.0390   1.0518   1.0563   1.0596   1.0648   1.0674   1.0721
  1.0791   1.0827   1.0852   1.0867   1.0894   1.1019   1.1065   1.1089
  1.1280   1.1302   1.1374   1.1390   1.1414   1.1490   1.1531   1.1589
  1.1616   1.1653   1.1702   1.1754   1.1820   1.1861   1.1941   1.1982
  1.2026   1.2061   1.2119   1.2172   1.2250   1.2311   1.2379   1.2424
  1.2461   1.2474   1.2589   1.2593   1.2626   1.2723   1.2777   1.2968
  1.3114   1.3233   1.3283   1.3348   1.3401   1.3449   1.3516   1.3594
  1.3664   1.3751   1.3779   1.3831   1.3884   1.3934   1.4006   1.4175
  1.4220   1.4306   1.4334   1.4416   1.4502   1.4525   1.4543   1.4666
  1.4731   1.4790   1.4866   1.4891   1.4981   1.5077   1.5123   1.5189
  1.5246   1.5317   1.5338   1.5441   1.5493   1.5592   1.5601   1.5665
  1.5714   1.5756   1.5770   1.5936   1.6036   1.6068   1.6177   1.6315
  1.6369   1.6462   1.6497   1.6590   1.6681   1.6706   1.6828   1.6942
  1.6955   1.7014   1.7138   1.7183   1.7262   1.7338   1.7423   1.7470
  1.7500   1.7608   1.7680   1.7755   1.7920   1.8039   1.8070   1.8096
  1.8163   1.8289   1.8351   1.8440   1.8523   1.8554   1.8601   1.8698
  1.8735   1.8799   1.9006   1.9071   1.9122   1.9204   1.9278   1.9446
  1.9599   1.9718   1.9762   1.9837   1.9975   2.0055   2.0293   2.0418
  2.0454   2.0499   2.0606   2.0764   2.1030   2.1087   2.1296   2.1424
  2.1494   2.1604   2.1739   2.1849   2.2005   2.2159   2.2256   2.2355
  2.2496   2.2530   2.2661   2.2739   2.2858   2.2899   2.2972   2.3037
  2.3082   2.3290   2.3345   2.3494   2.3622   2.3660   2.3776   2.3929
  2.4119   2.4241   2.4330   2.4381   2.4426   2.4542   2.4567   2.4707
  2.4792   2.4833   2.4938   2.5001   2.5022   2.5109   2.5302   2.5394
  2.5529   2.5566   2.5754   2.5867   2.5959   2.5980   2.6037   2.6070
  2.6147   2.6213   2.6253   2.6474   2.6549   2.6629   2.6654   2.6676
  2.6732   2.6825   2.6853   2.6988   2.7087   2.7164   2.7205   2.7268
  2.7328   2.7413   2.7451   2.7499   2.7573   2.7677   2.7740   2.7903
  2.7967   2.7998   2.8131   2.8246   2.8374   2.8504   2.8507   2.8587
  2.8607   2.8690   2.8725   2.8790   2.8868   2.8908   2.8981   2.9040
  2.9067   2.9133   2.9292   2.9336   2.9454   2.9502   2.9581   2.9637
  2.9734   2.9774   2.9925   2.9971   3.0008   3.0029   3.0075   3.0092
  3.0183   3.0327   3.0376   3.0399   3.0428   3.0578   3.0654   3.0731
  3.0847   3.0889   3.0993   3.1025   3.1042   3.1101   3.1151   3.1172
  3.1257   3.1318   3.1363   3.1499   3.1556   3.1659   3.1707   3.1804
  3.1849   3.1963   3.1969   3.2061   3.2072   3.2157   3.2192   3.2235
  3.2276   3.2309   3.2452   3.2494   3.2525   3.2552   3.2597   3.2638
  3.2731   3.2796   3.2802   3.2826   3.2883   3.2903   3.2982   3.3016
  3.3091   3.3143   3.3203   3.3241   3.3278   3.3309   3.3326   3.3393
  3.3413   3.3432   3.3479   3.3502   3.3585   3.3643   3.3677   3.3706
  3.3746   3.3780   3.3867   3.3951   3.3968   3.4012   3.4026   3.4184
  3.4265   3.4300   3.4350   3.4393   3.4443   3.4478   3.4512   3.4569
  3.4597   3.4619   3.4663   3.4709   3.4773   3.4826   3.4840   3.4941
  3.4984   3.5005   3.5015   3.5078   3.5140   3.5150   3.5284   3.5290
  3.5342   3.5374   3.5440   3.5466   3.5471   3.5589   3.5628   3.5763
  3.5791   3.5845   3.5906   3.6015   3.6130   3.6198   3.6272   3.6282
  3.6322   3.6379   3.6391   3.6456   3.6551   3.6635   3.6726   3.6808
  3.6857   3.6916   3.6927   3.7012   3.7023   3.7112   3.7131   3.7252
  3.7282   3.7289   3.7315   3.7414   3.7473   3.7568   3.7605   3.7643
  3.7722   3.7772   3.7830   3.7842   3.7927   3.7948   3.7997   3.8023
  3.8165   3.8261   3.8300   3.8385   3.8424   3.8521   3.8567   3.8582
  3.8615   3.8649   3.8743   3.8825   3.8894   3.8950   3.9207   3.9221
  3.9271   3.9314   3.9410   3.9430   3.9512   3.9548   3.9659   3.9823
  3.9869   3.9929   3.9991   4.0080   4.0101   4.0177   4.0382   4.0434
  4.0462   4.0594   4.0688   4.0842   4.0866   4.0964   4.1032   4.1085
  4.1255   4.1282   4.1322   4.1415   4.1535   4.1580   4.1672   4.1694
  4.1745   4.1842   4.1881   4.1993   4.2105   4.2124   4.2169   4.2311
  4.2424   4.2444   4.2558   4.2655   4.2732   4.2740   4.2754   4.2873
  4.2967   4.2979   4.3001   4.3136   4.3192   4.3246   4.3365   4.3427
  4.3458   4.3533   4.3551   4.3644   4.3673   4.3674   4.3720   4.3810
  4.3910   4.3996   4.4055   4.4097   4.4219   4.4250   4.4300   4.4358
  4.4442   4.4623   4.4702   4.4788   4.4838   4.5085   4.5131   4.5190
  4.5234   4.5296   4.5337   4.5420   4.5477   4.5525   4.5671   4.5759
  4.5782   4.5804   4.5917   4.5942   4.6093   4.6147   4.6176   4.6313
  4.6397   4.6580   4.6632   4.6688   4.6721   4.6832   4.6872   4.6905
  4.7109   4.7253   4.7327   4.7420   4.7580   4.7739   4.7763   4.7927
  4.8094   4.8279   4.8351   4.8417   4.8474   4.8633   4.8702   4.8736
  4.8774   4.8938   4.9113   4.9312   4.9359   4.9576   4.9698   4.9822
  4.9995   5.0135   5.0169   5.0370   5.0387   5.0459   5.0506   5.0519
  5.0946   5.0979   5.1054   5.1157   5.1226   5.1250   5.1440   5.1446
  5.1695   5.1762   5.1858   5.1892   5.1983   5.2323   5.2412   5.2567
  5.2659   5.2776   5.2850   5.2921   5.3207   5.3272   5.3316   5.3372
  5.3495   5.3770   5.3963   5.4034   5.4215   5.4305   5.4390   5.4445
  5.4890   5.5052   5.5085   5.5132   5.5133   5.5366   5.5487   5.5560
  5.5592   5.5600   5.5743   5.5757   5.5776   5.5908   5.6009   5.6042
  5.6260   5.6298   5.6503   5.6525   5.6555   5.6734   5.6765   5.6928
  5.6985   5.7020   5.7298   5.7392   5.7465   5.7580   5.7610   5.7722
  5.7743   5.7779   5.8158   5.8223   5.8471   5.8828   5.8965   5.9375
  5.9411   5.9660   6.0087   6.0150   6.0235   6.0272   6.0397   6.0572
  6.0742   6.1001   6.1048   6.1157   6.1284   6.1701   6.1994   6.2088
  6.2175   6.2184   6.2220   6.2606   6.2666   6.2728   6.3045   6.3420
  6.3506   6.3702   6.4425   6.4549   6.4676   6.5232   6.5617   6.5699
  6.5855   6.6007   6.6341   6.6472   6.6594   6.6792   6.7112   6.8321
  6.8338   6.8796   6.8858   6.8969   6.9111   6.9258   6.9671   7.0783
  7.1043   7.1401   7.1857   7.1895   7.2276   7.3321   7.3414   7.3439
  7.3563   7.4666   7.5434   7.5570   7.5728   7.5780   7.6023   7.6336
  7.6733   7.6858   7.7217   8.3709   9.9127  10.2915  11.1294  11.2743
 11.6734  11.7168  11.9473  12.3619  12.4349  12.7694  12.8520  12.9039
 13.2944  13.5585  13.8128  13.9261  14.0325  14.1673  14.2699  14.3496
 14.4250  14.7259  15.3310  15.7286  15.9553
 --------------------------------------------------------------
 
          Ground-State Mulliken Net Atomic Charges

     Atom                 Charge (a.u.)
  ----------------------------------------
      1 C                    -0.138563
      2 C                    -0.108692
      3 C                    -0.038481
      4 C                    -0.004508
      5 H                     0.188725
      6 C                     0.000035
      7 C                     0.078351
      8 C                     0.000063
      9 C                    -0.064497
     10 C                    -0.142612
     11 C                     0.108273
     12 H                     0.184520
     13 C                     0.360627
     14 C                     0.367676
     15 N                    -0.101570
     16 C                     0.359794
     17 C                     0.373472
     18 N                    -0.095250
     19 O                    -0.464361
     20 O                    -0.476612
     21 O                    -0.481654
     22 O                    -0.462650
     23 C                    -0.200988
     24 H                     0.141162
     25 H                     0.112217
     26 H                     0.112500
     27 C                    -0.196420
     28 H                     0.133896
     29 H                     0.112914
     30 H                     0.113046
     31 H                     0.213612
     32 C                    -0.054729
     33 S                     0.073147
     34 C                    -0.204575
     35 C                    -0.167606
     36 C                    -0.222969
     37 H                     0.192720
     38 H                     0.188929
     39 H                     0.211055
  ----------------------------------------
  Sum of atomic charges =     0.000000

 -----------------------------------------------------------------
                    Cartesian Multipole Moments
 -----------------------------------------------------------------
    Charge (ESU x 10^10)
                 0.0000
    Dipole Moment (Debye)
         X       0.2162      Y       1.2071      Z      -0.5549
       Tot       1.3460
    Quadrupole Moments (Debye-Ang)
        XX    -172.5246     XY      -0.0345     YY    -166.8531
        XZ      -9.5678     YZ       0.5579     ZZ    -168.8837
    Octopole Moments (Debye-Ang^2)
       XXX     -33.7827    XXY     496.9285    XYY      -7.7352
       YYY    1595.6924    XXZ     -31.6286    XYZ      41.0519
       YYZ     -17.0581    XZZ     -12.2280    YZZ     526.6489
       ZZZ     -92.8584
    Hexadecapole Moments (Debye-Ang^3)
      XXXX   -2593.3858   XXXY    -127.3302   XXYY   -3338.9656
      XYYY    -497.4682   YYYY  -17181.4612   XXXZ   -1463.6879
      XXYZ       7.6319   XYYZ    -765.8528   YYYZ    -629.7451
      XXZZ   -1138.6783   XYZZ      62.9925   YYZZ   -3614.3485
      XZZZ   -1488.2837   YZZZ    -153.1103   ZZZZ   -3902.5163
 -----------------------------------------------------------------
 Total job time:  250.46s(wall), 7743.19s(cpu) 
 Wed Sep 20 09:06:03 2023

        *************************************************************
        *                                                           *
        *  Thank you very much for using Q-Chem.  Have a nice day.  *
        *                                                           *
        *************************************************************


0 sent ACK to 0 
now end server 0 ... 
cleanup process ... done
remove work dirs ./qchem672898.0 -- ./qchem672898.0
rm -rf ./qchem672898.0
rm -rf ./qchem672898
