You are running Q-Chem version: 5.4.0

#
# job setting
#
local host:  exp-3-18
current dir: /expanse/lustre/projects/csd626/rramji/aromodel/PNDIT/Rotation_Test
input file:  Dimethyl_Naphthalene_Dicarboximide_Phi_10_Theta_260_Thiophene.qcin
output file: 
nprocs     : 1
nthreads   : 64
#
# qchem installation setting
#
QC:          /cm/shared/apps/spack/cpu/opt/spack/linux-centos8-zen2/gcc-10.2.0/qchem-5.4-akfmr7b3t57bfs6qan3padb2wnb2i7cl
QCAUX:       /cm/shared/apps/spack/cpu/opt/spack/linux-centos8-zen2/gcc-10.2.0/qchem-5.4-akfmr7b3t57bfs6qan3padb2wnb2i7cl/qcaux
QCPROG:      /cm/shared/apps/spack/cpu/opt/spack/linux-centos8-zen2/gcc-10.2.0/qchem-5.4-akfmr7b3t57bfs6qan3padb2wnb2i7cl/exe/qcprog.exe
QCPROG_S:    /cm/shared/apps/spack/cpu/opt/spack/linux-centos8-zen2/gcc-10.2.0/qchem-5.4-akfmr7b3t57bfs6qan3padb2wnb2i7cl/exe/qcprog.exe_s
PARALLEL:    -DPARALLEL
QCMPI:       mpich
#
# qchem directory setting
#
qcrun:       qchem3575105
QCSCRATCH:   .
QCLOCALSCR:  
QCTMPDIR:    .
QCFILEPREF:  ./qchem3575105
QCSAVEDIR:   
workdirs:    ./qchem3575105
workdir0:    ./qchem3575105
partmpdirs =  
#
# parallel setting
#
QCRSH:           ssh
QCMPI:           mpich
QCMPIRUN:        /cm/shared/apps/spack/cpu/opt/spack/linux-centos8-zen2/gcc-10.2.0/qchem-5.4-akfmr7b3t57bfs6qan3padb2wnb2i7cl/bin/mpi/mpirun_qchem
QCMACHINEFILE:   ./qchem3575105/hostfile
exp-3-18

#
# env setting
#
exported envs:   QC QCAUX QCSCRATCH QCRUNNAME QCFILEPREF QCPROG QCPROG_S GUIFILE

Running Job 1 of 1 Dimethyl_Naphthalene_Dicarboximide_Phi_10_Theta_260_Thiophene.qcin
qchem Dimethyl_Naphthalene_Dicarboximide_Phi_10_Theta_260_Thiophene.qcin_3575105.0 ./qchem3575105/ 1
/cm/shared/apps/spack/cpu/opt/spack/linux-centos8-zen2/gcc-10.2.0/qchem-5.4-akfmr7b3t57bfs6qan3padb2wnb2i7cl/bin/mpi/mpirun_qchem -machinefile ./qchem3575105/hostfile -np 1 /cm/shared/apps/spack/cpu/opt/spack/linux-centos8-zen2/gcc-10.2.0/qchem-5.4-akfmr7b3t57bfs6qan3padb2wnb2i7cl/exe/qcprog.exe Dimethyl_Naphthalene_Dicarboximide_Phi_10_Theta_260_Thiophene.qcin_3575105.0 ./qchem3575105/

Process 0 of 1 is on exp-3-18 - thread support 0
initial socket setup ...start
initial socket setup ...done 
now start server 0 ... 
                  Welcome to Q-Chem
     A Quantum Leap Into The Future Of Chemistry


 Q-Chem 5.4, Q-Chem, Inc., Pleasanton, CA (2021)

 License issued to: University of California, San Diego (site)

 E. Epifanovsky,  A. T. B. Gilbert,  Xintian Feng,  Joonho Lee,  Yuezhi Mao,  
 N. Mardirossian,  P. Pokhilko,  A. White,  M. Wormit,  M. P. Coons,  
 A. L. Dempwolff,  Zhengting Gan,  D. Hait,  P. R. Horn,  L. D. Jacobson,  
 I. Kaliman,  J. Kussmann,  A. W. Lange,  Ka Un Lao,  D. S. Levine,  Jie Liu,  
 S. C. McKenzie,  A. F. Morrison,  K. Nanda,  F. Plasser,  D. R. Rehn,  
 M. L. Vidal,  Zhi-Qiang You,  Ying Zhu,  B. Alam,  B. Albrecht,  
 A. Aldossary,  E. Alguire,  J. H. Andersen,  D. Barton,  K. Begam,  A. Behn,  
 Y. A. Bernard,  E. J. Berquist,  H. Burton,  A. Carreras,  K. Carter-Fenk,  
 R. Chakraborty,  A. D. Chien,  K. D. Closser,  V. Cofer-Shabica,  
 S. Dasgupta,  Jia Deng,  M. de Wergifosse,  M. Diedenhofen,  Hainam Do,  
 S. Ehlert,  Po-Tung Fang,  S. Fatehi,  Qingguo Feng,  J. Gayvert,  
 Qinghui Ge,  G. Gidofalvi,  M. Goldey,  J. Gomes,  C. Gonzalez-Espinoza,  
 S. Gulania,  A. Gunina,  M. W. D. Hanson-Heine,  P. H. P. Harbach,  
 A. W. Hauser,  M. F. Herbst,  M. Hernandez Vera,  M. Hodecker,  
 Z. C. Holden,  S. Houck,  Xunkun Huang,  Kerwin Hui,  B. C. Huynh,  
 M. Ivanov,  Hyunjun Ji,  Hanjie Jiang,  B. Kaduk,  S. Kaehler,  
 K. Khistyaev,  Jaehoon Kim,  P. Klunzinger,  Z. Koczor-Benda,  
 Joong Hoon Koh,  D. Kosenkov,  L. Koulias,  T. Kowalczyk,  C. M. Krauter,  
 K. Kue,  A. Kunitsa,  T. Kus,  A. Landau,  K. V. Lawler,  D. Lefrancois,  
 S. Lehtola,  Rain Li,  Yi-Pei Li,  Jiashu Liang,  M. Liebenthal,  
 Hung-Hsuan Lin,  You-Sheng Lin,  Fenglai Liu,  Kuan-Yu Liu,  
 M. Loipersberger,  A. Luenser,  A. Manjanath,  P. Manohar,  E. Mansoor,  
 S. F. Manzer,  Shan-Ping Mao,  A. V. Marenich,  T. Markovich,  S. Mason,  
 S. A. Maurer,  P. F. McLaughlin,  M. F. S. J. Menger,  J.-M. Mewes,  
 S. A. Mewes,  P. Morgante,  J. W. Mullinax,  T. S. Nguyen-Beck,  
 K. J. Oosterbaan,  G. Paran,  Alexander C. Paul,  Suranjan K. Paul,  
 F. Pavosevic,  Zheng Pei,  S. Prager,  E. I. Proynov,  E. Ramos,  B. Rana,  
 A. E. Rask,  A. Rettig,  R. M. Richard,  F. Rob,  E. Rossomme,  T. Scheele,  
 M. Scheurer,  M. Schneider,  N. Sergueev,  S. M. Sharada,  W. Skomorowski,  
 D. W. Small,  C. J. Stein,  Yu-Chuan Su,  E. J. Sundstrom,  Zhen Tao,  
 J. Thirman,  T. Tsuchimochi,  N. M. Tubman,  S. P. Veccham,  O. Vydrov,  
 J. Wenzel,  J. Witte,  A. Yamada,  Kun Yao,  S. Yeganeh,  S. R. Yost,  
 A. Zech,  Igor Ying Zhang,  Xing Zhang,  Yu Zhang,  D. Zuev,  
 A. Aspuru-Guzik,  A. T. Bell,  N. A. Besley,  K. B. Bravaya,  B. R. Brooks,  
 D. Casanova,  Jeng-Da Chai,  S. Coriani,  C. J. Cramer,  
 A. E. DePrince, III,  R. A. DiStasio Jr.,  A. Dreuw,  B. D. Dunietz,  
 T. R. Furlani,  W. A. Goddard III,  S. Grimme,  S. Hammes-Schiffer,  
 T. Head-Gordon,  W. J. Hehre,  Chao-Ping Hsu,  T.-C. Jagau,  Yousung Jung,  
 A. Klamt,  Jing Kong,  D. S. Lambrecht,  WanZhen Liang,  N. J. Mayhall,  
 C. W. McCurdy,  J. B. Neaton,  C. Ochsenfeld,  J. A. Parkhill,  R. Peverati,  
 V. A. Rassolov,  Yihan Shao,  L. V. Slipchenko,  T. Stauch,  R. P. Steele,  
 J. E. Subotnik,  A. J. W. Thom,  A. Tkatchenko,  D. G. Truhlar,  
 T. Van Voorhis,  T. A. Wesolowski,  K. B. Whaley,  H. L. Woodcock III,  
 P. M. Zimmerman,  S. Faraji,  P. M. W. Gill,  M. Head-Gordon,  
 J. M. Herbert,  A. I. Krylov

 Contributors to earlier versions of Q-Chem not listed above: 
 R. D. Adamson,  B. Austin,  R. Baer,  J. Baker,  G. J. O. Beran,  
 K. Brandhorst,  S. T. Brown,  E. F. C. Byrd,  A. K. Chakraborty,  
 G. K. L. Chan,  Chun-Min Chang,  Yunqing Chen,  C.-L. Cheng,  
 Siu Hung Chien,  D. M. Chipman,  D. L. Crittenden,  H. Dachsel,  
 R. J. Doerksen,  A. D. Dutoi,  R. G. Edgar,  J. Fosso-Tande,  
 L. Fusti-Molnar,  D. Ghosh,  A. Ghysels,  A. Golubeva-Zadorozhnaya,  
 J. Gonthier,  M. S. Gordon,  S. R. Gwaltney,  G. Hawkins,  J. E. Herr,  
 A. Heyden,  S. Hirata,  E. G. Hohenstein,  G. Kedziora,  F. J. Keil,  
 C. Kelley,  Jihan Kim,  R. A. King,  R. Z. Khaliullin,  P. P. Korambath,  
 W. Kurlancheek,  A. Laurent,  A. M. Lee,  M. S. Lee,  S. V. Levchenko,  
 Ching Yeh Lin,  D. Liotard,  E. Livshits,  R. C. Lochan,  I. Lotan,  
 L. A. Martinez-Martinez,  P. E. Maslen,  N. Nair,  D. P. O'Neill,  
 D. Neuhauser,  E. Neuscamman,  C. M. Oana,  R. Olivares-Amaya,  R. Olson,  
 T. M. Perrine,  B. Peters,  P. A. Pieniazek,  A. Prociuk,  Y. M. Rhee,  
 J. Ritchie,  M. A. Rohrdanz,  E. Rosta,  N. J. Russ,  H. F. Schaefer III,  
 M. W. Schmidt,  N. E. Schultz,  S. Sharma,  N. Shenvi,  C. D. Sherrill,  
 A. C. Simmonett,  A. Sodt,  T. Stein,  D. Stuck,  K. S. Thanthiriwatte,  
 V. Vanovschi,  L. Vogt,  Tao Wang,  A. Warshel,  M. A. Watson,  
 C. F. Williams,  Q. Wu,  X. Xu,  Jun Yang,  W. Zhang,  Yan Zhao

 Please cite Q-Chem as follows:
 Y. Shao et al., Mol. Phys. 113, 184-215 (2015)
 DOI: 10.1080/00268976.2014.952696

 Q-Chem 5.4.0 for Intel X86 EM64T Linux

 Parts of Q-Chem use Armadillo 9.800.1 (Horizon Scraper).
 http://arma.sourceforge.net/

 Q-Chem begins on Wed Sep 20 10:03:19 2023  

 Host: 
0

     Scratch files written to ./qchem3575105//
 May1621 |scratch|qcdevops|jenkins|workspace|build_RNUM    
 Parallel job on  1  processors
 Processing $rem in /cm/shared/apps/spack/cpu/opt/spack/linux-centos8-zen2/gcc-10.2.0/qchem-5.4-akfmr7b3t57bfs6qan3padb2wnb2i7cl/config/preferences:
 Processing $rem in /home/rramji/.qchemrc:
 Symmetry turned off for PCM/SM12/SMD calculation
 Core orbitals will be frozen

 Checking the input file for inconsistencies... 	...done.

 Q-Chem warning in module forms1/BasisType.C, line 2236:

 You are not using the predefined 5D/6D in this basis set.


--------------------------------------------------------------
User input:
--------------------------------------------------------------
$molecule
0 1
C	-0.252767	-6.741404	0.046070
C	-1.538656	-6.155638	0.272935
C	0.814966	-5.791452	-0.141739
C	-1.813042	-4.803786	0.321083
H	-2.403318	-6.821518	0.425592
C	0.527566	-4.378638	-0.091779
C	-0.782769	-3.838032	0.138909
C	1.556632	-3.413062	-0.273808
C	-1.067868	-2.426473	0.188483
C	1.285436	-2.059348	-0.226610
C	0.000000	-1.478216	0.000000
H	2.151019	-1.394783	-0.379657
C	2.235891	-6.187987	-0.390420
C	2.965540	-3.798164	-0.522125
N	3.205600	-5.170003	-0.562731
C	-3.225760	-4.424987	0.570244
C	-2.489646	-2.036627	0.438407
N	-3.459662	-3.049156	0.610438
O	2.621768	-7.353131	-0.455563
O	3.874608	-2.986854	-0.683373
O	-4.124059	-5.248946	0.729367
O	-2.896516	-0.878829	0.508697
C	4.596910	-5.563799	-0.806996
H	4.641640	-6.664085	-0.813717
H	5.246567	-5.147101	-0.013655
H	4.936739	-5.148785	-1.775159
C	-4.829729	-2.587487	0.851572
H	-5.462387	-3.483329	0.964204
H	-5.173914	-1.964972	0.003956
H	-4.863360	-1.962932	1.764390
H	-0.069584	-7.822318	0.014094
C	0.000000	0.000000	0.000000
S	0.137535	0.781156	1.580530
C	0.421895	2.393994	0.904911
C	0.173134	0.982857	-0.985400
C	0.402294	2.283058	-0.493528
H	0.132237	0.750786	-2.059934
H	0.555196	3.150621	-1.152593
H	0.574741	3.261310	1.556025
$end

$rem
JOBTYPE		SP
EXCHANGE	HF
CORRELATION	pRIMP2
BASIS		cc-pvtz
METHOD		rimp2
AUX_BASIS	rimp2-cc-pvtz
SOLVENT_METHOD	PCM
PURECART	11111
SYMMETRY	false
MEM_TOTAL	110000
SCF_CONVERGENCE = 6
THRESH=10
GUI = 2
$end



$solvent
dielectric 4.90
$end
--------------------------------------------------------------
 ----------------------------------------------------------------
             Standard Nuclear Orientation (Angstroms)
    I     Atom           X                Y                Z
 ----------------------------------------------------------------
    1      C      -0.2527670000    -6.7414040000     0.0460700000
    2      C      -1.5386560000    -6.1556380000     0.2729350000
    3      C       0.8149660000    -5.7914520000    -0.1417390000
    4      C      -1.8130420000    -4.8037860000     0.3210830000
    5      H      -2.4033180000    -6.8215180000     0.4255920000
    6      C       0.5275660000    -4.3786380000    -0.0917790000
    7      C      -0.7827690000    -3.8380320000     0.1389090000
    8      C       1.5566320000    -3.4130620000    -0.2738080000
    9      C      -1.0678680000    -2.4264730000     0.1884830000
   10      C       1.2854360000    -2.0593480000    -0.2266100000
   11      C       0.0000000000    -1.4782160000     0.0000000000
   12      H       2.1510190000    -1.3947830000    -0.3796570000
   13      C       2.2358910000    -6.1879870000    -0.3904200000
   14      C       2.9655400000    -3.7981640000    -0.5221250000
   15      N       3.2056000000    -5.1700030000    -0.5627310000
   16      C      -3.2257600000    -4.4249870000     0.5702440000
   17      C      -2.4896460000    -2.0366270000     0.4384070000
   18      N      -3.4596620000    -3.0491560000     0.6104380000
   19      O       2.6217680000    -7.3531310000    -0.4555630000
   20      O       3.8746080000    -2.9868540000    -0.6833730000
   21      O      -4.1240590000    -5.2489460000     0.7293670000
   22      O      -2.8965160000    -0.8788290000     0.5086970000
   23      C       4.5969100000    -5.5637990000    -0.8069960000
   24      H       4.6416400000    -6.6640850000    -0.8137170000
   25      H       5.2465670000    -5.1471010000    -0.0136550000
   26      H       4.9367390000    -5.1487850000    -1.7751590000
   27      C      -4.8297290000    -2.5874870000     0.8515720000
   28      H      -5.4623870000    -3.4833290000     0.9642040000
   29      H      -5.1739140000    -1.9649720000     0.0039560000
   30      H      -4.8633600000    -1.9629320000     1.7643900000
   31      H      -0.0695840000    -7.8223180000     0.0140940000
   32      C       0.0000000000     0.0000000000     0.0000000000
   33      S       0.1375350000     0.7811560000     1.5805300000
   34      C       0.4218950000     2.3939940000     0.9049110000
   35      C       0.1731340000     0.9828570000    -0.9854000000
   36      C       0.4022940000     2.2830580000    -0.4935280000
   37      H       0.1322370000     0.7507860000    -2.0599340000
   38      H       0.5551960000     3.1506210000    -1.1525930000
   39      H       0.5747410000     3.2613100000     1.5560250000
 ----------------------------------------------------------------
 Nuclear Repulsion Energy =        2491.07090112 hartrees
 There are       97 alpha and       97 beta electrons
 Requested basis set is cc-pVTZ
 There are 344 shells and 982 basis functions

 Total QAlloc Memory Limit 110000 MB
 Mega-Array Size       188 MB
 MEM_STATIC part       192 MB
 Discretize the solute cavity surface with Lebedev spheres
	Using 110 Lebedev grid points for each H atom
	Using 194 Lebedev grid points for other atoms
	Atomic van der Waals radii will be scaled by 1.20
 Remove points where switching function is < 1.0e-08
 Keep 2601 surface tesserae and discard 3957 interior tesserae
 Molecular Surface Area = 370.702 Angst**2
 Requested basis set is rimp2-cc-pVTZ
 There are 750 shells and 2588 basis functions
 A cutoff of  1.0D-10 yielded  31502 shell pairs
 There are    242356 function pairs (    314941 Cartesian)
 Smallest overlap matrix eigenvalue = 9.33E-06

 Q-Chem warning in module stvman/mkSTV.C, line 323:

 Overlap eigenvalue is smaller than square root of threshold
 Use THRESH >= 12 to get rid of this warning


 Scale SEOQF with 1.000000e-02/1.000000e-02/1.000000e-01

 Standard Electronic Orientation quadrupole field applied
 Nucleus-field energy     =     0.0000000163 hartrees
 Guess from superposition of atomic densities
 Warning:  Energy on first SCF cycle will be non-variational
 SAD guess density has 194.000000 electrons

 -----------------------------------------------------------------------
  General SCF calculation program by
  Eric Jon Sundstrom, Paul Horn, Yuezhi Mao, Dmitri Zuev, Alec White,
  David Stuck, Shaama M.S., Shane Yost, Joonho Lee, David Small,
  Daniel Levine, Susi Lehtola, Hugh Burton, Evgeny Epifanovsky,
  Bang C. Huynh
 -----------------------------------------------------------------------
 Hartree-Fock
 using 64 threads for integral computing
 -------------------------------------------------------
 OpenMP Integral computing Module                
 Release: version 1.0, May 2013, Q-Chem Inc. Pittsburgh 
 -------------------------------------------------------
 A restricted SCF calculation will be
 performed using DIIS
 SCF converges when DIIS error is below 1.0e-06
 ---------------------------------------
  Cycle       Energy         DIIS error
 ---------------------------------------
    1   -1581.2735842720      1.87e-02  
    2   -1570.1177571510      2.10e-03  
    3   -1570.4443364936      1.63e-03  
    4   -1570.6766032023      2.56e-04  
    5   -1570.6885372132      7.50e-05  
    6   -1570.6895645071      2.77e-05  
    7   -1570.6897933423      1.43e-05  
    8   -1570.6898661347      5.84e-06  
    9   -1570.6898773655      2.28e-06  
   10   -1570.6898792312      7.00e-07  Convergence criterion met
 ---------------------------------------
 SCF time:   CPU 5830.79s  wall 229.00s 

************** Final PCM Free Energy Summary **************
 G_electrostatic  =      -0.02539737 hartree =     -15.93709010 kcal/mol
 G_cavitation     =       0.00000000 hartree =       0.00000000 kcal/mol
 G_dispersion     =       0.00000000 hartree =       0.00000000 kcal/mol
 G_repulsion      =       0.00000000 hartree =       0.00000000 kcal/mol
 --------------------------------------------------
 Non-electrostatic Free Energy =       0.00000000 hartree =       0.00000000 kcal/mol
 Total                         =      -0.02539737 hartree =     -15.93709010 kcal/mol
 --------------------------------------------------
 SCF Energy (H0 + V/2)                       =   -1570.68987923 
 Solute Internal Energy (H0)                 =   -1570.66448186 
 Total Free Energy (H0 + V/2 + non-elec)     =   -1570.68987923 hartree
                                             = -985622.77522145 kcal/mol
***********************************************************

 SCF   energy in the final basis set =    -1570.6898792312
 Total energy in the final basis set =    -1570.6898792312


 --------------------------------------------------------------
  Generalized many-body perturbation theory program
  by Joonho Lee, Fazle Rob, Xintian Feng, Evgeny Epifanovsky

 No regularization used 
 (reg. param. = 0.0000e+00)
  (P|Q)^-1/2 Time:  CPU 434.09 s  wall 7.22 s

 In RI-MP2 calculation: 
 # of frozen core orbitals: 31

 Components of the RIMP2 correlation energy:
        aaaa    correlation energy =        -0.6159419248 a.u.
        abab    correlation energy =        -3.3916025087 a.u.
        bbbb    correlation energy =        -0.6159419248 a.u.
        non-Brillouin singles      =        -0.0000000000 a.u.
        total same-spin energy     =        -1.2318838495 a.u.
        total opposite-spin energy =        -3.3916025087 a.u.

 Total  RIMP2   correlation energy =        -4.6234863582 a.u.
        RIMP2         total energy =     -1575.3133655894 a.u.

 RI-MP2 Energy Time:  CPU 2693.27 s  wall 44.06 s
 
 --------------------------------------------------------------
 
                    Orbital Energies (a.u.)
 --------------------------------------------------------------
 
 Alpha MOs
 -- Occupied --
-91.9915 -20.5589 -20.5579 -20.5565 -20.5559 -15.6316 -15.6316 -11.4006
-11.3978 -11.3935 -11.3910 -11.3164 -11.3085 -11.3035 -11.3018 -11.3002
-11.2997 -11.2943 -11.2877 -11.2866 -11.2813 -11.2804 -11.2796 -11.2649
-11.2648 -11.2552 -11.2501  -8.9907  -6.6715  -6.6710  -6.6704  -1.4253
 -1.4249  -1.4045  -1.4040  -1.2682  -1.2659  -1.2187  -1.1751  -1.1447
 -1.1187  -1.0639  -1.0510  -0.9937  -0.9898  -0.9829  -0.9597  -0.9488
 -0.8980  -0.8802  -0.8787  -0.8616  -0.7961  -0.7780  -0.7737  -0.7601
 -0.7367  -0.7196  -0.7056  -0.6955  -0.6817  -0.6739  -0.6669  -0.6627
 -0.6577  -0.6428  -0.6383  -0.6346  -0.6308  -0.6132  -0.5855  -0.5850
 -0.5785  -0.5730  -0.5667  -0.5646  -0.5629  -0.5556  -0.5534  -0.5489
 -0.5342  -0.5268  -0.5201  -0.5174  -0.4840  -0.4715  -0.4673  -0.4612
 -0.4598  -0.4541  -0.4288  -0.4186  -0.4094  -0.3573  -0.3492  -0.3349
 -0.3231
 -- Virtual --
 -0.0200   0.0640   0.0722   0.0958   0.1141   0.1552   0.1578   0.1588
  0.1650   0.1669   0.1768   0.1829   0.1855   0.1935   0.2011   0.2065
  0.2112   0.2228   0.2274   0.2293   0.2313   0.2381   0.2583   0.2609
  0.2636   0.2998   0.3072   0.3137   0.3161   0.3199   0.3231   0.3336
  0.3395   0.3432   0.3511   0.3575   0.3588   0.3624   0.3700   0.3739
  0.3775   0.3828   0.3860   0.3922   0.3967   0.4026   0.4055   0.4097
  0.4121   0.4238   0.4293   0.4352   0.4423   0.4448   0.4508   0.4537
  0.4586   0.4605   0.4634   0.4666   0.4699   0.4800   0.4823   0.4906
  0.4948   0.4993   0.5034   0.5092   0.5142   0.5243   0.5272   0.5289
  0.5341   0.5391   0.5479   0.5505   0.5522   0.5555   0.5601   0.5645
  0.5687   0.5702   0.5771   0.5816   0.5905   0.5919   0.5969   0.5987
  0.6003   0.6026   0.6120   0.6147   0.6202   0.6235   0.6289   0.6304
  0.6336   0.6342   0.6348   0.6399   0.6441   0.6451   0.6537   0.6612
  0.6676   0.6716   0.6888   0.6933   0.6998   0.7039   0.7070   0.7124
  0.7279   0.7284   0.7322   0.7386   0.7500   0.7557   0.7592   0.7610
  0.7666   0.7720   0.7776   0.7867   0.7950   0.8030   0.8047   0.8102
  0.8118   0.8248   0.8343   0.8372   0.8406   0.8456   0.8486   0.8541
  0.8626   0.8629   0.8670   0.8753   0.8836   0.8881   0.8969   0.8999
  0.9069   0.9153   0.9166   0.9260   0.9314   0.9328   0.9354   0.9447
  0.9476   0.9524   0.9593   0.9647   0.9700   0.9744   0.9784   0.9844
  0.9895   0.9988   0.9989   1.0027   1.0106   1.0116   1.0236   1.0268
  1.0288   1.0336   1.0385   1.0458   1.0566   1.0639   1.0683   1.0721
  1.0765   1.0804   1.0835   1.0891   1.0927   1.0966   1.1024   1.1093
  1.1187   1.1260   1.1318   1.1398   1.1452   1.1467   1.1537   1.1564
  1.1578   1.1642   1.1707   1.1748   1.1764   1.1862   1.1889   1.1969
  1.2002   1.2122   1.2150   1.2172   1.2223   1.2299   1.2337   1.2353
  1.2400   1.2480   1.2504   1.2545   1.2615   1.2716   1.2901   1.2985
  1.3049   1.3230   1.3272   1.3337   1.3403   1.3422   1.3444   1.3598
  1.3670   1.3726   1.3809   1.3839   1.3842   1.3972   1.4075   1.4138
  1.4214   1.4267   1.4350   1.4407   1.4496   1.4507   1.4600   1.4697
  1.4822   1.4836   1.4875   1.4918   1.5023   1.5029   1.5111   1.5141
  1.5192   1.5296   1.5357   1.5430   1.5479   1.5538   1.5584   1.5620
  1.5651   1.5768   1.5785   1.5860   1.6033   1.6072   1.6137   1.6286
  1.6343   1.6414   1.6517   1.6601   1.6617   1.6693   1.6781   1.6880
  1.6947   1.7072   1.7126   1.7160   1.7280   1.7364   1.7414   1.7474
  1.7509   1.7578   1.7688   1.7736   1.7855   1.7963   1.8018   1.8078
  1.8111   1.8291   1.8343   1.8410   1.8516   1.8560   1.8591   1.8630
  1.8632   1.8787   1.8963   1.9114   1.9188   1.9222   1.9375   1.9406
  1.9625   1.9675   1.9707   1.9760   1.9798   2.0009   2.0134   2.0329
  2.0371   2.0520   2.0629   2.0712   2.0789   2.1114   2.1186   2.1322
  2.1436   2.1546   2.1580   2.1652   2.1940   2.2035   2.2103   2.2197
  2.2254   2.2332   2.2535   2.2609   2.2840   2.2872   2.2893   2.2966
  2.3135   2.3171   2.3261   2.3377   2.3505   2.3612   2.3660   2.3933
  2.4013   2.4244   2.4307   2.4359   2.4455   2.4512   2.4558   2.4589
  2.4760   2.4842   2.4886   2.4979   2.5086   2.5167   2.5226   2.5352
  2.5462   2.5611   2.5714   2.5804   2.5828   2.5890   2.6002   2.6014
  2.6138   2.6145   2.6196   2.6429   2.6475   2.6538   2.6632   2.6655
  2.6724   2.6817   2.6884   2.6928   2.7098   2.7106   2.7127   2.7213
  2.7330   2.7368   2.7432   2.7511   2.7574   2.7667   2.7772   2.7890
  2.7898   2.8120   2.8253   2.8280   2.8348   2.8370   2.8456   2.8564
  2.8609   2.8661   2.8691   2.8771   2.8885   2.8924   2.9013   2.9102
  2.9117   2.9197   2.9242   2.9300   2.9485   2.9511   2.9557   2.9705
  2.9737   2.9806   2.9851   2.9973   3.0012   3.0036   3.0047   3.0164
  3.0204   3.0281   3.0343   3.0397   3.0469   3.0623   3.0708   3.0722
  3.0871   3.0897   3.0937   3.1005   3.1070   3.1113   3.1177   3.1258
  3.1272   3.1401   3.1427   3.1536   3.1609   3.1688   3.1713   3.1776
  3.1872   3.1978   3.1998   3.2060   3.2122   3.2136   3.2165   3.2187
  3.2276   3.2298   3.2308   3.2385   3.2401   3.2500   3.2533   3.2606
  3.2664   3.2673   3.2791   3.2813   3.2850   3.2886   3.2940   3.2981
  3.3054   3.3095   3.3179   3.3198   3.3228   3.3293   3.3304   3.3343
  3.3402   3.3417   3.3435   3.3541   3.3567   3.3598   3.3672   3.3703
  3.3763   3.3790   3.3853   3.3898   3.3969   3.4033   3.4152   3.4191
  3.4264   3.4281   3.4308   3.4372   3.4419   3.4468   3.4495   3.4546
  3.4574   3.4611   3.4721   3.4744   3.4770   3.4820   3.4850   3.4930
  3.4967   3.4998   3.5031   3.5066   3.5090   3.5165   3.5205   3.5329
  3.5347   3.5382   3.5401   3.5467   3.5552   3.5680   3.5725   3.5811
  3.5848   3.5887   3.5983   3.6018   3.6095   3.6110   3.6258   3.6290
  3.6327   3.6363   3.6405   3.6429   3.6508   3.6628   3.6736   3.6782
  3.6862   3.6917   3.6983   3.7010   3.7045   3.7128   3.7158   3.7202
  3.7249   3.7303   3.7333   3.7424   3.7444   3.7528   3.7573   3.7648
  3.7680   3.7741   3.7807   3.7865   3.7885   3.7930   3.7963   3.8031
  3.8040   3.8083   3.8255   3.8308   3.8362   3.8464   3.8529   3.8545
  3.8577   3.8704   3.8760   3.8804   3.8945   3.9008   3.9073   3.9143
  3.9292   3.9316   3.9376   3.9455   3.9496   3.9526   3.9629   3.9699
  3.9867   3.9896   3.9966   4.0049   4.0084   4.0199   4.0236   4.0325
  4.0523   4.0608   4.0664   4.0812   4.0861   4.0958   4.0988   4.1068
  4.1207   4.1215   4.1300   4.1368   4.1450   4.1554   4.1625   4.1672
  4.1816   4.1824   4.1899   4.1943   4.1981   4.2113   4.2190   4.2349
  4.2453   4.2520   4.2573   4.2618   4.2695   4.2778   4.2807   4.2874
  4.2934   4.2951   4.3007   4.3066   4.3128   4.3283   4.3307   4.3355
  4.3412   4.3506   4.3630   4.3653   4.3665   4.3690   4.3725   4.3795
  4.3895   4.3994   4.3998   4.4017   4.4074   4.4198   4.4244   4.4275
  4.4449   4.4643   4.4655   4.4812   4.4935   4.5072   4.5149   4.5165
  4.5198   4.5269   4.5312   4.5341   4.5401   4.5515   4.5676   4.5696
  4.5751   4.5799   4.5846   4.5899   4.6036   4.6085   4.6253   4.6294
  4.6421   4.6611   4.6624   4.6673   4.6706   4.6778   4.6861   4.6936
  4.7098   4.7222   4.7301   4.7402   4.7533   4.7598   4.7699   4.7962
  4.8188   4.8246   4.8342   4.8406   4.8463   4.8556   4.8640   4.8686
  4.8824   4.8924   4.9035   4.9198   4.9316   4.9590   4.9774   4.9808
  4.9858   4.9943   5.0184   5.0317   5.0419   5.0493   5.0513   5.0573
  5.0951   5.1018   5.1041   5.1117   5.1227   5.1242   5.1406   5.1472
  5.1659   5.1774   5.1859   5.1905   5.1976   5.2126   5.2323   5.2555
  5.2587   5.2679   5.2780   5.2928   5.3211   5.3278   5.3317   5.3415
  5.3453   5.3856   5.3954   5.4015   5.4154   5.4294   5.4395   5.4451
  5.4915   5.5054   5.5065   5.5084   5.5122   5.5209   5.5448   5.5538
  5.5549   5.5598   5.5713   5.5730   5.5771   5.5884   5.6013   5.6051
  5.6215   5.6297   5.6499   5.6521   5.6538   5.6735   5.6763   5.6871
  5.6939   5.6997   5.7299   5.7369   5.7485   5.7564   5.7591   5.7684
  5.7738   5.7748   5.8123   5.8251   5.8398   5.8492   5.8831   5.9222
  5.9401   5.9564   6.0018   6.0123   6.0209   6.0251   6.0281   6.0480
  6.0851   6.0997   6.1007   6.1112   6.1155   6.1578   6.1910   6.2057
  6.2170   6.2175   6.2203   6.2520   6.2601   6.2673   6.2979   6.3385
  6.3496   6.3885   6.4297   6.4430   6.4641   6.5204   6.5615   6.5678
  6.5859   6.5952   6.6374   6.6467   6.6582   6.6643   6.7046   6.8270
  6.8304   6.8770   6.8856   6.8925   6.9107   6.9204   6.9217   7.0766
  7.0958   7.1377   7.1815   7.1859   7.2257   7.3319   7.3394   7.3438
  7.3494   7.4647   7.5416   7.5558   7.5700   7.5723   7.5838   7.6325
  7.6611   7.6783   7.7194   8.3109   9.8810  10.2741  11.1119  11.2447
 11.6335  11.7201  11.9448  12.3533  12.4540  12.7090  12.8449  12.8736
 13.2695  13.5546  13.8035  13.9255  14.0076  14.1125  14.1902  14.3390
 14.4052  14.7166  15.3016  15.7214  16.0006
 --------------------------------------------------------------
 
          Ground-State Mulliken Net Atomic Charges

     Atom                 Charge (a.u.)
  ----------------------------------------
      1 C                    -0.128886
      2 C                    -0.108326
      3 C                    -0.044406
      4 C                     0.000493
      5 H                     0.189135
      6 C                     0.000338
      7 C                     0.072025
      8 C                     0.002885
      9 C                    -0.010399
     10 C                    -0.101358
     11 C                     0.025485
     12 H                     0.185354
     13 C                     0.360990
     14 C                     0.366499
     15 N                    -0.101909
     16 C                     0.360128
     17 C                     0.353499
     18 N                    -0.098525
     19 O                    -0.464660
     20 O                    -0.476267
     21 O                    -0.479258
     22 O                    -0.457056
     23 C                    -0.201025
     24 H                     0.141144
     25 H                     0.112646
     26 H                     0.112375
     27 C                    -0.195673
     28 H                     0.133695
     29 H                     0.113390
     30 H                     0.113700
     31 H                     0.214839
     32 C                    -0.014648
     33 S                     0.032902
     34 C                    -0.213451
     35 C                    -0.190302
     36 C                    -0.197709
     37 H                     0.189789
     38 H                     0.191804
     39 H                     0.210742
  ----------------------------------------
  Sum of atomic charges =     0.000000

 -----------------------------------------------------------------
                    Cartesian Multipole Moments
 -----------------------------------------------------------------
    Charge (ESU x 10^10)
                 0.0000
    Dipole Moment (Debye)
         X       0.2610      Y       0.5926      Z      -0.9069
       Tot       1.1143
    Quadrupole Moments (Debye-Ang)
        XX    -183.2699     XY       3.1491     YY    -163.6450
        XZ       3.4785     YZ       0.5221     ZZ    -158.1203
    Octopole Moments (Debye-Ang^2)
       XXX      27.3100    XXY     542.2369    XYY       6.0034
       YYY    1576.4705    XXZ     -20.9524    XYZ     -12.4555
       YYZ     -11.6922    XZZ       9.8086    YZZ     480.5694
       ZZZ     -63.4157
    Hexadecapole Moments (Debye-Ang^3)
      XXXX   -6008.2977   XXXY     -40.5555   XXYY   -4189.7687
      XYYY     772.5322   YYYY  -17041.2908   XXXZ     526.6147
      XXYZ      23.9451   XYYZ     265.0628   YYYZ    -161.0822
      XXZZ   -1073.8457   XYZZ      98.2512   YYZZ   -2740.0145
      XZZZ     479.6228   YZZZ     -99.3261   ZZZZ    -631.0309
 -----------------------------------------------------------------
 Total job time:  277.34s(wall), 8657.03s(cpu) 
 Wed Sep 20 10:07:57 2023

        *************************************************************
        *                                                           *
        *  Thank you very much for using Q-Chem.  Have a nice day.  *
        *                                                           *
        *************************************************************


0 sent ACK to 0 
now end server 0 ... 
cleanup process ... done
remove work dirs ./qchem3575105.0 -- ./qchem3575105.0
rm -rf ./qchem3575105.0
rm -rf ./qchem3575105
