You are running Q-Chem version: 5.4.0

#
# job setting
#
local host:  exp-2-15
current dir: /expanse/lustre/projects/csd626/rramji/aromodel/PNDIT/Rotation_Test
input file:  Dimethyl_Naphthalene_Dicarboximide_Phi_40_Theta_250_Thiophene.qcin
output file: 
nprocs     : 1
nthreads   : 64
#
# qchem installation setting
#
QC:          /cm/shared/apps/spack/cpu/opt/spack/linux-centos8-zen2/gcc-10.2.0/qchem-5.4-akfmr7b3t57bfs6qan3padb2wnb2i7cl
QCAUX:       /cm/shared/apps/spack/cpu/opt/spack/linux-centos8-zen2/gcc-10.2.0/qchem-5.4-akfmr7b3t57bfs6qan3padb2wnb2i7cl/qcaux
QCPROG:      /cm/shared/apps/spack/cpu/opt/spack/linux-centos8-zen2/gcc-10.2.0/qchem-5.4-akfmr7b3t57bfs6qan3padb2wnb2i7cl/exe/qcprog.exe
QCPROG_S:    /cm/shared/apps/spack/cpu/opt/spack/linux-centos8-zen2/gcc-10.2.0/qchem-5.4-akfmr7b3t57bfs6qan3padb2wnb2i7cl/exe/qcprog.exe_s
PARALLEL:    -DPARALLEL
QCMPI:       mpich
#
# qchem directory setting
#
qcrun:       qchem1965332
QCSCRATCH:   .
QCLOCALSCR:  
QCTMPDIR:    .
QCFILEPREF:  ./qchem1965332
QCSAVEDIR:   
workdirs:    ./qchem1965332
workdir0:    ./qchem1965332
partmpdirs =  
#
# parallel setting
#
QCRSH:           ssh
QCMPI:           mpich
QCMPIRUN:        /cm/shared/apps/spack/cpu/opt/spack/linux-centos8-zen2/gcc-10.2.0/qchem-5.4-akfmr7b3t57bfs6qan3padb2wnb2i7cl/bin/mpi/mpirun_qchem
QCMACHINEFILE:   ./qchem1965332/hostfile
exp-2-15

#
# env setting
#
exported envs:   QC QCAUX QCSCRATCH QCRUNNAME QCFILEPREF QCPROG QCPROG_S GUIFILE

Running Job 1 of 1 Dimethyl_Naphthalene_Dicarboximide_Phi_40_Theta_250_Thiophene.qcin
qchem Dimethyl_Naphthalene_Dicarboximide_Phi_40_Theta_250_Thiophene.qcin_1965332.0 ./qchem1965332/ 1
/cm/shared/apps/spack/cpu/opt/spack/linux-centos8-zen2/gcc-10.2.0/qchem-5.4-akfmr7b3t57bfs6qan3padb2wnb2i7cl/bin/mpi/mpirun_qchem -machinefile ./qchem1965332/hostfile -np 1 /cm/shared/apps/spack/cpu/opt/spack/linux-centos8-zen2/gcc-10.2.0/qchem-5.4-akfmr7b3t57bfs6qan3padb2wnb2i7cl/exe/qcprog.exe Dimethyl_Naphthalene_Dicarboximide_Phi_40_Theta_250_Thiophene.qcin_1965332.0 ./qchem1965332/

Process 0 of 1 is on exp-2-15 - thread support 0
initial socket setup ...start
initial socket setup ...done 
now start server 0 ... 
                  Welcome to Q-Chem
     A Quantum Leap Into The Future Of Chemistry


 Q-Chem 5.4, Q-Chem, Inc., Pleasanton, CA (2021)

 License issued to: University of California, San Diego (site)

 E. Epifanovsky,  A. T. B. Gilbert,  Xintian Feng,  Joonho Lee,  Yuezhi Mao,  
 N. Mardirossian,  P. Pokhilko,  A. White,  M. Wormit,  M. P. Coons,  
 A. L. Dempwolff,  Zhengting Gan,  D. Hait,  P. R. Horn,  L. D. Jacobson,  
 I. Kaliman,  J. Kussmann,  A. W. Lange,  Ka Un Lao,  D. S. Levine,  Jie Liu,  
 S. C. McKenzie,  A. F. Morrison,  K. Nanda,  F. Plasser,  D. R. Rehn,  
 M. L. Vidal,  Zhi-Qiang You,  Ying Zhu,  B. Alam,  B. Albrecht,  
 A. Aldossary,  E. Alguire,  J. H. Andersen,  D. Barton,  K. Begam,  A. Behn,  
 Y. A. Bernard,  E. J. Berquist,  H. Burton,  A. Carreras,  K. Carter-Fenk,  
 R. Chakraborty,  A. D. Chien,  K. D. Closser,  V. Cofer-Shabica,  
 S. Dasgupta,  Jia Deng,  M. de Wergifosse,  M. Diedenhofen,  Hainam Do,  
 S. Ehlert,  Po-Tung Fang,  S. Fatehi,  Qingguo Feng,  J. Gayvert,  
 Qinghui Ge,  G. Gidofalvi,  M. Goldey,  J. Gomes,  C. Gonzalez-Espinoza,  
 S. Gulania,  A. Gunina,  M. W. D. Hanson-Heine,  P. H. P. Harbach,  
 A. W. Hauser,  M. F. Herbst,  M. Hernandez Vera,  M. Hodecker,  
 Z. C. Holden,  S. Houck,  Xunkun Huang,  Kerwin Hui,  B. C. Huynh,  
 M. Ivanov,  Hyunjun Ji,  Hanjie Jiang,  B. Kaduk,  S. Kaehler,  
 K. Khistyaev,  Jaehoon Kim,  P. Klunzinger,  Z. Koczor-Benda,  
 Joong Hoon Koh,  D. Kosenkov,  L. Koulias,  T. Kowalczyk,  C. M. Krauter,  
 K. Kue,  A. Kunitsa,  T. Kus,  A. Landau,  K. V. Lawler,  D. Lefrancois,  
 S. Lehtola,  Rain Li,  Yi-Pei Li,  Jiashu Liang,  M. Liebenthal,  
 Hung-Hsuan Lin,  You-Sheng Lin,  Fenglai Liu,  Kuan-Yu Liu,  
 M. Loipersberger,  A. Luenser,  A. Manjanath,  P. Manohar,  E. Mansoor,  
 S. F. Manzer,  Shan-Ping Mao,  A. V. Marenich,  T. Markovich,  S. Mason,  
 S. A. Maurer,  P. F. McLaughlin,  M. F. S. J. Menger,  J.-M. Mewes,  
 S. A. Mewes,  P. Morgante,  J. W. Mullinax,  T. S. Nguyen-Beck,  
 K. J. Oosterbaan,  G. Paran,  Alexander C. Paul,  Suranjan K. Paul,  
 F. Pavosevic,  Zheng Pei,  S. Prager,  E. I. Proynov,  E. Ramos,  B. Rana,  
 A. E. Rask,  A. Rettig,  R. M. Richard,  F. Rob,  E. Rossomme,  T. Scheele,  
 M. Scheurer,  M. Schneider,  N. Sergueev,  S. M. Sharada,  W. Skomorowski,  
 D. W. Small,  C. J. Stein,  Yu-Chuan Su,  E. J. Sundstrom,  Zhen Tao,  
 J. Thirman,  T. Tsuchimochi,  N. M. Tubman,  S. P. Veccham,  O. Vydrov,  
 J. Wenzel,  J. Witte,  A. Yamada,  Kun Yao,  S. Yeganeh,  S. R. Yost,  
 A. Zech,  Igor Ying Zhang,  Xing Zhang,  Yu Zhang,  D. Zuev,  
 A. Aspuru-Guzik,  A. T. Bell,  N. A. Besley,  K. B. Bravaya,  B. R. Brooks,  
 D. Casanova,  Jeng-Da Chai,  S. Coriani,  C. J. Cramer,  
 A. E. DePrince, III,  R. A. DiStasio Jr.,  A. Dreuw,  B. D. Dunietz,  
 T. R. Furlani,  W. A. Goddard III,  S. Grimme,  S. Hammes-Schiffer,  
 T. Head-Gordon,  W. J. Hehre,  Chao-Ping Hsu,  T.-C. Jagau,  Yousung Jung,  
 A. Klamt,  Jing Kong,  D. S. Lambrecht,  WanZhen Liang,  N. J. Mayhall,  
 C. W. McCurdy,  J. B. Neaton,  C. Ochsenfeld,  J. A. Parkhill,  R. Peverati,  
 V. A. Rassolov,  Yihan Shao,  L. V. Slipchenko,  T. Stauch,  R. P. Steele,  
 J. E. Subotnik,  A. J. W. Thom,  A. Tkatchenko,  D. G. Truhlar,  
 T. Van Voorhis,  T. A. Wesolowski,  K. B. Whaley,  H. L. Woodcock III,  
 P. M. Zimmerman,  S. Faraji,  P. M. W. Gill,  M. Head-Gordon,  
 J. M. Herbert,  A. I. Krylov

 Contributors to earlier versions of Q-Chem not listed above: 
 R. D. Adamson,  B. Austin,  R. Baer,  J. Baker,  G. J. O. Beran,  
 K. Brandhorst,  S. T. Brown,  E. F. C. Byrd,  A. K. Chakraborty,  
 G. K. L. Chan,  Chun-Min Chang,  Yunqing Chen,  C.-L. Cheng,  
 Siu Hung Chien,  D. M. Chipman,  D. L. Crittenden,  H. Dachsel,  
 R. J. Doerksen,  A. D. Dutoi,  R. G. Edgar,  J. Fosso-Tande,  
 L. Fusti-Molnar,  D. Ghosh,  A. Ghysels,  A. Golubeva-Zadorozhnaya,  
 J. Gonthier,  M. S. Gordon,  S. R. Gwaltney,  G. Hawkins,  J. E. Herr,  
 A. Heyden,  S. Hirata,  E. G. Hohenstein,  G. Kedziora,  F. J. Keil,  
 C. Kelley,  Jihan Kim,  R. A. King,  R. Z. Khaliullin,  P. P. Korambath,  
 W. Kurlancheek,  A. Laurent,  A. M. Lee,  M. S. Lee,  S. V. Levchenko,  
 Ching Yeh Lin,  D. Liotard,  E. Livshits,  R. C. Lochan,  I. Lotan,  
 L. A. Martinez-Martinez,  P. E. Maslen,  N. Nair,  D. P. O'Neill,  
 D. Neuhauser,  E. Neuscamman,  C. M. Oana,  R. Olivares-Amaya,  R. Olson,  
 T. M. Perrine,  B. Peters,  P. A. Pieniazek,  A. Prociuk,  Y. M. Rhee,  
 J. Ritchie,  M. A. Rohrdanz,  E. Rosta,  N. J. Russ,  H. F. Schaefer III,  
 M. W. Schmidt,  N. E. Schultz,  S. Sharma,  N. Shenvi,  C. D. Sherrill,  
 A. C. Simmonett,  A. Sodt,  T. Stein,  D. Stuck,  K. S. Thanthiriwatte,  
 V. Vanovschi,  L. Vogt,  Tao Wang,  A. Warshel,  M. A. Watson,  
 C. F. Williams,  Q. Wu,  X. Xu,  Jun Yang,  W. Zhang,  Yan Zhao

 Please cite Q-Chem as follows:
 Y. Shao et al., Mol. Phys. 113, 184-215 (2015)
 DOI: 10.1080/00268976.2014.952696

 Q-Chem 5.4.0 for Intel X86 EM64T Linux

 Parts of Q-Chem use Armadillo 9.800.1 (Horizon Scraper).
 http://arma.sourceforge.net/

 Q-Chem begins on Wed Sep 20 09:59:42 2023  

 Host: 
0

     Scratch files written to ./qchem1965332//
 May1621 |scratch|qcdevops|jenkins|workspace|build_RNUM    
 Parallel job on  1  processors
 Processing $rem in /cm/shared/apps/spack/cpu/opt/spack/linux-centos8-zen2/gcc-10.2.0/qchem-5.4-akfmr7b3t57bfs6qan3padb2wnb2i7cl/config/preferences:
 Processing $rem in /home/rramji/.qchemrc:
 Symmetry turned off for PCM/SM12/SMD calculation
 Core orbitals will be frozen

 Checking the input file for inconsistencies... 	...done.

 Q-Chem warning in module forms1/BasisType.C, line 2236:

 You are not using the predefined 5D/6D in this basis set.


--------------------------------------------------------------
User input:
--------------------------------------------------------------
$molecule
0 1
C	-0.240927	-6.741404	0.089263
C	-1.467886	-6.155638	0.535973
C	0.777972	-5.791452	-0.281103
C	-1.729742	-4.803786	0.631036
H	-2.292903	-6.821518	0.836458
C	0.503614	-4.378638	-0.181995
C	-0.746756	-3.838032	0.272725
C	1.485437	-3.413062	-0.539954
C	-1.018915	-2.426473	0.371053
C	1.226557	-2.059348	-0.446381
C	0.000000	-1.478216	0.000000
H	2.052413	-1.394783	-0.747410
C	2.134128	-6.187987	-0.772747
C	2.829820	-3.798164	-1.029154
N	3.059182	-5.170003	-1.110828
C	-3.077731	-4.424987	1.121728
C	-2.375694	-2.036627	0.864069
N	-3.301101	-3.049156	1.201928
O	2.502830	-7.353131	-0.903908
O	3.697078	-2.986854	-1.345809
O	-3.934752	-5.248946	1.434422
O	-2.764177	-0.878829	1.003943
C	4.386939	-5.563799	-1.592981
H	4.429822	-6.664085	-1.607367
H	5.164489	-5.147101	-0.924504
H	4.553486	-5.148785	-2.605446
C	-4.608481	-2.587487	1.677308
H	-5.211969	-3.483329	1.898089
H	-5.094624	-1.964972	0.902337
H	-4.483092	-1.962932	2.582098
H	-0.066080	-7.822318	0.025963
C	0.000000	0.000000	0.000000
S	0.509686	0.607733	1.580530
C	1.562368	1.862312	0.904911
C	0.641367	0.764613	-0.985400
C	1.489926	1.776040	-0.493528
H	0.489914	0.584081	-2.059934
H	2.056124	2.450920	-1.152593
H	2.128395	2.537007	1.556025
$end

$rem
JOBTYPE		SP
EXCHANGE	HF
CORRELATION	pRIMP2
BASIS		cc-pvtz
METHOD		rimp2
AUX_BASIS	rimp2-cc-pvtz
SOLVENT_METHOD	PCM
PURECART	11111
SYMMETRY	false
MEM_TOTAL	110000
SCF_CONVERGENCE = 6
THRESH=10
GUI = 2
$end



$solvent
dielectric 4.90
$end
--------------------------------------------------------------
 ----------------------------------------------------------------
             Standard Nuclear Orientation (Angstroms)
    I     Atom           X                Y                Z
 ----------------------------------------------------------------
    1      C      -0.2409270000    -6.7414040000     0.0892630000
    2      C      -1.4678860000    -6.1556380000     0.5359730000
    3      C       0.7779720000    -5.7914520000    -0.2811030000
    4      C      -1.7297420000    -4.8037860000     0.6310360000
    5      H      -2.2929030000    -6.8215180000     0.8364580000
    6      C       0.5036140000    -4.3786380000    -0.1819950000
    7      C      -0.7467560000    -3.8380320000     0.2727250000
    8      C       1.4854370000    -3.4130620000    -0.5399540000
    9      C      -1.0189150000    -2.4264730000     0.3710530000
   10      C       1.2265570000    -2.0593480000    -0.4463810000
   11      C       0.0000000000    -1.4782160000     0.0000000000
   12      H       2.0524130000    -1.3947830000    -0.7474100000
   13      C       2.1341280000    -6.1879870000    -0.7727470000
   14      C       2.8298200000    -3.7981640000    -1.0291540000
   15      N       3.0591820000    -5.1700030000    -1.1108280000
   16      C      -3.0777310000    -4.4249870000     1.1217280000
   17      C      -2.3756940000    -2.0366270000     0.8640690000
   18      N      -3.3011010000    -3.0491560000     1.2019280000
   19      O       2.5028300000    -7.3531310000    -0.9039080000
   20      O       3.6970780000    -2.9868540000    -1.3458090000
   21      O      -3.9347520000    -5.2489460000     1.4344220000
   22      O      -2.7641770000    -0.8788290000     1.0039430000
   23      C       4.3869390000    -5.5637990000    -1.5929810000
   24      H       4.4298220000    -6.6640850000    -1.6073670000
   25      H       5.1644890000    -5.1471010000    -0.9245040000
   26      H       4.5534860000    -5.1487850000    -2.6054460000
   27      C      -4.6084810000    -2.5874870000     1.6773080000
   28      H      -5.2119690000    -3.4833290000     1.8980890000
   29      H      -5.0946240000    -1.9649720000     0.9023370000
   30      H      -4.4830920000    -1.9629320000     2.5820980000
   31      H      -0.0660800000    -7.8223180000     0.0259630000
   32      C       0.0000000000     0.0000000000     0.0000000000
   33      S       0.5096860000     0.6077330000     1.5805300000
   34      C       1.5623680000     1.8623120000     0.9049110000
   35      C       0.6413670000     0.7646130000    -0.9854000000
   36      C       1.4899260000     1.7760400000    -0.4935280000
   37      H       0.4899140000     0.5840810000    -2.0599340000
   38      H       2.0561240000     2.4509200000    -1.1525930000
   39      H       2.1283950000     2.5370070000     1.5560250000
 ----------------------------------------------------------------
 Nuclear Repulsion Energy =        2505.11434306 hartrees
 There are       97 alpha and       97 beta electrons
 Requested basis set is cc-pVTZ
 There are 344 shells and 982 basis functions

 Total QAlloc Memory Limit 110000 MB
 Mega-Array Size       188 MB
 MEM_STATIC part       192 MB
 Discretize the solute cavity surface with Lebedev spheres
	Using 110 Lebedev grid points for each H atom
	Using 194 Lebedev grid points for other atoms
	Atomic van der Waals radii will be scaled by 1.20
 Remove points where switching function is < 1.0e-08
 Keep 2539 surface tesserae and discard 4019 interior tesserae
 Molecular Surface Area = 368.464 Angst**2
 Requested basis set is rimp2-cc-pVTZ
 There are 750 shells and 2588 basis functions
 A cutoff of  1.0D-10 yielded  31770 shell pairs
 There are    244402 function pairs (    317504 Cartesian)
 Smallest overlap matrix eigenvalue = 9.09E-06

 Q-Chem warning in module stvman/mkSTV.C, line 323:

 Overlap eigenvalue is smaller than square root of threshold
 Use THRESH >= 12 to get rid of this warning


 Scale SEOQF with 1.000000e-01/1.000000e-02/1.000000e-01

 Standard Electronic Orientation quadrupole field applied
 Nucleus-field energy     =     0.0000000412 hartrees
 Guess from superposition of atomic densities
 Warning:  Energy on first SCF cycle will be non-variational
 SAD guess density has 194.000000 electrons

 -----------------------------------------------------------------------
  General SCF calculation program by
  Eric Jon Sundstrom, Paul Horn, Yuezhi Mao, Dmitri Zuev, Alec White,
  David Stuck, Shaama M.S., Shane Yost, Joonho Lee, David Small,
  Daniel Levine, Susi Lehtola, Hugh Burton, Evgeny Epifanovsky,
  Bang C. Huynh
 -----------------------------------------------------------------------
 Hartree-Fock
 using 64 threads for integral computing
 -------------------------------------------------------
 OpenMP Integral computing Module                
 Release: version 1.0, May 2013, Q-Chem Inc. Pittsburgh 
 -------------------------------------------------------
 A restricted SCF calculation will be
 performed using DIIS
 SCF converges when DIIS error is below 1.0e-06
 ---------------------------------------
  Cycle       Energy         DIIS error
 ---------------------------------------
    1   -1581.3232405970      1.87e-02  
    2   -1570.0993107599      2.09e-03  
    3   -1570.4252597570      1.62e-03  
    4   -1570.6541199084      2.57e-04  
    5   -1570.6662045931      7.59e-05  
    6   -1570.6672756666      2.83e-05  
    7   -1570.6675239112      1.44e-05  
    8   -1570.6676046380      6.27e-06  
    9   -1570.6676182767      2.39e-06  
   10   -1570.6676208341      8.82e-07  Convergence criterion met
 ---------------------------------------
 SCF time:   CPU 5854.06s  wall 225.00s 

************** Final PCM Free Energy Summary **************
 G_electrostatic  =      -0.02541565 hartree =     -15.94856355 kcal/mol
 G_cavitation     =       0.00000000 hartree =       0.00000000 kcal/mol
 G_dispersion     =       0.00000000 hartree =       0.00000000 kcal/mol
 G_repulsion      =       0.00000000 hartree =       0.00000000 kcal/mol
 --------------------------------------------------
 Non-electrostatic Free Energy =       0.00000000 hartree =       0.00000000 kcal/mol
 Total                         =      -0.02541565 hartree =     -15.94856355 kcal/mol
 --------------------------------------------------
 SCF Energy (H0 + V/2)                       =   -1570.66762083 
 Solute Internal Energy (H0)                 =   -1570.64220518 
 Total Free Energy (H0 + V/2 + non-elec)     =   -1570.66762083 hartree
                                             = -985608.80786646 kcal/mol
***********************************************************

 SCF   energy in the final basis set =    -1570.6676208341
 Total energy in the final basis set =    -1570.6676208341


 --------------------------------------------------------------
  Generalized many-body perturbation theory program
  by Joonho Lee, Fazle Rob, Xintian Feng, Evgeny Epifanovsky

 No regularization used 
 (reg. param. = 0.0000e+00)
  (P|Q)^-1/2 Time:  CPU 167.69 s  wall 3.07 s

 In RI-MP2 calculation: 
 # of frozen core orbitals: 31

 Components of the RIMP2 correlation energy:
        aaaa    correlation energy =        -0.6173490372 a.u.
        abab    correlation energy =        -3.3955802547 a.u.
        bbbb    correlation energy =        -0.6173490372 a.u.
        non-Brillouin singles      =        -0.0000000000 a.u.
        total same-spin energy     =        -1.2346980744 a.u.
        total opposite-spin energy =        -3.3955802547 a.u.

 Total  RIMP2   correlation energy =        -4.6302783291 a.u.
        RIMP2         total energy =     -1575.2978991633 a.u.

 RI-MP2 Energy Time:  CPU 1887.98 s  wall 32.33 s
 
 --------------------------------------------------------------
 
                    Orbital Energies (a.u.)
 --------------------------------------------------------------
 
 Alpha MOs
 -- Occupied --
-91.9942 -20.5584 -20.5560 -20.5559 -20.5544 -15.6311 -15.6301 -11.3999
-11.3957 -11.3919 -11.3904 -11.3157 -11.3021 -11.3013 -11.2992 -11.2970
-11.2968 -11.2918 -11.2851 -11.2850 -11.2849 -11.2795 -11.2765 -11.2646
-11.2640 -11.2626 -11.2534  -8.9936  -6.6743  -6.6738  -6.6732  -1.4247
 -1.4233  -1.4040  -1.4024  -1.2672  -1.2647  -1.2173  -1.1815  -1.1429
 -1.1165  -1.0626  -1.0489  -0.9925  -0.9915  -0.9883  -0.9587  -0.9470
 -0.8967  -0.8786  -0.8762  -0.8591  -0.7946  -0.7763  -0.7736  -0.7640
 -0.7349  -0.7181  -0.7061  -0.6941  -0.6818  -0.6742  -0.6660  -0.6618
 -0.6564  -0.6417  -0.6372  -0.6333  -0.6287  -0.6126  -0.5850  -0.5846
 -0.5775  -0.5761  -0.5672  -0.5639  -0.5632  -0.5550  -0.5529  -0.5480
 -0.5336  -0.5268  -0.5206  -0.5094  -0.4829  -0.4736  -0.4665  -0.4604
 -0.4585  -0.4530  -0.4276  -0.4179  -0.4080  -0.3658  -0.3455  -0.3358
 -0.3180
 -- Virtual --
 -0.0178   0.0625   0.0701   0.0815   0.1150   0.1525   0.1582   0.1592
  0.1656   0.1676   0.1766   0.1841   0.1877   0.1907   0.2069   0.2073
  0.2110   0.2229   0.2282   0.2292   0.2324   0.2388   0.2611   0.2616
  0.2648   0.2995   0.3125   0.3141   0.3158   0.3224   0.3253   0.3323
  0.3405   0.3444   0.3501   0.3560   0.3587   0.3608   0.3687   0.3751
  0.3771   0.3806   0.3862   0.3956   0.3990   0.4031   0.4062   0.4099
  0.4118   0.4248   0.4315   0.4361   0.4411   0.4436   0.4524   0.4554
  0.4570   0.4599   0.4679   0.4717   0.4753   0.4792   0.4831   0.4906
  0.4932   0.4975   0.5023   0.5123   0.5139   0.5201   0.5224   0.5297
  0.5320   0.5400   0.5481   0.5520   0.5549   0.5592   0.5636   0.5691
  0.5709   0.5729   0.5814   0.5835   0.5881   0.5950   0.5983   0.5990
  0.6029   0.6060   0.6079   0.6136   0.6220   0.6244   0.6259   0.6301
  0.6337   0.6353   0.6373   0.6393   0.6420   0.6510   0.6583   0.6645
  0.6732   0.6762   0.6870   0.6951   0.6986   0.7015   0.7133   0.7212
  0.7279   0.7347   0.7364   0.7402   0.7529   0.7567   0.7598   0.7628
  0.7653   0.7756   0.7852   0.7908   0.7919   0.7946   0.8010   0.8120
  0.8149   0.8245   0.8304   0.8349   0.8427   0.8481   0.8499   0.8526
  0.8654   0.8658   0.8705   0.8746   0.8835   0.8870   0.8932   0.8989
  0.9075   0.9148   0.9212   0.9255   0.9333   0.9358   0.9393   0.9428
  0.9517   0.9600   0.9628   0.9663   0.9725   0.9775   0.9794   0.9844
  0.9918   0.9988   1.0009   1.0062   1.0125   1.0155   1.0187   1.0254
  1.0342   1.0449   1.0482   1.0596   1.0610   1.0647   1.0711   1.0737
  1.0812   1.0828   1.0870   1.0899   1.0956   1.0974   1.1020   1.1098
  1.1207   1.1264   1.1289   1.1406   1.1443   1.1493   1.1537   1.1579
  1.1593   1.1669   1.1715   1.1761   1.1817   1.1853   1.1896   1.2015
  1.2049   1.2089   1.2133   1.2237   1.2256   1.2319   1.2366   1.2387
  1.2469   1.2514   1.2588   1.2646   1.2725   1.2825   1.2921   1.3050
  1.3095   1.3286   1.3306   1.3349   1.3417   1.3468   1.3502   1.3569
  1.3750   1.3805   1.3827   1.3854   1.3922   1.4008   1.4059   1.4175
  1.4229   1.4296   1.4340   1.4370   1.4452   1.4505   1.4581   1.4731
  1.4793   1.4844   1.4891   1.4926   1.4977   1.5103   1.5172   1.5257
  1.5277   1.5306   1.5342   1.5390   1.5492   1.5563   1.5636   1.5640
  1.5684   1.5697   1.5748   1.5855   1.5906   1.6084   1.6141   1.6292
  1.6332   1.6457   1.6526   1.6651   1.6737   1.6782   1.6802   1.6919
  1.6936   1.7039   1.7058   1.7121   1.7230   1.7346   1.7408   1.7427
  1.7518   1.7594   1.7717   1.7810   1.7903   1.7984   1.8052   1.8118
  1.8195   1.8306   1.8369   1.8446   1.8529   1.8590   1.8624   1.8650
  1.8715   1.8818   1.8836   1.9106   1.9152   1.9331   1.9366   1.9455
  1.9623   1.9657   1.9724   1.9749   1.9906   1.9954   2.0086   2.0252
  2.0356   2.0491   2.0569   2.0759   2.0923   2.1181   2.1239   2.1287
  2.1418   2.1497   2.1566   2.1748   2.1778   2.1919   2.2079   2.2215
  2.2256   2.2362   2.2495   2.2585   2.2768   2.2889   2.2918   2.2950
  2.3135   2.3193   2.3217   2.3312   2.3546   2.3573   2.3666   2.3823
  2.4067   2.4214   2.4316   2.4362   2.4507   2.4568   2.4602   2.4674
  2.4793   2.4850   2.4917   2.4948   2.5017   2.5118   2.5219   2.5497
  2.5624   2.5675   2.5773   2.5861   2.5902   2.5925   2.6042   2.6089
  2.6146   2.6194   2.6290   2.6458   2.6583   2.6617   2.6652   2.6685
  2.6801   2.6859   2.6952   2.6987   2.7043   2.7115   2.7138   2.7232
  2.7288   2.7471   2.7513   2.7559   2.7577   2.7645   2.7853   2.7932
  2.8031   2.8128   2.8284   2.8308   2.8413   2.8467   2.8525   2.8627
  2.8688   2.8738   2.8771   2.8834   2.8894   2.8986   2.9010   2.9030
  2.9205   2.9226   2.9270   2.9329   2.9483   2.9517   2.9547   2.9657
  2.9711   2.9805   2.9846   2.9912   3.0011   3.0065   3.0107   3.0139
  3.0260   3.0295   3.0398   3.0443   3.0515   3.0566   3.0614   3.0755
  3.0851   3.0905   3.0931   3.1012   3.1091   3.1130   3.1177   3.1205
  3.1280   3.1337   3.1495   3.1505   3.1568   3.1686   3.1745   3.1791
  3.1893   3.1938   3.1966   3.2049   3.2081   3.2117   3.2169   3.2243
  3.2282   3.2326   3.2399   3.2436   3.2468   3.2483   3.2549   3.2623
  3.2651   3.2667   3.2778   3.2833   3.2872   3.2895   3.2915   3.2979
  3.3032   3.3091   3.3125   3.3147   3.3221   3.3252   3.3318   3.3366
  3.3424   3.3434   3.3477   3.3563   3.3580   3.3622   3.3671   3.3696
  3.3756   3.3818   3.3835   3.3917   3.3981   3.4006   3.4063   3.4174
  3.4182   3.4327   3.4358   3.4369   3.4437   3.4451   3.4529   3.4539
  3.4582   3.4658   3.4692   3.4734   3.4801   3.4863   3.4879   3.4905
  3.4934   3.5012   3.5044   3.5097   3.5131   3.5166   3.5229   3.5332
  3.5393   3.5424   3.5475   3.5596   3.5637   3.5712   3.5750   3.5827
  3.5842   3.5954   3.6029   3.6106   3.6159   3.6233   3.6270   3.6276
  3.6339   3.6386   3.6403   3.6489   3.6581   3.6594   3.6711   3.6804
  3.6872   3.6914   3.6977   3.6990   3.7103   3.7160   3.7207   3.7249
  3.7313   3.7376   3.7383   3.7454   3.7546   3.7588   3.7602   3.7658
  3.7802   3.7825   3.7837   3.7898   3.7930   3.7958   3.8004   3.8071
  3.8146   3.8181   3.8343   3.8382   3.8413   3.8518   3.8566   3.8624
  3.8662   3.8705   3.8768   3.8849   3.8966   3.9085   3.9126   3.9258
  3.9307   3.9308   3.9402   3.9459   3.9501   3.9540   3.9613   3.9730
  3.9817   3.9987   4.0036   4.0101   4.0166   4.0182   4.0281   4.0510
  4.0527   4.0601   4.0675   4.0697   4.0784   4.0926   4.1006   4.1071
  4.1201   4.1255   4.1373   4.1428   4.1497   4.1573   4.1593   4.1729
  4.1814   4.1855   4.1920   4.2013   4.2069   4.2185   4.2315   4.2366
  4.2447   4.2536   4.2624   4.2696   4.2769   4.2795   4.2868   4.2904
  4.2959   4.3003   4.3067   4.3156   4.3239   4.3289   4.3326   4.3379
  4.3428   4.3473   4.3618   4.3662   4.3671   4.3685   4.3764   4.3807
  4.3868   4.3989   4.4022   4.4087   4.4107   4.4157   4.4264   4.4332
  4.4605   4.4610   4.4739   4.4804   4.4972   4.5061   4.5180   4.5208
  4.5211   4.5289   4.5324   4.5415   4.5454   4.5585   4.5698   4.5743
  4.5772   4.5802   4.5839   4.5899   4.6042   4.6150   4.6232   4.6282
  4.6419   4.6543   4.6588   4.6679   4.6730   4.6802   4.6843   4.6939
  4.7103   4.7324   4.7350   4.7396   4.7589   4.7664   4.7800   4.7923
  4.7975   4.8147   4.8353   4.8381   4.8459   4.8640   4.8697   4.8768
  4.8784   4.8958   4.9056   4.9111   4.9329   4.9389   4.9652   4.9704
  4.9950   5.0087   5.0210   5.0317   5.0421   5.0497   5.0517   5.0743
  5.0881   5.1051   5.1072   5.1172   5.1249   5.1320   5.1395   5.1460
  5.1644   5.1735   5.1762   5.1870   5.1969   5.2169   5.2378   5.2566
  5.2602   5.2771   5.2822   5.2930   5.3203   5.3272   5.3313   5.3351
  5.3661   5.3957   5.4028   5.4112   5.4152   5.4284   5.4320   5.4493
  5.4892   5.4960   5.5073   5.5088   5.5132   5.5254   5.5454   5.5553
  5.5601   5.5617   5.5707   5.5740   5.5776   5.5919   5.5992   5.6050
  5.6188   5.6340   5.6524   5.6544   5.6588   5.6723   5.6769   5.6876
  5.6937   5.7045   5.7283   5.7382   5.7420   5.7532   5.7587   5.7691
  5.7734   5.7767   5.8129   5.8264   5.8461   5.8642   5.8745   5.9085
  5.9380   5.9573   5.9820   5.9943   6.0218   6.0246   6.0289   6.0343
  6.0828   6.0896   6.1007   6.1152   6.1162   6.1559   6.1873   6.2064
  6.2174   6.2191   6.2209   6.2505   6.2650   6.2736   6.3004   6.3398
  6.3509   6.3829   6.3939   6.4453   6.4626   6.5237   6.5621   6.5692
  6.5713   6.5932   6.6110   6.6477   6.6595   6.6611   6.7064   6.8290
  6.8317   6.8792   6.8862   6.8937   6.9114   6.9228   6.9248   7.0779
  7.0986   7.1404   7.1830   7.1880   7.2273   7.3325   7.3408   7.3442
  7.3510   7.4670   7.5425   7.5577   7.5724   7.5738   7.5851   7.6338
  7.6699   7.6821   7.7214   8.3126   9.9604  10.2859  11.0662  11.1695
 11.6906  11.7716  12.1230  12.3745  12.4539  12.6114  12.8484  12.9045
 13.2777  13.5667  13.8102  13.9343  14.0357  14.0906  14.2004  14.3437
 14.4139  14.7286  15.3025  15.7378  16.0148
 --------------------------------------------------------------
 
          Ground-State Mulliken Net Atomic Charges

     Atom                 Charge (a.u.)
  ----------------------------------------
      1 C                    -0.135630
      2 C                    -0.110212
      3 C                    -0.038507
      4 C                     0.001824
      5 H                     0.188467
      6 C                    -0.003459
      7 C                     0.075675
      8 C                    -0.003258
      9 C                    -0.033643
     10 C                    -0.109109
     11 C                     0.029358
     12 H                     0.186990
     13 C                     0.359538
     14 C                     0.364383
     15 N                    -0.101419
     16 C                     0.357814
     17 C                     0.359443
     18 N                    -0.096844
     19 O                    -0.465079
     20 O                    -0.477652
     21 O                    -0.480845
     22 O                    -0.461801
     23 C                    -0.201389
     24 H                     0.141092
     25 H                     0.112430
     26 H                     0.112128
     27 C                    -0.196677
     28 H                     0.133393
     29 H                     0.113181
     30 H                     0.113088
     31 H                     0.213708
     32 C                    -0.011142
     33 S                     0.046164
     34 C                    -0.188734
     35 C                    -0.211418
     36 C                    -0.185067
     37 H                     0.194380
     38 H                     0.194866
     39 H                     0.213962
  ----------------------------------------
  Sum of atomic charges =     0.000000

 -----------------------------------------------------------------
                    Cartesian Multipole Moments
 -----------------------------------------------------------------
    Charge (ESU x 10^10)
                 0.0000
    Dipole Moment (Debye)
         X       1.7471      Y       1.2123      Z      -0.8932
       Tot       2.3065
    Quadrupole Moments (Debye-Ang)
        XX    -177.6267     XY       6.7920     YY    -170.6173
        XZ       7.3325     YZ       0.5008     ZZ    -159.5024
    Octopole Moments (Debye-Ang^2)
       XXX     -32.4718    XXY     563.9195    XYY      -5.5989
       YYY    1610.4753    XXZ     -21.5686    XYZ     -22.5186
       YYZ     -15.7079    XZZ      -6.5862    YZZ     496.9393
       ZZZ     -72.0168
    Hexadecapole Moments (Debye-Ang^3)
      XXXX   -5674.0672   XXXY     -70.9519   XXYY   -4028.3984
      XYYY     655.1404   YYYY  -17060.7519   XXXZ     977.9781
      XXYZ      65.5675   XYYZ     500.6634   YYYZ    -292.8576
      XXZZ   -1116.3008   XYZZ      48.6346   YYZZ   -2859.2091
      XZZZ     898.9513   YZZZ    -137.3401   ZZZZ   -1126.6188
 -----------------------------------------------------------------
 Total job time:  280.90s(wall), 7853.64s(cpu) 
 Wed Sep 20 10:04:23 2023

        *************************************************************
        *                                                           *
        *  Thank you very much for using Q-Chem.  Have a nice day.  *
        *                                                           *
        *************************************************************


0 sent ACK to 0 
now end server 0 ... 
cleanup process ... done
remove work dirs ./qchem1965332.0 -- ./qchem1965332.0
rm -rf ./qchem1965332.0
rm -rf ./qchem1965332
