You are running Q-Chem version: 5.4.0

#
# job setting
#
local host:  exp-3-38
current dir: /expanse/lustre/projects/csd626/rramji/aromodel/PNDIT/Rotation_Test
input file:  Dimethyl_Naphthalene_Dicarboximide_Phi_20_Theta_30_Thiophene.qcin
output file: 
nprocs     : 1
nthreads   : 64
#
# qchem installation setting
#
QC:          /cm/shared/apps/spack/cpu/opt/spack/linux-centos8-zen2/gcc-10.2.0/qchem-5.4-akfmr7b3t57bfs6qan3padb2wnb2i7cl
QCAUX:       /cm/shared/apps/spack/cpu/opt/spack/linux-centos8-zen2/gcc-10.2.0/qchem-5.4-akfmr7b3t57bfs6qan3padb2wnb2i7cl/qcaux
QCPROG:      /cm/shared/apps/spack/cpu/opt/spack/linux-centos8-zen2/gcc-10.2.0/qchem-5.4-akfmr7b3t57bfs6qan3padb2wnb2i7cl/exe/qcprog.exe
QCPROG_S:    /cm/shared/apps/spack/cpu/opt/spack/linux-centos8-zen2/gcc-10.2.0/qchem-5.4-akfmr7b3t57bfs6qan3padb2wnb2i7cl/exe/qcprog.exe_s
PARALLEL:    -DPARALLEL
QCMPI:       mpich
#
# qchem directory setting
#
qcrun:       qchem403373
QCSCRATCH:   .
QCLOCALSCR:  
QCTMPDIR:    .
QCFILEPREF:  ./qchem403373
QCSAVEDIR:   
workdirs:    ./qchem403373
workdir0:    ./qchem403373
partmpdirs =  
#
# parallel setting
#
QCRSH:           ssh
QCMPI:           mpich
QCMPIRUN:        /cm/shared/apps/spack/cpu/opt/spack/linux-centos8-zen2/gcc-10.2.0/qchem-5.4-akfmr7b3t57bfs6qan3padb2wnb2i7cl/bin/mpi/mpirun_qchem
QCMACHINEFILE:   ./qchem403373/hostfile
exp-3-38

#
# env setting
#
exported envs:   QC QCAUX QCSCRATCH QCRUNNAME QCFILEPREF QCPROG QCPROG_S GUIFILE

Running Job 1 of 1 Dimethyl_Naphthalene_Dicarboximide_Phi_20_Theta_30_Thiophene.qcin
qchem Dimethyl_Naphthalene_Dicarboximide_Phi_20_Theta_30_Thiophene.qcin_403373.0 ./qchem403373/ 1
/cm/shared/apps/spack/cpu/opt/spack/linux-centos8-zen2/gcc-10.2.0/qchem-5.4-akfmr7b3t57bfs6qan3padb2wnb2i7cl/bin/mpi/mpirun_qchem -machinefile ./qchem403373/hostfile -np 1 /cm/shared/apps/spack/cpu/opt/spack/linux-centos8-zen2/gcc-10.2.0/qchem-5.4-akfmr7b3t57bfs6qan3padb2wnb2i7cl/exe/qcprog.exe Dimethyl_Naphthalene_Dicarboximide_Phi_20_Theta_30_Thiophene.qcin_403373.0 ./qchem403373/

Process 0 of 1 is on exp-3-38 - thread support 0
initial socket setup ...start
initial socket setup ...done 
now start server 0 ... 
                  Welcome to Q-Chem
     A Quantum Leap Into The Future Of Chemistry


 Q-Chem 5.4, Q-Chem, Inc., Pleasanton, CA (2021)

 License issued to: University of California, San Diego (site)

 E. Epifanovsky,  A. T. B. Gilbert,  Xintian Feng,  Joonho Lee,  Yuezhi Mao,  
 N. Mardirossian,  P. Pokhilko,  A. White,  M. Wormit,  M. P. Coons,  
 A. L. Dempwolff,  Zhengting Gan,  D. Hait,  P. R. Horn,  L. D. Jacobson,  
 I. Kaliman,  J. Kussmann,  A. W. Lange,  Ka Un Lao,  D. S. Levine,  Jie Liu,  
 S. C. McKenzie,  A. F. Morrison,  K. Nanda,  F. Plasser,  D. R. Rehn,  
 M. L. Vidal,  Zhi-Qiang You,  Ying Zhu,  B. Alam,  B. Albrecht,  
 A. Aldossary,  E. Alguire,  J. H. Andersen,  D. Barton,  K. Begam,  A. Behn,  
 Y. A. Bernard,  E. J. Berquist,  H. Burton,  A. Carreras,  K. Carter-Fenk,  
 R. Chakraborty,  A. D. Chien,  K. D. Closser,  V. Cofer-Shabica,  
 S. Dasgupta,  Jia Deng,  M. de Wergifosse,  M. Diedenhofen,  Hainam Do,  
 S. Ehlert,  Po-Tung Fang,  S. Fatehi,  Qingguo Feng,  J. Gayvert,  
 Qinghui Ge,  G. Gidofalvi,  M. Goldey,  J. Gomes,  C. Gonzalez-Espinoza,  
 S. Gulania,  A. Gunina,  M. W. D. Hanson-Heine,  P. H. P. Harbach,  
 A. W. Hauser,  M. F. Herbst,  M. Hernandez Vera,  M. Hodecker,  
 Z. C. Holden,  S. Houck,  Xunkun Huang,  Kerwin Hui,  B. C. Huynh,  
 M. Ivanov,  Hyunjun Ji,  Hanjie Jiang,  B. Kaduk,  S. Kaehler,  
 K. Khistyaev,  Jaehoon Kim,  P. Klunzinger,  Z. Koczor-Benda,  
 Joong Hoon Koh,  D. Kosenkov,  L. Koulias,  T. Kowalczyk,  C. M. Krauter,  
 K. Kue,  A. Kunitsa,  T. Kus,  A. Landau,  K. V. Lawler,  D. Lefrancois,  
 S. Lehtola,  Rain Li,  Yi-Pei Li,  Jiashu Liang,  M. Liebenthal,  
 Hung-Hsuan Lin,  You-Sheng Lin,  Fenglai Liu,  Kuan-Yu Liu,  
 M. Loipersberger,  A. Luenser,  A. Manjanath,  P. Manohar,  E. Mansoor,  
 S. F. Manzer,  Shan-Ping Mao,  A. V. Marenich,  T. Markovich,  S. Mason,  
 S. A. Maurer,  P. F. McLaughlin,  M. F. S. J. Menger,  J.-M. Mewes,  
 S. A. Mewes,  P. Morgante,  J. W. Mullinax,  T. S. Nguyen-Beck,  
 K. J. Oosterbaan,  G. Paran,  Alexander C. Paul,  Suranjan K. Paul,  
 F. Pavosevic,  Zheng Pei,  S. Prager,  E. I. Proynov,  E. Ramos,  B. Rana,  
 A. E. Rask,  A. Rettig,  R. M. Richard,  F. Rob,  E. Rossomme,  T. Scheele,  
 M. Scheurer,  M. Schneider,  N. Sergueev,  S. M. Sharada,  W. Skomorowski,  
 D. W. Small,  C. J. Stein,  Yu-Chuan Su,  E. J. Sundstrom,  Zhen Tao,  
 J. Thirman,  T. Tsuchimochi,  N. M. Tubman,  S. P. Veccham,  O. Vydrov,  
 J. Wenzel,  J. Witte,  A. Yamada,  Kun Yao,  S. Yeganeh,  S. R. Yost,  
 A. Zech,  Igor Ying Zhang,  Xing Zhang,  Yu Zhang,  D. Zuev,  
 A. Aspuru-Guzik,  A. T. Bell,  N. A. Besley,  K. B. Bravaya,  B. R. Brooks,  
 D. Casanova,  Jeng-Da Chai,  S. Coriani,  C. J. Cramer,  
 A. E. DePrince, III,  R. A. DiStasio Jr.,  A. Dreuw,  B. D. Dunietz,  
 T. R. Furlani,  W. A. Goddard III,  S. Grimme,  S. Hammes-Schiffer,  
 T. Head-Gordon,  W. J. Hehre,  Chao-Ping Hsu,  T.-C. Jagau,  Yousung Jung,  
 A. Klamt,  Jing Kong,  D. S. Lambrecht,  WanZhen Liang,  N. J. Mayhall,  
 C. W. McCurdy,  J. B. Neaton,  C. Ochsenfeld,  J. A. Parkhill,  R. Peverati,  
 V. A. Rassolov,  Yihan Shao,  L. V. Slipchenko,  T. Stauch,  R. P. Steele,  
 J. E. Subotnik,  A. J. W. Thom,  A. Tkatchenko,  D. G. Truhlar,  
 T. Van Voorhis,  T. A. Wesolowski,  K. B. Whaley,  H. L. Woodcock III,  
 P. M. Zimmerman,  S. Faraji,  P. M. W. Gill,  M. Head-Gordon,  
 J. M. Herbert,  A. I. Krylov

 Contributors to earlier versions of Q-Chem not listed above: 
 R. D. Adamson,  B. Austin,  R. Baer,  J. Baker,  G. J. O. Beran,  
 K. Brandhorst,  S. T. Brown,  E. F. C. Byrd,  A. K. Chakraborty,  
 G. K. L. Chan,  Chun-Min Chang,  Yunqing Chen,  C.-L. Cheng,  
 Siu Hung Chien,  D. M. Chipman,  D. L. Crittenden,  H. Dachsel,  
 R. J. Doerksen,  A. D. Dutoi,  R. G. Edgar,  J. Fosso-Tande,  
 L. Fusti-Molnar,  D. Ghosh,  A. Ghysels,  A. Golubeva-Zadorozhnaya,  
 J. Gonthier,  M. S. Gordon,  S. R. Gwaltney,  G. Hawkins,  J. E. Herr,  
 A. Heyden,  S. Hirata,  E. G. Hohenstein,  G. Kedziora,  F. J. Keil,  
 C. Kelley,  Jihan Kim,  R. A. King,  R. Z. Khaliullin,  P. P. Korambath,  
 W. Kurlancheek,  A. Laurent,  A. M. Lee,  M. S. Lee,  S. V. Levchenko,  
 Ching Yeh Lin,  D. Liotard,  E. Livshits,  R. C. Lochan,  I. Lotan,  
 L. A. Martinez-Martinez,  P. E. Maslen,  N. Nair,  D. P. O'Neill,  
 D. Neuhauser,  E. Neuscamman,  C. M. Oana,  R. Olivares-Amaya,  R. Olson,  
 T. M. Perrine,  B. Peters,  P. A. Pieniazek,  A. Prociuk,  Y. M. Rhee,  
 J. Ritchie,  M. A. Rohrdanz,  E. Rosta,  N. J. Russ,  H. F. Schaefer III,  
 M. W. Schmidt,  N. E. Schultz,  S. Sharma,  N. Shenvi,  C. D. Sherrill,  
 A. C. Simmonett,  A. Sodt,  T. Stein,  D. Stuck,  K. S. Thanthiriwatte,  
 V. Vanovschi,  L. Vogt,  Tao Wang,  A. Warshel,  M. A. Watson,  
 C. F. Williams,  Q. Wu,  X. Xu,  Jun Yang,  W. Zhang,  Yan Zhao

 Please cite Q-Chem as follows:
 Y. Shao et al., Mol. Phys. 113, 184-215 (2015)
 DOI: 10.1080/00268976.2014.952696

 Q-Chem 5.4.0 for Intel X86 EM64T Linux

 Parts of Q-Chem use Armadillo 9.800.1 (Horizon Scraper).
 http://arma.sourceforge.net/

 Q-Chem begins on Wed Sep 20 08:15:12 2023  

 Host: 
0

     Scratch files written to ./qchem403373//
 May1621 |scratch|qcdevops|jenkins|workspace|build_RNUM    
 Parallel job on  1  processors
 Processing $rem in /cm/shared/apps/spack/cpu/opt/spack/linux-centos8-zen2/gcc-10.2.0/qchem-5.4-akfmr7b3t57bfs6qan3padb2wnb2i7cl/config/preferences:
 Processing $rem in /home/rramji/.qchemrc:
 Symmetry turned off for PCM/SM12/SMD calculation
 Core orbitals will be frozen

 Checking the input file for inconsistencies... 	...done.

 Q-Chem warning in module forms1/BasisType.C, line 2236:

 You are not using the predefined 5D/6D in this basis set.


--------------------------------------------------------------
User input:
--------------------------------------------------------------
$molecule
0 1
C	0.127184	-6.741404	-0.223244
C	0.779949	-6.155638	-1.354118
C	-0.415271	-5.791452	0.715408
C	0.919437	-4.803786	-1.595259
H	1.218801	-6.821518	-2.114613
C	-0.268806	-4.378638	0.463133
C	0.396744	-3.838032	-0.688925
C	-0.790835	-3.413062	1.368449
C	0.542026	-2.426473	-0.939189
C	-0.652669	-2.059348	1.130363
C	-0.000000	-1.478216	-0.000000
H	-1.091814	-1.394783	1.891815
C	-1.138124	-6.187987	1.963749
C	-1.506241	-3.798164	2.607351
N	-1.629443	-5.170003	2.817348
C	1.636646	-4.424987	-2.837621
C	1.264474	-2.036627	-2.188982
N	1.756205	-3.049156	-3.042637
O	-1.336258	-7.353131	2.301222
O	-1.967056	-2.986854	3.407386
O	2.092167	-5.248946	-3.628041
O	1.472160	-0.878829	-2.545844
C	-2.336642	-5.563799	4.040164
H	-2.360245	-6.664085	4.078749
H	-3.361968	-5.147101	4.027880
H	-1.813424	-5.148785	4.922811
C	2.452149	-2.587487	-4.247167
H	2.772531	-3.483329	-4.804209
H	3.322697	-1.964972	-3.965991
H	1.774507	-1.962932	-4.859678
H	0.033931	-7.822318	-0.062364
C	0.000000	0.000000	0.000000
S	0.271091	0.745405	1.580530
C	0.831198	2.284363	0.904911
C	0.341175	0.937861	-0.985400
C	0.792631	2.178516	-0.493528
H	0.260601	0.716417	-2.059934
H	1.093860	3.006347	-1.152593
H	1.132330	3.111961	1.556025
$end

$rem
JOBTYPE		SP
EXCHANGE	HF
CORRELATION	pRIMP2
BASIS		cc-pvtz
METHOD		rimp2
AUX_BASIS	rimp2-cc-pvtz
SOLVENT_METHOD	PCM
PURECART	11111
SYMMETRY	false
MEM_TOTAL	110000
SCF_CONVERGENCE = 6
THRESH=10
GUI = 2
$end



$solvent
dielectric 4.90
$end
--------------------------------------------------------------
 ----------------------------------------------------------------
             Standard Nuclear Orientation (Angstroms)
    I     Atom           X                Y                Z
 ----------------------------------------------------------------
    1      C       0.1271840000    -6.7414040000    -0.2232440000
    2      C       0.7799490000    -6.1556380000    -1.3541180000
    3      C      -0.4152710000    -5.7914520000     0.7154080000
    4      C       0.9194370000    -4.8037860000    -1.5952590000
    5      H       1.2188010000    -6.8215180000    -2.1146130000
    6      C      -0.2688060000    -4.3786380000     0.4631330000
    7      C       0.3967440000    -3.8380320000    -0.6889250000
    8      C      -0.7908350000    -3.4130620000     1.3684490000
    9      C       0.5420260000    -2.4264730000    -0.9391890000
   10      C      -0.6526690000    -2.0593480000     1.1303630000
   11      C       0.0000000000    -1.4782160000     0.0000000000
   12      H      -1.0918140000    -1.3947830000     1.8918150000
   13      C      -1.1381240000    -6.1879870000     1.9637490000
   14      C      -1.5062410000    -3.7981640000     2.6073510000
   15      N      -1.6294430000    -5.1700030000     2.8173480000
   16      C       1.6366460000    -4.4249870000    -2.8376210000
   17      C       1.2644740000    -2.0366270000    -2.1889820000
   18      N       1.7562050000    -3.0491560000    -3.0426370000
   19      O      -1.3362580000    -7.3531310000     2.3012220000
   20      O      -1.9670560000    -2.9868540000     3.4073860000
   21      O       2.0921670000    -5.2489460000    -3.6280410000
   22      O       1.4721600000    -0.8788290000    -2.5458440000
   23      C      -2.3366420000    -5.5637990000     4.0401640000
   24      H      -2.3602450000    -6.6640850000     4.0787490000
   25      H      -3.3619680000    -5.1471010000     4.0278800000
   26      H      -1.8134240000    -5.1487850000     4.9228110000
   27      C       2.4521490000    -2.5874870000    -4.2471670000
   28      H       2.7725310000    -3.4833290000    -4.8042090000
   29      H       3.3226970000    -1.9649720000    -3.9659910000
   30      H       1.7745070000    -1.9629320000    -4.8596780000
   31      H       0.0339310000    -7.8223180000    -0.0623640000
   32      C       0.0000000000     0.0000000000     0.0000000000
   33      S       0.2710910000     0.7454050000     1.5805300000
   34      C       0.8311980000     2.2843630000     0.9049110000
   35      C       0.3411750000     0.9378610000    -0.9854000000
   36      C       0.7926310000     2.1785160000    -0.4935280000
   37      H       0.2606010000     0.7164170000    -2.0599340000
   38      H       1.0938600000     3.0063470000    -1.1525930000
   39      H       1.1323300000     3.1119610000     1.5560250000
 ----------------------------------------------------------------
 Nuclear Repulsion Energy =        2500.60329490 hartrees
 There are       97 alpha and       97 beta electrons
 Requested basis set is cc-pVTZ
 There are 344 shells and 982 basis functions

 Total QAlloc Memory Limit 110000 MB
 Mega-Array Size       188 MB
 MEM_STATIC part       192 MB
 Discretize the solute cavity surface with Lebedev spheres
	Using 110 Lebedev grid points for each H atom
	Using 194 Lebedev grid points for other atoms
	Atomic van der Waals radii will be scaled by 1.20
 Remove points where switching function is < 1.0e-08
 Keep 2509 surface tesserae and discard 4049 interior tesserae
 Molecular Surface Area = 362.648 Angst**2
 Requested basis set is rimp2-cc-pVTZ
 There are 750 shells and 2588 basis functions
 A cutoff of  1.0D-10 yielded  31842 shell pairs
 There are    245234 function pairs (    318664 Cartesian)
 Smallest overlap matrix eigenvalue = 9.99E-06

 Q-Chem warning in module stvman/mkSTV.C, line 323:

 Overlap eigenvalue is smaller than square root of threshold
 Use THRESH >= 12 to get rid of this warning


 Scale SEOQF with 1.000000e-01/1.000000e-02/1.000000e-01

 Standard Electronic Orientation quadrupole field applied
 Nucleus-field energy     =    -0.0000000733 hartrees
 Guess from superposition of atomic densities
 Warning:  Energy on first SCF cycle will be non-variational
 SAD guess density has 194.000000 electrons

 -----------------------------------------------------------------------
  General SCF calculation program by
  Eric Jon Sundstrom, Paul Horn, Yuezhi Mao, Dmitri Zuev, Alec White,
  David Stuck, Shaama M.S., Shane Yost, Joonho Lee, David Small,
  Daniel Levine, Susi Lehtola, Hugh Burton, Evgeny Epifanovsky,
  Bang C. Huynh
 -----------------------------------------------------------------------
 Hartree-Fock
 using 64 threads for integral computing
 -------------------------------------------------------
 OpenMP Integral computing Module                
 Release: version 1.0, May 2013, Q-Chem Inc. Pittsburgh 
 -------------------------------------------------------
 A restricted SCF calculation will be
 performed using DIIS
 SCF converges when DIIS error is below 1.0e-06
 ---------------------------------------
  Cycle       Energy         DIIS error
 ---------------------------------------
    1   -1581.3547170340      1.87e-02  
    2   -1570.1105920262      2.09e-03  
    3   -1570.4383143451      1.62e-03  
    4   -1570.6668420914      2.58e-04  
    5   -1570.6790855578      7.70e-05  
    6   -1570.6801982500      2.87e-05  
    7   -1570.6804612776      1.44e-05  
    8   -1570.6805443524      6.11e-06  
    9   -1570.6805575441      2.31e-06  
   10   -1570.6805598259      8.30e-07  Convergence criterion met
 ---------------------------------------
 SCF time:   CPU 5833.19s  wall 219.00s 

************** Final PCM Free Energy Summary **************
 G_electrostatic  =      -0.02161364 hartree =     -13.56276183 kcal/mol
 G_cavitation     =       0.00000000 hartree =       0.00000000 kcal/mol
 G_dispersion     =       0.00000000 hartree =       0.00000000 kcal/mol
 G_repulsion      =       0.00000000 hartree =       0.00000000 kcal/mol
 --------------------------------------------------
 Non-electrostatic Free Energy =       0.00000000 hartree =       0.00000000 kcal/mol
 Total                         =      -0.02161364 hartree =     -13.56276183 kcal/mol
 --------------------------------------------------
 SCF Energy (H0 + V/2)                       =   -1570.68055983 
 Solute Internal Energy (H0)                 =   -1570.65894619 
 Total Free Energy (H0 + V/2 + non-elec)     =   -1570.68055983 hartree
                                             = -985616.92720631 kcal/mol
***********************************************************

 SCF   energy in the final basis set =    -1570.6805598259
 Total energy in the final basis set =    -1570.6805598259


 --------------------------------------------------------------
  Generalized many-body perturbation theory program
  by Joonho Lee, Fazle Rob, Xintian Feng, Evgeny Epifanovsky

 No regularization used 
 (reg. param. = 0.0000e+00)
  (P|Q)^-1/2 Time:  CPU 112.44 s  wall 2.39 s

 In RI-MP2 calculation: 
 # of frozen core orbitals: 31

 Components of the RIMP2 correlation energy:
        aaaa    correlation energy =        -0.6174662055 a.u.
        abab    correlation energy =        -3.3931380018 a.u.
        bbbb    correlation energy =        -0.6174662055 a.u.
        non-Brillouin singles      =        -0.0000000000 a.u.
        total same-spin energy     =        -1.2349324111 a.u.
        total opposite-spin energy =        -3.3931380018 a.u.

 Total  RIMP2   correlation energy =        -4.6280704128 a.u.
        RIMP2         total energy =     -1575.3086302387 a.u.

 RI-MP2 Energy Time:  CPU 1855.75 s  wall 32.00 s
 
 --------------------------------------------------------------
 
                    Orbital Energies (a.u.)
 --------------------------------------------------------------
 
 Alpha MOs
 -- Occupied --
-91.9937 -20.5583 -20.5560 -20.5535 -20.5530 -15.6309 -15.6299 -11.3996
-11.3956 -11.3911 -11.3903 -11.3182 -11.3018 -11.2998 -11.2983 -11.2951
-11.2942 -11.2917 -11.2866 -11.2857 -11.2833 -11.2788 -11.2775 -11.2646
-11.2642 -11.2573 -11.2505  -8.9933  -6.6741  -6.6736  -6.6730  -1.4246
 -1.4239  -1.4039  -1.4028  -1.2670  -1.2647  -1.2164  -1.1770  -1.1437
 -1.1158  -1.0628  -1.0487  -0.9922  -0.9898  -0.9866  -0.9585  -0.9475
 -0.8963  -0.8788  -0.8770  -0.8610  -0.7955  -0.7777  -0.7724  -0.7620
 -0.7359  -0.7205  -0.7039  -0.6934  -0.6811  -0.6729  -0.6660  -0.6618
 -0.6557  -0.6412  -0.6364  -0.6333  -0.6278  -0.6123  -0.5887  -0.5836
 -0.5775  -0.5742  -0.5651  -0.5622  -0.5608  -0.5554  -0.5524  -0.5472
 -0.5348  -0.5247  -0.5222  -0.5186  -0.4821  -0.4689  -0.4644  -0.4642
 -0.4585  -0.4515  -0.4282  -0.4183  -0.4089  -0.3738  -0.3521  -0.3363
 -0.3012
 -- Virtual --
 -0.0187   0.0552   0.0684   0.1022   0.1226   0.1532   0.1584   0.1595
  0.1665   0.1732   0.1763   0.1855   0.1925   0.1987   0.2064   0.2083
  0.2192   0.2277   0.2296   0.2333   0.2462   0.2510   0.2612   0.2640
  0.2671   0.3097   0.3132   0.3148   0.3197   0.3268   0.3346   0.3406
  0.3454   0.3484   0.3529   0.3562   0.3589   0.3636   0.3703   0.3766
  0.3785   0.3863   0.3930   0.3978   0.4016   0.4074   0.4074   0.4116
  0.4232   0.4262   0.4329   0.4383   0.4470   0.4483   0.4509   0.4573
  0.4584   0.4638   0.4668   0.4758   0.4795   0.4803   0.4895   0.4952
  0.5005   0.5037   0.5122   0.5162   0.5210   0.5264   0.5270   0.5301
  0.5362   0.5404   0.5415   0.5482   0.5498   0.5553   0.5640   0.5681
  0.5696   0.5748   0.5782   0.5842   0.5942   0.5954   0.5973   0.6009
  0.6051   0.6121   0.6157   0.6182   0.6206   0.6238   0.6296   0.6303
  0.6326   0.6371   0.6402   0.6428   0.6484   0.6567   0.6645   0.6666
  0.6751   0.6830   0.6897   0.6913   0.7017   0.7107   0.7125   0.7218
  0.7332   0.7351   0.7383   0.7465   0.7534   0.7595   0.7629   0.7682
  0.7717   0.7849   0.7864   0.7894   0.7998   0.8056   0.8085   0.8137
  0.8201   0.8301   0.8350   0.8404   0.8406   0.8462   0.8583   0.8599
  0.8649   0.8673   0.8736   0.8798   0.8836   0.8888   0.8995   0.9103
  0.9148   0.9162   0.9196   0.9295   0.9342   0.9383   0.9393   0.9509
  0.9528   0.9543   0.9630   0.9690   0.9702   0.9745   0.9858   0.9898
  0.9917   0.9951   1.0044   1.0060   1.0096   1.0134   1.0193   1.0228
  1.0343   1.0444   1.0469   1.0572   1.0595   1.0656   1.0696   1.0735
  1.0780   1.0808   1.0830   1.0906   1.0934   1.1019   1.1029   1.1142
  1.1243   1.1318   1.1343   1.1429   1.1434   1.1519   1.1544   1.1562
  1.1608   1.1689   1.1714   1.1789   1.1857   1.1878   1.1953   1.1986
  1.2116   1.2130   1.2194   1.2240   1.2291   1.2337   1.2374   1.2396
  1.2475   1.2486   1.2537   1.2577   1.2650   1.2809   1.2894   1.3036
  1.3139   1.3247   1.3308   1.3382   1.3446   1.3500   1.3557   1.3570
  1.3623   1.3768   1.3839   1.3860   1.3956   1.4031   1.4053   1.4090
  1.4196   1.4222   1.4275   1.4420   1.4484   1.4518   1.4629   1.4659
  1.4772   1.4834   1.4860   1.4922   1.5009   1.5058   1.5129   1.5173
  1.5285   1.5310   1.5355   1.5492   1.5512   1.5549   1.5584   1.5651
  1.5755   1.5764   1.5810   1.5904   1.5947   1.6076   1.6243   1.6403
  1.6440   1.6498   1.6532   1.6572   1.6690   1.6773   1.6798   1.6869
  1.6973   1.7067   1.7154   1.7192   1.7272   1.7433   1.7457   1.7497
  1.7530   1.7676   1.7717   1.7815   1.7925   1.7955   1.8028   1.8131
  1.8261   1.8397   1.8425   1.8460   1.8547   1.8599   1.8638   1.8727
  1.8751   1.8870   1.9010   1.9120   1.9224   1.9296   1.9371   1.9545
  1.9596   1.9688   1.9724   1.9752   1.9869   2.0109   2.0256   2.0331
  2.0564   2.0578   2.0635   2.0904   2.0980   2.1073   2.1252   2.1333
  2.1413   2.1576   2.1585   2.1755   2.1860   2.2091   2.2139   2.2299
  2.2351   2.2428   2.2502   2.2620   2.2803   2.2875   2.2905   2.2956
  2.3248   2.3293   2.3387   2.3430   2.3520   2.3601   2.3667   2.3777
  2.3998   2.4163   2.4205   2.4395   2.4478   2.4535   2.4576   2.4620
  2.4819   2.4854   2.4945   2.5006   2.5025   2.5195   2.5210   2.5352
  2.5526   2.5666   2.5761   2.5846   2.5928   2.5954   2.6061   2.6126
  2.6169   2.6226   2.6376   2.6515   2.6613   2.6626   2.6669   2.6701
  2.6723   2.6836   2.6977   2.7007   2.7045   2.7099   2.7169   2.7297
  2.7301   2.7455   2.7513   2.7547   2.7629   2.7717   2.7783   2.7906
  2.7977   2.8107   2.8291   2.8347   2.8375   2.8470   2.8630   2.8661
  2.8705   2.8729   2.8783   2.8851   2.8901   2.9006   2.9059   2.9086
  2.9190   2.9207   2.9363   2.9375   2.9534   2.9554   2.9617   2.9704
  2.9754   2.9789   2.9912   2.9965   3.0009   3.0039   3.0116   3.0176
  3.0226   3.0314   3.0336   3.0440   3.0464   3.0551   3.0693   3.0745
  3.0873   3.0941   3.0981   3.1011   3.1093   3.1103   3.1158   3.1223
  3.1279   3.1323   3.1376   3.1501   3.1602   3.1682   3.1768   3.1820
  3.1923   3.1925   3.1998   3.2039   3.2110   3.2133   3.2198   3.2248
  3.2285   3.2312   3.2391   3.2439   3.2477   3.2559   3.2580   3.2637
  3.2676   3.2706   3.2770   3.2850   3.2871   3.2918   3.2955   3.2965
  3.3054   3.3093   3.3152   3.3265   3.3321   3.3352   3.3384   3.3418
  3.3433   3.3477   3.3556   3.3580   3.3593   3.3647   3.3676   3.3702
  3.3783   3.3833   3.3884   3.3976   3.4021   3.4048   3.4106   3.4195
  3.4211   3.4252   3.4275   3.4361   3.4446   3.4479   3.4516   3.4572
  3.4595   3.4683   3.4714   3.4803   3.4831   3.4863   3.4881   3.4954
  3.4965   3.5000   3.5049   3.5085   3.5141   3.5202   3.5221   3.5310
  3.5436   3.5437   3.5503   3.5596   3.5647   3.5690   3.5766   3.5817
  3.5876   3.5955   3.5961   3.6110   3.6125   3.6168   3.6211   3.6294
  3.6316   3.6390   3.6429   3.6482   3.6547   3.6569   3.6653   3.6771
  3.6865   3.6918   3.6970   3.7005   3.7076   3.7100   3.7189   3.7285
  3.7331   3.7364   3.7411   3.7472   3.7530   3.7579   3.7625   3.7692
  3.7817   3.7840   3.7847   3.7863   3.7962   3.7986   3.8050   3.8056
  3.8165   3.8205   3.8233   3.8381   3.8402   3.8527   3.8541   3.8578
  3.8661   3.8728   3.8823   3.8852   3.8928   3.8991   3.9012   3.9205
  3.9311   3.9357   3.9374   3.9479   3.9541   3.9631   3.9675   3.9727
  3.9891   3.9915   3.9964   4.0113   4.0136   4.0222   4.0368   4.0429
  4.0573   4.0601   4.0709   4.0757   4.0874   4.0998   4.1049   4.1128
  4.1244   4.1315   4.1337   4.1402   4.1531   4.1590   4.1663   4.1725
  4.1765   4.1874   4.1970   4.2020   4.2096   4.2168   4.2229   4.2382
  4.2440   4.2509   4.2666   4.2724   4.2792   4.2828   4.2890   4.2963
  4.2987   4.3025   4.3084   4.3138   4.3196   4.3271   4.3384   4.3477
  4.3517   4.3563   4.3645   4.3680   4.3726   4.3772   4.3826   4.3882
  4.3958   4.4036   4.4070   4.4094   4.4118   4.4193   4.4378   4.4541
  4.4611   4.4655   4.4771   4.4906   4.4934   4.5064   4.5161   4.5175
  4.5209   4.5234   4.5377   4.5427   4.5519   4.5598   4.5677   4.5721
  4.5734   4.5798   4.5841   4.5852   4.6066   4.6115   4.6289   4.6429
  4.6521   4.6524   4.6652   4.6696   4.6743   4.6788   4.6916   4.6995
  4.7095   4.7242   4.7296   4.7468   4.7528   4.7655   4.7765   4.7912
  4.8089   4.8194   4.8271   4.8410   4.8488   4.8624   4.8691   4.8769
  4.8830   4.8987   4.9175   4.9241   4.9366   4.9552   4.9687   4.9837
  4.9919   4.9991   5.0228   5.0426   5.0428   5.0481   5.0527   5.0542
  5.1033   5.1061   5.1079   5.1184   5.1242   5.1298   5.1412   5.1551
  5.1650   5.1690   5.1900   5.1919   5.2081   5.2362   5.2557   5.2578
  5.2673   5.2791   5.2821   5.2972   5.2995   5.3235   5.3324   5.3418
  5.3661   5.3957   5.3977   5.4026   5.4139   5.4255   5.4324   5.4647
  5.4833   5.5062   5.5090   5.5127   5.5130   5.5360   5.5493   5.5587
  5.5603   5.5613   5.5650   5.5739   5.5779   5.5917   5.6017   5.6144
  5.6186   5.6373   5.6527   5.6552   5.6589   5.6772   5.6799   5.6981
  5.7034   5.7108   5.7189   5.7444   5.7483   5.7593   5.7614   5.7714
  5.7791   5.7885   5.8121   5.8323   5.8522   5.8557   5.8880   5.9152
  5.9461   5.9576   5.9958   6.0115   6.0230   6.0244   6.0428   6.0505
  6.0913   6.1017   6.1032   6.1194   6.1238   6.1812   6.1918   6.2118
  6.2181   6.2211   6.2248   6.2597   6.2692   6.2741   6.3059   6.3425
  6.3524   6.4008   6.4279   6.4480   6.4683   6.5267   6.5625   6.5726
  6.5862   6.6083   6.6435   6.6481   6.6605   6.7038   6.7131   6.8324
  6.8376   6.8820   6.8864   6.8977   6.9118   6.9317   6.9961   7.0791
  7.1142   7.1423   7.1875   7.1973   7.2337   7.3327   7.3425   7.3447
  7.3614   7.4688   7.5481   7.5585   7.5743   7.5794   7.6102   7.6347
  7.6784   7.7016   7.7368   8.4157   9.9111  10.3408  11.1503  11.2558
 11.6890  11.7435  11.9920  12.3789  12.4541  12.5721  12.8482  13.0600
 13.2837  13.5635  13.8159  13.9455  14.0132  14.1672  14.3182  14.4103
 14.4560  14.7444  15.3445  15.7257  15.9750
 --------------------------------------------------------------
 
          Ground-State Mulliken Net Atomic Charges

     Atom                 Charge (a.u.)
  ----------------------------------------
      1 C                    -0.144193
      2 C                    -0.109404
      3 C                    -0.035557
      4 C                    -0.005744
      5 H                     0.187928
      6 C                    -0.008368
      7 C                     0.079376
      8 C                     0.030320
      9 C                    -0.055644
     10 C                    -0.181768
     11 C                     0.108934
     12 H                     0.169982
     13 C                     0.360337
     14 C                     0.366463
     15 N                    -0.101366
     16 C                     0.359279
     17 C                     0.380338
     18 N                    -0.092514
     19 O                    -0.464496
     20 O                    -0.476223
     21 O                    -0.483033
     22 O                    -0.475962
     23 C                    -0.201123
     24 H                     0.141013
     25 H                     0.112392
     26 H                     0.112442
     27 C                    -0.197686
     28 H                     0.134322
     29 H                     0.112706
     30 H                     0.112036
     31 H                     0.212666
     32 C                    -0.051912
     33 S                     0.035365
     34 C                    -0.196536
     35 C                    -0.140690
     36 C                    -0.201723
     37 H                     0.199756
     38 H                     0.192289
     39 H                     0.216000
  ----------------------------------------
  Sum of atomic charges =     0.000000

 -----------------------------------------------------------------
                    Cartesian Multipole Moments
 -----------------------------------------------------------------
    Charge (ESU x 10^10)
                 0.0000
    Dipole Moment (Debye)
         X       0.8424      Y       2.1712      Z      -0.9432
       Tot       2.5127
    Quadrupole Moments (Debye-Ang)
        XX    -167.8484     XY       4.0332     YY    -169.3453
        XZ       9.3531     YZ       0.6007     ZZ    -173.1067
    Octopole Moments (Debye-Ang^2)
       XXX     -75.5581    XXY     493.3802    XYY      -8.7625
       YYY    1617.2430    XXZ       0.0638    XYZ     -33.8172
       YYZ       2.9259    XZZ     -23.7506    YZZ     544.9888
       ZZZ      -5.5437
    Hexadecapole Moments (Debye-Ang^3)
      XXXX   -1700.6121   XXXY    -220.5737   XXYY   -3070.0631
      XYYY    -432.1421   YYYY  -17253.1429   XXXZ    1250.4303
      XXYZ       8.0099   XYYZ     680.1020   YYYZ     637.3400
      XXZZ   -1129.8192   XYZZ      64.5318   YYZZ   -3865.1227
      XZZZ    1322.9212   YZZZ      21.0864   ZZZZ   -4909.3403
 -----------------------------------------------------------------
 Total job time:  256.65s(wall), 7898.15s(cpu) 
 Wed Sep 20 08:19:28 2023

        *************************************************************
        *                                                           *
        *  Thank you very much for using Q-Chem.  Have a nice day.  *
        *                                                           *
        *************************************************************


0 sent ACK to 0 
now end server 0 ... 
cleanup process ... done
remove work dirs ./qchem403373.0 -- ./qchem403373.0
rm -rf ./qchem403373.0
rm -rf ./qchem403373
