You are running Q-Chem version: 5.4.0

#
# job setting
#
local host:  exp-2-08
current dir: /expanse/lustre/projects/csd626/rramji/aromodel/PNDIT/Rotation_Test
input file:  Dimethyl_Naphthalene_Dicarboximide_Phi_0_Theta_340_Thiophene.qcin
output file: 
nprocs     : 1
nthreads   : 64
#
# qchem installation setting
#
QC:          /cm/shared/apps/spack/cpu/opt/spack/linux-centos8-zen2/gcc-10.2.0/qchem-5.4-akfmr7b3t57bfs6qan3padb2wnb2i7cl
QCAUX:       /cm/shared/apps/spack/cpu/opt/spack/linux-centos8-zen2/gcc-10.2.0/qchem-5.4-akfmr7b3t57bfs6qan3padb2wnb2i7cl/qcaux
QCPROG:      /cm/shared/apps/spack/cpu/opt/spack/linux-centos8-zen2/gcc-10.2.0/qchem-5.4-akfmr7b3t57bfs6qan3padb2wnb2i7cl/exe/qcprog.exe
QCPROG_S:    /cm/shared/apps/spack/cpu/opt/spack/linux-centos8-zen2/gcc-10.2.0/qchem-5.4-akfmr7b3t57bfs6qan3padb2wnb2i7cl/exe/qcprog.exe_s
PARALLEL:    -DPARALLEL
QCMPI:       mpich
#
# qchem directory setting
#
qcrun:       qchem710991
QCSCRATCH:   .
QCLOCALSCR:  
QCTMPDIR:    .
QCFILEPREF:  ./qchem710991
QCSAVEDIR:   
workdirs:    ./qchem710991
workdir0:    ./qchem710991
partmpdirs =  
#
# parallel setting
#
QCRSH:           ssh
QCMPI:           mpich
QCMPIRUN:        /cm/shared/apps/spack/cpu/opt/spack/linux-centos8-zen2/gcc-10.2.0/qchem-5.4-akfmr7b3t57bfs6qan3padb2wnb2i7cl/bin/mpi/mpirun_qchem
QCMACHINEFILE:   ./qchem710991/hostfile
exp-2-08

#
# env setting
#
exported envs:   QC QCAUX QCSCRATCH QCRUNNAME QCFILEPREF QCPROG QCPROG_S GUIFILE

Running Job 1 of 1 Dimethyl_Naphthalene_Dicarboximide_Phi_0_Theta_340_Thiophene.qcin
qchem Dimethyl_Naphthalene_Dicarboximide_Phi_0_Theta_340_Thiophene.qcin_710991.0 ./qchem710991/ 1
/cm/shared/apps/spack/cpu/opt/spack/linux-centos8-zen2/gcc-10.2.0/qchem-5.4-akfmr7b3t57bfs6qan3padb2wnb2i7cl/bin/mpi/mpirun_qchem -machinefile ./qchem710991/hostfile -np 1 /cm/shared/apps/spack/cpu/opt/spack/linux-centos8-zen2/gcc-10.2.0/qchem-5.4-akfmr7b3t57bfs6qan3padb2wnb2i7cl/exe/qcprog.exe Dimethyl_Naphthalene_Dicarboximide_Phi_0_Theta_340_Thiophene.qcin_710991.0 ./qchem710991/

Process 0 of 1 is on exp-2-08 - thread support 0
initial socket setup ...start
initial socket setup ...done 
now start server 0 ... 
                  Welcome to Q-Chem
     A Quantum Leap Into The Future Of Chemistry


 Q-Chem 5.4, Q-Chem, Inc., Pleasanton, CA (2021)

 License issued to: University of California, San Diego (site)

 E. Epifanovsky,  A. T. B. Gilbert,  Xintian Feng,  Joonho Lee,  Yuezhi Mao,  
 N. Mardirossian,  P. Pokhilko,  A. White,  M. Wormit,  M. P. Coons,  
 A. L. Dempwolff,  Zhengting Gan,  D. Hait,  P. R. Horn,  L. D. Jacobson,  
 I. Kaliman,  J. Kussmann,  A. W. Lange,  Ka Un Lao,  D. S. Levine,  Jie Liu,  
 S. C. McKenzie,  A. F. Morrison,  K. Nanda,  F. Plasser,  D. R. Rehn,  
 M. L. Vidal,  Zhi-Qiang You,  Ying Zhu,  B. Alam,  B. Albrecht,  
 A. Aldossary,  E. Alguire,  J. H. Andersen,  D. Barton,  K. Begam,  A. Behn,  
 Y. A. Bernard,  E. J. Berquist,  H. Burton,  A. Carreras,  K. Carter-Fenk,  
 R. Chakraborty,  A. D. Chien,  K. D. Closser,  V. Cofer-Shabica,  
 S. Dasgupta,  Jia Deng,  M. de Wergifosse,  M. Diedenhofen,  Hainam Do,  
 S. Ehlert,  Po-Tung Fang,  S. Fatehi,  Qingguo Feng,  J. Gayvert,  
 Qinghui Ge,  G. Gidofalvi,  M. Goldey,  J. Gomes,  C. Gonzalez-Espinoza,  
 S. Gulania,  A. Gunina,  M. W. D. Hanson-Heine,  P. H. P. Harbach,  
 A. W. Hauser,  M. F. Herbst,  M. Hernandez Vera,  M. Hodecker,  
 Z. C. Holden,  S. Houck,  Xunkun Huang,  Kerwin Hui,  B. C. Huynh,  
 M. Ivanov,  Hyunjun Ji,  Hanjie Jiang,  B. Kaduk,  S. Kaehler,  
 K. Khistyaev,  Jaehoon Kim,  P. Klunzinger,  Z. Koczor-Benda,  
 Joong Hoon Koh,  D. Kosenkov,  L. Koulias,  T. Kowalczyk,  C. M. Krauter,  
 K. Kue,  A. Kunitsa,  T. Kus,  A. Landau,  K. V. Lawler,  D. Lefrancois,  
 S. Lehtola,  Rain Li,  Yi-Pei Li,  Jiashu Liang,  M. Liebenthal,  
 Hung-Hsuan Lin,  You-Sheng Lin,  Fenglai Liu,  Kuan-Yu Liu,  
 M. Loipersberger,  A. Luenser,  A. Manjanath,  P. Manohar,  E. Mansoor,  
 S. F. Manzer,  Shan-Ping Mao,  A. V. Marenich,  T. Markovich,  S. Mason,  
 S. A. Maurer,  P. F. McLaughlin,  M. F. S. J. Menger,  J.-M. Mewes,  
 S. A. Mewes,  P. Morgante,  J. W. Mullinax,  T. S. Nguyen-Beck,  
 K. J. Oosterbaan,  G. Paran,  Alexander C. Paul,  Suranjan K. Paul,  
 F. Pavosevic,  Zheng Pei,  S. Prager,  E. I. Proynov,  E. Ramos,  B. Rana,  
 A. E. Rask,  A. Rettig,  R. M. Richard,  F. Rob,  E. Rossomme,  T. Scheele,  
 M. Scheurer,  M. Schneider,  N. Sergueev,  S. M. Sharada,  W. Skomorowski,  
 D. W. Small,  C. J. Stein,  Yu-Chuan Su,  E. J. Sundstrom,  Zhen Tao,  
 J. Thirman,  T. Tsuchimochi,  N. M. Tubman,  S. P. Veccham,  O. Vydrov,  
 J. Wenzel,  J. Witte,  A. Yamada,  Kun Yao,  S. Yeganeh,  S. R. Yost,  
 A. Zech,  Igor Ying Zhang,  Xing Zhang,  Yu Zhang,  D. Zuev,  
 A. Aspuru-Guzik,  A. T. Bell,  N. A. Besley,  K. B. Bravaya,  B. R. Brooks,  
 D. Casanova,  Jeng-Da Chai,  S. Coriani,  C. J. Cramer,  
 A. E. DePrince, III,  R. A. DiStasio Jr.,  A. Dreuw,  B. D. Dunietz,  
 T. R. Furlani,  W. A. Goddard III,  S. Grimme,  S. Hammes-Schiffer,  
 T. Head-Gordon,  W. J. Hehre,  Chao-Ping Hsu,  T.-C. Jagau,  Yousung Jung,  
 A. Klamt,  Jing Kong,  D. S. Lambrecht,  WanZhen Liang,  N. J. Mayhall,  
 C. W. McCurdy,  J. B. Neaton,  C. Ochsenfeld,  J. A. Parkhill,  R. Peverati,  
 V. A. Rassolov,  Yihan Shao,  L. V. Slipchenko,  T. Stauch,  R. P. Steele,  
 J. E. Subotnik,  A. J. W. Thom,  A. Tkatchenko,  D. G. Truhlar,  
 T. Van Voorhis,  T. A. Wesolowski,  K. B. Whaley,  H. L. Woodcock III,  
 P. M. Zimmerman,  S. Faraji,  P. M. W. Gill,  M. Head-Gordon,  
 J. M. Herbert,  A. I. Krylov

 Contributors to earlier versions of Q-Chem not listed above: 
 R. D. Adamson,  B. Austin,  R. Baer,  J. Baker,  G. J. O. Beran,  
 K. Brandhorst,  S. T. Brown,  E. F. C. Byrd,  A. K. Chakraborty,  
 G. K. L. Chan,  Chun-Min Chang,  Yunqing Chen,  C.-L. Cheng,  
 Siu Hung Chien,  D. M. Chipman,  D. L. Crittenden,  H. Dachsel,  
 R. J. Doerksen,  A. D. Dutoi,  R. G. Edgar,  J. Fosso-Tande,  
 L. Fusti-Molnar,  D. Ghosh,  A. Ghysels,  A. Golubeva-Zadorozhnaya,  
 J. Gonthier,  M. S. Gordon,  S. R. Gwaltney,  G. Hawkins,  J. E. Herr,  
 A. Heyden,  S. Hirata,  E. G. Hohenstein,  G. Kedziora,  F. J. Keil,  
 C. Kelley,  Jihan Kim,  R. A. King,  R. Z. Khaliullin,  P. P. Korambath,  
 W. Kurlancheek,  A. Laurent,  A. M. Lee,  M. S. Lee,  S. V. Levchenko,  
 Ching Yeh Lin,  D. Liotard,  E. Livshits,  R. C. Lochan,  I. Lotan,  
 L. A. Martinez-Martinez,  P. E. Maslen,  N. Nair,  D. P. O'Neill,  
 D. Neuhauser,  E. Neuscamman,  C. M. Oana,  R. Olivares-Amaya,  R. Olson,  
 T. M. Perrine,  B. Peters,  P. A. Pieniazek,  A. Prociuk,  Y. M. Rhee,  
 J. Ritchie,  M. A. Rohrdanz,  E. Rosta,  N. J. Russ,  H. F. Schaefer III,  
 M. W. Schmidt,  N. E. Schultz,  S. Sharma,  N. Shenvi,  C. D. Sherrill,  
 A. C. Simmonett,  A. Sodt,  T. Stein,  D. Stuck,  K. S. Thanthiriwatte,  
 V. Vanovschi,  L. Vogt,  Tao Wang,  A. Warshel,  M. A. Watson,  
 C. F. Williams,  Q. Wu,  X. Xu,  Jun Yang,  W. Zhang,  Yan Zhao

 Please cite Q-Chem as follows:
 Y. Shao et al., Mol. Phys. 113, 184-215 (2015)
 DOI: 10.1080/00268976.2014.952696

 Q-Chem 5.4.0 for Intel X86 EM64T Linux

 Parts of Q-Chem use Armadillo 9.800.1 (Horizon Scraper).
 http://arma.sourceforge.net/

 Q-Chem begins on Wed Sep 20 10:29:52 2023  

 Host: 
0

     Scratch files written to ./qchem710991//
 May1621 |scratch|qcdevops|jenkins|workspace|build_RNUM    
 Parallel job on  1  processors
 Processing $rem in /cm/shared/apps/spack/cpu/opt/spack/linux-centos8-zen2/gcc-10.2.0/qchem-5.4-akfmr7b3t57bfs6qan3padb2wnb2i7cl/config/preferences:
 Processing $rem in /home/rramji/.qchemrc:
 Symmetry turned off for PCM/SM12/SMD calculation
 Core orbitals will be frozen

 Checking the input file for inconsistencies... 	...done.

 Q-Chem warning in module forms1/BasisType.C, line 2236:

 You are not using the predefined 5D/6D in this basis set.


--------------------------------------------------------------
User input:
--------------------------------------------------------------
$molecule
0 1
C	-0.089263	-6.741404	-0.240927
C	-0.535973	-6.155638	-1.467886
C	0.281103	-5.791452	0.777972
C	-0.631036	-4.803786	-1.729742
H	-0.836458	-6.821518	-2.292903
C	0.181995	-4.378638	0.503614
C	-0.272725	-3.838032	-0.746756
C	0.539954	-3.413062	1.485437
C	-0.371053	-2.426473	-1.018915
C	0.446381	-2.059348	1.226557
C	-0.000000	-1.478216	-0.000000
H	0.747410	-1.394783	2.052413
C	0.772747	-6.187987	2.134128
C	1.029154	-3.798164	2.829820
N	1.110828	-5.170003	3.059182
C	-1.121728	-4.424987	-3.077731
C	-0.864069	-2.036627	-2.375694
N	-1.201928	-3.049156	-3.301101
O	0.903908	-7.353131	2.502830
O	1.345809	-2.986854	3.697078
O	-1.434422	-5.248946	-3.934752
O	-1.003943	-0.878829	-2.764177
C	1.592981	-5.563799	4.386939
H	1.607367	-6.664085	4.429822
H	0.924504	-5.147101	5.164489
H	2.605446	-5.148785	4.553486
C	-1.677308	-2.587487	-4.608481
H	-1.898089	-3.483329	-5.211969
H	-0.902337	-1.964972	-5.094624
H	-2.582098	-1.962932	-4.483092
H	-0.025963	-7.822318	-0.066080
C	0.000000	0.000000	0.000000
S	-0.000201	0.793171	1.580530
C	-0.000228	2.430885	0.904911
C	-0.000168	0.997990	-0.985400
C	-0.000267	2.318231	-0.493528
H	-0.000145	0.762343	-2.059934
H	-0.000339	3.199164	-1.152593
H	-0.000311	3.311566	1.556025
$end

$rem
JOBTYPE		SP
EXCHANGE	HF
CORRELATION	pRIMP2
BASIS		cc-pvtz
METHOD		rimp2
AUX_BASIS	rimp2-cc-pvtz
SOLVENT_METHOD	PCM
PURECART	11111
SYMMETRY	false
MEM_TOTAL	110000
SCF_CONVERGENCE = 6
THRESH=10
GUI = 2
$end



$solvent
dielectric 4.90
$end
--------------------------------------------------------------
 ----------------------------------------------------------------
             Standard Nuclear Orientation (Angstroms)
    I     Atom           X                Y                Z
 ----------------------------------------------------------------
    1      C      -0.0892630000    -6.7414040000    -0.2409270000
    2      C      -0.5359730000    -6.1556380000    -1.4678860000
    3      C       0.2811030000    -5.7914520000     0.7779720000
    4      C      -0.6310360000    -4.8037860000    -1.7297420000
    5      H      -0.8364580000    -6.8215180000    -2.2929030000
    6      C       0.1819950000    -4.3786380000     0.5036140000
    7      C      -0.2727250000    -3.8380320000    -0.7467560000
    8      C       0.5399540000    -3.4130620000     1.4854370000
    9      C      -0.3710530000    -2.4264730000    -1.0189150000
   10      C       0.4463810000    -2.0593480000     1.2265570000
   11      C       0.0000000000    -1.4782160000     0.0000000000
   12      H       0.7474100000    -1.3947830000     2.0524130000
   13      C       0.7727470000    -6.1879870000     2.1341280000
   14      C       1.0291540000    -3.7981640000     2.8298200000
   15      N       1.1108280000    -5.1700030000     3.0591820000
   16      C      -1.1217280000    -4.4249870000    -3.0777310000
   17      C      -0.8640690000    -2.0366270000    -2.3756940000
   18      N      -1.2019280000    -3.0491560000    -3.3011010000
   19      O       0.9039080000    -7.3531310000     2.5028300000
   20      O       1.3458090000    -2.9868540000     3.6970780000
   21      O      -1.4344220000    -5.2489460000    -3.9347520000
   22      O      -1.0039430000    -0.8788290000    -2.7641770000
   23      C       1.5929810000    -5.5637990000     4.3869390000
   24      H       1.6073670000    -6.6640850000     4.4298220000
   25      H       0.9245040000    -5.1471010000     5.1644890000
   26      H       2.6054460000    -5.1487850000     4.5534860000
   27      C      -1.6773080000    -2.5874870000    -4.6084810000
   28      H      -1.8980890000    -3.4833290000    -5.2119690000
   29      H      -0.9023370000    -1.9649720000    -5.0946240000
   30      H      -2.5820980000    -1.9629320000    -4.4830920000
   31      H      -0.0259630000    -7.8223180000    -0.0660800000
   32      C       0.0000000000     0.0000000000     0.0000000000
   33      S      -0.0002010000     0.7931710000     1.5805300000
   34      C      -0.0002280000     2.4308850000     0.9049110000
   35      C      -0.0001680000     0.9979900000    -0.9854000000
   36      C      -0.0002670000     2.3182310000    -0.4935280000
   37      H      -0.0001450000     0.7623430000    -2.0599340000
   38      H      -0.0003390000     3.1991640000    -1.1525930000
   39      H      -0.0003110000     3.3115660000     1.5560250000
 ----------------------------------------------------------------
 Nuclear Repulsion Energy =        2495.71482393 hartrees
 There are       97 alpha and       97 beta electrons
 Requested basis set is cc-pVTZ
 There are 344 shells and 982 basis functions

 Total QAlloc Memory Limit 110000 MB
 Mega-Array Size       188 MB
 MEM_STATIC part       192 MB
 Discretize the solute cavity surface with Lebedev spheres
	Using 110 Lebedev grid points for each H atom
	Using 194 Lebedev grid points for other atoms
	Atomic van der Waals radii will be scaled by 1.20
 Remove points where switching function is < 1.0e-08
 Keep 2512 surface tesserae and discard 4046 interior tesserae
 Molecular Surface Area = 362.304 Angst**2
 Requested basis set is rimp2-cc-pVTZ
 There are 750 shells and 2588 basis functions
 A cutoff of  1.0D-10 yielded  31671 shell pairs
 There are    243983 function pairs (    317056 Cartesian)
 Smallest overlap matrix eigenvalue = 9.96E-06

 Q-Chem warning in module stvman/mkSTV.C, line 323:

 Overlap eigenvalue is smaller than square root of threshold
 Use THRESH >= 12 to get rid of this warning


 Scale SEOQF with 1.000000e-01/1.000000e-02/1.000000e-01

 Standard Electronic Orientation quadrupole field applied
 Nucleus-field energy     =    -0.0000000976 hartrees
 Guess from superposition of atomic densities
 Warning:  Energy on first SCF cycle will be non-variational
 SAD guess density has 194.000000 electrons

 -----------------------------------------------------------------------
  General SCF calculation program by
  Eric Jon Sundstrom, Paul Horn, Yuezhi Mao, Dmitri Zuev, Alec White,
  David Stuck, Shaama M.S., Shane Yost, Joonho Lee, David Small,
  Daniel Levine, Susi Lehtola, Hugh Burton, Evgeny Epifanovsky,
  Bang C. Huynh
 -----------------------------------------------------------------------
 Hartree-Fock
 using 64 threads for integral computing
 -------------------------------------------------------
 OpenMP Integral computing Module                
 Release: version 1.0, May 2013, Q-Chem Inc. Pittsburgh 
 -------------------------------------------------------
 A restricted SCF calculation will be
 performed using DIIS
 SCF converges when DIIS error is below 1.0e-06
 ---------------------------------------
  Cycle       Energy         DIIS error
 ---------------------------------------
    1   -1581.3622003645      1.87e-02  
    2   -1570.1189704969      2.09e-03  
    3   -1570.4476469846      1.62e-03  
    4   -1570.6751485130      2.58e-04  
    5   -1570.6873412339      7.72e-05  
    6   -1570.6884437672      2.84e-05  
    7   -1570.6886987662      1.42e-05  
    8   -1570.6887781906      5.90e-06  
    9   -1570.6887904425      2.26e-06  
   10   -1570.6887924897      7.58e-07  Convergence criterion met
 ---------------------------------------
 SCF time:   CPU 5836.16s  wall 219.00s 

************** Final PCM Free Energy Summary **************
 G_electrostatic  =      -0.02151484 hartree =     -13.50076587 kcal/mol
 G_cavitation     =       0.00000000 hartree =       0.00000000 kcal/mol
 G_dispersion     =       0.00000000 hartree =       0.00000000 kcal/mol
 G_repulsion      =       0.00000000 hartree =       0.00000000 kcal/mol
 --------------------------------------------------
 Non-electrostatic Free Energy =       0.00000000 hartree =       0.00000000 kcal/mol
 Total                         =      -0.02151484 hartree =     -13.50076587 kcal/mol
 --------------------------------------------------
 SCF Energy (H0 + V/2)                       =   -1570.68879249 
 Solute Internal Energy (H0)                 =   -1570.66727765 
 Total Free Energy (H0 + V/2 + non-elec)     =   -1570.68879249 hartree
                                             = -985622.09328085 kcal/mol
***********************************************************

 SCF   energy in the final basis set =    -1570.6887924897
 Total energy in the final basis set =    -1570.6887924897


 --------------------------------------------------------------
  Generalized many-body perturbation theory program
  by Joonho Lee, Fazle Rob, Xintian Feng, Evgeny Epifanovsky

 No regularization used 
 (reg. param. = 0.0000e+00)
  (P|Q)^-1/2 Time:  CPU 118.70 s  wall 1.99 s

 In RI-MP2 calculation: 
 # of frozen core orbitals: 31

 Components of the RIMP2 correlation energy:
        aaaa    correlation energy =        -0.6173575263 a.u.
        abab    correlation energy =        -3.3923330790 a.u.
        bbbb    correlation energy =        -0.6173575263 a.u.
        non-Brillouin singles      =        -0.0000000000 a.u.
        total same-spin energy     =        -1.2347150525 a.u.
        total opposite-spin energy =        -3.3923330790 a.u.

 Total  RIMP2   correlation energy =        -4.6270481316 a.u.
        RIMP2         total energy =     -1575.3158406213 a.u.

 RI-MP2 Energy Time:  CPU 1838.58 s  wall 31.20 s
 
 --------------------------------------------------------------
 
                    Orbital Energies (a.u.)
 --------------------------------------------------------------
 
 Alpha MOs
 -- Occupied --
-91.9937 -20.5586 -20.5565 -20.5552 -20.5538 -15.6312 -15.6305 -11.3999
-11.3965 -11.3916 -11.3908 -11.3193 -11.3023 -11.3006 -11.2996 -11.2960
-11.2950 -11.2918 -11.2893 -11.2874 -11.2839 -11.2793 -11.2785 -11.2648
-11.2644 -11.2552 -11.2505  -8.9934  -6.6743  -6.6738  -6.6731  -1.4249
 -1.4246  -1.4042  -1.4035  -1.2675  -1.2652  -1.2171  -1.1772  -1.1443
 -1.1166  -1.0638  -1.0496  -0.9926  -0.9903  -0.9865  -0.9588  -0.9476
 -0.8972  -0.8793  -0.8786  -0.8614  -0.7966  -0.7794  -0.7729  -0.7620
 -0.7362  -0.7205  -0.7040  -0.6942  -0.6819  -0.6738  -0.6664  -0.6622
 -0.6562  -0.6417  -0.6370  -0.6336  -0.6284  -0.6129  -0.5900  -0.5839
 -0.5790  -0.5724  -0.5656  -0.5630  -0.5619  -0.5559  -0.5533  -0.5474
 -0.5366  -0.5258  -0.5236  -0.5169  -0.4826  -0.4691  -0.4662  -0.4632
 -0.4592  -0.4521  -0.4289  -0.4188  -0.4097  -0.3757  -0.3546  -0.3368
 -0.3008
 -- Virtual --
 -0.0205   0.0530   0.0678   0.1039   0.1309   0.1534   0.1586   0.1592
  0.1663   0.1718   0.1772   0.1854   0.1972   0.2019   0.2053   0.2083
  0.2210   0.2275   0.2295   0.2341   0.2486   0.2532   0.2634   0.2649
  0.2685   0.3083   0.3108   0.3153   0.3205   0.3323   0.3368   0.3409
  0.3441   0.3480   0.3538   0.3564   0.3575   0.3628   0.3665   0.3795
  0.3801   0.3876   0.3960   0.3980   0.4009   0.4067   0.4106   0.4149
  0.4247   0.4261   0.4332   0.4391   0.4438   0.4469   0.4540   0.4563
  0.4617   0.4677   0.4685   0.4735   0.4785   0.4842   0.4881   0.4937
  0.5028   0.5086   0.5136   0.5162   0.5185   0.5217   0.5249   0.5307
  0.5345   0.5387   0.5474   0.5511   0.5554   0.5586   0.5625   0.5671
  0.5706   0.5725   0.5839   0.5882   0.5923   0.5942   0.5964   0.5993
  0.6022   0.6059   0.6151   0.6170   0.6211   0.6244   0.6286   0.6309
  0.6339   0.6355   0.6370   0.6425   0.6532   0.6597   0.6682   0.6775
  0.6828   0.6843   0.6938   0.7014   0.7027   0.7084   0.7121   0.7208
  0.7260   0.7327   0.7391   0.7422   0.7559   0.7582   0.7639   0.7666
  0.7778   0.7825   0.7877   0.7902   0.7999   0.8073   0.8125   0.8214
  0.8274   0.8305   0.8405   0.8430   0.8472   0.8529   0.8564   0.8602
  0.8633   0.8654   0.8725   0.8785   0.8835   0.8893   0.8979   0.9053
  0.9125   0.9173   0.9209   0.9273   0.9353   0.9388   0.9433   0.9480
  0.9570   0.9587   0.9649   0.9682   0.9703   0.9772   0.9817   0.9859
  0.9925   0.9957   1.0052   1.0119   1.0147   1.0196   1.0296   1.0330
  1.0333   1.0420   1.0493   1.0542   1.0582   1.0654   1.0685   1.0745
  1.0746   1.0791   1.0827   1.0863   1.0949   1.1007   1.1089   1.1159
  1.1263   1.1318   1.1371   1.1393   1.1429   1.1527   1.1542   1.1577
  1.1611   1.1654   1.1694   1.1763   1.1830   1.1867   1.1931   1.2011
  1.2113   1.2123   1.2129   1.2250   1.2267   1.2288   1.2347   1.2387
  1.2480   1.2495   1.2520   1.2588   1.2649   1.2705   1.2811   1.3021
  1.3147   1.3247   1.3261   1.3332   1.3420   1.3454   1.3489   1.3556
  1.3652   1.3773   1.3810   1.3850   1.3874   1.3985   1.4028   1.4179
  1.4198   1.4226   1.4297   1.4443   1.4486   1.4510   1.4639   1.4643
  1.4739   1.4773   1.4837   1.4921   1.4932   1.4999   1.5137   1.5150
  1.5266   1.5325   1.5369   1.5476   1.5541   1.5564   1.5599   1.5673
  1.5730   1.5789   1.5850   1.5920   1.5991   1.6101   1.6283   1.6397
  1.6422   1.6487   1.6534   1.6591   1.6661   1.6770   1.6838   1.6907
  1.6984   1.7083   1.7252   1.7273   1.7369   1.7421   1.7472   1.7500
  1.7662   1.7706   1.7742   1.7867   1.7937   1.8032   1.8062   1.8160
  1.8334   1.8369   1.8382   1.8522   1.8556   1.8570   1.8647   1.8704
  1.8727   1.8881   1.8976   1.9067   1.9167   1.9247   1.9389   1.9512
  1.9612   1.9707   1.9735   1.9753   1.9971   2.0048   2.0200   2.0364
  2.0514   2.0556   2.0719   2.0819   2.0897   2.1070   2.1268   2.1364
  2.1505   2.1554   2.1631   2.1730   2.1924   2.2068   2.2216   2.2323
  2.2382   2.2444   2.2621   2.2752   2.2848   2.2872   2.2906   2.3010
  2.3215   2.3248   2.3446   2.3533   2.3623   2.3695   2.3762   2.3844
  2.3957   2.4180   2.4309   2.4355   2.4489   2.4517   2.4575   2.4720
  2.4853   2.4916   2.5000   2.5055   2.5157   2.5171   2.5302   2.5524
  2.5531   2.5681   2.5750   2.5868   2.5888   2.5977   2.6085   2.6128
  2.6160   2.6254   2.6274   2.6441   2.6516   2.6628   2.6669   2.6705
  2.6726   2.6804   2.6889   2.6962   2.7112   2.7121   2.7190   2.7247
  2.7342   2.7479   2.7487   2.7570   2.7584   2.7713   2.7817   2.7967
  2.8010   2.8026   2.8255   2.8356   2.8387   2.8479   2.8558   2.8585
  2.8622   2.8687   2.8736   2.8803   2.8874   2.8987   2.9041   2.9099
  2.9183   2.9209   2.9252   2.9396   2.9516   2.9563   2.9655   2.9697
  2.9743   2.9784   2.9925   2.9961   3.0035   3.0061   3.0085   3.0166
  3.0224   3.0347   3.0395   3.0425   3.0437   3.0562   3.0608   3.0750
  3.0859   3.0864   3.0959   3.0994   3.1057   3.1084   3.1124   3.1214
  3.1294   3.1329   3.1351   3.1443   3.1611   3.1724   3.1745   3.1809
  3.1906   3.1947   3.2002   3.2046   3.2153   3.2165   3.2231   3.2266
  3.2306   3.2351   3.2382   3.2444   3.2493   3.2566   3.2628   3.2653
  3.2690   3.2725   3.2787   3.2876   3.2915   3.2943   3.3015   3.3071
  3.3083   3.3099   3.3138   3.3229   3.3266   3.3296   3.3328   3.3363
  3.3409   3.3494   3.3504   3.3551   3.3619   3.3654   3.3660   3.3693
  3.3708   3.3837   3.3880   3.3981   3.4005   3.4063   3.4159   3.4194
  3.4231   3.4247   3.4304   3.4354   3.4402   3.4484   3.4513   3.4582
  3.4601   3.4641   3.4702   3.4770   3.4792   3.4857   3.4884   3.4916
  3.4975   3.5011   3.5031   3.5113   3.5128   3.5139   3.5220   3.5269
  3.5321   3.5360   3.5464   3.5526   3.5622   3.5636   3.5748   3.5817
  3.5891   3.5965   3.6007   3.6040   3.6079   3.6173   3.6200   3.6306
  3.6320   3.6367   3.6396   3.6433   3.6528   3.6622   3.6718   3.6801
  3.6860   3.6898   3.6951   3.6997   3.7063   3.7080   3.7123   3.7169
  3.7295   3.7323   3.7407   3.7438   3.7512   3.7548   3.7583   3.7631
  3.7706   3.7827   3.7848   3.7871   3.7955   3.7987   3.8056   3.8068
  3.8144   3.8243   3.8327   3.8385   3.8435   3.8525   3.8572   3.8612
  3.8697   3.8786   3.8828   3.8887   3.8922   3.9039   3.9082   3.9220
  3.9280   3.9350   3.9384   3.9490   3.9575   3.9630   3.9645   3.9811
  3.9869   3.9992   4.0033   4.0103   4.0129   4.0239   4.0418   4.0479
  4.0606   4.0669   4.0755   4.0790   4.0904   4.0973   4.1001   4.1082
  4.1263   4.1334   4.1350   4.1391   4.1481   4.1578   4.1623   4.1711
  4.1753   4.1879   4.1946   4.1977   4.2053   4.2162   4.2280   4.2397
  4.2434   4.2622   4.2704   4.2733   4.2784   4.2822   4.2866   4.2935
  4.2970   4.3001   4.3081   4.3134   4.3206   4.3253   4.3315   4.3470
  4.3485   4.3556   4.3658   4.3679   4.3722   4.3774   4.3814   4.3898
  4.3908   4.4008   4.4043   4.4080   4.4143   4.4251   4.4306   4.4518
  4.4569   4.4593   4.4734   4.4957   4.5009   4.5072   4.5134   4.5174
  4.5214   4.5232   4.5415   4.5441   4.5544   4.5633   4.5698   4.5733
  4.5800   4.5851   4.5858   4.5929   4.6010   4.6146   4.6268   4.6406
  4.6487   4.6522   4.6649   4.6690   4.6725   4.6859   4.6890   4.6913
  4.7140   4.7258   4.7356   4.7470   4.7712   4.7754   4.7808   4.7966
  4.8113   4.8302   4.8349   4.8402   4.8476   4.8615   4.8774   4.8798
  4.8860   4.8940   4.9268   4.9381   4.9456   4.9672   4.9753   4.9867
  5.0043   5.0075   5.0128   5.0352   5.0458   5.0507   5.0521   5.0612
  5.1042   5.1061   5.1146   5.1217   5.1254   5.1338   5.1423   5.1618
  5.1644   5.1780   5.1878   5.1929   5.2097   5.2397   5.2564   5.2605
  5.2724   5.2808   5.2837   5.3007   5.3071   5.3235   5.3327   5.3382
  5.3682   5.3946   5.3956   5.4023   5.4205   5.4315   5.4337   5.4694
  5.4812   5.5071   5.5087   5.5126   5.5150   5.5451   5.5473   5.5582
  5.5604   5.5625   5.5736   5.5747   5.5776   5.5926   5.6042   5.6108
  5.6254   5.6383   5.6523   5.6538   5.6550   5.6768   5.6797   5.6952
  5.7017   5.7162   5.7213   5.7428   5.7503   5.7602   5.7627   5.7724
  5.7789   5.7878   5.8114   5.8265   5.8508   5.8884   5.9156   5.9197
  5.9476   5.9590   6.0011   6.0167   6.0237   6.0345   6.0511   6.0650
  6.0986   6.1025   6.1074   6.1203   6.1282   6.1865   6.2030   6.2145
  6.2178   6.2209   6.2288   6.2615   6.2691   6.2783   6.3063   6.3433
  6.3540   6.4028   6.4457   6.4477   6.4675   6.5267   6.5622   6.5728
  6.5881   6.6100   6.6456   6.6478   6.6602   6.7063   6.7443   6.8330
  6.8370   6.8816   6.8861   6.8972   6.9114   6.9326   6.9839   7.0792
  7.1147   7.1441   7.1886   7.1955   7.2339   7.3324   7.3423   7.3444
  7.3640   7.4690   7.5477   7.5579   7.5742   7.5804   7.6086   7.6344
  7.6798   7.6985   7.7375   8.4397   9.9282  10.3563  11.1748  11.2652
 11.7224  11.7603  11.9921  12.3821  12.4754  12.5930  12.8475  13.1115
 13.3890  13.5574  13.8167  13.9467  14.0221  14.1576  14.3164  14.4065
 14.4975  14.7578  15.3675  15.7398  15.9991
 --------------------------------------------------------------
 
          Ground-State Mulliken Net Atomic Charges

     Atom                 Charge (a.u.)
  ----------------------------------------
      1 C                    -0.142273
      2 C                    -0.109957
      3 C                    -0.033663
      4 C                    -0.004688
      5 H                     0.188303
      6 C                     0.000285
      7 C                     0.071690
      8 C                     0.040769
      9 C                    -0.064935
     10 C                    -0.179752
     11 C                     0.091746
     12 H                     0.167641
     13 C                     0.359154
     14 C                     0.367059
     15 N                    -0.101717
     16 C                     0.359878
     17 C                     0.375837
     18 N                    -0.092833
     19 O                    -0.464273
     20 O                    -0.476422
     21 O                    -0.482773
     22 O                    -0.476620
     23 C                    -0.201054
     24 H                     0.141050
     25 H                     0.112609
     26 H                     0.112466
     27 C                    -0.197449
     28 H                     0.134305
     29 H                     0.112266
     30 H                     0.112958
     31 H                     0.213014
     32 C                    -0.040015
     33 S                     0.017852
     34 C                    -0.187661
     35 C                    -0.110217
     36 C                    -0.232969
     37 H                     0.211738
     38 H                     0.191182
     39 H                     0.217468
  ----------------------------------------
  Sum of atomic charges =     0.000000

 -----------------------------------------------------------------
                    Cartesian Multipole Moments
 -----------------------------------------------------------------
    Charge (ESU x 10^10)
                -0.0000
    Dipole Moment (Debye)
         X       0.0703      Y       2.0048      Z      -0.8363
       Tot       2.1733
    Quadrupole Moments (Debye-Ang)
        XX    -166.4592     XY      -0.1550     YY    -167.0268
        XZ      -6.6731     YZ       0.7299     ZZ    -175.7146
    Octopole Moments (Debye-Ang^2)
       XXX      17.9610    XXY     473.1227    XYY       5.0845
       YYY    1609.1019    XXZ      -0.7253    XYZ      26.7125
       YYZ       3.7553    XZZ       8.6398    YZZ     552.7373
       ZZZ      -0.3555
    Hexadecapole Moments (Debye-Ang^3)
      XXXX    -859.0854   XXXY     103.0981   XXYY   -2879.2129
      XYYY     257.3772   YYYY  -17236.9519   XXXZ    -925.9093
      XXYZ      52.3120   XYYZ    -499.5848   YYYZ     702.9559
      XXZZ   -1096.5447   XYZZ     -72.9061   YYZZ   -4074.5778
      XZZZ   -1003.7972   YZZZ     -17.9738   ZZZZ   -5731.4397
 -----------------------------------------------------------------
 Total job time:  255.34s(wall), 7772.91s(cpu) 
 Wed Sep 20 10:34:08 2023

        *************************************************************
        *                                                           *
        *  Thank you very much for using Q-Chem.  Have a nice day.  *
        *                                                           *
        *************************************************************


0 sent ACK to 0 
now end server 0 ... 
cleanup process ... done
remove work dirs ./qchem710991.0 -- ./qchem710991.0
rm -rf ./qchem710991.0
rm -rf ./qchem710991
