You are running Q-Chem version: 5.4.0

#
# job setting
#
local host:  exp-3-18
current dir: /expanse/lustre/projects/csd626/rramji/aromodel/PNDIT/Rotation_Test
input file:  Dimethyl_Naphthalene_Dicarboximide_Phi_10_Theta_120_Thiophene.qcin
output file: 
nprocs     : 1
nthreads   : 64
#
# qchem installation setting
#
QC:          /cm/shared/apps/spack/cpu/opt/spack/linux-centos8-zen2/gcc-10.2.0/qchem-5.4-akfmr7b3t57bfs6qan3padb2wnb2i7cl
QCAUX:       /cm/shared/apps/spack/cpu/opt/spack/linux-centos8-zen2/gcc-10.2.0/qchem-5.4-akfmr7b3t57bfs6qan3padb2wnb2i7cl/qcaux
QCPROG:      /cm/shared/apps/spack/cpu/opt/spack/linux-centos8-zen2/gcc-10.2.0/qchem-5.4-akfmr7b3t57bfs6qan3padb2wnb2i7cl/exe/qcprog.exe
QCPROG_S:    /cm/shared/apps/spack/cpu/opt/spack/linux-centos8-zen2/gcc-10.2.0/qchem-5.4-akfmr7b3t57bfs6qan3padb2wnb2i7cl/exe/qcprog.exe_s
PARALLEL:    -DPARALLEL
QCMPI:       mpich
#
# qchem directory setting
#
qcrun:       qchem3555697
QCSCRATCH:   .
QCLOCALSCR:  
QCTMPDIR:    .
QCFILEPREF:  ./qchem3555697
QCSAVEDIR:   
workdirs:    ./qchem3555697
workdir0:    ./qchem3555697
partmpdirs =  
#
# parallel setting
#
QCRSH:           ssh
QCMPI:           mpich
QCMPIRUN:        /cm/shared/apps/spack/cpu/opt/spack/linux-centos8-zen2/gcc-10.2.0/qchem-5.4-akfmr7b3t57bfs6qan3padb2wnb2i7cl/bin/mpi/mpirun_qchem
QCMACHINEFILE:   ./qchem3555697/hostfile
exp-3-18

#
# env setting
#
exported envs:   QC QCAUX QCSCRATCH QCRUNNAME QCFILEPREF QCPROG QCPROG_S GUIFILE

Running Job 1 of 1 Dimethyl_Naphthalene_Dicarboximide_Phi_10_Theta_120_Thiophene.qcin
qchem Dimethyl_Naphthalene_Dicarboximide_Phi_10_Theta_120_Thiophene.qcin_3555697.0 ./qchem3555697/ 1
/cm/shared/apps/spack/cpu/opt/spack/linux-centos8-zen2/gcc-10.2.0/qchem-5.4-akfmr7b3t57bfs6qan3padb2wnb2i7cl/bin/mpi/mpirun_qchem -machinefile ./qchem3555697/hostfile -np 1 /cm/shared/apps/spack/cpu/opt/spack/linux-centos8-zen2/gcc-10.2.0/qchem-5.4-akfmr7b3t57bfs6qan3padb2wnb2i7cl/exe/qcprog.exe Dimethyl_Naphthalene_Dicarboximide_Phi_10_Theta_120_Thiophene.qcin_3555697.0 ./qchem3555697/

Process 0 of 1 is on exp-3-18 - thread support 0
initial socket setup ...start
initial socket setup ...done 
now start server 0 ... 
                  Welcome to Q-Chem
     A Quantum Leap Into The Future Of Chemistry


 Q-Chem 5.4, Q-Chem, Inc., Pleasanton, CA (2021)

 License issued to: University of California, San Diego (site)

 E. Epifanovsky,  A. T. B. Gilbert,  Xintian Feng,  Joonho Lee,  Yuezhi Mao,  
 N. Mardirossian,  P. Pokhilko,  A. White,  M. Wormit,  M. P. Coons,  
 A. L. Dempwolff,  Zhengting Gan,  D. Hait,  P. R. Horn,  L. D. Jacobson,  
 I. Kaliman,  J. Kussmann,  A. W. Lange,  Ka Un Lao,  D. S. Levine,  Jie Liu,  
 S. C. McKenzie,  A. F. Morrison,  K. Nanda,  F. Plasser,  D. R. Rehn,  
 M. L. Vidal,  Zhi-Qiang You,  Ying Zhu,  B. Alam,  B. Albrecht,  
 A. Aldossary,  E. Alguire,  J. H. Andersen,  D. Barton,  K. Begam,  A. Behn,  
 Y. A. Bernard,  E. J. Berquist,  H. Burton,  A. Carreras,  K. Carter-Fenk,  
 R. Chakraborty,  A. D. Chien,  K. D. Closser,  V. Cofer-Shabica,  
 S. Dasgupta,  Jia Deng,  M. de Wergifosse,  M. Diedenhofen,  Hainam Do,  
 S. Ehlert,  Po-Tung Fang,  S. Fatehi,  Qingguo Feng,  J. Gayvert,  
 Qinghui Ge,  G. Gidofalvi,  M. Goldey,  J. Gomes,  C. Gonzalez-Espinoza,  
 S. Gulania,  A. Gunina,  M. W. D. Hanson-Heine,  P. H. P. Harbach,  
 A. W. Hauser,  M. F. Herbst,  M. Hernandez Vera,  M. Hodecker,  
 Z. C. Holden,  S. Houck,  Xunkun Huang,  Kerwin Hui,  B. C. Huynh,  
 M. Ivanov,  Hyunjun Ji,  Hanjie Jiang,  B. Kaduk,  S. Kaehler,  
 K. Khistyaev,  Jaehoon Kim,  P. Klunzinger,  Z. Koczor-Benda,  
 Joong Hoon Koh,  D. Kosenkov,  L. Koulias,  T. Kowalczyk,  C. M. Krauter,  
 K. Kue,  A. Kunitsa,  T. Kus,  A. Landau,  K. V. Lawler,  D. Lefrancois,  
 S. Lehtola,  Rain Li,  Yi-Pei Li,  Jiashu Liang,  M. Liebenthal,  
 Hung-Hsuan Lin,  You-Sheng Lin,  Fenglai Liu,  Kuan-Yu Liu,  
 M. Loipersberger,  A. Luenser,  A. Manjanath,  P. Manohar,  E. Mansoor,  
 S. F. Manzer,  Shan-Ping Mao,  A. V. Marenich,  T. Markovich,  S. Mason,  
 S. A. Maurer,  P. F. McLaughlin,  M. F. S. J. Menger,  J.-M. Mewes,  
 S. A. Mewes,  P. Morgante,  J. W. Mullinax,  T. S. Nguyen-Beck,  
 K. J. Oosterbaan,  G. Paran,  Alexander C. Paul,  Suranjan K. Paul,  
 F. Pavosevic,  Zheng Pei,  S. Prager,  E. I. Proynov,  E. Ramos,  B. Rana,  
 A. E. Rask,  A. Rettig,  R. M. Richard,  F. Rob,  E. Rossomme,  T. Scheele,  
 M. Scheurer,  M. Schneider,  N. Sergueev,  S. M. Sharada,  W. Skomorowski,  
 D. W. Small,  C. J. Stein,  Yu-Chuan Su,  E. J. Sundstrom,  Zhen Tao,  
 J. Thirman,  T. Tsuchimochi,  N. M. Tubman,  S. P. Veccham,  O. Vydrov,  
 J. Wenzel,  J. Witte,  A. Yamada,  Kun Yao,  S. Yeganeh,  S. R. Yost,  
 A. Zech,  Igor Ying Zhang,  Xing Zhang,  Yu Zhang,  D. Zuev,  
 A. Aspuru-Guzik,  A. T. Bell,  N. A. Besley,  K. B. Bravaya,  B. R. Brooks,  
 D. Casanova,  Jeng-Da Chai,  S. Coriani,  C. J. Cramer,  
 A. E. DePrince, III,  R. A. DiStasio Jr.,  A. Dreuw,  B. D. Dunietz,  
 T. R. Furlani,  W. A. Goddard III,  S. Grimme,  S. Hammes-Schiffer,  
 T. Head-Gordon,  W. J. Hehre,  Chao-Ping Hsu,  T.-C. Jagau,  Yousung Jung,  
 A. Klamt,  Jing Kong,  D. S. Lambrecht,  WanZhen Liang,  N. J. Mayhall,  
 C. W. McCurdy,  J. B. Neaton,  C. Ochsenfeld,  J. A. Parkhill,  R. Peverati,  
 V. A. Rassolov,  Yihan Shao,  L. V. Slipchenko,  T. Stauch,  R. P. Steele,  
 J. E. Subotnik,  A. J. W. Thom,  A. Tkatchenko,  D. G. Truhlar,  
 T. Van Voorhis,  T. A. Wesolowski,  K. B. Whaley,  H. L. Woodcock III,  
 P. M. Zimmerman,  S. Faraji,  P. M. W. Gill,  M. Head-Gordon,  
 J. M. Herbert,  A. I. Krylov

 Contributors to earlier versions of Q-Chem not listed above: 
 R. D. Adamson,  B. Austin,  R. Baer,  J. Baker,  G. J. O. Beran,  
 K. Brandhorst,  S. T. Brown,  E. F. C. Byrd,  A. K. Chakraborty,  
 G. K. L. Chan,  Chun-Min Chang,  Yunqing Chen,  C.-L. Cheng,  
 Siu Hung Chien,  D. M. Chipman,  D. L. Crittenden,  H. Dachsel,  
 R. J. Doerksen,  A. D. Dutoi,  R. G. Edgar,  J. Fosso-Tande,  
 L. Fusti-Molnar,  D. Ghosh,  A. Ghysels,  A. Golubeva-Zadorozhnaya,  
 J. Gonthier,  M. S. Gordon,  S. R. Gwaltney,  G. Hawkins,  J. E. Herr,  
 A. Heyden,  S. Hirata,  E. G. Hohenstein,  G. Kedziora,  F. J. Keil,  
 C. Kelley,  Jihan Kim,  R. A. King,  R. Z. Khaliullin,  P. P. Korambath,  
 W. Kurlancheek,  A. Laurent,  A. M. Lee,  M. S. Lee,  S. V. Levchenko,  
 Ching Yeh Lin,  D. Liotard,  E. Livshits,  R. C. Lochan,  I. Lotan,  
 L. A. Martinez-Martinez,  P. E. Maslen,  N. Nair,  D. P. O'Neill,  
 D. Neuhauser,  E. Neuscamman,  C. M. Oana,  R. Olivares-Amaya,  R. Olson,  
 T. M. Perrine,  B. Peters,  P. A. Pieniazek,  A. Prociuk,  Y. M. Rhee,  
 J. Ritchie,  M. A. Rohrdanz,  E. Rosta,  N. J. Russ,  H. F. Schaefer III,  
 M. W. Schmidt,  N. E. Schultz,  S. Sharma,  N. Shenvi,  C. D. Sherrill,  
 A. C. Simmonett,  A. Sodt,  T. Stein,  D. Stuck,  K. S. Thanthiriwatte,  
 V. Vanovschi,  L. Vogt,  Tao Wang,  A. Warshel,  M. A. Watson,  
 C. F. Williams,  Q. Wu,  X. Xu,  Jun Yang,  W. Zhang,  Yan Zhao

 Please cite Q-Chem as follows:
 Y. Shao et al., Mol. Phys. 113, 184-215 (2015)
 DOI: 10.1080/00268976.2014.952696

 Q-Chem 5.4.0 for Intel X86 EM64T Linux

 Parts of Q-Chem use Armadillo 9.800.1 (Horizon Scraper).
 http://arma.sourceforge.net/

 Q-Chem begins on Wed Sep 20 08:57:43 2023  

 Host: 
0

     Scratch files written to ./qchem3555697//
 May1621 |scratch|qcdevops|jenkins|workspace|build_RNUM    
 Parallel job on  1  processors
 Processing $rem in /cm/shared/apps/spack/cpu/opt/spack/linux-centos8-zen2/gcc-10.2.0/qchem-5.4-akfmr7b3t57bfs6qan3padb2wnb2i7cl/config/preferences:
 Processing $rem in /home/rramji/.qchemrc:
 Symmetry turned off for PCM/SM12/SMD calculation
 Core orbitals will be frozen

 Checking the input file for inconsistencies... 	...done.

 Q-Chem warning in module forms1/BasisType.C, line 2236:

 You are not using the predefined 5D/6D in this basis set.


--------------------------------------------------------------
User input:
--------------------------------------------------------------
$molecule
0 1
C	0.223244	-6.741404	0.127184
C	1.354118	-6.155638	0.779949
C	-0.715408	-5.791452	-0.415271
C	1.595259	-4.803786	0.919437
H	2.114613	-6.821518	1.218801
C	-0.463133	-4.378638	-0.268806
C	0.688925	-3.838032	0.396744
C	-1.368449	-3.413062	-0.790835
C	0.939189	-2.426473	0.542026
C	-1.130363	-2.059348	-0.652669
C	0.000000	-1.478216	0.000000
H	-1.891815	-1.394783	-1.091814
C	-1.963749	-6.187987	-1.138124
C	-2.607351	-3.798164	-1.506241
N	-2.817348	-5.170003	-1.629443
C	2.837621	-4.424987	1.636646
C	2.188982	-2.036627	1.264474
N	3.042637	-3.049156	1.756205
O	-2.301222	-7.353131	-1.336258
O	-3.407386	-2.986854	-1.967056
O	3.628041	-5.248946	2.092167
O	2.545844	-0.878829	1.472160
C	-4.040164	-5.563799	-2.336642
H	-4.078749	-6.664085	-2.360245
H	-4.027880	-5.147101	-3.361968
H	-4.922811	-5.148785	-1.813424
C	4.247167	-2.587487	2.452149
H	4.804209	-3.483329	2.772531
H	3.965991	-1.964972	3.322697
H	4.859678	-1.962932	1.774507
H	0.062364	-7.822318	0.033931
C	0.000000	0.000000	0.000000
S	0.137535	0.781156	1.580530
C	0.421895	2.393994	0.904911
C	0.173134	0.982857	-0.985400
C	0.402294	2.283058	-0.493528
H	0.132237	0.750786	-2.059934
H	0.555196	3.150621	-1.152593
H	0.574741	3.261310	1.556025
$end

$rem
JOBTYPE		SP
EXCHANGE	HF
CORRELATION	pRIMP2
BASIS		cc-pvtz
METHOD		rimp2
AUX_BASIS	rimp2-cc-pvtz
SOLVENT_METHOD	PCM
PURECART	11111
SYMMETRY	false
MEM_TOTAL	110000
SCF_CONVERGENCE = 6
THRESH=10
GUI = 2
$end



$solvent
dielectric 4.90
$end
--------------------------------------------------------------
 ----------------------------------------------------------------
             Standard Nuclear Orientation (Angstroms)
    I     Atom           X                Y                Z
 ----------------------------------------------------------------
    1      C       0.2232440000    -6.7414040000     0.1271840000
    2      C       1.3541180000    -6.1556380000     0.7799490000
    3      C      -0.7154080000    -5.7914520000    -0.4152710000
    4      C       1.5952590000    -4.8037860000     0.9194370000
    5      H       2.1146130000    -6.8215180000     1.2188010000
    6      C      -0.4631330000    -4.3786380000    -0.2688060000
    7      C       0.6889250000    -3.8380320000     0.3967440000
    8      C      -1.3684490000    -3.4130620000    -0.7908350000
    9      C       0.9391890000    -2.4264730000     0.5420260000
   10      C      -1.1303630000    -2.0593480000    -0.6526690000
   11      C       0.0000000000    -1.4782160000     0.0000000000
   12      H      -1.8918150000    -1.3947830000    -1.0918140000
   13      C      -1.9637490000    -6.1879870000    -1.1381240000
   14      C      -2.6073510000    -3.7981640000    -1.5062410000
   15      N      -2.8173480000    -5.1700030000    -1.6294430000
   16      C       2.8376210000    -4.4249870000     1.6366460000
   17      C       2.1889820000    -2.0366270000     1.2644740000
   18      N       3.0426370000    -3.0491560000     1.7562050000
   19      O      -2.3012220000    -7.3531310000    -1.3362580000
   20      O      -3.4073860000    -2.9868540000    -1.9670560000
   21      O       3.6280410000    -5.2489460000     2.0921670000
   22      O       2.5458440000    -0.8788290000     1.4721600000
   23      C      -4.0401640000    -5.5637990000    -2.3366420000
   24      H      -4.0787490000    -6.6640850000    -2.3602450000
   25      H      -4.0278800000    -5.1471010000    -3.3619680000
   26      H      -4.9228110000    -5.1487850000    -1.8134240000
   27      C       4.2471670000    -2.5874870000     2.4521490000
   28      H       4.8042090000    -3.4833290000     2.7725310000
   29      H       3.9659910000    -1.9649720000     3.3226970000
   30      H       4.8596780000    -1.9629320000     1.7745070000
   31      H       0.0623640000    -7.8223180000     0.0339310000
   32      C       0.0000000000     0.0000000000     0.0000000000
   33      S       0.1375350000     0.7811560000     1.5805300000
   34      C       0.4218950000     2.3939940000     0.9049110000
   35      C       0.1731340000     0.9828570000    -0.9854000000
   36      C       0.4022940000     2.2830580000    -0.4935280000
   37      H       0.1322370000     0.7507860000    -2.0599340000
   38      H       0.5551960000     3.1506210000    -1.1525930000
   39      H       0.5747410000     3.2613100000     1.5560250000
 ----------------------------------------------------------------
 Nuclear Repulsion Energy =        2500.60910501 hartrees
 There are       97 alpha and       97 beta electrons
 Requested basis set is cc-pVTZ
 There are 344 shells and 982 basis functions

 Total QAlloc Memory Limit 110000 MB
 Mega-Array Size       188 MB
 MEM_STATIC part       192 MB
 Discretize the solute cavity surface with Lebedev spheres
	Using 110 Lebedev grid points for each H atom
	Using 194 Lebedev grid points for other atoms
	Atomic van der Waals radii will be scaled by 1.20
 Remove points where switching function is < 1.0e-08
 Keep 2538 surface tesserae and discard 4020 interior tesserae
 Molecular Surface Area = 367.677 Angst**2
 Requested basis set is rimp2-cc-pVTZ
 There are 750 shells and 2588 basis functions
 A cutoff of  1.0D-10 yielded  31675 shell pairs
 There are    244015 function pairs (    317184 Cartesian)
 Smallest overlap matrix eigenvalue = 9.68E-06

 Q-Chem warning in module stvman/mkSTV.C, line 323:

 Overlap eigenvalue is smaller than square root of threshold
 Use THRESH >= 12 to get rid of this warning


 Scale SEOQF with 1.000000e-01/1.000000e-02/1.000000e-01

 Standard Electronic Orientation quadrupole field applied
 Nucleus-field energy     =     0.0000000161 hartrees
 Guess from superposition of atomic densities
 Warning:  Energy on first SCF cycle will be non-variational
 SAD guess density has 194.000000 electrons

 -----------------------------------------------------------------------
  General SCF calculation program by
  Eric Jon Sundstrom, Paul Horn, Yuezhi Mao, Dmitri Zuev, Alec White,
  David Stuck, Shaama M.S., Shane Yost, Joonho Lee, David Small,
  Daniel Levine, Susi Lehtola, Hugh Burton, Evgeny Epifanovsky,
  Bang C. Huynh
 -----------------------------------------------------------------------
 Hartree-Fock
 using 64 threads for integral computing
 -------------------------------------------------------
 OpenMP Integral computing Module                
 Release: version 1.0, May 2013, Q-Chem Inc. Pittsburgh 
 -------------------------------------------------------
 A restricted SCF calculation will be
 performed using DIIS
 SCF converges when DIIS error is below 1.0e-06
 ---------------------------------------
  Cycle       Energy         DIIS error
 ---------------------------------------
    1   -1581.2894171835      1.87e-02  
    2   -1570.1123334262      2.09e-03  
    3   -1570.4381147451      1.63e-03  
    4   -1570.6703605770      2.56e-04  
    5   -1570.6823462354      7.54e-05  
    6   -1570.6833849194      2.76e-05  
    7   -1570.6836192549      1.42e-05  
    8   -1570.6836933924      5.85e-06  
    9   -1570.6837050282      2.30e-06  
   10   -1570.6837070079      7.24e-07  Convergence criterion met
 ---------------------------------------
 SCF time:   CPU 5830.95s  wall 235.00s 

************** Final PCM Free Energy Summary **************
 G_electrostatic  =      -0.02448126 hartree =     -15.36222552 kcal/mol
 G_cavitation     =       0.00000000 hartree =       0.00000000 kcal/mol
 G_dispersion     =       0.00000000 hartree =       0.00000000 kcal/mol
 G_repulsion      =       0.00000000 hartree =       0.00000000 kcal/mol
 --------------------------------------------------
 Non-electrostatic Free Energy =       0.00000000 hartree =       0.00000000 kcal/mol
 Total                         =      -0.02448126 hartree =     -15.36222552 kcal/mol
 --------------------------------------------------
 SCF Energy (H0 + V/2)                       =   -1570.68370701 
 Solute Internal Energy (H0)                 =   -1570.65922574 
 Total Free Energy (H0 + V/2 + non-elec)     =   -1570.68370701 hartree
                                             = -985618.90209287 kcal/mol
***********************************************************

 SCF   energy in the final basis set =    -1570.6837070079
 Total energy in the final basis set =    -1570.6837070079


 --------------------------------------------------------------
  Generalized many-body perturbation theory program
  by Joonho Lee, Fazle Rob, Xintian Feng, Evgeny Epifanovsky

 No regularization used 
 (reg. param. = 0.0000e+00)
  (P|Q)^-1/2 Time:  CPU 120.30 s  wall 2.47 s

 In RI-MP2 calculation: 
 # of frozen core orbitals: 31

 Components of the RIMP2 correlation energy:
        aaaa    correlation energy =        -0.6168900685 a.u.
        abab    correlation energy =        -3.3932642849 a.u.
        bbbb    correlation energy =        -0.6168900685 a.u.
        non-Brillouin singles      =        -0.0000000000 a.u.
        total same-spin energy     =        -1.2337801370 a.u.
        total opposite-spin energy =        -3.3932642849 a.u.

 Total  RIMP2   correlation energy =        -4.6270444218 a.u.
        RIMP2         total energy =     -1575.3107514298 a.u.

 RI-MP2 Energy Time:  CPU 1981.27 s  wall 33.20 s
 
 --------------------------------------------------------------
 
                    Orbital Energies (a.u.)
 --------------------------------------------------------------
 
 Alpha MOs
 -- Occupied --
-91.9857 -20.5588 -20.5564 -20.5549 -20.5542 -15.6314 -15.6303 -11.4004
-11.3956 -11.3925 -11.3907 -11.3162 -11.3063 -11.3030 -11.3013 -11.2989
-11.2983 -11.2903 -11.2865 -11.2862 -11.2822 -11.2806 -11.2779 -11.2647
-11.2644 -11.2583 -11.2478  -8.9853  -6.6660  -6.6655  -6.6650  -1.4251
 -1.4237  -1.4044  -1.4028  -1.2676  -1.2650  -1.2178  -1.1734  -1.1440
 -1.1178  -1.0629  -1.0502  -0.9931  -0.9885  -0.9817  -0.9592  -0.9484
 -0.8969  -0.8798  -0.8775  -0.8616  -0.7946  -0.7771  -0.7736  -0.7599
 -0.7347  -0.7190  -0.7049  -0.6948  -0.6812  -0.6733  -0.6663  -0.6621
 -0.6570  -0.6420  -0.6375  -0.6339  -0.6298  -0.6128  -0.5850  -0.5840
 -0.5779  -0.5716  -0.5661  -0.5642  -0.5641  -0.5553  -0.5533  -0.5484
 -0.5349  -0.5258  -0.5208  -0.5136  -0.4829  -0.4708  -0.4652  -0.4591
 -0.4580  -0.4523  -0.4281  -0.4182  -0.4091  -0.3605  -0.3456  -0.3359
 -0.3140
 -- Virtual --
 -0.0204   0.0618   0.0711   0.0999   0.1204   0.1551   0.1582   0.1591
  0.1656   0.1676   0.1778   0.1818   0.1849   0.1942   0.2014   0.2070
  0.2186   0.2218   0.2277   0.2300   0.2341   0.2404   0.2574   0.2614
  0.2649   0.3056   0.3063   0.3137   0.3175   0.3229   0.3245   0.3332
  0.3426   0.3448   0.3520   0.3571   0.3586   0.3615   0.3698   0.3733
  0.3795   0.3802   0.3847   0.3954   0.4000   0.4031   0.4047   0.4110
  0.4165   0.4271   0.4312   0.4349   0.4414   0.4457   0.4498   0.4535
  0.4572   0.4576   0.4613   0.4729   0.4738   0.4854   0.4885   0.4952
  0.5031   0.5076   0.5095   0.5169   0.5200   0.5259   0.5291   0.5299
  0.5332   0.5390   0.5449   0.5489   0.5531   0.5578   0.5608   0.5633
  0.5661   0.5739   0.5799   0.5834   0.5883   0.5917   0.5962   0.6007
  0.6073   0.6082   0.6134   0.6181   0.6187   0.6235   0.6264   0.6279
  0.6329   0.6339   0.6355   0.6380   0.6408   0.6474   0.6505   0.6657
  0.6721   0.6819   0.6907   0.6949   0.7006   0.7030   0.7075   0.7132
  0.7174   0.7327   0.7353   0.7386   0.7421   0.7566   0.7588   0.7631
  0.7719   0.7764   0.7807   0.7924   0.7997   0.8067   0.8095   0.8144
  0.8164   0.8265   0.8302   0.8370   0.8407   0.8430   0.8476   0.8496
  0.8643   0.8647   0.8695   0.8726   0.8798   0.8869   0.9022   0.9080
  0.9115   0.9211   0.9222   0.9250   0.9316   0.9321   0.9375   0.9403
  0.9479   0.9551   0.9621   0.9682   0.9705   0.9810   0.9818   0.9870
  0.9889   0.9917   0.9998   1.0053   1.0127   1.0179   1.0233   1.0275
  1.0322   1.0371   1.0452   1.0562   1.0576   1.0622   1.0682   1.0705
  1.0770   1.0820   1.0833   1.0862   1.0930   1.1007   1.1023   1.1099
  1.1275   1.1291   1.1338   1.1409   1.1445   1.1474   1.1517   1.1577
  1.1596   1.1643   1.1677   1.1728   1.1795   1.1836   1.1901   1.1953
  1.2001   1.2070   1.2132   1.2165   1.2232   1.2298   1.2353   1.2394
  1.2429   1.2491   1.2544   1.2554   1.2640   1.2704   1.2838   1.2959
  1.3100   1.3238   1.3274   1.3372   1.3406   1.3430   1.3447   1.3580
  1.3665   1.3749   1.3827   1.3833   1.3856   1.3969   1.4138   1.4170
  1.4233   1.4264   1.4360   1.4456   1.4468   1.4504   1.4542   1.4583
  1.4770   1.4827   1.4866   1.4919   1.4993   1.5039   1.5112   1.5158
  1.5205   1.5321   1.5325   1.5474   1.5490   1.5529   1.5613   1.5645
  1.5698   1.5754   1.5794   1.5878   1.5994   1.6078   1.6136   1.6313
  1.6373   1.6462   1.6507   1.6555   1.6679   1.6720   1.6806   1.6844
  1.6897   1.7065   1.7102   1.7161   1.7318   1.7399   1.7451   1.7480
  1.7503   1.7614   1.7644   1.7707   1.7902   1.7963   1.8010   1.8093
  1.8134   1.8263   1.8346   1.8451   1.8504   1.8546   1.8598   1.8644
  1.8681   1.8807   1.8995   1.9044   1.9167   1.9228   1.9364   1.9440
  1.9612   1.9718   1.9768   1.9862   1.9999   2.0049   2.0231   2.0267
  2.0423   2.0464   2.0617   2.0810   2.0997   2.1038   2.1228   2.1283
  2.1426   2.1519   2.1600   2.1874   2.1928   2.1974   2.2160   2.2266
  2.2339   2.2490   2.2529   2.2596   2.2856   2.2901   2.2963   2.3007
  2.3159   2.3212   2.3272   2.3361   2.3540   2.3583   2.3692   2.3785
  2.4097   2.4205   2.4312   2.4380   2.4435   2.4499   2.4565   2.4631
  2.4747   2.4837   2.4855   2.4964   2.5058   2.5177   2.5263   2.5339
  2.5452   2.5590   2.5739   2.5869   2.5894   2.5933   2.6008   2.6060
  2.6124   2.6185   2.6222   2.6432   2.6505   2.6608   2.6660   2.6675
  2.6723   2.6880   2.6923   2.6993   2.7083   2.7149   2.7171   2.7262
  2.7354   2.7429   2.7482   2.7489   2.7556   2.7681   2.7746   2.7890
  2.8069   2.8181   2.8222   2.8316   2.8357   2.8451   2.8478   2.8548
  2.8625   2.8688   2.8705   2.8766   2.8874   2.8944   2.8981   2.9056
  2.9118   2.9267   2.9282   2.9356   2.9448   2.9489   2.9565   2.9608
  2.9732   2.9775   2.9890   2.9958   3.0011   3.0020   3.0083   3.0104
  3.0259   3.0312   3.0350   3.0416   3.0516   3.0580   3.0630   3.0748
  3.0880   3.0903   3.0987   3.1014   3.1079   3.1109   3.1181   3.1263
  3.1299   3.1381   3.1441   3.1534   3.1594   3.1649   3.1755   3.1798
  3.1849   3.1954   3.2031   3.2062   3.2091   3.2132   3.2146   3.2209
  3.2287   3.2300   3.2357   3.2485   3.2520   3.2560   3.2594   3.2677
  3.2729   3.2797   3.2814   3.2866   3.2900   3.2918   3.2962   3.3005
  3.3053   3.3136   3.3195   3.3213   3.3264   3.3291   3.3334   3.3355
  3.3402   3.3446   3.3488   3.3561   3.3586   3.3642   3.3662   3.3691
  3.3781   3.3824   3.3845   3.3888   3.3988   3.3998   3.4073   3.4122
  3.4228   3.4262   3.4295   3.4318   3.4415   3.4505   3.4526   3.4537
  3.4605   3.4657   3.4723   3.4732   3.4759   3.4787   3.4893   3.4938
  3.4980   3.5012   3.5035   3.5071   3.5089   3.5126   3.5173   3.5252
  3.5321   3.5368   3.5385   3.5489   3.5572   3.5613   3.5691   3.5777
  3.5820   3.5884   3.5896   3.5992   3.6098   3.6166   3.6273   3.6307
  3.6329   3.6384   3.6445   3.6454   3.6506   3.6586   3.6700   3.6774
  3.6849   3.6894   3.6934   3.7022   3.7076   3.7108   3.7177   3.7247
  3.7261   3.7307   3.7338   3.7379   3.7517   3.7529   3.7562   3.7607
  3.7727   3.7776   3.7818   3.7835   3.7899   3.7921   3.7984   3.8012
  3.8108   3.8108   3.8290   3.8328   3.8375   3.8450   3.8531   3.8564
  3.8594   3.8642   3.8792   3.8805   3.8849   3.9007   3.9112   3.9237
  3.9300   3.9318   3.9384   3.9448   3.9524   3.9547   3.9630   3.9751
  3.9875   3.9891   4.0009   4.0057   4.0074   4.0170   4.0291   4.0462
  4.0483   4.0570   4.0667   4.0754   4.0866   4.0932   4.0970   4.1070
  4.1217   4.1291   4.1341   4.1467   4.1525   4.1541   4.1564   4.1775
  4.1842   4.1867   4.1897   4.1977   4.2058   4.2091   4.2218   4.2396
  4.2427   4.2485   4.2599   4.2639   4.2707   4.2753   4.2799   4.2888
  4.2937   4.2976   4.2992   4.3042   4.3170   4.3233   4.3311   4.3391
  4.3413   4.3506   4.3560   4.3634   4.3671   4.3687   4.3700   4.3788
  4.3920   4.3964   4.4023   4.4068   4.4167   4.4219   4.4276   4.4354
  4.4419   4.4645   4.4698   4.4834   4.4857   4.5026   4.5163   4.5189
  4.5215   4.5265   4.5317   4.5376   4.5438   4.5522   4.5666   4.5720
  4.5745   4.5814   4.5847   4.5874   4.6057   4.6100   4.6292   4.6323
  4.6428   4.6535   4.6606   4.6665   4.6713   4.6734   4.6897   4.7013
  4.7111   4.7156   4.7330   4.7388   4.7526   4.7637   4.7846   4.7891
  4.8134   4.8222   4.8360   4.8410   4.8459   4.8553   4.8706   4.8762
  4.8887   4.8998   4.9062   4.9249   4.9350   4.9636   4.9651   4.9759
  4.9875   5.0092   5.0189   5.0386   5.0433   5.0482   5.0505   5.0536
  5.0921   5.0990   5.1056   5.1085   5.1231   5.1271   5.1434   5.1459
  5.1671   5.1776   5.1797   5.1889   5.1923   5.2287   5.2372   5.2562
  5.2596   5.2766   5.2783   5.2889   5.3216   5.3298   5.3353   5.3438
  5.3498   5.3783   5.3958   5.4024   5.4199   5.4299   5.4394   5.4503
  5.4919   5.5059   5.5084   5.5094   5.5132   5.5247   5.5477   5.5556
  5.5586   5.5599   5.5741   5.5774   5.5819   5.5904   5.6035   5.6081
  5.6230   5.6333   5.6464   5.6523   5.6545   5.6750   5.6765   5.6876
  5.6978   5.7024   5.7240   5.7365   5.7521   5.7568   5.7608   5.7694
  5.7739   5.7755   5.8101   5.8202   5.8429   5.8823   5.8941   5.9288
  5.9396   5.9616   5.9983   6.0138   6.0224   6.0235   6.0323   6.0476
  6.0800   6.1004   6.1072   6.1152   6.1164   6.1610   6.1938   6.2081
  6.2175   6.2181   6.2213   6.2550   6.2645   6.2689   6.3009   6.3410
  6.3511   6.3790   6.4394   6.4441   6.4646   6.5228   6.5618   6.5698
  6.5871   6.5978   6.6409   6.6469   6.6558   6.6595   6.7037   6.8301
  6.8322   6.8787   6.8858   6.8953   6.9111   6.9237   6.9399   7.0774
  7.0994   7.1380   7.1832   7.1878   7.2269   7.3322   7.3411   7.3441
  7.3561   7.4663   7.5434   7.5571   7.5725   7.5767   7.5910   7.6333
  7.6710   7.6847   7.7217   8.3393   9.8887  10.2905  11.1085  11.2676
 11.6425  11.7132  11.9370  12.3560  12.4409  12.7862  12.8531  12.9087
 13.2504  13.5622  13.8073  13.9338  14.0269  14.1063  14.2050  14.3411
 14.4095  14.7194  15.3205  15.7136  15.9759
 --------------------------------------------------------------
 
          Ground-State Mulliken Net Atomic Charges

     Atom                 Charge (a.u.)
  ----------------------------------------
      1 C                    -0.132646
      2 C                    -0.108261
      3 C                    -0.042137
      4 C                    -0.002251
      5 H                     0.188886
      6 C                    -0.004315
      7 C                     0.074636
      8 C                     0.007759
      9 C                    -0.025745
     10 C                    -0.142817
     11 C                     0.082775
     12 H                     0.182191
     13 C                     0.361105
     14 C                     0.368904
     15 N                    -0.101611
     16 C                     0.359083
     17 C                     0.370904
     18 N                    -0.095237
     19 O                    -0.464752
     20 O                    -0.476463
     21 O                    -0.480673
     22 O                    -0.455893
     23 C                    -0.200953
     24 H                     0.141095
     25 H                     0.112294
     26 H                     0.112553
     27 C                    -0.196195
     28 H                     0.133677
     29 H                     0.112913
     30 H                     0.113064
     31 H                     0.214247
     32 C                    -0.059941
     33 S                     0.048054
     34 C                    -0.201489
     35 C                    -0.177630
     36 C                    -0.208386
     37 H                     0.192145
     38 H                     0.190521
     39 H                     0.210591
  ----------------------------------------
  Sum of atomic charges =     0.000000

 -----------------------------------------------------------------
                    Cartesian Multipole Moments
 -----------------------------------------------------------------
    Charge (ESU x 10^10)
                 0.0000
    Dipole Moment (Debye)
         X       0.5683      Y       0.9276      Z      -0.7512
       Tot       1.3220
    Quadrupole Moments (Debye-Ang)
        XX    -179.1036     XY       1.4160     YY    -165.3543
        XZ      -8.2965     YZ       0.2959     ZZ    -162.4206
    Octopole Moments (Debye-Ang^2)
       XXX     -73.7976    XXY     526.5264    XYY      -9.1857
       YYY    1586.4088    XXZ     -27.3165    XYZ      37.3793
       YYZ     -13.3790    XZZ     -21.0670    YZZ     498.9679
       ZZZ     -78.8277
    Hexadecapole Moments (Debye-Ang^3)
      XXXX   -4650.7126   XXXY    -118.6252   XXYY   -3855.6408
      XYYY    -704.7309   YYYY  -17106.7222   XXXZ   -1341.7938
      XXYZ      59.6793   XYYZ    -672.4302   YYYZ    -430.3828
      XXZZ   -1122.8271   XYZZ     -31.9600   YYZZ   -3085.7858
      XZZZ   -1271.2940   YZZZ    -178.0128   ZZZZ   -1901.8283
 -----------------------------------------------------------------
 Total job time:  274.38s(wall), 8022.85s(cpu) 
 Wed Sep 20 09:02:17 2023

        *************************************************************
        *                                                           *
        *  Thank you very much for using Q-Chem.  Have a nice day.  *
        *                                                           *
        *************************************************************


0 sent ACK to 0 
now end server 0 ... 
cleanup process ... done
remove work dirs ./qchem3555697.0 -- ./qchem3555697.0
rm -rf ./qchem3555697.0
rm -rf ./qchem3555697
