You are running Q-Chem version: 5.4.0

#
# job setting
#
local host:  exp-3-18
current dir: /expanse/lustre/projects/csd626/rramji/aromodel/PNDIT/Rotation_Test
input file:  Dimethyl_Naphthalene_Dicarboximide_Phi_10_Theta_50_Thiophene.qcin
output file: 
nprocs     : 1
nthreads   : 64
#
# qchem installation setting
#
QC:          /cm/shared/apps/spack/cpu/opt/spack/linux-centos8-zen2/gcc-10.2.0/qchem-5.4-akfmr7b3t57bfs6qan3padb2wnb2i7cl
QCAUX:       /cm/shared/apps/spack/cpu/opt/spack/linux-centos8-zen2/gcc-10.2.0/qchem-5.4-akfmr7b3t57bfs6qan3padb2wnb2i7cl/qcaux
QCPROG:      /cm/shared/apps/spack/cpu/opt/spack/linux-centos8-zen2/gcc-10.2.0/qchem-5.4-akfmr7b3t57bfs6qan3padb2wnb2i7cl/exe/qcprog.exe
QCPROG_S:    /cm/shared/apps/spack/cpu/opt/spack/linux-centos8-zen2/gcc-10.2.0/qchem-5.4-akfmr7b3t57bfs6qan3padb2wnb2i7cl/exe/qcprog.exe_s
PARALLEL:    -DPARALLEL
QCMPI:       mpich
#
# qchem directory setting
#
qcrun:       qchem3547878
QCSCRATCH:   .
QCLOCALSCR:  
QCTMPDIR:    .
QCFILEPREF:  ./qchem3547878
QCSAVEDIR:   
workdirs:    ./qchem3547878
workdir0:    ./qchem3547878
partmpdirs =  
#
# parallel setting
#
QCRSH:           ssh
QCMPI:           mpich
QCMPIRUN:        /cm/shared/apps/spack/cpu/opt/spack/linux-centos8-zen2/gcc-10.2.0/qchem-5.4-akfmr7b3t57bfs6qan3padb2wnb2i7cl/bin/mpi/mpirun_qchem
QCMACHINEFILE:   ./qchem3547878/hostfile
exp-3-18

#
# env setting
#
exported envs:   QC QCAUX QCSCRATCH QCRUNNAME QCFILEPREF QCPROG QCPROG_S GUIFILE

Running Job 1 of 1 Dimethyl_Naphthalene_Dicarboximide_Phi_10_Theta_50_Thiophene.qcin
qchem Dimethyl_Naphthalene_Dicarboximide_Phi_10_Theta_50_Thiophene.qcin_3547878.0 ./qchem3547878/ 1
/cm/shared/apps/spack/cpu/opt/spack/linux-centos8-zen2/gcc-10.2.0/qchem-5.4-akfmr7b3t57bfs6qan3padb2wnb2i7cl/bin/mpi/mpirun_qchem -machinefile ./qchem3547878/hostfile -np 1 /cm/shared/apps/spack/cpu/opt/spack/linux-centos8-zen2/gcc-10.2.0/qchem-5.4-akfmr7b3t57bfs6qan3padb2wnb2i7cl/exe/qcprog.exe Dimethyl_Naphthalene_Dicarboximide_Phi_10_Theta_50_Thiophene.qcin_3547878.0 ./qchem3547878/

Process 0 of 1 is on exp-3-18 - thread support 0
initial socket setup ...start
initial socket setup ...done 
now start server 0 ... 
                  Welcome to Q-Chem
     A Quantum Leap Into The Future Of Chemistry


 Q-Chem 5.4, Q-Chem, Inc., Pleasanton, CA (2021)

 License issued to: University of California, San Diego (site)

 E. Epifanovsky,  A. T. B. Gilbert,  Xintian Feng,  Joonho Lee,  Yuezhi Mao,  
 N. Mardirossian,  P. Pokhilko,  A. White,  M. Wormit,  M. P. Coons,  
 A. L. Dempwolff,  Zhengting Gan,  D. Hait,  P. R. Horn,  L. D. Jacobson,  
 I. Kaliman,  J. Kussmann,  A. W. Lange,  Ka Un Lao,  D. S. Levine,  Jie Liu,  
 S. C. McKenzie,  A. F. Morrison,  K. Nanda,  F. Plasser,  D. R. Rehn,  
 M. L. Vidal,  Zhi-Qiang You,  Ying Zhu,  B. Alam,  B. Albrecht,  
 A. Aldossary,  E. Alguire,  J. H. Andersen,  D. Barton,  K. Begam,  A. Behn,  
 Y. A. Bernard,  E. J. Berquist,  H. Burton,  A. Carreras,  K. Carter-Fenk,  
 R. Chakraborty,  A. D. Chien,  K. D. Closser,  V. Cofer-Shabica,  
 S. Dasgupta,  Jia Deng,  M. de Wergifosse,  M. Diedenhofen,  Hainam Do,  
 S. Ehlert,  Po-Tung Fang,  S. Fatehi,  Qingguo Feng,  J. Gayvert,  
 Qinghui Ge,  G. Gidofalvi,  M. Goldey,  J. Gomes,  C. Gonzalez-Espinoza,  
 S. Gulania,  A. Gunina,  M. W. D. Hanson-Heine,  P. H. P. Harbach,  
 A. W. Hauser,  M. F. Herbst,  M. Hernandez Vera,  M. Hodecker,  
 Z. C. Holden,  S. Houck,  Xunkun Huang,  Kerwin Hui,  B. C. Huynh,  
 M. Ivanov,  Hyunjun Ji,  Hanjie Jiang,  B. Kaduk,  S. Kaehler,  
 K. Khistyaev,  Jaehoon Kim,  P. Klunzinger,  Z. Koczor-Benda,  
 Joong Hoon Koh,  D. Kosenkov,  L. Koulias,  T. Kowalczyk,  C. M. Krauter,  
 K. Kue,  A. Kunitsa,  T. Kus,  A. Landau,  K. V. Lawler,  D. Lefrancois,  
 S. Lehtola,  Rain Li,  Yi-Pei Li,  Jiashu Liang,  M. Liebenthal,  
 Hung-Hsuan Lin,  You-Sheng Lin,  Fenglai Liu,  Kuan-Yu Liu,  
 M. Loipersberger,  A. Luenser,  A. Manjanath,  P. Manohar,  E. Mansoor,  
 S. F. Manzer,  Shan-Ping Mao,  A. V. Marenich,  T. Markovich,  S. Mason,  
 S. A. Maurer,  P. F. McLaughlin,  M. F. S. J. Menger,  J.-M. Mewes,  
 S. A. Mewes,  P. Morgante,  J. W. Mullinax,  T. S. Nguyen-Beck,  
 K. J. Oosterbaan,  G. Paran,  Alexander C. Paul,  Suranjan K. Paul,  
 F. Pavosevic,  Zheng Pei,  S. Prager,  E. I. Proynov,  E. Ramos,  B. Rana,  
 A. E. Rask,  A. Rettig,  R. M. Richard,  F. Rob,  E. Rossomme,  T. Scheele,  
 M. Scheurer,  M. Schneider,  N. Sergueev,  S. M. Sharada,  W. Skomorowski,  
 D. W. Small,  C. J. Stein,  Yu-Chuan Su,  E. J. Sundstrom,  Zhen Tao,  
 J. Thirman,  T. Tsuchimochi,  N. M. Tubman,  S. P. Veccham,  O. Vydrov,  
 J. Wenzel,  J. Witte,  A. Yamada,  Kun Yao,  S. Yeganeh,  S. R. Yost,  
 A. Zech,  Igor Ying Zhang,  Xing Zhang,  Yu Zhang,  D. Zuev,  
 A. Aspuru-Guzik,  A. T. Bell,  N. A. Besley,  K. B. Bravaya,  B. R. Brooks,  
 D. Casanova,  Jeng-Da Chai,  S. Coriani,  C. J. Cramer,  
 A. E. DePrince, III,  R. A. DiStasio Jr.,  A. Dreuw,  B. D. Dunietz,  
 T. R. Furlani,  W. A. Goddard III,  S. Grimme,  S. Hammes-Schiffer,  
 T. Head-Gordon,  W. J. Hehre,  Chao-Ping Hsu,  T.-C. Jagau,  Yousung Jung,  
 A. Klamt,  Jing Kong,  D. S. Lambrecht,  WanZhen Liang,  N. J. Mayhall,  
 C. W. McCurdy,  J. B. Neaton,  C. Ochsenfeld,  J. A. Parkhill,  R. Peverati,  
 V. A. Rassolov,  Yihan Shao,  L. V. Slipchenko,  T. Stauch,  R. P. Steele,  
 J. E. Subotnik,  A. J. W. Thom,  A. Tkatchenko,  D. G. Truhlar,  
 T. Van Voorhis,  T. A. Wesolowski,  K. B. Whaley,  H. L. Woodcock III,  
 P. M. Zimmerman,  S. Faraji,  P. M. W. Gill,  M. Head-Gordon,  
 J. M. Herbert,  A. I. Krylov

 Contributors to earlier versions of Q-Chem not listed above: 
 R. D. Adamson,  B. Austin,  R. Baer,  J. Baker,  G. J. O. Beran,  
 K. Brandhorst,  S. T. Brown,  E. F. C. Byrd,  A. K. Chakraborty,  
 G. K. L. Chan,  Chun-Min Chang,  Yunqing Chen,  C.-L. Cheng,  
 Siu Hung Chien,  D. M. Chipman,  D. L. Crittenden,  H. Dachsel,  
 R. J. Doerksen,  A. D. Dutoi,  R. G. Edgar,  J. Fosso-Tande,  
 L. Fusti-Molnar,  D. Ghosh,  A. Ghysels,  A. Golubeva-Zadorozhnaya,  
 J. Gonthier,  M. S. Gordon,  S. R. Gwaltney,  G. Hawkins,  J. E. Herr,  
 A. Heyden,  S. Hirata,  E. G. Hohenstein,  G. Kedziora,  F. J. Keil,  
 C. Kelley,  Jihan Kim,  R. A. King,  R. Z. Khaliullin,  P. P. Korambath,  
 W. Kurlancheek,  A. Laurent,  A. M. Lee,  M. S. Lee,  S. V. Levchenko,  
 Ching Yeh Lin,  D. Liotard,  E. Livshits,  R. C. Lochan,  I. Lotan,  
 L. A. Martinez-Martinez,  P. E. Maslen,  N. Nair,  D. P. O'Neill,  
 D. Neuhauser,  E. Neuscamman,  C. M. Oana,  R. Olivares-Amaya,  R. Olson,  
 T. M. Perrine,  B. Peters,  P. A. Pieniazek,  A. Prociuk,  Y. M. Rhee,  
 J. Ritchie,  M. A. Rohrdanz,  E. Rosta,  N. J. Russ,  H. F. Schaefer III,  
 M. W. Schmidt,  N. E. Schultz,  S. Sharma,  N. Shenvi,  C. D. Sherrill,  
 A. C. Simmonett,  A. Sodt,  T. Stein,  D. Stuck,  K. S. Thanthiriwatte,  
 V. Vanovschi,  L. Vogt,  Tao Wang,  A. Warshel,  M. A. Watson,  
 C. F. Williams,  Q. Wu,  X. Xu,  Jun Yang,  W. Zhang,  Yan Zhao

 Please cite Q-Chem as follows:
 Y. Shao et al., Mol. Phys. 113, 184-215 (2015)
 DOI: 10.1080/00268976.2014.952696

 Q-Chem 5.4.0 for Intel X86 EM64T Linux

 Parts of Q-Chem use Armadillo 9.800.1 (Horizon Scraper).
 http://arma.sourceforge.net/

 Q-Chem begins on Wed Sep 20 08:24:51 2023  

 Host: 
0

     Scratch files written to ./qchem3547878//
 May1621 |scratch|qcdevops|jenkins|workspace|build_RNUM    
 Parallel job on  1  processors
 Processing $rem in /cm/shared/apps/spack/cpu/opt/spack/linux-centos8-zen2/gcc-10.2.0/qchem-5.4-akfmr7b3t57bfs6qan3padb2wnb2i7cl/config/preferences:
 Processing $rem in /home/rramji/.qchemrc:
 Symmetry turned off for PCM/SM12/SMD calculation
 Core orbitals will be frozen

 Checking the input file for inconsistencies... 	...done.

 Q-Chem warning in module forms1/BasisType.C, line 2236:

 You are not using the predefined 5D/6D in this basis set.


--------------------------------------------------------------
User input:
--------------------------------------------------------------
$molecule
0 1
C	0.195868	-6.741404	-0.166281
C	1.196048	-6.155638	-1.005696
C	-0.634911	-5.791452	0.530233
C	1.409599	-4.803786	-1.184587
H	1.868538	-6.821518	-1.570232
C	-0.410996	-4.378638	0.343266
C	0.608444	-3.838032	-0.511683
C	-1.211179	-3.413062	1.015440
C	0.830559	-2.426473	-0.697165
C	-0.999915	-2.059348	0.838968
C	0.000000	-1.478216	0.000000
H	-1.673009	-1.394783	1.404302
C	-1.741129	-6.187987	1.456059
C	-2.307170	-3.798164	1.934944
N	-2.494766	-5.170003	2.090139
C	2.508468	-4.424987	-2.106725
C	1.936893	-2.036627	-1.624494
N	2.690936	-3.049156	-2.258486
O	-2.042736	-7.353131	1.705414
O	-3.013823	-2.986854	2.529122
O	3.206857	-5.248946	-2.693680
O	2.254108	-0.878829	-1.888802
C	-3.577543	-5.563799	2.997334
H	-3.612920	-6.664085	3.025519
H	-4.536833	-5.147101	2.635109
H	-3.387762	-5.148785	4.005702
C	3.756883	-2.587487	-3.152347
H	4.248464	-3.483329	-3.566218
H	4.478763	-1.964972	-2.590383
H	3.329599	-1.962932	-3.959687
H	0.053215	-7.822318	-0.046998
C	0.000000	0.000000	0.000000
S	0.137535	0.781156	1.580530
C	0.421895	2.393994	0.904911
C	0.173134	0.982857	-0.985400
C	0.402294	2.283058	-0.493528
H	0.132237	0.750786	-2.059934
H	0.555196	3.150621	-1.152593
H	0.574741	3.261310	1.556025
$end

$rem
JOBTYPE		SP
EXCHANGE	HF
CORRELATION	pRIMP2
BASIS		cc-pvtz
METHOD		rimp2
AUX_BASIS	rimp2-cc-pvtz
SOLVENT_METHOD	PCM
PURECART	11111
SYMMETRY	false
MEM_TOTAL	110000
SCF_CONVERGENCE = 6
THRESH=10
GUI = 2
$end



$solvent
dielectric 4.90
$end
--------------------------------------------------------------
 ----------------------------------------------------------------
             Standard Nuclear Orientation (Angstroms)
    I     Atom           X                Y                Z
 ----------------------------------------------------------------
    1      C       0.1958680000    -6.7414040000    -0.1662810000
    2      C       1.1960480000    -6.1556380000    -1.0056960000
    3      C      -0.6349110000    -5.7914520000     0.5302330000
    4      C       1.4095990000    -4.8037860000    -1.1845870000
    5      H       1.8685380000    -6.8215180000    -1.5702320000
    6      C      -0.4109960000    -4.3786380000     0.3432660000
    7      C       0.6084440000    -3.8380320000    -0.5116830000
    8      C      -1.2111790000    -3.4130620000     1.0154400000
    9      C       0.8305590000    -2.4264730000    -0.6971650000
   10      C      -0.9999150000    -2.0593480000     0.8389680000
   11      C       0.0000000000    -1.4782160000     0.0000000000
   12      H      -1.6730090000    -1.3947830000     1.4043020000
   13      C      -1.7411290000    -6.1879870000     1.4560590000
   14      C      -2.3071700000    -3.7981640000     1.9349440000
   15      N      -2.4947660000    -5.1700030000     2.0901390000
   16      C       2.5084680000    -4.4249870000    -2.1067250000
   17      C       1.9368930000    -2.0366270000    -1.6244940000
   18      N       2.6909360000    -3.0491560000    -2.2584860000
   19      O      -2.0427360000    -7.3531310000     1.7054140000
   20      O      -3.0138230000    -2.9868540000     2.5291220000
   21      O       3.2068570000    -5.2489460000    -2.6936800000
   22      O       2.2541080000    -0.8788290000    -1.8888020000
   23      C      -3.5775430000    -5.5637990000     2.9973340000
   24      H      -3.6129200000    -6.6640850000     3.0255190000
   25      H      -4.5368330000    -5.1471010000     2.6351090000
   26      H      -3.3877620000    -5.1487850000     4.0057020000
   27      C       3.7568830000    -2.5874870000    -3.1523470000
   28      H       4.2484640000    -3.4833290000    -3.5662180000
   29      H       4.4787630000    -1.9649720000    -2.5903830000
   30      H       3.3295990000    -1.9629320000    -3.9596870000
   31      H       0.0532150000    -7.8223180000    -0.0469980000
   32      C       0.0000000000     0.0000000000     0.0000000000
   33      S       0.1375350000     0.7811560000     1.5805300000
   34      C       0.4218950000     2.3939940000     0.9049110000
   35      C       0.1731340000     0.9828570000    -0.9854000000
   36      C       0.4022940000     2.2830580000    -0.4935280000
   37      H       0.1322370000     0.7507860000    -2.0599340000
   38      H       0.5551960000     3.1506210000    -1.1525930000
   39      H       0.5747410000     3.2613100000     1.5560250000
 ----------------------------------------------------------------
 Nuclear Repulsion Energy =        2494.20181169 hartrees
 There are       97 alpha and       97 beta electrons
 Requested basis set is cc-pVTZ
 There are 344 shells and 982 basis functions

 Total QAlloc Memory Limit 110000 MB
 Mega-Array Size       188 MB
 MEM_STATIC part       192 MB
 Discretize the solute cavity surface with Lebedev spheres
	Using 110 Lebedev grid points for each H atom
	Using 194 Lebedev grid points for other atoms
	Atomic van der Waals radii will be scaled by 1.20
 Remove points where switching function is < 1.0e-08
 Keep 2523 surface tesserae and discard 4035 interior tesserae
 Molecular Surface Area = 366.143 Angst**2
 Requested basis set is rimp2-cc-pVTZ
 There are 750 shells and 2588 basis functions
 A cutoff of  1.0D-10 yielded  31692 shell pairs
 There are    244174 function pairs (    317403 Cartesian)
 Smallest overlap matrix eigenvalue = 9.80E-06

 Q-Chem warning in module stvman/mkSTV.C, line 323:

 Overlap eigenvalue is smaller than square root of threshold
 Use THRESH >= 12 to get rid of this warning


 Scale SEOQF with 1.000000e-01/1.000000e-02/1.000000e-01

 Standard Electronic Orientation quadrupole field applied
 Nucleus-field energy     =    -0.0000000131 hartrees
 Guess from superposition of atomic densities
 Warning:  Energy on first SCF cycle will be non-variational
 SAD guess density has 194.000000 electrons

 -----------------------------------------------------------------------
  General SCF calculation program by
  Eric Jon Sundstrom, Paul Horn, Yuezhi Mao, Dmitri Zuev, Alec White,
  David Stuck, Shaama M.S., Shane Yost, Joonho Lee, David Small,
  Daniel Levine, Susi Lehtola, Hugh Burton, Evgeny Epifanovsky,
  Bang C. Huynh
 -----------------------------------------------------------------------
 Hartree-Fock
 using 64 threads for integral computing
 -------------------------------------------------------
 OpenMP Integral computing Module                
 Release: version 1.0, May 2013, Q-Chem Inc. Pittsburgh 
 -------------------------------------------------------
 A restricted SCF calculation will be
 performed using DIIS
 SCF converges when DIIS error is below 1.0e-06
 ---------------------------------------
  Cycle       Energy         DIIS error
 ---------------------------------------
    1   -1581.2961576841      1.87e-02  
    2   -1570.1173376650      2.09e-03  
    3   -1570.4442914649      1.63e-03  
    4   -1570.6759849053      2.57e-04  
    5   -1570.6880435337      7.60e-05  
    6   -1570.6891111214      2.82e-05  
    7   -1570.6893554901      1.42e-05  
    8   -1570.6894326217      5.96e-06  
    9   -1570.6894446056      2.27e-06  
   10   -1570.6894465894      7.32e-07  Convergence criterion met
 ---------------------------------------
 SCF time:   CPU 5743.98s  wall 230.00s 

************** Final PCM Free Energy Summary **************
 G_electrostatic  =      -0.02329396 hartree =     -14.61718225 kcal/mol
 G_cavitation     =       0.00000000 hartree =       0.00000000 kcal/mol
 G_dispersion     =       0.00000000 hartree =       0.00000000 kcal/mol
 G_repulsion      =       0.00000000 hartree =       0.00000000 kcal/mol
 --------------------------------------------------
 Non-electrostatic Free Energy =       0.00000000 hartree =       0.00000000 kcal/mol
 Total                         =      -0.02329396 hartree =     -14.61718225 kcal/mol
 --------------------------------------------------
 SCF Energy (H0 + V/2)                       =   -1570.68944659 
 Solute Internal Energy (H0)                 =   -1570.66615263 
 Total Free Energy (H0 + V/2 + non-elec)     =   -1570.68944659 hartree
                                             = -985622.50373457 kcal/mol
***********************************************************

 SCF   energy in the final basis set =    -1570.6894465894
 Total energy in the final basis set =    -1570.6894465894


 --------------------------------------------------------------
  Generalized many-body perturbation theory program
  by Joonho Lee, Fazle Rob, Xintian Feng, Evgeny Epifanovsky

 No regularization used 
 (reg. param. = 0.0000e+00)
  (P|Q)^-1/2 Time:  CPU 154.01 s  wall 2.84 s

 In RI-MP2 calculation: 
 # of frozen core orbitals: 31

 Components of the RIMP2 correlation energy:
        aaaa    correlation energy =        -0.6165750012 a.u.
        abab    correlation energy =        -3.3921484929 a.u.
        bbbb    correlation energy =        -0.6165750012 a.u.
        non-Brillouin singles      =        -0.0000000000 a.u.
        total same-spin energy     =        -1.2331500024 a.u.
        total opposite-spin energy =        -3.3921484929 a.u.

 Total  RIMP2   correlation energy =        -4.6252984953 a.u.
        RIMP2         total energy =     -1575.3147450847 a.u.

 RI-MP2 Energy Time:  CPU 1876.31 s  wall 31.03 s
 
 --------------------------------------------------------------
 
                    Orbital Energies (a.u.)
 --------------------------------------------------------------
 
 Alpha MOs
 -- Occupied --
-91.9939 -20.5586 -20.5562 -20.5547 -20.5544 -15.6312 -15.6304 -11.4001
-11.3958 -11.3923 -11.3906 -11.3167 -11.3038 -11.3027 -11.3007 -11.2979
-11.2972 -11.2891 -11.2866 -11.2858 -11.2856 -11.2802 -11.2780 -11.2646
-11.2645 -11.2568 -11.2505  -8.9932  -6.6740  -6.6735  -6.6729  -1.4249
 -1.4235  -1.4042  -1.4026  -1.2674  -1.2649  -1.2174  -1.1754  -1.1443
 -1.1172  -1.0633  -1.0498  -0.9928  -0.9896  -0.9842  -0.9590  -0.9483
 -0.8969  -0.8794  -0.8776  -0.8612  -0.7958  -0.7775  -0.7727  -0.7604
 -0.7372  -0.7176  -0.7050  -0.6947  -0.6806  -0.6727  -0.6663  -0.6621
 -0.6565  -0.6421  -0.6370  -0.6332  -0.6293  -0.6125  -0.5866  -0.5842
 -0.5779  -0.5737  -0.5655  -0.5633  -0.5606  -0.5553  -0.5519  -0.5483
 -0.5364  -0.5259  -0.5208  -0.5189  -0.4832  -0.4705  -0.4659  -0.4629
 -0.4599  -0.4532  -0.4282  -0.4181  -0.4089  -0.3660  -0.3528  -0.3361
 -0.3084
 -- Virtual --
 -0.0204   0.0599   0.0698   0.1005   0.1179   0.1529   0.1582   0.1593
  0.1658   0.1712   0.1794   0.1840   0.1906   0.1946   0.2001   0.2075
  0.2150   0.2268   0.2288   0.2305   0.2387   0.2416   0.2598   0.2621
  0.2648   0.3091   0.3110   0.3132   0.3191   0.3230   0.3247   0.3365
  0.3443   0.3455   0.3511   0.3574   0.3586   0.3631   0.3687   0.3750
  0.3773   0.3844   0.3922   0.3959   0.4006   0.4038   0.4060   0.4109
  0.4188   0.4258   0.4337   0.4397   0.4414   0.4459   0.4505   0.4569
  0.4576   0.4612   0.4728   0.4753   0.4778   0.4792   0.4926   0.4948
  0.4972   0.5044   0.5098   0.5119   0.5161   0.5233   0.5285   0.5304
  0.5323   0.5378   0.5425   0.5455   0.5499   0.5541   0.5567   0.5649
  0.5681   0.5725   0.5805   0.5832   0.5913   0.5921   0.5962   0.5983
  0.6026   0.6110   0.6146   0.6163   0.6188   0.6225   0.6276   0.6310
  0.6330   0.6360   0.6373   0.6390   0.6444   0.6488   0.6535   0.6650
  0.6737   0.6778   0.6926   0.6970   0.7000   0.7043   0.7132   0.7153
  0.7245   0.7325   0.7373   0.7420   0.7501   0.7577   0.7628   0.7638
  0.7707   0.7756   0.7812   0.7889   0.7968   0.8017   0.8065   0.8163
  0.8204   0.8227   0.8381   0.8412   0.8428   0.8461   0.8522   0.8560
  0.8637   0.8657   0.8675   0.8726   0.8768   0.8869   0.8947   0.9061
  0.9111   0.9205   0.9225   0.9284   0.9321   0.9336   0.9386   0.9454
  0.9523   0.9576   0.9626   0.9678   0.9734   0.9785   0.9830   0.9868
  0.9902   0.9956   0.9994   1.0019   1.0065   1.0131   1.0185   1.0197
  1.0333   1.0404   1.0465   1.0526   1.0583   1.0660   1.0705   1.0757
  1.0793   1.0809   1.0868   1.0882   1.0915   1.0949   1.1013   1.1104
  1.1252   1.1297   1.1333   1.1413   1.1434   1.1477   1.1512   1.1576
  1.1653   1.1688   1.1738   1.1804   1.1820   1.1880   1.1917   1.2014
  1.2052   1.2091   1.2132   1.2229   1.2261   1.2323   1.2369   1.2387
  1.2460   1.2479   1.2542   1.2614   1.2662   1.2722   1.2842   1.3052
  1.3123   1.3236   1.3319   1.3385   1.3413   1.3468   1.3533   1.3567
  1.3654   1.3725   1.3787   1.3836   1.3889   1.3946   1.4098   1.4135
  1.4170   1.4268   1.4299   1.4431   1.4464   1.4501   1.4570   1.4694
  1.4757   1.4849   1.4891   1.4997   1.5028   1.5084   1.5105   1.5111
  1.5222   1.5335   1.5380   1.5406   1.5467   1.5523   1.5552   1.5658
  1.5670   1.5751   1.5763   1.5917   1.6007   1.6077   1.6198   1.6335
  1.6403   1.6473   1.6532   1.6583   1.6621   1.6752   1.6789   1.6906
  1.6964   1.7059   1.7075   1.7209   1.7317   1.7351   1.7448   1.7459
  1.7500   1.7574   1.7668   1.7835   1.7905   1.7999   1.8053   1.8090
  1.8222   1.8333   1.8378   1.8492   1.8537   1.8577   1.8626   1.8641
  1.8739   1.8910   1.8913   1.9068   1.9126   1.9238   1.9312   1.9437
  1.9522   1.9663   1.9730   1.9826   1.9929   1.9966   2.0157   2.0207
  2.0464   2.0539   2.0582   2.0771   2.0906   2.0984   2.1141   2.1278
  2.1424   2.1548   2.1572   2.1749   2.1927   2.1982   2.2194   2.2206
  2.2329   2.2392   2.2551   2.2570   2.2798   2.2901   2.2954   2.3007
  2.3136   2.3212   2.3353   2.3364   2.3570   2.3626   2.3754   2.3826
  2.3951   2.4172   2.4255   2.4325   2.4473   2.4518   2.4565   2.4631
  2.4759   2.4782   2.4907   2.4989   2.5057   2.5180   2.5265   2.5394
  2.5419   2.5618   2.5749   2.5829   2.5875   2.6008   2.6044   2.6079
  2.6120   2.6183   2.6215   2.6476   2.6568   2.6596   2.6658   2.6678
  2.6769   2.6866   2.6891   2.7008   2.7034   2.7099   2.7172   2.7280
  2.7289   2.7426   2.7496   2.7544   2.7556   2.7692   2.7832   2.7865
  2.8081   2.8148   2.8286   2.8327   2.8366   2.8446   2.8570   2.8613
  2.8672   2.8683   2.8731   2.8811   2.8843   2.8897   2.8943   2.9065
  2.9086   2.9240   2.9273   2.9335   2.9520   2.9545   2.9605   2.9653
  2.9725   2.9748   2.9852   2.9888   3.0016   3.0043   3.0135   3.0192
  3.0237   3.0268   3.0374   3.0416   3.0535   3.0576   3.0614   3.0793
  3.0851   3.0918   3.0975   3.1000   3.1025   3.1104   3.1125   3.1227
  3.1265   3.1293   3.1430   3.1510   3.1542   3.1671   3.1750   3.1771
  3.1824   3.1910   3.1974   3.2026   3.2089   3.2146   3.2168   3.2219
  3.2264   3.2280   3.2336   3.2434   3.2502   3.2548   3.2559   3.2653
  3.2693   3.2767   3.2804   3.2866   3.2905   3.2931   3.2943   3.3011
  3.3055   3.3096   3.3143   3.3243   3.3288   3.3342   3.3368   3.3403
  3.3434   3.3472   3.3515   3.3562   3.3619   3.3624   3.3662   3.3726
  3.3772   3.3808   3.3906   3.3937   3.3961   3.3983   3.4082   3.4185
  3.4240   3.4282   3.4359   3.4377   3.4428   3.4474   3.4541   3.4553
  3.4593   3.4635   3.4714   3.4720   3.4783   3.4830   3.4896   3.4915
  3.4936   3.4998   3.5028   3.5036   3.5127   3.5170   3.5222   3.5267
  3.5325   3.5373   3.5496   3.5512   3.5635   3.5688   3.5732   3.5784
  3.5862   3.5887   3.5891   3.6040   3.6103   3.6160   3.6215   3.6287
  3.6323   3.6372   3.6426   3.6456   3.6507   3.6628   3.6657   3.6761
  3.6838   3.6917   3.6958   3.6990   3.7028   3.7096   3.7137   3.7244
  3.7292   3.7332   3.7375   3.7415   3.7489   3.7511   3.7599   3.7700
  3.7772   3.7803   3.7847   3.7864   3.7913   3.7956   3.8014   3.8094
  3.8127   3.8186   3.8293   3.8327   3.8404   3.8521   3.8535   3.8612
  3.8615   3.8719   3.8810   3.8837   3.8859   3.8951   3.8991   3.9199
  3.9250   3.9320   3.9369   3.9452   3.9546   3.9600   3.9666   3.9724
  3.9839   3.9945   4.0017   4.0025   4.0098   4.0243   4.0318   4.0444
  4.0563   4.0656   4.0687   4.0769   4.0831   4.0917   4.0993   4.1172
  4.1216   4.1252   4.1332   4.1385   4.1474   4.1502   4.1539   4.1745
  4.1815   4.1873   4.1950   4.2031   4.2088   4.2143   4.2162   4.2343
  4.2467   4.2519   4.2673   4.2696   4.2729   4.2803   4.2860   4.2936
  4.2955   4.2975   4.3029   4.3056   4.3150   4.3220   4.3301   4.3333
  4.3463   4.3505   4.3573   4.3656   4.3677   4.3726   4.3764   4.3821
  4.3898   4.4002   4.4045   4.4066   4.4104   4.4176   4.4218   4.4387
  4.4549   4.4619   4.4682   4.4840   4.4923   4.5035   4.5129   4.5183
  4.5212   4.5228   4.5297   4.5452   4.5503   4.5569   4.5637   4.5704
  4.5766   4.5780   4.5809   4.5912   4.5955   4.6113   4.6272   4.6350
  4.6420   4.6567   4.6616   4.6678   4.6724   4.6782   4.6898   4.7006
  4.7095   4.7216   4.7257   4.7416   4.7518   4.7650   4.7749   4.7916
  4.8111   4.8194   4.8326   4.8380   4.8497   4.8558   4.8703   4.8735
  4.8782   4.9012   4.9156   4.9215   4.9366   4.9641   4.9722   4.9818
  4.9858   5.0048   5.0168   5.0314   5.0451   5.0458   5.0501   5.0602
  5.0970   5.1042   5.1078   5.1112   5.1245   5.1327   5.1434   5.1463
  5.1633   5.1772   5.1830   5.1920   5.2003   5.2360   5.2433   5.2565
  5.2619   5.2768   5.2785   5.2977   5.3092   5.3233   5.3303   5.3365
  5.3605   5.3829   5.3954   5.4025   5.4124   5.4274   5.4308   5.4699
  5.4847   5.5055   5.5087   5.5113   5.5127   5.5293   5.5461   5.5557
  5.5581   5.5602   5.5723   5.5742   5.5776   5.5922   5.6003   5.6063
  5.6155   5.6358   5.6520   5.6527   5.6546   5.6766   5.6777   5.6892
  5.6929   5.7028   5.7174   5.7386   5.7527   5.7586   5.7622   5.7708
  5.7728   5.7733   5.8082   5.8240   5.8425   5.8672   5.8746   5.9154
  5.9439   5.9546   5.9957   6.0188   6.0221   6.0239   6.0299   6.0469
  6.0901   6.1005   6.1029   6.1158   6.1208   6.1742   6.1913   6.2087
  6.2175   6.2187   6.2209   6.2560   6.2652   6.2681   6.3016   6.3409
  6.3511   6.4018   6.4245   6.4450   6.4656   6.5239   6.5620   6.5695
  6.5851   6.5999   6.6430   6.6475   6.6594   6.7033   6.7181   6.8319
  6.8331   6.8800   6.8860   6.8952   6.9114   6.9269   6.9388   7.0781
  7.0994   7.1390   7.1848   7.1885   7.2294   7.3323   7.3413   7.3443
  7.3558   7.4671   7.5463   7.5572   7.5729   7.5780   7.5971   7.6334
  7.6720   7.6824   7.7238   8.3817   9.9300  10.2976  11.1436  11.2968
 11.6662  11.7153  11.9294  12.3668  12.4447  12.6015  12.8458  13.0911
 13.2639  13.5683  13.8120  13.9407  14.0284  14.1431  14.3044  14.3523
 14.4171  14.7330  15.3360  15.7168  15.9770
 --------------------------------------------------------------
 
          Ground-State Mulliken Net Atomic Charges

     Atom                 Charge (a.u.)
  ----------------------------------------
      1 C                    -0.136158
      2 C                    -0.107748
      3 C                    -0.040660
      4 C                    -0.004152
      5 H                     0.188634
      6 C                    -0.009293
      7 C                     0.078465
      8 C                     0.017633
      9 C                    -0.025877
     10 C                    -0.179485
     11 C                     0.120577
     12 H                     0.182095
     13 C                     0.361048
     14 C                     0.368806
     15 N                    -0.101527
     16 C                     0.360022
     17 C                     0.358059
     18 N                    -0.093618
     19 O                    -0.464599
     20 O                    -0.475967
     21 O                    -0.481267
     22 O                    -0.460960
     23 C                    -0.200926
     24 H                     0.141019
     25 H                     0.112379
     26 H                     0.112516
     27 C                    -0.196457
     28 H                     0.133864
     29 H                     0.113318
     30 H                     0.112077
     31 H                     0.213876
     32 C                    -0.076348
     33 S                     0.034909
     34 C                    -0.203870
     35 C                    -0.134833
     36 C                    -0.206912
     37 H                     0.186767
     38 H                     0.191103
     39 H                     0.213491
  ----------------------------------------
  Sum of atomic charges =     0.000000

 -----------------------------------------------------------------
                    Cartesian Multipole Moments
 -----------------------------------------------------------------
    Charge (ESU x 10^10)
                 0.0000
    Dipole Moment (Debye)
         X       0.3819      Y       1.4269      Z      -0.9897
       Tot       1.7780
    Quadrupole Moments (Debye-Ang)
        XX    -175.9048     XY       1.6452     YY    -165.7123
        XZ      10.3128     YZ       1.0342     ZZ    -165.9765
    Octopole Moments (Debye-Ang^2)
       XXX     -67.5720    XXY     513.7163    XYY      -8.1884
       YYY    1594.7664    XXZ      -3.2743    XYZ     -39.4998
       YYZ      -2.0287    XZZ     -21.3611    YZZ     513.3546
       ZZZ     -20.3706
    Hexadecapole Moments (Debye-Ang^3)
      XXXX   -3656.7050   XXXY    -159.5737   XXYY   -3604.7596
      XYYY    -627.8627   YYYY  -17144.5601   XXXZ    1482.6690
      XXYZ     -79.7868   XYYZ     767.9097   YYYZ     474.3633
      XXZZ   -1141.9776   XYZZ      17.3476   YYZZ   -3337.8196
      XZZZ    1458.1966   YZZZ      85.0980   ZZZZ   -2863.5880
 -----------------------------------------------------------------
 Total job time:  265.73s(wall), 7716.18s(cpu) 
 Wed Sep 20 08:29:17 2023

        *************************************************************
        *                                                           *
        *  Thank you very much for using Q-Chem.  Have a nice day.  *
        *                                                           *
        *************************************************************


0 sent ACK to 0 
now end server 0 ... 
cleanup process ... done
remove work dirs ./qchem3547878.0 -- ./qchem3547878.0
rm -rf ./qchem3547878.0
rm -rf ./qchem3547878
