You are running Q-Chem version: 5.4.0

#
# job setting
#
local host:  exp-3-18
current dir: /expanse/lustre/projects/csd626/rramji/aromodel/PNDIT/Rotation_Test
input file:  Dimethyl_Naphthalene_Dicarboximide_Phi_10_Theta_30_Thiophene.qcin
output file: 
nprocs     : 1
nthreads   : 64
#
# qchem installation setting
#
QC:          /cm/shared/apps/spack/cpu/opt/spack/linux-centos8-zen2/gcc-10.2.0/qchem-5.4-akfmr7b3t57bfs6qan3padb2wnb2i7cl
QCAUX:       /cm/shared/apps/spack/cpu/opt/spack/linux-centos8-zen2/gcc-10.2.0/qchem-5.4-akfmr7b3t57bfs6qan3padb2wnb2i7cl/qcaux
QCPROG:      /cm/shared/apps/spack/cpu/opt/spack/linux-centos8-zen2/gcc-10.2.0/qchem-5.4-akfmr7b3t57bfs6qan3padb2wnb2i7cl/exe/qcprog.exe
QCPROG_S:    /cm/shared/apps/spack/cpu/opt/spack/linux-centos8-zen2/gcc-10.2.0/qchem-5.4-akfmr7b3t57bfs6qan3padb2wnb2i7cl/exe/qcprog.exe_s
PARALLEL:    -DPARALLEL
QCMPI:       mpich
#
# qchem directory setting
#
qcrun:       qchem3545479
QCSCRATCH:   .
QCLOCALSCR:  
QCTMPDIR:    .
QCFILEPREF:  ./qchem3545479
QCSAVEDIR:   
workdirs:    ./qchem3545479
workdir0:    ./qchem3545479
partmpdirs =  
#
# parallel setting
#
QCRSH:           ssh
QCMPI:           mpich
QCMPIRUN:        /cm/shared/apps/spack/cpu/opt/spack/linux-centos8-zen2/gcc-10.2.0/qchem-5.4-akfmr7b3t57bfs6qan3padb2wnb2i7cl/bin/mpi/mpirun_qchem
QCMACHINEFILE:   ./qchem3545479/hostfile
exp-3-18

#
# env setting
#
exported envs:   QC QCAUX QCSCRATCH QCRUNNAME QCFILEPREF QCPROG QCPROG_S GUIFILE

Running Job 1 of 1 Dimethyl_Naphthalene_Dicarboximide_Phi_10_Theta_30_Thiophene.qcin
qchem Dimethyl_Naphthalene_Dicarboximide_Phi_10_Theta_30_Thiophene.qcin_3545479.0 ./qchem3545479/ 1
/cm/shared/apps/spack/cpu/opt/spack/linux-centos8-zen2/gcc-10.2.0/qchem-5.4-akfmr7b3t57bfs6qan3padb2wnb2i7cl/bin/mpi/mpirun_qchem -machinefile ./qchem3545479/hostfile -np 1 /cm/shared/apps/spack/cpu/opt/spack/linux-centos8-zen2/gcc-10.2.0/qchem-5.4-akfmr7b3t57bfs6qan3padb2wnb2i7cl/exe/qcprog.exe Dimethyl_Naphthalene_Dicarboximide_Phi_10_Theta_30_Thiophene.qcin_3545479.0 ./qchem3545479/

Process 0 of 1 is on exp-3-18 - thread support 0
initial socket setup ...start
initial socket setup ...done 
now start server 0 ... 
                  Welcome to Q-Chem
     A Quantum Leap Into The Future Of Chemistry


 Q-Chem 5.4, Q-Chem, Inc., Pleasanton, CA (2021)

 License issued to: University of California, San Diego (site)

 E. Epifanovsky,  A. T. B. Gilbert,  Xintian Feng,  Joonho Lee,  Yuezhi Mao,  
 N. Mardirossian,  P. Pokhilko,  A. White,  M. Wormit,  M. P. Coons,  
 A. L. Dempwolff,  Zhengting Gan,  D. Hait,  P. R. Horn,  L. D. Jacobson,  
 I. Kaliman,  J. Kussmann,  A. W. Lange,  Ka Un Lao,  D. S. Levine,  Jie Liu,  
 S. C. McKenzie,  A. F. Morrison,  K. Nanda,  F. Plasser,  D. R. Rehn,  
 M. L. Vidal,  Zhi-Qiang You,  Ying Zhu,  B. Alam,  B. Albrecht,  
 A. Aldossary,  E. Alguire,  J. H. Andersen,  D. Barton,  K. Begam,  A. Behn,  
 Y. A. Bernard,  E. J. Berquist,  H. Burton,  A. Carreras,  K. Carter-Fenk,  
 R. Chakraborty,  A. D. Chien,  K. D. Closser,  V. Cofer-Shabica,  
 S. Dasgupta,  Jia Deng,  M. de Wergifosse,  M. Diedenhofen,  Hainam Do,  
 S. Ehlert,  Po-Tung Fang,  S. Fatehi,  Qingguo Feng,  J. Gayvert,  
 Qinghui Ge,  G. Gidofalvi,  M. Goldey,  J. Gomes,  C. Gonzalez-Espinoza,  
 S. Gulania,  A. Gunina,  M. W. D. Hanson-Heine,  P. H. P. Harbach,  
 A. W. Hauser,  M. F. Herbst,  M. Hernandez Vera,  M. Hodecker,  
 Z. C. Holden,  S. Houck,  Xunkun Huang,  Kerwin Hui,  B. C. Huynh,  
 M. Ivanov,  Hyunjun Ji,  Hanjie Jiang,  B. Kaduk,  S. Kaehler,  
 K. Khistyaev,  Jaehoon Kim,  P. Klunzinger,  Z. Koczor-Benda,  
 Joong Hoon Koh,  D. Kosenkov,  L. Koulias,  T. Kowalczyk,  C. M. Krauter,  
 K. Kue,  A. Kunitsa,  T. Kus,  A. Landau,  K. V. Lawler,  D. Lefrancois,  
 S. Lehtola,  Rain Li,  Yi-Pei Li,  Jiashu Liang,  M. Liebenthal,  
 Hung-Hsuan Lin,  You-Sheng Lin,  Fenglai Liu,  Kuan-Yu Liu,  
 M. Loipersberger,  A. Luenser,  A. Manjanath,  P. Manohar,  E. Mansoor,  
 S. F. Manzer,  Shan-Ping Mao,  A. V. Marenich,  T. Markovich,  S. Mason,  
 S. A. Maurer,  P. F. McLaughlin,  M. F. S. J. Menger,  J.-M. Mewes,  
 S. A. Mewes,  P. Morgante,  J. W. Mullinax,  T. S. Nguyen-Beck,  
 K. J. Oosterbaan,  G. Paran,  Alexander C. Paul,  Suranjan K. Paul,  
 F. Pavosevic,  Zheng Pei,  S. Prager,  E. I. Proynov,  E. Ramos,  B. Rana,  
 A. E. Rask,  A. Rettig,  R. M. Richard,  F. Rob,  E. Rossomme,  T. Scheele,  
 M. Scheurer,  M. Schneider,  N. Sergueev,  S. M. Sharada,  W. Skomorowski,  
 D. W. Small,  C. J. Stein,  Yu-Chuan Su,  E. J. Sundstrom,  Zhen Tao,  
 J. Thirman,  T. Tsuchimochi,  N. M. Tubman,  S. P. Veccham,  O. Vydrov,  
 J. Wenzel,  J. Witte,  A. Yamada,  Kun Yao,  S. Yeganeh,  S. R. Yost,  
 A. Zech,  Igor Ying Zhang,  Xing Zhang,  Yu Zhang,  D. Zuev,  
 A. Aspuru-Guzik,  A. T. Bell,  N. A. Besley,  K. B. Bravaya,  B. R. Brooks,  
 D. Casanova,  Jeng-Da Chai,  S. Coriani,  C. J. Cramer,  
 A. E. DePrince, III,  R. A. DiStasio Jr.,  A. Dreuw,  B. D. Dunietz,  
 T. R. Furlani,  W. A. Goddard III,  S. Grimme,  S. Hammes-Schiffer,  
 T. Head-Gordon,  W. J. Hehre,  Chao-Ping Hsu,  T.-C. Jagau,  Yousung Jung,  
 A. Klamt,  Jing Kong,  D. S. Lambrecht,  WanZhen Liang,  N. J. Mayhall,  
 C. W. McCurdy,  J. B. Neaton,  C. Ochsenfeld,  J. A. Parkhill,  R. Peverati,  
 V. A. Rassolov,  Yihan Shao,  L. V. Slipchenko,  T. Stauch,  R. P. Steele,  
 J. E. Subotnik,  A. J. W. Thom,  A. Tkatchenko,  D. G. Truhlar,  
 T. Van Voorhis,  T. A. Wesolowski,  K. B. Whaley,  H. L. Woodcock III,  
 P. M. Zimmerman,  S. Faraji,  P. M. W. Gill,  M. Head-Gordon,  
 J. M. Herbert,  A. I. Krylov

 Contributors to earlier versions of Q-Chem not listed above: 
 R. D. Adamson,  B. Austin,  R. Baer,  J. Baker,  G. J. O. Beran,  
 K. Brandhorst,  S. T. Brown,  E. F. C. Byrd,  A. K. Chakraborty,  
 G. K. L. Chan,  Chun-Min Chang,  Yunqing Chen,  C.-L. Cheng,  
 Siu Hung Chien,  D. M. Chipman,  D. L. Crittenden,  H. Dachsel,  
 R. J. Doerksen,  A. D. Dutoi,  R. G. Edgar,  J. Fosso-Tande,  
 L. Fusti-Molnar,  D. Ghosh,  A. Ghysels,  A. Golubeva-Zadorozhnaya,  
 J. Gonthier,  M. S. Gordon,  S. R. Gwaltney,  G. Hawkins,  J. E. Herr,  
 A. Heyden,  S. Hirata,  E. G. Hohenstein,  G. Kedziora,  F. J. Keil,  
 C. Kelley,  Jihan Kim,  R. A. King,  R. Z. Khaliullin,  P. P. Korambath,  
 W. Kurlancheek,  A. Laurent,  A. M. Lee,  M. S. Lee,  S. V. Levchenko,  
 Ching Yeh Lin,  D. Liotard,  E. Livshits,  R. C. Lochan,  I. Lotan,  
 L. A. Martinez-Martinez,  P. E. Maslen,  N. Nair,  D. P. O'Neill,  
 D. Neuhauser,  E. Neuscamman,  C. M. Oana,  R. Olivares-Amaya,  R. Olson,  
 T. M. Perrine,  B. Peters,  P. A. Pieniazek,  A. Prociuk,  Y. M. Rhee,  
 J. Ritchie,  M. A. Rohrdanz,  E. Rosta,  N. J. Russ,  H. F. Schaefer III,  
 M. W. Schmidt,  N. E. Schultz,  S. Sharma,  N. Shenvi,  C. D. Sherrill,  
 A. C. Simmonett,  A. Sodt,  T. Stein,  D. Stuck,  K. S. Thanthiriwatte,  
 V. Vanovschi,  L. Vogt,  Tao Wang,  A. Warshel,  M. A. Watson,  
 C. F. Williams,  Q. Wu,  X. Xu,  Jun Yang,  W. Zhang,  Yan Zhao

 Please cite Q-Chem as follows:
 Y. Shao et al., Mol. Phys. 113, 184-215 (2015)
 DOI: 10.1080/00268976.2014.952696

 Q-Chem 5.4.0 for Intel X86 EM64T Linux

 Parts of Q-Chem use Armadillo 9.800.1 (Horizon Scraper).
 http://arma.sourceforge.net/

 Q-Chem begins on Wed Sep 20 08:15:02 2023  

 Host: 
0

     Scratch files written to ./qchem3545479//
 May1621 |scratch|qcdevops|jenkins|workspace|build_RNUM    
 Parallel job on  1  processors
 Processing $rem in /cm/shared/apps/spack/cpu/opt/spack/linux-centos8-zen2/gcc-10.2.0/qchem-5.4-akfmr7b3t57bfs6qan3padb2wnb2i7cl/config/preferences:
 Processing $rem in /home/rramji/.qchemrc:
 Symmetry turned off for PCM/SM12/SMD calculation
 Core orbitals will be frozen

 Checking the input file for inconsistencies... 	...done.

 Q-Chem warning in module forms1/BasisType.C, line 2236:

 You are not using the predefined 5D/6D in this basis set.


--------------------------------------------------------------
User input:
--------------------------------------------------------------
$molecule
0 1
C	0.127184	-6.741404	-0.223244
C	0.779949	-6.155638	-1.354118
C	-0.415271	-5.791452	0.715408
C	0.919437	-4.803786	-1.595259
H	1.218801	-6.821518	-2.114613
C	-0.268806	-4.378638	0.463133
C	0.396744	-3.838032	-0.688925
C	-0.790835	-3.413062	1.368449
C	0.542026	-2.426473	-0.939189
C	-0.652669	-2.059348	1.130363
C	0.000000	-1.478216	0.000000
H	-1.091814	-1.394783	1.891815
C	-1.138124	-6.187987	1.963749
C	-1.506241	-3.798164	2.607351
N	-1.629443	-5.170003	2.817348
C	1.636646	-4.424987	-2.837621
C	1.264474	-2.036627	-2.188982
N	1.756205	-3.049156	-3.042637
O	-1.336258	-7.353131	2.301222
O	-1.967056	-2.986854	3.407386
O	2.092167	-5.248946	-3.628041
O	1.472160	-0.878829	-2.545844
C	-2.336642	-5.563799	4.040164
H	-2.360245	-6.664085	4.078749
H	-3.361968	-5.147101	4.027880
H	-1.813424	-5.148785	4.922811
C	2.452149	-2.587487	-4.247167
H	2.772531	-3.483329	-4.804209
H	3.322697	-1.964972	-3.965991
H	1.774507	-1.962932	-4.859678
H	0.033931	-7.822318	-0.062364
C	0.000000	0.000000	0.000000
S	0.137535	0.781156	1.580530
C	0.421895	2.393994	0.904911
C	0.173134	0.982857	-0.985400
C	0.402294	2.283058	-0.493528
H	0.132237	0.750786	-2.059934
H	0.555196	3.150621	-1.152593
H	0.574741	3.261310	1.556025
$end

$rem
JOBTYPE		SP
EXCHANGE	HF
CORRELATION	pRIMP2
BASIS		cc-pvtz
METHOD		rimp2
AUX_BASIS	rimp2-cc-pvtz
SOLVENT_METHOD	PCM
PURECART	11111
SYMMETRY	false
MEM_TOTAL	110000
SCF_CONVERGENCE = 6
THRESH=10
GUI = 2
$end



$solvent
dielectric 4.90
$end
--------------------------------------------------------------
 ----------------------------------------------------------------
             Standard Nuclear Orientation (Angstroms)
    I     Atom           X                Y                Z
 ----------------------------------------------------------------
    1      C       0.1271840000    -6.7414040000    -0.2232440000
    2      C       0.7799490000    -6.1556380000    -1.3541180000
    3      C      -0.4152710000    -5.7914520000     0.7154080000
    4      C       0.9194370000    -4.8037860000    -1.5952590000
    5      H       1.2188010000    -6.8215180000    -2.1146130000
    6      C      -0.2688060000    -4.3786380000     0.4631330000
    7      C       0.3967440000    -3.8380320000    -0.6889250000
    8      C      -0.7908350000    -3.4130620000     1.3684490000
    9      C       0.5420260000    -2.4264730000    -0.9391890000
   10      C      -0.6526690000    -2.0593480000     1.1303630000
   11      C       0.0000000000    -1.4782160000     0.0000000000
   12      H      -1.0918140000    -1.3947830000     1.8918150000
   13      C      -1.1381240000    -6.1879870000     1.9637490000
   14      C      -1.5062410000    -3.7981640000     2.6073510000
   15      N      -1.6294430000    -5.1700030000     2.8173480000
   16      C       1.6366460000    -4.4249870000    -2.8376210000
   17      C       1.2644740000    -2.0366270000    -2.1889820000
   18      N       1.7562050000    -3.0491560000    -3.0426370000
   19      O      -1.3362580000    -7.3531310000     2.3012220000
   20      O      -1.9670560000    -2.9868540000     3.4073860000
   21      O       2.0921670000    -5.2489460000    -3.6280410000
   22      O       1.4721600000    -0.8788290000    -2.5458440000
   23      C      -2.3366420000    -5.5637990000     4.0401640000
   24      H      -2.3602450000    -6.6640850000     4.0787490000
   25      H      -3.3619680000    -5.1471010000     4.0278800000
   26      H      -1.8134240000    -5.1487850000     4.9228110000
   27      C       2.4521490000    -2.5874870000    -4.2471670000
   28      H       2.7725310000    -3.4833290000    -4.8042090000
   29      H       3.3226970000    -1.9649720000    -3.9659910000
   30      H       1.7745070000    -1.9629320000    -4.8596780000
   31      H       0.0339310000    -7.8223180000    -0.0623640000
   32      C       0.0000000000     0.0000000000     0.0000000000
   33      S       0.1375350000     0.7811560000     1.5805300000
   34      C       0.4218950000     2.3939940000     0.9049110000
   35      C       0.1731340000     0.9828570000    -0.9854000000
   36      C       0.4022940000     2.2830580000    -0.4935280000
   37      H       0.1322370000     0.7507860000    -2.0599340000
   38      H       0.5551960000     3.1506210000    -1.1525930000
   39      H       0.5747410000     3.2613100000     1.5560250000
 ----------------------------------------------------------------
 Nuclear Repulsion Energy =        2496.37999730 hartrees
 There are       97 alpha and       97 beta electrons
 Requested basis set is cc-pVTZ
 There are 344 shells and 982 basis functions

 Total QAlloc Memory Limit 110000 MB
 Mega-Array Size       188 MB
 MEM_STATIC part       192 MB
 Discretize the solute cavity surface with Lebedev spheres
	Using 110 Lebedev grid points for each H atom
	Using 194 Lebedev grid points for other atoms
	Atomic van der Waals radii will be scaled by 1.20
 Remove points where switching function is < 1.0e-08
 Keep 2507 surface tesserae and discard 4051 interior tesserae
 Molecular Surface Area = 363.416 Angst**2
 Requested basis set is rimp2-cc-pVTZ
 There are 750 shells and 2588 basis functions
 A cutoff of  1.0D-10 yielded  31727 shell pairs
 There are    244411 function pairs (    317641 Cartesian)
 Smallest overlap matrix eigenvalue = 1.00E-05

 Scale SEOQF with 1.000000e-01/1.000000e-02/1.000000e-01

 Standard Electronic Orientation quadrupole field applied
 Nucleus-field energy     =    -0.0000000735 hartrees
 Guess from superposition of atomic densities
 Warning:  Energy on first SCF cycle will be non-variational
 SAD guess density has 194.000000 electrons

 -----------------------------------------------------------------------
  General SCF calculation program by
  Eric Jon Sundstrom, Paul Horn, Yuezhi Mao, Dmitri Zuev, Alec White,
  David Stuck, Shaama M.S., Shane Yost, Joonho Lee, David Small,
  Daniel Levine, Susi Lehtola, Hugh Burton, Evgeny Epifanovsky,
  Bang C. Huynh
 -----------------------------------------------------------------------
 Hartree-Fock
 using 64 threads for integral computing
 -------------------------------------------------------
 OpenMP Integral computing Module                
 Release: version 1.0, May 2013, Q-Chem Inc. Pittsburgh 
 -------------------------------------------------------
 A restricted SCF calculation will be
 performed using DIIS
 SCF converges when DIIS error is below 1.0e-06
 ---------------------------------------
  Cycle       Energy         DIIS error
 ---------------------------------------
    1   -1581.3392865923      1.87e-02  
    2   -1570.1174663170      2.09e-03  
    3   -1570.4453847666      1.62e-03  
    4   -1570.6743996232      2.58e-04  
    5   -1570.6865713447      7.68e-05  
    6   -1570.6876684848      2.84e-05  
    7   -1570.6879234059      1.43e-05  
    8   -1570.6880032633      5.97e-06  
    9   -1570.6880156550      2.27e-06  
   10   -1570.6880177255      7.62e-07  Convergence criterion met
 ---------------------------------------
 SCF time:   CPU 5751.85s  wall 222.00s 

************** Final PCM Free Energy Summary **************
 G_electrostatic  =      -0.02191304 hartree =     -13.75063960 kcal/mol
 G_cavitation     =       0.00000000 hartree =       0.00000000 kcal/mol
 G_dispersion     =       0.00000000 hartree =       0.00000000 kcal/mol
 G_repulsion      =       0.00000000 hartree =       0.00000000 kcal/mol
 --------------------------------------------------
 Non-electrostatic Free Energy =       0.00000000 hartree =       0.00000000 kcal/mol
 Total                         =      -0.02191304 hartree =     -13.75063960 kcal/mol
 --------------------------------------------------
 SCF Energy (H0 + V/2)                       =   -1570.68801773 
 Solute Internal Energy (H0)                 =   -1570.66610469 
 Total Free Energy (H0 + V/2 + non-elec)     =   -1570.68801773 hartree
                                             = -985621.60710896 kcal/mol
***********************************************************

 SCF   energy in the final basis set =    -1570.6880177255
 Total energy in the final basis set =    -1570.6880177255


 --------------------------------------------------------------
  Generalized many-body perturbation theory program
  by Joonho Lee, Fazle Rob, Xintian Feng, Evgeny Epifanovsky

 No regularization used 
 (reg. param. = 0.0000e+00)
  (P|Q)^-1/2 Time:  CPU 193.19 s  wall 3.18 s

 In RI-MP2 calculation: 
 # of frozen core orbitals: 31

 Components of the RIMP2 correlation energy:
        aaaa    correlation energy =        -0.6171727636 a.u.
        abab    correlation energy =        -3.3924144561 a.u.
        bbbb    correlation energy =        -0.6171727636 a.u.
        non-Brillouin singles      =        -0.0000000000 a.u.
        total same-spin energy     =        -1.2343455272 a.u.
        total opposite-spin energy =        -3.3924144561 a.u.

 Total  RIMP2   correlation energy =        -4.6267599833 a.u.
        RIMP2         total energy =     -1575.3147777088 a.u.

 RI-MP2 Energy Time:  CPU 5199.37 s  wall 82.95 s
 
 --------------------------------------------------------------
 
                    Orbital Energies (a.u.)
 --------------------------------------------------------------
 
 Alpha MOs
 -- Occupied --
-91.9940 -20.5585 -20.5563 -20.5540 -20.5539 -15.6311 -15.6301 -11.3999
-11.3958 -11.3915 -11.3906 -11.3184 -11.3022 -11.3007 -11.2998 -11.2961
-11.2952 -11.2895 -11.2892 -11.2870 -11.2840 -11.2793 -11.2782 -11.2647
-11.2644 -11.2565 -11.2506  -8.9935  -6.6743  -6.6738  -6.6732  -1.4248
 -1.4239  -1.4041  -1.4029  -1.2673  -1.2649  -1.2169  -1.1766  -1.1442
 -1.1165  -1.0634  -1.0493  -0.9925  -0.9899  -0.9859  -0.9587  -0.9477
 -0.8968  -0.8791  -0.8779  -0.8612  -0.7961  -0.7782  -0.7727  -0.7617
 -0.7363  -0.7192  -0.7042  -0.6940  -0.6813  -0.6732  -0.6662  -0.6620
 -0.6561  -0.6415  -0.6367  -0.6332  -0.6284  -0.6126  -0.5887  -0.5839
 -0.5782  -0.5734  -0.5653  -0.5623  -0.5614  -0.5556  -0.5525  -0.5475
 -0.5361  -0.5254  -0.5224  -0.5186  -0.4826  -0.4690  -0.4657  -0.4641
 -0.4593  -0.4523  -0.4284  -0.4184  -0.4092  -0.3735  -0.3533  -0.3366
 -0.3020
 -- Virtual --
 -0.0200   0.0552   0.0682   0.1033   0.1252   0.1531   0.1585   0.1595
  0.1663   0.1724   0.1777   0.1853   0.1959   0.1978   0.2048   0.2080
  0.2189   0.2275   0.2295   0.2331   0.2457   0.2510   0.2622   0.2637
  0.2666   0.3095   0.3118   0.3147   0.3201   0.3268   0.3347   0.3402
  0.3439   0.3477   0.3526   0.3566   0.3583   0.3624   0.3679   0.3772
  0.3789   0.3866   0.3941   0.3965   0.4012   0.4066   0.4082   0.4121
  0.4233   0.4260   0.4330   0.4391   0.4454   0.4471   0.4518   0.4574
  0.4610   0.4658   0.4697   0.4774   0.4786   0.4810   0.4886   0.4958
  0.5011   0.5048   0.5112   0.5166   0.5184   0.5235   0.5275   0.5293
  0.5358   0.5385   0.5425   0.5484   0.5513   0.5557   0.5643   0.5659
  0.5690   0.5735   0.5817   0.5838   0.5928   0.5950   0.5953   0.5991
  0.6041   0.6097   0.6143   0.6181   0.6195   0.6236   0.6303   0.6307
  0.6328   0.6363   0.6398   0.6412   0.6489   0.6565   0.6642   0.6705
  0.6756   0.6833   0.6912   0.6925   0.7018   0.7085   0.7124   0.7196
  0.7298   0.7346   0.7379   0.7447   0.7521   0.7591   0.7638   0.7661
  0.7717   0.7830   0.7881   0.7907   0.7984   0.8055   0.8104   0.8175
  0.8211   0.8288   0.8385   0.8400   0.8453   0.8460   0.8541   0.8607
  0.8630   0.8667   0.8686   0.8754   0.8823   0.8871   0.8994   0.9092
  0.9130   0.9177   0.9211   0.9282   0.9347   0.9402   0.9439   0.9496
  0.9538   0.9564   0.9631   0.9677   0.9710   0.9766   0.9830   0.9867
  0.9907   0.9934   1.0046   1.0091   1.0134   1.0143   1.0198   1.0220
  1.0342   1.0406   1.0464   1.0561   1.0581   1.0664   1.0667   1.0735
  1.0773   1.0793   1.0825   1.0896   1.0942   1.0978   1.1027   1.1139
  1.1258   1.1298   1.1348   1.1406   1.1454   1.1491   1.1517   1.1550
  1.1606   1.1686   1.1691   1.1773   1.1841   1.1874   1.1951   1.1987
  1.2114   1.2124   1.2192   1.2239   1.2296   1.2315   1.2362   1.2392
  1.2463   1.2473   1.2537   1.2561   1.2646   1.2731   1.2832   1.3040
  1.3165   1.3239   1.3292   1.3331   1.3423   1.3484   1.3530   1.3606
  1.3651   1.3780   1.3813   1.3863   1.3899   1.3994   1.4035   1.4103
  1.4195   1.4219   1.4278   1.4418   1.4475   1.4502   1.4638   1.4674
  1.4745   1.4827   1.4852   1.4900   1.4974   1.5031   1.5085   1.5131
  1.5284   1.5318   1.5354   1.5478   1.5512   1.5531   1.5583   1.5665
  1.5725   1.5760   1.5806   1.5904   1.5970   1.6081   1.6243   1.6400
  1.6413   1.6501   1.6531   1.6577   1.6717   1.6749   1.6836   1.6859
  1.6975   1.7069   1.7151   1.7257   1.7286   1.7381   1.7446   1.7483
  1.7548   1.7633   1.7683   1.7828   1.7935   1.7989   1.8036   1.8090
  1.8274   1.8363   1.8406   1.8480   1.8545   1.8557   1.8626   1.8705
  1.8733   1.8875   1.9018   1.9078   1.9213   1.9233   1.9338   1.9511
  1.9555   1.9687   1.9723   1.9750   1.9915   2.0122   2.0224   2.0281
  2.0520   2.0550   2.0615   2.0885   2.0915   2.1065   2.1276   2.1325
  2.1476   2.1563   2.1585   2.1801   2.1855   2.2109   2.2123   2.2296
  2.2336   2.2427   2.2542   2.2621   2.2794   2.2875   2.2903   2.2952
  2.3248   2.3271   2.3391   2.3490   2.3525   2.3638   2.3699   2.3787
  2.4019   2.4142   2.4225   2.4322   2.4480   2.4510   2.4571   2.4644
  2.4834   2.4845   2.4996   2.5001   2.5024   2.5196   2.5238   2.5331
  2.5512   2.5664   2.5756   2.5854   2.5897   2.5985   2.6069   2.6110
  2.6183   2.6211   2.6281   2.6525   2.6595   2.6620   2.6657   2.6689
  2.6719   2.6803   2.6957   2.6990   2.7048   2.7106   2.7169   2.7246
  2.7293   2.7485   2.7500   2.7522   2.7601   2.7719   2.7834   2.7902
  2.7946   2.8106   2.8286   2.8350   2.8360   2.8463   2.8616   2.8634
  2.8695   2.8719   2.8727   2.8812   2.8892   2.8921   2.8998   2.9075
  2.9110   2.9202   2.9301   2.9369   2.9522   2.9561   2.9612   2.9680
  2.9747   2.9822   2.9883   2.9952   3.0002   3.0049   3.0096   3.0170
  3.0211   3.0326   3.0357   3.0419   3.0467   3.0543   3.0642   3.0755
  3.0862   3.0920   3.0958   3.1006   3.1076   3.1111   3.1153   3.1238
  3.1256   3.1348   3.1411   3.1445   3.1596   3.1698   3.1728   3.1781
  3.1888   3.1961   3.1973   3.2008   3.2129   3.2172   3.2209   3.2256
  3.2266   3.2336   3.2369   3.2454   3.2475   3.2554   3.2622   3.2637
  3.2659   3.2710   3.2807   3.2836   3.2886   3.2948   3.2983   3.2999
  3.3021   3.3071   3.3126   3.3285   3.3301   3.3341   3.3365   3.3390
  3.3431   3.3487   3.3559   3.3566   3.3625   3.3638   3.3653   3.3688
  3.3770   3.3845   3.3862   3.3995   3.4001   3.4019   3.4154   3.4187
  3.4218   3.4259   3.4300   3.4396   3.4420   3.4474   3.4530   3.4543
  3.4585   3.4674   3.4714   3.4730   3.4805   3.4856   3.4883   3.4927
  3.4982   3.5003   3.5040   3.5083   3.5106   3.5165   3.5241   3.5244
  3.5327   3.5436   3.5472   3.5554   3.5619   3.5662   3.5700   3.5801
  3.5825   3.5886   3.5952   3.6033   3.6100   3.6172   3.6194   3.6295
  3.6309   3.6383   3.6426   3.6445   3.6507   3.6584   3.6688   3.6748
  3.6859   3.6920   3.6969   3.6992   3.7039   3.7083   3.7151   3.7276
  3.7290   3.7325   3.7389   3.7453   3.7520   3.7529   3.7597   3.7689
  3.7734   3.7818   3.7841   3.7862   3.7927   3.7968   3.8044   3.8056
  3.8146   3.8224   3.8307   3.8357   3.8393   3.8529   3.8575   3.8595
  3.8676   3.8715   3.8815   3.8845   3.8881   3.8979   3.9024   3.9211
  3.9287   3.9334   3.9368   3.9474   3.9571   3.9616   3.9667   3.9743
  3.9903   3.9925   3.9972   4.0089   4.0120   4.0219   4.0375   4.0467
  4.0583   4.0597   4.0736   4.0756   4.0852   4.0984   4.1005   4.1160
  4.1224   4.1297   4.1341   4.1430   4.1500   4.1570   4.1628   4.1719
  4.1772   4.1876   4.1991   4.2012   4.2078   4.2179   4.2228   4.2384
  4.2417   4.2555   4.2649   4.2727   4.2791   4.2806   4.2880   4.2949
  4.2991   4.2997   4.3075   4.3161   4.3198   4.3241   4.3350   4.3465
  4.3477   4.3569   4.3648   4.3676   4.3714   4.3762   4.3798   4.3852
  4.3908   4.4025   4.4045   4.4102   4.4136   4.4173   4.4273   4.4544
  4.4582   4.4612   4.4660   4.4909   4.4984   4.5033   4.5136   4.5179
  4.5190   4.5223   4.5365   4.5444   4.5523   4.5612   4.5694   4.5716
  4.5748   4.5823   4.5842   4.5850   4.6024   4.6123   4.6278   4.6416
  4.6459   4.6539   4.6645   4.6676   4.6727   4.6838   4.6877   4.6938
  4.7117   4.7242   4.7304   4.7423   4.7566   4.7728   4.7764   4.7942
  4.8073   4.8218   4.8329   4.8388   4.8495   4.8588   4.8696   4.8770
  4.8807   4.8977   4.9213   4.9272   4.9369   4.9662   4.9681   4.9866
  4.9962   5.0027   5.0173   5.0362   5.0437   5.0495   5.0519   5.0567
  5.1042   5.1070   5.1094   5.1183   5.1245   5.1305   5.1425   5.1561
  5.1637   5.1735   5.1890   5.1897   5.2062   5.2378   5.2562   5.2582
  5.2656   5.2786   5.2813   5.2988   5.3012   5.3234   5.3322   5.3387
  5.3674   5.3919   5.3957   5.4024   5.4139   5.4296   5.4319   5.4678
  5.4828   5.5065   5.5088   5.5128   5.5132   5.5381   5.5483   5.5583
  5.5599   5.5618   5.5705   5.5739   5.5778   5.5921   5.6018   5.6114
  5.6180   5.6368   5.6524   5.6546   5.6560   5.6770   5.6800   5.6959
  5.7017   5.7091   5.7190   5.7425   5.7497   5.7571   5.7598   5.7709
  5.7769   5.7846   5.8104   5.8264   5.8504   5.8723   5.8870   5.9172
  5.9458   5.9569   5.9982   6.0137   6.0229   6.0253   6.0458   6.0487
  6.0916   6.1025   6.1047   6.1178   6.1250   6.1821   6.1948   6.2118
  6.2179   6.2206   6.2232   6.2589   6.2678   6.2734   6.3049   6.3416
  6.3522   6.4026   6.4359   6.4467   6.4672   6.5257   6.5622   6.5713
  6.5862   6.6053   6.6431   6.6478   6.6600   6.7049   6.7367   6.8325
  6.8359   6.8813   6.8862   6.8971   6.9116   6.9313   6.9794   7.0786
  7.1065   7.1419   7.1867   7.1923   7.2313   7.3325   7.3420   7.3443
  7.3570   7.4686   7.5475   7.5580   7.5737   7.5795   7.6058   7.6342
  7.6783   7.6951   7.7314   8.4223   9.9107  10.3354  11.1668  11.2748
 11.6976  11.7350  11.9705  12.3761  12.4560  12.5804  12.8474  13.0811
 13.3103  13.5618  13.8147  13.9431  14.0134  14.1591  14.3161  14.4056
 14.4664  14.7455  15.3539  15.7277  15.9774
 --------------------------------------------------------------
 
          Ground-State Mulliken Net Atomic Charges

     Atom                 Charge (a.u.)
  ----------------------------------------
      1 C                    -0.141677
      2 C                    -0.109037
      3 C                    -0.036825
      4 C                    -0.005337
      5 H                     0.188250
      6 C                    -0.005784
      7 C                     0.076240
      8 C                     0.032959
      9 C                    -0.052925
     10 C                    -0.188055
     11 C                     0.119729
     12 H                     0.171155
     13 C                     0.360284
     14 C                     0.368092
     15 N                    -0.101507
     16 C                     0.359718
     17 C                     0.370730
     18 N                    -0.092513
     19 O                    -0.464436
     20 O                    -0.476150
     21 O                    -0.482547
     22 O                    -0.472455
     23 C                    -0.201027
     24 H                     0.141043
     25 H                     0.112439
     26 H                     0.112509
     27 C                    -0.197247
     28 H                     0.134219
     29 H                     0.112921
     30 H                     0.112086
     31 H                     0.213045
     32 C                    -0.055572
     33 S                     0.031891
     34 C                    -0.199344
     35 C                    -0.130107
     36 C                    -0.210702
     37 H                     0.198714
     38 H                     0.191508
     39 H                     0.215716
  ----------------------------------------
  Sum of atomic charges =     0.000000

 -----------------------------------------------------------------
                    Cartesian Multipole Moments
 -----------------------------------------------------------------
    Charge (ESU x 10^10)
                -0.0000
    Dipole Moment (Debye)
         X       0.3617      Y       1.9542      Z      -0.9030
       Tot       2.1830
    Quadrupole Moments (Debye-Ang)
        XX    -168.9049     XY       2.0843     YY    -167.3145
        XZ       9.1657     YZ       0.7468     ZZ    -173.0389
    Octopole Moments (Debye-Ang^2)
       XXX     -51.8100    XXY     486.5560    XYY      -6.4051
       YYY    1608.4028    XXZ      -0.6811    XYZ     -34.8190
       YYZ       2.6575    XZZ     -17.7735    YZZ     542.4558
       ZZZ      -5.3990
    Hexadecapole Moments (Debye-Ang^3)
      XXXX   -1651.5106   XXXY    -183.0030   XXYY   -3082.5512
      XYYY    -412.3664   YYYY  -17225.8289   XXXZ    1257.7401
      XXYZ       5.0883   XYYZ     677.3759   YYYZ     641.7492
      XXZZ   -1124.9108   XYZZ      71.1496   YYZZ   -3865.7379
      XZZZ    1328.8272   YZZZ      20.2927   ZZZZ   -4906.6983
 -----------------------------------------------------------------
 Total job time:  318.73s(wall), 11631.90s(cpu) 
 Wed Sep 20 08:20:20 2023

        *************************************************************
        *                                                           *
        *  Thank you very much for using Q-Chem.  Have a nice day.  *
        *                                                           *
        *************************************************************


0 sent ACK to 0 
now end server 0 ... 
cleanup process ... done
remove work dirs ./qchem3545479.0 -- ./qchem3545479.0
rm -rf ./qchem3545479.0
rm -rf ./qchem3545479
