You are running Q-Chem version: 5.4.0

#
# job setting
#
local host:  exp-3-38
current dir: /expanse/lustre/projects/csd626/rramji/aromodel/PNDIT/Rotation_Test
input file:  Dimethyl_Naphthalene_Dicarboximide_Phi_20_Theta_10_Thiophene.qcin
output file: 
nprocs     : 1
nthreads   : 64
#
# qchem installation setting
#
QC:          /cm/shared/apps/spack/cpu/opt/spack/linux-centos8-zen2/gcc-10.2.0/qchem-5.4-akfmr7b3t57bfs6qan3padb2wnb2i7cl
QCAUX:       /cm/shared/apps/spack/cpu/opt/spack/linux-centos8-zen2/gcc-10.2.0/qchem-5.4-akfmr7b3t57bfs6qan3padb2wnb2i7cl/qcaux
QCPROG:      /cm/shared/apps/spack/cpu/opt/spack/linux-centos8-zen2/gcc-10.2.0/qchem-5.4-akfmr7b3t57bfs6qan3padb2wnb2i7cl/exe/qcprog.exe
QCPROG_S:    /cm/shared/apps/spack/cpu/opt/spack/linux-centos8-zen2/gcc-10.2.0/qchem-5.4-akfmr7b3t57bfs6qan3padb2wnb2i7cl/exe/qcprog.exe_s
PARALLEL:    -DPARALLEL
QCMPI:       mpich
#
# qchem directory setting
#
qcrun:       qchem402241
QCSCRATCH:   .
QCLOCALSCR:  
QCTMPDIR:    .
QCFILEPREF:  ./qchem402241
QCSAVEDIR:   
workdirs:    ./qchem402241
workdir0:    ./qchem402241
partmpdirs =  
#
# parallel setting
#
QCRSH:           ssh
QCMPI:           mpich
QCMPIRUN:        /cm/shared/apps/spack/cpu/opt/spack/linux-centos8-zen2/gcc-10.2.0/qchem-5.4-akfmr7b3t57bfs6qan3padb2wnb2i7cl/bin/mpi/mpirun_qchem
QCMACHINEFILE:   ./qchem402241/hostfile
exp-3-38

#
# env setting
#
exported envs:   QC QCAUX QCSCRATCH QCRUNNAME QCFILEPREF QCPROG QCPROG_S GUIFILE

Running Job 1 of 1 Dimethyl_Naphthalene_Dicarboximide_Phi_20_Theta_10_Thiophene.qcin
qchem Dimethyl_Naphthalene_Dicarboximide_Phi_20_Theta_10_Thiophene.qcin_402241.0 ./qchem402241/ 1
/cm/shared/apps/spack/cpu/opt/spack/linux-centos8-zen2/gcc-10.2.0/qchem-5.4-akfmr7b3t57bfs6qan3padb2wnb2i7cl/bin/mpi/mpirun_qchem -machinefile ./qchem402241/hostfile -np 1 /cm/shared/apps/spack/cpu/opt/spack/linux-centos8-zen2/gcc-10.2.0/qchem-5.4-akfmr7b3t57bfs6qan3padb2wnb2i7cl/exe/qcprog.exe Dimethyl_Naphthalene_Dicarboximide_Phi_20_Theta_10_Thiophene.qcin_402241.0 ./qchem402241/

Process 0 of 1 is on exp-3-38 - thread support 0
initial socket setup ...start
initial socket setup ...done 
now start server 0 ... 
                  Welcome to Q-Chem
     A Quantum Leap Into The Future Of Chemistry


 Q-Chem 5.4, Q-Chem, Inc., Pleasanton, CA (2021)

 License issued to: University of California, San Diego (site)

 E. Epifanovsky,  A. T. B. Gilbert,  Xintian Feng,  Joonho Lee,  Yuezhi Mao,  
 N. Mardirossian,  P. Pokhilko,  A. White,  M. Wormit,  M. P. Coons,  
 A. L. Dempwolff,  Zhengting Gan,  D. Hait,  P. R. Horn,  L. D. Jacobson,  
 I. Kaliman,  J. Kussmann,  A. W. Lange,  Ka Un Lao,  D. S. Levine,  Jie Liu,  
 S. C. McKenzie,  A. F. Morrison,  K. Nanda,  F. Plasser,  D. R. Rehn,  
 M. L. Vidal,  Zhi-Qiang You,  Ying Zhu,  B. Alam,  B. Albrecht,  
 A. Aldossary,  E. Alguire,  J. H. Andersen,  D. Barton,  K. Begam,  A. Behn,  
 Y. A. Bernard,  E. J. Berquist,  H. Burton,  A. Carreras,  K. Carter-Fenk,  
 R. Chakraborty,  A. D. Chien,  K. D. Closser,  V. Cofer-Shabica,  
 S. Dasgupta,  Jia Deng,  M. de Wergifosse,  M. Diedenhofen,  Hainam Do,  
 S. Ehlert,  Po-Tung Fang,  S. Fatehi,  Qingguo Feng,  J. Gayvert,  
 Qinghui Ge,  G. Gidofalvi,  M. Goldey,  J. Gomes,  C. Gonzalez-Espinoza,  
 S. Gulania,  A. Gunina,  M. W. D. Hanson-Heine,  P. H. P. Harbach,  
 A. W. Hauser,  M. F. Herbst,  M. Hernandez Vera,  M. Hodecker,  
 Z. C. Holden,  S. Houck,  Xunkun Huang,  Kerwin Hui,  B. C. Huynh,  
 M. Ivanov,  Hyunjun Ji,  Hanjie Jiang,  B. Kaduk,  S. Kaehler,  
 K. Khistyaev,  Jaehoon Kim,  P. Klunzinger,  Z. Koczor-Benda,  
 Joong Hoon Koh,  D. Kosenkov,  L. Koulias,  T. Kowalczyk,  C. M. Krauter,  
 K. Kue,  A. Kunitsa,  T. Kus,  A. Landau,  K. V. Lawler,  D. Lefrancois,  
 S. Lehtola,  Rain Li,  Yi-Pei Li,  Jiashu Liang,  M. Liebenthal,  
 Hung-Hsuan Lin,  You-Sheng Lin,  Fenglai Liu,  Kuan-Yu Liu,  
 M. Loipersberger,  A. Luenser,  A. Manjanath,  P. Manohar,  E. Mansoor,  
 S. F. Manzer,  Shan-Ping Mao,  A. V. Marenich,  T. Markovich,  S. Mason,  
 S. A. Maurer,  P. F. McLaughlin,  M. F. S. J. Menger,  J.-M. Mewes,  
 S. A. Mewes,  P. Morgante,  J. W. Mullinax,  T. S. Nguyen-Beck,  
 K. J. Oosterbaan,  G. Paran,  Alexander C. Paul,  Suranjan K. Paul,  
 F. Pavosevic,  Zheng Pei,  S. Prager,  E. I. Proynov,  E. Ramos,  B. Rana,  
 A. E. Rask,  A. Rettig,  R. M. Richard,  F. Rob,  E. Rossomme,  T. Scheele,  
 M. Scheurer,  M. Schneider,  N. Sergueev,  S. M. Sharada,  W. Skomorowski,  
 D. W. Small,  C. J. Stein,  Yu-Chuan Su,  E. J. Sundstrom,  Zhen Tao,  
 J. Thirman,  T. Tsuchimochi,  N. M. Tubman,  S. P. Veccham,  O. Vydrov,  
 J. Wenzel,  J. Witte,  A. Yamada,  Kun Yao,  S. Yeganeh,  S. R. Yost,  
 A. Zech,  Igor Ying Zhang,  Xing Zhang,  Yu Zhang,  D. Zuev,  
 A. Aspuru-Guzik,  A. T. Bell,  N. A. Besley,  K. B. Bravaya,  B. R. Brooks,  
 D. Casanova,  Jeng-Da Chai,  S. Coriani,  C. J. Cramer,  
 A. E. DePrince, III,  R. A. DiStasio Jr.,  A. Dreuw,  B. D. Dunietz,  
 T. R. Furlani,  W. A. Goddard III,  S. Grimme,  S. Hammes-Schiffer,  
 T. Head-Gordon,  W. J. Hehre,  Chao-Ping Hsu,  T.-C. Jagau,  Yousung Jung,  
 A. Klamt,  Jing Kong,  D. S. Lambrecht,  WanZhen Liang,  N. J. Mayhall,  
 C. W. McCurdy,  J. B. Neaton,  C. Ochsenfeld,  J. A. Parkhill,  R. Peverati,  
 V. A. Rassolov,  Yihan Shao,  L. V. Slipchenko,  T. Stauch,  R. P. Steele,  
 J. E. Subotnik,  A. J. W. Thom,  A. Tkatchenko,  D. G. Truhlar,  
 T. Van Voorhis,  T. A. Wesolowski,  K. B. Whaley,  H. L. Woodcock III,  
 P. M. Zimmerman,  S. Faraji,  P. M. W. Gill,  M. Head-Gordon,  
 J. M. Herbert,  A. I. Krylov

 Contributors to earlier versions of Q-Chem not listed above: 
 R. D. Adamson,  B. Austin,  R. Baer,  J. Baker,  G. J. O. Beran,  
 K. Brandhorst,  S. T. Brown,  E. F. C. Byrd,  A. K. Chakraborty,  
 G. K. L. Chan,  Chun-Min Chang,  Yunqing Chen,  C.-L. Cheng,  
 Siu Hung Chien,  D. M. Chipman,  D. L. Crittenden,  H. Dachsel,  
 R. J. Doerksen,  A. D. Dutoi,  R. G. Edgar,  J. Fosso-Tande,  
 L. Fusti-Molnar,  D. Ghosh,  A. Ghysels,  A. Golubeva-Zadorozhnaya,  
 J. Gonthier,  M. S. Gordon,  S. R. Gwaltney,  G. Hawkins,  J. E. Herr,  
 A. Heyden,  S. Hirata,  E. G. Hohenstein,  G. Kedziora,  F. J. Keil,  
 C. Kelley,  Jihan Kim,  R. A. King,  R. Z. Khaliullin,  P. P. Korambath,  
 W. Kurlancheek,  A. Laurent,  A. M. Lee,  M. S. Lee,  S. V. Levchenko,  
 Ching Yeh Lin,  D. Liotard,  E. Livshits,  R. C. Lochan,  I. Lotan,  
 L. A. Martinez-Martinez,  P. E. Maslen,  N. Nair,  D. P. O'Neill,  
 D. Neuhauser,  E. Neuscamman,  C. M. Oana,  R. Olivares-Amaya,  R. Olson,  
 T. M. Perrine,  B. Peters,  P. A. Pieniazek,  A. Prociuk,  Y. M. Rhee,  
 J. Ritchie,  M. A. Rohrdanz,  E. Rosta,  N. J. Russ,  H. F. Schaefer III,  
 M. W. Schmidt,  N. E. Schultz,  S. Sharma,  N. Shenvi,  C. D. Sherrill,  
 A. C. Simmonett,  A. Sodt,  T. Stein,  D. Stuck,  K. S. Thanthiriwatte,  
 V. Vanovschi,  L. Vogt,  Tao Wang,  A. Warshel,  M. A. Watson,  
 C. F. Williams,  Q. Wu,  X. Xu,  Jun Yang,  W. Zhang,  Yan Zhao

 Please cite Q-Chem as follows:
 Y. Shao et al., Mol. Phys. 113, 184-215 (2015)
 DOI: 10.1080/00268976.2014.952696

 Q-Chem 5.4.0 for Intel X86 EM64T Linux

 Parts of Q-Chem use Armadillo 9.800.1 (Horizon Scraper).
 http://arma.sourceforge.net/

 Q-Chem begins on Wed Sep 20 08:06:15 2023  

 Host: 
0

     Scratch files written to ./qchem402241//
 May1621 |scratch|qcdevops|jenkins|workspace|build_RNUM    
 Parallel job on  1  processors
 Processing $rem in /cm/shared/apps/spack/cpu/opt/spack/linux-centos8-zen2/gcc-10.2.0/qchem-5.4-akfmr7b3t57bfs6qan3padb2wnb2i7cl/config/preferences:
 Processing $rem in /home/rramji/.qchemrc:
 Symmetry turned off for PCM/SM12/SMD calculation
 Core orbitals will be frozen

 Checking the input file for inconsistencies... 	...done.

 Q-Chem warning in module forms1/BasisType.C, line 2236:

 You are not using the predefined 5D/6D in this basis set.


--------------------------------------------------------------
User input:
--------------------------------------------------------------
$molecule
0 1
C	0.043160	-6.741404	-0.253280
C	0.269777	-6.155638	-1.539213
C	-0.145543	-5.791452	0.814295
C	0.318377	-4.803786	-1.813519
H	0.422058	-6.821518	-2.403941
C	-0.094194	-4.378638	0.527140
C	0.137191	-3.838032	-0.783072
C	-0.275104	-3.413062	1.556403
C	0.188116	-2.426473	-1.067932
C	-0.226701	-2.059348	1.285420
C	0.000000	-1.478216	0.000000
H	-0.378931	-1.394783	2.151147
C	-0.397845	-6.187987	2.234582
C	-0.523637	-3.798164	2.965273
N	-0.567586	-5.170003	3.204744
C	0.567421	-4.424987	-3.226257
C	0.439541	-2.036627	-2.489446
N	0.609650	-3.049156	-3.459801
O	-0.468608	-7.353131	2.619468
O	-0.683034	-2.986854	3.874668
O	0.725131	-5.248946	-4.124806
O	0.512648	-0.878829	-2.895819
C	-0.813908	-5.563799	4.595691
H	-0.822891	-6.664085	4.640022
H	-1.781600	-5.147101	4.934830
H	-0.020360	-5.148785	5.246157
C	0.851649	-2.587487	-4.829716
H	0.962191	-3.483329	-5.462742
H	1.765865	-1.964972	-4.863242
H	0.005383	-1.962932	-5.173521
H	0.010555	-7.822318	-0.070208
C	0.000000	0.000000	0.000000
S	0.271091	0.745405	1.580530
C	0.831198	2.284363	0.904911
C	0.341175	0.937861	-0.985400
C	0.792631	2.178516	-0.493528
H	0.260601	0.716417	-2.059934
H	1.093860	3.006347	-1.152593
H	1.132330	3.111961	1.556025
$end

$rem
JOBTYPE		SP
EXCHANGE	HF
CORRELATION	pRIMP2
BASIS		cc-pvtz
METHOD		rimp2
AUX_BASIS	rimp2-cc-pvtz
SOLVENT_METHOD	PCM
PURECART	11111
SYMMETRY	false
MEM_TOTAL	110000
SCF_CONVERGENCE = 6
THRESH=10
GUI = 2
$end



$solvent
dielectric 4.90
$end
--------------------------------------------------------------
 ----------------------------------------------------------------
             Standard Nuclear Orientation (Angstroms)
    I     Atom           X                Y                Z
 ----------------------------------------------------------------
    1      C       0.0431600000    -6.7414040000    -0.2532800000
    2      C       0.2697770000    -6.1556380000    -1.5392130000
    3      C      -0.1455430000    -5.7914520000     0.8142950000
    4      C       0.3183770000    -4.8037860000    -1.8135190000
    5      H       0.4220580000    -6.8215180000    -2.4039410000
    6      C      -0.0941940000    -4.3786380000     0.5271400000
    7      C       0.1371910000    -3.8380320000    -0.7830720000
    8      C      -0.2751040000    -3.4130620000     1.5564030000
    9      C       0.1881160000    -2.4264730000    -1.0679320000
   10      C      -0.2267010000    -2.0593480000     1.2854200000
   11      C       0.0000000000    -1.4782160000     0.0000000000
   12      H      -0.3789310000    -1.3947830000     2.1511470000
   13      C      -0.3978450000    -6.1879870000     2.2345820000
   14      C      -0.5236370000    -3.7981640000     2.9652730000
   15      N      -0.5675860000    -5.1700030000     3.2047440000
   16      C       0.5674210000    -4.4249870000    -3.2262570000
   17      C       0.4395410000    -2.0366270000    -2.4894460000
   18      N       0.6096500000    -3.0491560000    -3.4598010000
   19      O      -0.4686080000    -7.3531310000     2.6194680000
   20      O      -0.6830340000    -2.9868540000     3.8746680000
   21      O       0.7251310000    -5.2489460000    -4.1248060000
   22      O       0.5126480000    -0.8788290000    -2.8958190000
   23      C      -0.8139080000    -5.5637990000     4.5956910000
   24      H      -0.8228910000    -6.6640850000     4.6400220000
   25      H      -1.7816000000    -5.1471010000     4.9348300000
   26      H      -0.0203600000    -5.1487850000     5.2461570000
   27      C       0.8516490000    -2.5874870000    -4.8297160000
   28      H       0.9621910000    -3.4833290000    -5.4627420000
   29      H       1.7658650000    -1.9649720000    -4.8632420000
   30      H       0.0053830000    -1.9629320000    -5.1735210000
   31      H       0.0105550000    -7.8223180000    -0.0702080000
   32      C       0.0000000000     0.0000000000     0.0000000000
   33      S       0.2710910000     0.7454050000     1.5805300000
   34      C       0.8311980000     2.2843630000     0.9049110000
   35      C       0.3411750000     0.9378610000    -0.9854000000
   36      C       0.7926310000     2.1785160000    -0.4935280000
   37      H       0.2606010000     0.7164170000    -2.0599340000
   38      H       1.0938600000     3.0063470000    -1.1525930000
   39      H       1.1323300000     3.1119610000     1.5560250000
 ----------------------------------------------------------------
 Nuclear Repulsion Energy =        2501.45384221 hartrees
 There are       97 alpha and       97 beta electrons
 Requested basis set is cc-pVTZ
 There are 344 shells and 982 basis functions

 Total QAlloc Memory Limit 110000 MB
 Mega-Array Size       188 MB
 MEM_STATIC part       192 MB
 Discretize the solute cavity surface with Lebedev spheres
	Using 110 Lebedev grid points for each H atom
	Using 194 Lebedev grid points for other atoms
	Atomic van der Waals radii will be scaled by 1.20
 Remove points where switching function is < 1.0e-08
 Keep 2541 surface tesserae and discard 4017 interior tesserae
 Molecular Surface Area = 359.360 Angst**2
 Requested basis set is rimp2-cc-pVTZ
 There are 750 shells and 2588 basis functions
 A cutoff of  1.0D-10 yielded  31825 shell pairs
 There are    245003 function pairs (    318365 Cartesian)
 Smallest overlap matrix eigenvalue = 9.99E-06

 Q-Chem warning in module stvman/mkSTV.C, line 323:

 Overlap eigenvalue is smaller than square root of threshold
 Use THRESH >= 12 to get rid of this warning


 Scale SEOQF with 1.000000e-01/1.000000e-02/1.000000e-02

 Standard Electronic Orientation quadrupole field applied
 Nucleus-field energy     =     0.0000000108 hartrees
 Guess from superposition of atomic densities
 Warning:  Energy on first SCF cycle will be non-variational
 SAD guess density has 194.000000 electrons

 -----------------------------------------------------------------------
  General SCF calculation program by
  Eric Jon Sundstrom, Paul Horn, Yuezhi Mao, Dmitri Zuev, Alec White,
  David Stuck, Shaama M.S., Shane Yost, Joonho Lee, David Small,
  Daniel Levine, Susi Lehtola, Hugh Burton, Evgeny Epifanovsky,
  Bang C. Huynh
 -----------------------------------------------------------------------
 Hartree-Fock
 using 64 threads for integral computing
 -------------------------------------------------------
 OpenMP Integral computing Module                
 Release: version 1.0, May 2013, Q-Chem Inc. Pittsburgh 
 -------------------------------------------------------
 A restricted SCF calculation will be
 performed using DIIS
 SCF converges when DIIS error is below 1.0e-06
 ---------------------------------------
  Cycle       Energy         DIIS error
 ---------------------------------------
    1   -1581.4113768696      1.87e-02  
    2   -1570.1082477786      2.08e-03  
    3   -1570.4376658046      1.61e-03  
    4   -1570.6625690040      2.59e-04  
    5   -1570.6748816211      7.80e-05  
    6   -1570.6760149078      2.89e-05  
    7   -1570.6762821733      1.44e-05  
    8   -1570.6763661752      6.09e-06  
    9   -1570.6763796079      2.33e-06  
   10   -1570.6763820165      8.69e-07  Convergence criterion met
 ---------------------------------------
 SCF time:   CPU 5996.07s  wall 229.00s 

************** Final PCM Free Energy Summary **************
 G_electrostatic  =      -0.02075461 hartree =     -13.02371615 kcal/mol
 G_cavitation     =       0.00000000 hartree =       0.00000000 kcal/mol
 G_dispersion     =       0.00000000 hartree =       0.00000000 kcal/mol
 G_repulsion      =       0.00000000 hartree =       0.00000000 kcal/mol
 --------------------------------------------------
 Non-electrostatic Free Energy =       0.00000000 hartree =       0.00000000 kcal/mol
 Total                         =      -0.02075461 hartree =     -13.02371615 kcal/mol
 --------------------------------------------------
 SCF Energy (H0 + V/2)                       =   -1570.67638202 
 Solute Internal Energy (H0)                 =   -1570.65562740 
 Total Free Energy (H0 + V/2 + non-elec)     =   -1570.67638202 hartree
                                             = -985614.30559137 kcal/mol
***********************************************************

 SCF   energy in the final basis set =    -1570.6763820165
 Total energy in the final basis set =    -1570.6763820165


 --------------------------------------------------------------
  Generalized many-body perturbation theory program
  by Joonho Lee, Fazle Rob, Xintian Feng, Evgeny Epifanovsky

 No regularization used 
 (reg. param. = 0.0000e+00)
  (P|Q)^-1/2 Time:  CPU 140.10 s  wall 2.21 s

 In RI-MP2 calculation: 
 # of frozen core orbitals: 31

 Components of the RIMP2 correlation energy:
        aaaa    correlation energy =        -0.6179747355 a.u.
        abab    correlation energy =        -3.3933929644 a.u.
        bbbb    correlation energy =        -0.6179747355 a.u.
        non-Brillouin singles      =        -0.0000000000 a.u.
        total same-spin energy     =        -1.2359494710 a.u.
        total opposite-spin energy =        -3.3933929644 a.u.

 Total  RIMP2   correlation energy =        -4.6293424354 a.u.
        RIMP2         total energy =     -1575.3057244519 a.u.

 RI-MP2 Energy Time:  CPU 1879.62 s  wall 32.61 s
 
 --------------------------------------------------------------
 
                    Orbital Energies (a.u.)
 --------------------------------------------------------------
 
 Alpha MOs
 -- Occupied --
-91.9931 -20.5583 -20.5563 -20.5550 -20.5533 -15.6310 -15.6305 -11.3996
-11.3972 -11.3911 -11.3906 -11.3199 -11.3017 -11.2997 -11.2969 -11.2944
-11.2932 -11.2927 -11.2882 -11.2871 -11.2826 -11.2785 -11.2782 -11.2649
-11.2643 -11.2532 -11.2498  -8.9931  -6.6739  -6.6733  -6.6727  -1.4258
 -1.4246  -1.4041  -1.4040  -1.2674  -1.2653  -1.2166  -1.1781  -1.1436
 -1.1157  -1.0633  -1.0490  -0.9923  -0.9902  -0.9877  -0.9586  -0.9472
 -0.8970  -0.8789  -0.8780  -0.8615  -0.7961  -0.7795  -0.7731  -0.7627
 -0.7355  -0.7256  -0.7031  -0.6936  -0.6820  -0.6737  -0.6664  -0.6622
 -0.6558  -0.6412  -0.6376  -0.6340  -0.6276  -0.6127  -0.5908  -0.5835
 -0.5784  -0.5715  -0.5664  -0.5639  -0.5608  -0.5560  -0.5541  -0.5468
 -0.5341  -0.5250  -0.5238  -0.5166  -0.4812  -0.4682  -0.4648  -0.4629
 -0.4577  -0.4493  -0.4292  -0.4192  -0.4096  -0.3773  -0.3546  -0.3363
 -0.2989
 -- Virtual --
 -0.0185   0.0512   0.0679   0.1034   0.1301   0.1544   0.1585   0.1591
  0.1667   0.1722   0.1753   0.1860   0.1968   0.1994   0.2081   0.2106
  0.2248   0.2276   0.2296   0.2365   0.2466   0.2548   0.2631   0.2651
  0.2682   0.3092   0.3126   0.3155   0.3209   0.3359   0.3373   0.3413
  0.3484   0.3494   0.3554   0.3560   0.3584   0.3645   0.3758   0.3783
  0.3810   0.3883   0.3948   0.3984   0.4042   0.4076   0.4108   0.4157
  0.4257   0.4300   0.4326   0.4373   0.4446   0.4489   0.4499   0.4572
  0.4578   0.4614   0.4694   0.4735   0.4795   0.4808   0.4873   0.4924
  0.4981   0.5082   0.5148   0.5171   0.5216   0.5262   0.5270   0.5292
  0.5363   0.5413   0.5449   0.5520   0.5538   0.5582   0.5656   0.5682
  0.5721   0.5731   0.5812   0.5867   0.5938   0.5951   0.5998   0.6016
  0.6030   0.6065   0.6147   0.6173   0.6233   0.6265   0.6289   0.6322
  0.6341   0.6358   0.6384   0.6438   0.6523   0.6593   0.6675   0.6760
  0.6840   0.6845   0.6888   0.6981   0.7020   0.7119   0.7130   0.7253
  0.7357   0.7376   0.7396   0.7489   0.7538   0.7594   0.7653   0.7685
  0.7784   0.7857   0.7861   0.7895   0.8020   0.8104   0.8153   0.8198
  0.8252   0.8351   0.8398   0.8455   0.8467   0.8526   0.8551   0.8600
  0.8639   0.8646   0.8746   0.8782   0.8878   0.8963   0.8986   0.9104
  0.9150   0.9199   0.9288   0.9295   0.9309   0.9376   0.9398   0.9507
  0.9580   0.9585   0.9626   0.9673   0.9747   0.9779   0.9840   0.9924
  0.9939   0.9990   1.0020   1.0096   1.0129   1.0204   1.0271   1.0305
  1.0347   1.0467   1.0518   1.0557   1.0634   1.0685   1.0708   1.0734
  1.0804   1.0815   1.0832   1.0858   1.0959   1.1008   1.1090   1.1164
  1.1214   1.1329   1.1370   1.1390   1.1453   1.1461   1.1514   1.1592
  1.1647   1.1665   1.1725   1.1803   1.1856   1.1884   1.1966   1.2002
  1.2089   1.2112   1.2138   1.2242   1.2269   1.2339   1.2383   1.2406
  1.2439   1.2486   1.2547   1.2604   1.2681   1.2760   1.2771   1.3032
  1.3155   1.3248   1.3280   1.3376   1.3421   1.3475   1.3583   1.3611
  1.3679   1.3793   1.3845   1.3897   1.3899   1.3978   1.4029   1.4194
  1.4214   1.4276   1.4347   1.4421   1.4454   1.4510   1.4638   1.4715
  1.4724   1.4798   1.4860   1.4948   1.4985   1.5082   1.5147   1.5220
  1.5272   1.5350   1.5393   1.5469   1.5520   1.5585   1.5617   1.5652
  1.5746   1.5842   1.5862   1.5984   1.6061   1.6163   1.6179   1.6308
  1.6387   1.6458   1.6498   1.6564   1.6680   1.6730   1.6862   1.6911
  1.6949   1.7115   1.7222   1.7261   1.7315   1.7428   1.7473   1.7524
  1.7630   1.7680   1.7824   1.7899   1.7935   1.7985   1.8024   1.8214
  1.8290   1.8386   1.8446   1.8551   1.8568   1.8631   1.8687   1.8751
  1.8827   1.8897   1.9024   1.9098   1.9248   1.9346   1.9393   1.9562
  1.9637   1.9721   1.9744   1.9790   1.9938   2.0163   2.0209   2.0363
  2.0553   2.0641   2.0765   2.0999   2.1064   2.1125   2.1288   2.1440
  2.1580   2.1618   2.1681   2.1814   2.1896   2.2150   2.2195   2.2362
  2.2436   2.2517   2.2612   2.2733   2.2843   2.2866   2.2937   2.3060
  2.3139   2.3313   2.3361   2.3505   2.3611   2.3664   2.3757   2.3895
  2.4075   2.4175   2.4237   2.4429   2.4488   2.4518   2.4584   2.4719
  2.4857   2.4886   2.4968   2.5009   2.5096   2.5262   2.5381   2.5422
  2.5631   2.5645   2.5740   2.5871   2.5897   2.5960   2.6091   2.6096
  2.6164   2.6281   2.6424   2.6486   2.6563   2.6654   2.6697   2.6709
  2.6760   2.6834   2.6954   2.7031   2.7080   2.7114   2.7203   2.7282
  2.7380   2.7426   2.7492   2.7559   2.7624   2.7695   2.7855   2.7967
  2.7982   2.8131   2.8236   2.8382   2.8397   2.8542   2.8565   2.8624
  2.8720   2.8743   2.8816   2.8852   2.8883   2.8978   2.9079   2.9134
  2.9216   2.9265   2.9339   2.9451   2.9519   2.9572   2.9684   2.9724
  2.9750   2.9773   2.9937   3.0014   3.0030   3.0096   3.0130   3.0153
  3.0196   3.0353   3.0371   3.0434   3.0512   3.0567   3.0712   3.0856
  3.0884   3.0937   3.0983   3.1012   3.1098   3.1118   3.1166   3.1220
  3.1300   3.1342   3.1361   3.1429   3.1619   3.1738   3.1790   3.1831
  3.1969   3.1987   3.2010   3.2044   3.2121   3.2160   3.2226   3.2292
  3.2303   3.2318   3.2369   3.2468   3.2513   3.2559   3.2615   3.2642
  3.2687   3.2725   3.2770   3.2790   3.2894   3.2908   3.2930   3.3013
  3.3088   3.3117   3.3201   3.3268   3.3318   3.3353   3.3360   3.3405
  3.3431   3.3496   3.3514   3.3578   3.3617   3.3658   3.3691   3.3724
  3.3770   3.3850   3.3868   3.3968   3.3991   3.4100   3.4140   3.4208
  3.4275   3.4296   3.4335   3.4387   3.4440   3.4493   3.4519   3.4599
  3.4620   3.4636   3.4733   3.4757   3.4841   3.4854   3.4883   3.4935
  3.4995   3.5022   3.5048   3.5123   3.5151   3.5166   3.5275   3.5294
  3.5379   3.5463   3.5490   3.5575   3.5682   3.5768   3.5772   3.5838
  3.5909   3.6007   3.6048   3.6082   3.6148   3.6181   3.6233   3.6289
  3.6328   3.6366   3.6422   3.6506   3.6552   3.6631   3.6694   3.6784
  3.6907   3.6951   3.6993   3.7033   3.7082   3.7113   3.7180   3.7257
  3.7322   3.7355   3.7373   3.7469   3.7503   3.7533   3.7616   3.7722
  3.7782   3.7831   3.7869   3.7905   3.7949   3.7982   3.8012   3.8089
  3.8160   3.8196   3.8226   3.8424   3.8430   3.8549   3.8603   3.8617
  3.8696   3.8781   3.8843   3.8894   3.8959   3.9070   3.9126   3.9314
  3.9341   3.9372   3.9396   3.9436   3.9634   3.9641   3.9706   3.9806
  3.9917   3.9954   4.0074   4.0093   4.0210   4.0264   4.0403   4.0464
  4.0581   4.0638   4.0693   4.0812   4.0874   4.0982   4.1061   4.1100
  4.1261   4.1318   4.1341   4.1438   4.1563   4.1639   4.1697   4.1756
  4.1794   4.1872   4.1943   4.2048   4.2084   4.2203   4.2277   4.2415
  4.2451   4.2554   4.2679   4.2744   4.2781   4.2866   4.2928   4.2969
  4.2995   4.3038   4.3100   4.3184   4.3252   4.3297   4.3333   4.3486
  4.3526   4.3559   4.3650   4.3673   4.3680   4.3785   4.3837   4.3895
  4.3963   4.4018   4.4081   4.4106   4.4120   4.4216   4.4445   4.4493
  4.4585   4.4679   4.4805   4.4922   4.5002   4.5069   4.5152   4.5224
  4.5251   4.5338   4.5471   4.5524   4.5568   4.5644   4.5674   4.5781
  4.5785   4.5832   4.5858   4.5997   4.6078   4.6172   4.6280   4.6406
  4.6449   4.6542   4.6629   4.6719   4.6779   4.6810   4.6905   4.7039
  4.7106   4.7268   4.7366   4.7506   4.7606   4.7751   4.7834   4.8019
  4.8113   4.8243   4.8355   4.8433   4.8465   4.8627   4.8788   4.8811
  4.8903   4.9086   4.9282   4.9358   4.9472   4.9530   4.9762   4.9944
  4.9991   5.0090   5.0230   5.0420   5.0453   5.0512   5.0559   5.0583
  5.1026   5.1058   5.1151   5.1252   5.1272   5.1336   5.1538   5.1626
  5.1661   5.1847   5.1918   5.2081   5.2165   5.2391   5.2562   5.2573
  5.2767   5.2801   5.2943   5.3000   5.3090   5.3236   5.3318   5.3443
  5.3672   5.3952   5.4018   5.4052   5.4242   5.4290   5.4330   5.4670
  5.4793   5.5074   5.5088   5.5123   5.5156   5.5415   5.5466   5.5569
  5.5603   5.5636   5.5723   5.5740   5.5777   5.5939   5.6050   5.6141
  5.6295   5.6409   5.6523   5.6546   5.6606   5.6768   5.6821   5.6904
  5.7037   5.7206   5.7229   5.7474   5.7588   5.7650   5.7696   5.7718
  5.7895   5.7922   5.8152   5.8226   5.8560   5.8902   5.9065   5.9146
  5.9499   5.9602   5.9957   6.0150   6.0237   6.0289   6.0380   6.0466
  6.1009   6.1021   6.1077   6.1196   6.1260   6.1862   6.2049   6.2115
  6.2178   6.2216   6.2366   6.2690   6.2747   6.2969   6.3064   6.3487
  6.3636   6.3944   6.4414   6.4504   6.4698   6.5289   6.5623   6.5706
  6.5876   6.6228   6.6474   6.6485   6.6599   6.7026   6.7346   6.8344
  6.8401   6.8858   6.8863   6.8967   6.9115   6.9340   6.9530   7.0807
  7.1352   7.1467   7.1954   7.2092   7.2695   7.3327   7.3425   7.3445
  7.3583   7.4712   7.5497   7.5604   7.5762   7.5814   7.6340   7.6379
  7.6816   7.7174   7.8368   8.4421   9.9310  10.3760  11.1441  11.2425
 11.7039  11.7748  12.0150  12.3914  12.5008  12.6054  12.8502  13.1241
 13.3416  13.5575  13.8224  13.9518  14.0531  14.1588  14.3188  14.4117
 14.4677  14.7618  15.3550  15.7418  16.0042
 --------------------------------------------------------------
 
          Ground-State Mulliken Net Atomic Charges

     Atom                 Charge (a.u.)
  ----------------------------------------
      1 C                    -0.146767
      2 C                    -0.111614
      3 C                    -0.030396
      4 C                    -0.002966
      5 H                     0.187634
      6 C                    -0.001501
      7 C                     0.074643
      8 C                     0.043993
      9 C                    -0.075696
     10 C                    -0.166707
     11 C                     0.063529
     12 H                     0.166347
     13 C                     0.359084
     14 C                     0.364680
     15 N                    -0.101407
     16 C                     0.358968
     17 C                     0.383546
     18 N                    -0.091592
     19 O                    -0.464178
     20 O                    -0.476552
     21 O                    -0.483517
     22 O                    -0.477206
     23 C                    -0.201211
     24 H                     0.141107
     25 H                     0.112397
     26 H                     0.112489
     27 C                    -0.198529
     28 H                     0.134615
     29 H                     0.112535
     30 H                     0.112552
     31 H                     0.212354
     32 C                     0.005814
     33 S                     0.020872
     34 C                    -0.194357
     35 C                    -0.163785
     36 C                    -0.218615
     37 H                     0.228176
     38 H                     0.192853
     39 H                     0.218410
  ----------------------------------------
  Sum of atomic charges =     0.000000

 -----------------------------------------------------------------
                    Cartesian Multipole Moments
 -----------------------------------------------------------------
    Charge (ESU x 10^10)
                -0.0000
    Dipole Moment (Debye)
         X       0.8943      Y       2.3417      Z      -0.8684
       Tot       2.6528
    Quadrupole Moments (Debye-Ang)
        XX    -163.1599     XY       3.9342     YY    -170.1054
        XZ       3.8103     YZ       0.3972     ZZ    -177.5153
    Octopole Moments (Debye-Ang^2)
       XXX     -58.0285    XXY     475.0212    XYY      -4.4280
       YYY    1623.0479    XXZ       0.3011    XYZ     -11.5702
       YYZ       5.7921    XZZ     -16.1497    YZZ     563.2662
       ZZZ       2.8787
    Hexadecapole Moments (Debye-Ang^3)
      XXXX    -428.3359   XXXY    -149.6069   XXYY   -2726.9661
      XYYY    -180.4401   YYYY  -17289.6380   XXXZ     471.9588
      XXYZ      91.3529   XYYZ     271.2001   YYYZ     723.9505
      XXZZ   -1078.4859   XYZZ      25.5758   YYZZ   -4208.0200
      XZZZ     525.0473   YZZZ     -50.0720   ZZZZ   -6277.9816
 -----------------------------------------------------------------
 Total job time:  267.96s(wall), 8030.06s(cpu) 
 Wed Sep 20 08:10:43 2023

        *************************************************************
        *                                                           *
        *  Thank you very much for using Q-Chem.  Have a nice day.  *
        *                                                           *
        *************************************************************


0 sent ACK to 0 
now end server 0 ... 
cleanup process ... done
remove work dirs ./qchem402241.0 -- ./qchem402241.0
rm -rf ./qchem402241.0
rm -rf ./qchem402241
