You are running Q-Chem version: 5.4.0

#
# job setting
#
local host:  exp-2-14
current dir: /expanse/lustre/projects/csd626/rramji/aromodel/PNDIT/Rotation_Test
input file:  Dimethyl_Naphthalene_Dicarboximide_Phi_5_Theta_200_Thiophene.qcin
output file: 
nprocs     : 1
nthreads   : 64
#
# qchem installation setting
#
QC:          /cm/shared/apps/spack/cpu/opt/spack/linux-centos8-zen2/gcc-10.2.0/qchem-5.4-akfmr7b3t57bfs6qan3padb2wnb2i7cl
QCAUX:       /cm/shared/apps/spack/cpu/opt/spack/linux-centos8-zen2/gcc-10.2.0/qchem-5.4-akfmr7b3t57bfs6qan3padb2wnb2i7cl/qcaux
QCPROG:      /cm/shared/apps/spack/cpu/opt/spack/linux-centos8-zen2/gcc-10.2.0/qchem-5.4-akfmr7b3t57bfs6qan3padb2wnb2i7cl/exe/qcprog.exe
QCPROG_S:    /cm/shared/apps/spack/cpu/opt/spack/linux-centos8-zen2/gcc-10.2.0/qchem-5.4-akfmr7b3t57bfs6qan3padb2wnb2i7cl/exe/qcprog.exe_s
PARALLEL:    -DPARALLEL
QCMPI:       mpich
#
# qchem directory setting
#
qcrun:       qchem3000203
QCSCRATCH:   .
QCLOCALSCR:  
QCTMPDIR:    .
QCFILEPREF:  ./qchem3000203
QCSAVEDIR:   
workdirs:    ./qchem3000203
workdir0:    ./qchem3000203
partmpdirs =  
#
# parallel setting
#
QCRSH:           ssh
QCMPI:           mpich
QCMPIRUN:        /cm/shared/apps/spack/cpu/opt/spack/linux-centos8-zen2/gcc-10.2.0/qchem-5.4-akfmr7b3t57bfs6qan3padb2wnb2i7cl/bin/mpi/mpirun_qchem
QCMACHINEFILE:   ./qchem3000203/hostfile
exp-2-14

#
# env setting
#
exported envs:   QC QCAUX QCSCRATCH QCRUNNAME QCFILEPREF QCPROG QCPROG_S GUIFILE

Running Job 1 of 1 Dimethyl_Naphthalene_Dicarboximide_Phi_5_Theta_200_Thiophene.qcin
qchem Dimethyl_Naphthalene_Dicarboximide_Phi_5_Theta_200_Thiophene.qcin_3000203.0 ./qchem3000203/ 1
/cm/shared/apps/spack/cpu/opt/spack/linux-centos8-zen2/gcc-10.2.0/qchem-5.4-akfmr7b3t57bfs6qan3padb2wnb2i7cl/bin/mpi/mpirun_qchem -machinefile ./qchem3000203/hostfile -np 1 /cm/shared/apps/spack/cpu/opt/spack/linux-centos8-zen2/gcc-10.2.0/qchem-5.4-akfmr7b3t57bfs6qan3padb2wnb2i7cl/exe/qcprog.exe Dimethyl_Naphthalene_Dicarboximide_Phi_5_Theta_200_Thiophene.qcin_3000203.0 ./qchem3000203/

Process 0 of 1 is on exp-2-14 - thread support 0
initial socket setup ...start
initial socket setup ...done 
now start server 0 ... 
                  Welcome to Q-Chem
     A Quantum Leap Into The Future Of Chemistry


 Q-Chem 5.4, Q-Chem, Inc., Pleasanton, CA (2021)

 License issued to: University of California, San Diego (site)

 E. Epifanovsky,  A. T. B. Gilbert,  Xintian Feng,  Joonho Lee,  Yuezhi Mao,  
 N. Mardirossian,  P. Pokhilko,  A. White,  M. Wormit,  M. P. Coons,  
 A. L. Dempwolff,  Zhengting Gan,  D. Hait,  P. R. Horn,  L. D. Jacobson,  
 I. Kaliman,  J. Kussmann,  A. W. Lange,  Ka Un Lao,  D. S. Levine,  Jie Liu,  
 S. C. McKenzie,  A. F. Morrison,  K. Nanda,  F. Plasser,  D. R. Rehn,  
 M. L. Vidal,  Zhi-Qiang You,  Ying Zhu,  B. Alam,  B. Albrecht,  
 A. Aldossary,  E. Alguire,  J. H. Andersen,  D. Barton,  K. Begam,  A. Behn,  
 Y. A. Bernard,  E. J. Berquist,  H. Burton,  A. Carreras,  K. Carter-Fenk,  
 R. Chakraborty,  A. D. Chien,  K. D. Closser,  V. Cofer-Shabica,  
 S. Dasgupta,  Jia Deng,  M. de Wergifosse,  M. Diedenhofen,  Hainam Do,  
 S. Ehlert,  Po-Tung Fang,  S. Fatehi,  Qingguo Feng,  J. Gayvert,  
 Qinghui Ge,  G. Gidofalvi,  M. Goldey,  J. Gomes,  C. Gonzalez-Espinoza,  
 S. Gulania,  A. Gunina,  M. W. D. Hanson-Heine,  P. H. P. Harbach,  
 A. W. Hauser,  M. F. Herbst,  M. Hernandez Vera,  M. Hodecker,  
 Z. C. Holden,  S. Houck,  Xunkun Huang,  Kerwin Hui,  B. C. Huynh,  
 M. Ivanov,  Hyunjun Ji,  Hanjie Jiang,  B. Kaduk,  S. Kaehler,  
 K. Khistyaev,  Jaehoon Kim,  P. Klunzinger,  Z. Koczor-Benda,  
 Joong Hoon Koh,  D. Kosenkov,  L. Koulias,  T. Kowalczyk,  C. M. Krauter,  
 K. Kue,  A. Kunitsa,  T. Kus,  A. Landau,  K. V. Lawler,  D. Lefrancois,  
 S. Lehtola,  Rain Li,  Yi-Pei Li,  Jiashu Liang,  M. Liebenthal,  
 Hung-Hsuan Lin,  You-Sheng Lin,  Fenglai Liu,  Kuan-Yu Liu,  
 M. Loipersberger,  A. Luenser,  A. Manjanath,  P. Manohar,  E. Mansoor,  
 S. F. Manzer,  Shan-Ping Mao,  A. V. Marenich,  T. Markovich,  S. Mason,  
 S. A. Maurer,  P. F. McLaughlin,  M. F. S. J. Menger,  J.-M. Mewes,  
 S. A. Mewes,  P. Morgante,  J. W. Mullinax,  T. S. Nguyen-Beck,  
 K. J. Oosterbaan,  G. Paran,  Alexander C. Paul,  Suranjan K. Paul,  
 F. Pavosevic,  Zheng Pei,  S. Prager,  E. I. Proynov,  E. Ramos,  B. Rana,  
 A. E. Rask,  A. Rettig,  R. M. Richard,  F. Rob,  E. Rossomme,  T. Scheele,  
 M. Scheurer,  M. Schneider,  N. Sergueev,  S. M. Sharada,  W. Skomorowski,  
 D. W. Small,  C. J. Stein,  Yu-Chuan Su,  E. J. Sundstrom,  Zhen Tao,  
 J. Thirman,  T. Tsuchimochi,  N. M. Tubman,  S. P. Veccham,  O. Vydrov,  
 J. Wenzel,  J. Witte,  A. Yamada,  Kun Yao,  S. Yeganeh,  S. R. Yost,  
 A. Zech,  Igor Ying Zhang,  Xing Zhang,  Yu Zhang,  D. Zuev,  
 A. Aspuru-Guzik,  A. T. Bell,  N. A. Besley,  K. B. Bravaya,  B. R. Brooks,  
 D. Casanova,  Jeng-Da Chai,  S. Coriani,  C. J. Cramer,  
 A. E. DePrince, III,  R. A. DiStasio Jr.,  A. Dreuw,  B. D. Dunietz,  
 T. R. Furlani,  W. A. Goddard III,  S. Grimme,  S. Hammes-Schiffer,  
 T. Head-Gordon,  W. J. Hehre,  Chao-Ping Hsu,  T.-C. Jagau,  Yousung Jung,  
 A. Klamt,  Jing Kong,  D. S. Lambrecht,  WanZhen Liang,  N. J. Mayhall,  
 C. W. McCurdy,  J. B. Neaton,  C. Ochsenfeld,  J. A. Parkhill,  R. Peverati,  
 V. A. Rassolov,  Yihan Shao,  L. V. Slipchenko,  T. Stauch,  R. P. Steele,  
 J. E. Subotnik,  A. J. W. Thom,  A. Tkatchenko,  D. G. Truhlar,  
 T. Van Voorhis,  T. A. Wesolowski,  K. B. Whaley,  H. L. Woodcock III,  
 P. M. Zimmerman,  S. Faraji,  P. M. W. Gill,  M. Head-Gordon,  
 J. M. Herbert,  A. I. Krylov

 Contributors to earlier versions of Q-Chem not listed above: 
 R. D. Adamson,  B. Austin,  R. Baer,  J. Baker,  G. J. O. Beran,  
 K. Brandhorst,  S. T. Brown,  E. F. C. Byrd,  A. K. Chakraborty,  
 G. K. L. Chan,  Chun-Min Chang,  Yunqing Chen,  C.-L. Cheng,  
 Siu Hung Chien,  D. M. Chipman,  D. L. Crittenden,  H. Dachsel,  
 R. J. Doerksen,  A. D. Dutoi,  R. G. Edgar,  J. Fosso-Tande,  
 L. Fusti-Molnar,  D. Ghosh,  A. Ghysels,  A. Golubeva-Zadorozhnaya,  
 J. Gonthier,  M. S. Gordon,  S. R. Gwaltney,  G. Hawkins,  J. E. Herr,  
 A. Heyden,  S. Hirata,  E. G. Hohenstein,  G. Kedziora,  F. J. Keil,  
 C. Kelley,  Jihan Kim,  R. A. King,  R. Z. Khaliullin,  P. P. Korambath,  
 W. Kurlancheek,  A. Laurent,  A. M. Lee,  M. S. Lee,  S. V. Levchenko,  
 Ching Yeh Lin,  D. Liotard,  E. Livshits,  R. C. Lochan,  I. Lotan,  
 L. A. Martinez-Martinez,  P. E. Maslen,  N. Nair,  D. P. O'Neill,  
 D. Neuhauser,  E. Neuscamman,  C. M. Oana,  R. Olivares-Amaya,  R. Olson,  
 T. M. Perrine,  B. Peters,  P. A. Pieniazek,  A. Prociuk,  Y. M. Rhee,  
 J. Ritchie,  M. A. Rohrdanz,  E. Rosta,  N. J. Russ,  H. F. Schaefer III,  
 M. W. Schmidt,  N. E. Schultz,  S. Sharma,  N. Shenvi,  C. D. Sherrill,  
 A. C. Simmonett,  A. Sodt,  T. Stein,  D. Stuck,  K. S. Thanthiriwatte,  
 V. Vanovschi,  L. Vogt,  Tao Wang,  A. Warshel,  M. A. Watson,  
 C. F. Williams,  Q. Wu,  X. Xu,  Jun Yang,  W. Zhang,  Yan Zhao

 Please cite Q-Chem as follows:
 Y. Shao et al., Mol. Phys. 113, 184-215 (2015)
 DOI: 10.1080/00268976.2014.952696

 Q-Chem 5.4.0 for Intel X86 EM64T Linux

 Parts of Q-Chem use Armadillo 9.800.1 (Horizon Scraper).
 http://arma.sourceforge.net/

 Q-Chem begins on Sun Sep 24 16:21:18 2023  

 Host: 
0

     Scratch files written to ./qchem3000203//
 May1621 |scratch|qcdevops|jenkins|workspace|build_RNUM    
 Parallel job on  1  processors
 Processing $rem in /cm/shared/apps/spack/cpu/opt/spack/linux-centos8-zen2/gcc-10.2.0/qchem-5.4-akfmr7b3t57bfs6qan3padb2wnb2i7cl/config/preferences:
 Processing $rem in /home/rramji/.qchemrc:
 Symmetry turned off for PCM/SM12/SMD calculation
 Core orbitals will be frozen

 Checking the input file for inconsistencies... 	...done.

 Q-Chem warning in module forms1/BasisType.C, line 2236:

 You are not using the predefined 5D/6D in this basis set.


--------------------------------------------------------------
User input:
--------------------------------------------------------------
$molecule
0 1
C	-0.086486	-6.741404	0.241938
C	-0.532960	-6.155638	1.468983
C	0.284733	-5.791452	-0.776651
C	-0.628455	-4.803786	1.730681
H	-0.833086	-6.821518	2.294130
C	0.184300	-4.378638	-0.502775
C	-0.271086	-3.838032	0.747353
C	0.541191	-3.413062	-1.484986
C	-0.370703	-2.426473	1.019042
C	0.446468	-2.059348	-1.226525
C	0.000000	-1.478216	0.000000
H	0.746717	-1.394783	-2.052666
C	0.779832	-6.187987	-2.131549
C	1.030596	-3.798164	-2.829295
N	1.115461	-5.170003	-3.057496
C	-1.119034	-4.424987	3.078712
C	-0.865151	-2.036627	2.375300
N	-1.201176	-3.049156	3.301374
O	0.916355	-7.353131	-2.498300
O	1.345486	-2.986854	-3.697195
O	-1.430379	-5.248946	3.936224
O	-1.007714	-0.878829	2.762805
C	1.599576	-5.563799	-4.384539
H	1.616121	-6.664085	-4.426636
H	2.611458	-5.147101	-4.550487
H	0.931037	-5.148785	-5.162921
C	-1.677382	-2.587487	4.608454
H	-1.896168	-3.483329	5.212668
H	-2.583531	-1.964972	4.482719
H	-0.903674	-1.962932	5.093988
H	-0.022586	-7.822318	0.067309
C	0.000000	0.000000	0.000000
S	0.068929	0.790170	1.580530
C	0.211639	2.421655	0.904911
C	0.086813	0.994207	-0.985400
C	0.201782	2.309433	-0.493528
H	0.066299	0.759454	-2.059934
H	0.278488	3.187020	-1.152593
H	0.288312	3.298992	1.556025
$end

$rem
JOBTYPE		SP
EXCHANGE	HF
CORRELATION	pRIMP2
BASIS		cc-pvtz
METHOD		rimp2
AUX_BASIS	rimp2-cc-pvtz
SOLVENT_METHOD	PCM
PURECART	11111
SYMMETRY	false
MEM_TOTAL	110000
SCF_CONVERGENCE = 6
THRESH=10
GUI = 2
$end



$solvent
dielectric 4.90
$end
--------------------------------------------------------------
 ----------------------------------------------------------------
             Standard Nuclear Orientation (Angstroms)
    I     Atom           X                Y                Z
 ----------------------------------------------------------------
    1      C      -0.0864860000    -6.7414040000     0.2419380000
    2      C      -0.5329600000    -6.1556380000     1.4689830000
    3      C       0.2847330000    -5.7914520000    -0.7766510000
    4      C      -0.6284550000    -4.8037860000     1.7306810000
    5      H      -0.8330860000    -6.8215180000     2.2941300000
    6      C       0.1843000000    -4.3786380000    -0.5027750000
    7      C      -0.2710860000    -3.8380320000     0.7473530000
    8      C       0.5411910000    -3.4130620000    -1.4849860000
    9      C      -0.3707030000    -2.4264730000     1.0190420000
   10      C       0.4464680000    -2.0593480000    -1.2265250000
   11      C       0.0000000000    -1.4782160000     0.0000000000
   12      H       0.7467170000    -1.3947830000    -2.0526660000
   13      C       0.7798320000    -6.1879870000    -2.1315490000
   14      C       1.0305960000    -3.7981640000    -2.8292950000
   15      N       1.1154610000    -5.1700030000    -3.0574960000
   16      C      -1.1190340000    -4.4249870000     3.0787120000
   17      C      -0.8651510000    -2.0366270000     2.3753000000
   18      N      -1.2011760000    -3.0491560000     3.3013740000
   19      O       0.9163550000    -7.3531310000    -2.4983000000
   20      O       1.3454860000    -2.9868540000    -3.6971950000
   21      O      -1.4303790000    -5.2489460000     3.9362240000
   22      O      -1.0077140000    -0.8788290000     2.7628050000
   23      C       1.5995760000    -5.5637990000    -4.3845390000
   24      H       1.6161210000    -6.6640850000    -4.4266360000
   25      H       2.6114580000    -5.1471010000    -4.5504870000
   26      H       0.9310370000    -5.1487850000    -5.1629210000
   27      C      -1.6773820000    -2.5874870000     4.6084540000
   28      H      -1.8961680000    -3.4833290000     5.2126680000
   29      H      -2.5835310000    -1.9649720000     4.4827190000
   30      H      -0.9036740000    -1.9629320000     5.0939880000
   31      H      -0.0225860000    -7.8223180000     0.0673090000
   32      C       0.0000000000     0.0000000000     0.0000000000
   33      S       0.0689290000     0.7901700000     1.5805300000
   34      C       0.2116390000     2.4216550000     0.9049110000
   35      C       0.0868130000     0.9942070000    -0.9854000000
   36      C       0.2017820000     2.3094330000    -0.4935280000
   37      H       0.0662990000     0.7594540000    -2.0599340000
   38      H       0.2784880000     3.1870200000    -1.1525930000
   39      H       0.2883120000     3.2989920000     1.5560250000
 ----------------------------------------------------------------
 Nuclear Repulsion Energy =        2509.50038279 hartrees
 There are       97 alpha and       97 beta electrons
 Requested basis set is cc-pVTZ
 There are 344 shells and 982 basis functions

 Total QAlloc Memory Limit 110000 MB
 Mega-Array Size       188 MB
 MEM_STATIC part       192 MB
 Discretize the solute cavity surface with Lebedev spheres
	Using 110 Lebedev grid points for each H atom
	Using 194 Lebedev grid points for other atoms
	Atomic van der Waals radii will be scaled by 1.20
 Remove points where switching function is < 1.0e-08
 Keep 2524 surface tesserae and discard 4034 interior tesserae
 Molecular Surface Area = 360.054 Angst**2
 Requested basis set is rimp2-cc-pVTZ
 There are 750 shells and 2588 basis functions
 A cutoff of  1.0D-10 yielded  31675 shell pairs
 There are    244055 function pairs (    317084 Cartesian)
 Smallest overlap matrix eigenvalue = 9.85E-06

 Q-Chem warning in module stvman/mkSTV.C, line 323:

 Overlap eigenvalue is smaller than square root of threshold
 Use THRESH >= 12 to get rid of this warning


 Scale SEOQF with 1.000000e-01/1.000000e-02/1.000000e-01

 Standard Electronic Orientation quadrupole field applied
 Nucleus-field energy     =    -0.0000000975 hartrees
 Guess from superposition of atomic densities
 Warning:  Energy on first SCF cycle will be non-variational
 SAD guess density has 194.000000 electrons

 -----------------------------------------------------------------------
  General SCF calculation program by
  Eric Jon Sundstrom, Paul Horn, Yuezhi Mao, Dmitri Zuev, Alec White,
  David Stuck, Shaama M.S., Shane Yost, Joonho Lee, David Small,
  Daniel Levine, Susi Lehtola, Hugh Burton, Evgeny Epifanovsky,
  Bang C. Huynh
 -----------------------------------------------------------------------
 Hartree-Fock
 using 64 threads for integral computing
 -------------------------------------------------------
 OpenMP Integral computing Module                
 Release: version 1.0, May 2013, Q-Chem Inc. Pittsburgh 
 -------------------------------------------------------
 A restricted SCF calculation will be
 performed using DIIS
 SCF converges when DIIS error is below 1.0e-06
 ---------------------------------------
  Cycle       Energy         DIIS error
 ---------------------------------------
    1   -1581.3988391209      1.87e-02  
    2   -1570.0983705287      2.08e-03  
    3   -1570.4238220335      1.61e-03  
    4   -1570.6511404938      2.59e-04  
    5   -1570.6632826150      7.64e-05  
    6   -1570.6643441081      2.81e-05  
    7   -1570.6645907707      1.44e-05  
    8   -1570.6646709725      5.84e-06  
    9   -1570.6646838330      2.27e-06  
   10   -1570.6646860289      7.88e-07  Convergence criterion met
 ---------------------------------------
 SCF time:   CPU 5644.04s  wall 221.00s 

************** Final PCM Free Energy Summary **************
 G_electrostatic  =      -0.02248233 hartree =     -14.10787560 kcal/mol
 G_cavitation     =       0.00000000 hartree =       0.00000000 kcal/mol
 G_dispersion     =       0.00000000 hartree =       0.00000000 kcal/mol
 G_repulsion      =       0.00000000 hartree =       0.00000000 kcal/mol
 --------------------------------------------------
 Non-electrostatic Free Energy =       0.00000000 hartree =       0.00000000 kcal/mol
 Total                         =      -0.02248233 hartree =     -14.10787560 kcal/mol
 --------------------------------------------------
 SCF Energy (H0 + V/2)                       =   -1570.66468603 
 Solute Internal Energy (H0)                 =   -1570.64220370 
 Total Free Energy (H0 + V/2 + non-elec)     =   -1570.66468603 hartree
                                             = -985606.96624836 kcal/mol
***********************************************************

 SCF   energy in the final basis set =    -1570.6646860289
 Total energy in the final basis set =    -1570.6646860289


 --------------------------------------------------------------
  Generalized many-body perturbation theory program
  by Joonho Lee, Fazle Rob, Xintian Feng, Evgeny Epifanovsky

 No regularization used 
 (reg. param. = 0.0000e+00)
  (P|Q)^-1/2 Time:  CPU 169.93 s  wall 3.05 s

 In RI-MP2 calculation: 
 # of frozen core orbitals: 31

 Components of the RIMP2 correlation energy:
        aaaa    correlation energy =        -0.6191971401 a.u.
        abab    correlation energy =        -3.3966004660 a.u.
        bbbb    correlation energy =        -0.6191971401 a.u.
        non-Brillouin singles      =        -0.0000000000 a.u.
        total same-spin energy     =        -1.2383942802 a.u.
        total opposite-spin energy =        -3.3966004660 a.u.

 Total  RIMP2   correlation energy =        -4.6349947461 a.u.
        RIMP2         total energy =     -1575.2996807750 a.u.

 RI-MP2 Energy Time:  CPU 1789.94 s  wall 30.13 s
 
 --------------------------------------------------------------
 
                    Orbital Energies (a.u.)
 --------------------------------------------------------------
 
 Alpha MOs
 -- Occupied --
-91.9799 -20.5590 -20.5570 -20.5566 -20.5543 -15.6316 -15.6316 -11.4003
-11.3989 -11.3920 -11.3912 -11.3205 -11.3026 -11.3015 -11.3004 -11.2961
-11.2948 -11.2900 -11.2875 -11.2840 -11.2796 -11.2787 -11.2754 -11.2652
-11.2648 -11.2604 -11.2437  -8.9795  -6.6600  -6.6590  -6.6583  -1.4295
 -1.4253  -1.4064  -1.4047  -1.2688  -1.2664  -1.2173  -1.1726  -1.1430
 -1.1171  -1.0622  -1.0498  -0.9932  -0.9889  -0.9812  -0.9594  -0.9472
 -0.8973  -0.8802  -0.8782  -0.8629  -0.7939  -0.7779  -0.7759  -0.7603
 -0.7323  -0.7229  -0.7032  -0.6934  -0.6880  -0.6745  -0.6674  -0.6631
 -0.6573  -0.6406  -0.6383  -0.6363  -0.6278  -0.6143  -0.5841  -0.5820
 -0.5816  -0.5732  -0.5700  -0.5651  -0.5638  -0.5561  -0.5556  -0.5491
 -0.5331  -0.5235  -0.5219  -0.5194  -0.4881  -0.4731  -0.4664  -0.4638
 -0.4572  -0.4331  -0.4224  -0.4121  -0.4077  -0.3742  -0.3391  -0.3372
 -0.2978
 -- Virtual --
 -0.0209   0.0557   0.0685   0.1065   0.1271   0.1553   0.1579   0.1599
  0.1662   0.1780   0.1815   0.1836   0.1863   0.2006   0.2072   0.2126
  0.2267   0.2272   0.2283   0.2366   0.2555   0.2561   0.2648   0.2683
  0.2773   0.3074   0.3133   0.3153   0.3262   0.3288   0.3324   0.3396
  0.3432   0.3509   0.3525   0.3553   0.3608   0.3614   0.3731   0.3764
  0.3826   0.3869   0.3933   0.3943   0.3999   0.4066   0.4118   0.4142
  0.4264   0.4281   0.4344   0.4400   0.4443   0.4454   0.4520   0.4586
  0.4600   0.4619   0.4700   0.4762   0.4786   0.4798   0.4907   0.4947
  0.5054   0.5089   0.5098   0.5132   0.5172   0.5205   0.5271   0.5322
  0.5374   0.5407   0.5507   0.5524   0.5545   0.5597   0.5644   0.5675
  0.5731   0.5769   0.5822   0.5855   0.5914   0.5948   0.5994   0.6017
  0.6052   0.6071   0.6131   0.6159   0.6212   0.6251   0.6262   0.6302
  0.6342   0.6363   0.6382   0.6402   0.6459   0.6547   0.6649   0.6700
  0.6831   0.6886   0.6949   0.6986   0.7058   0.7113   0.7149   0.7302
  0.7335   0.7352   0.7414   0.7516   0.7529   0.7546   0.7629   0.7701
  0.7723   0.7816   0.7874   0.7986   0.8076   0.8118   0.8167   0.8218
  0.8297   0.8376   0.8389   0.8454   0.8474   0.8519   0.8603   0.8649
  0.8655   0.8676   0.8811   0.8826   0.8891   0.8902   0.9024   0.9111
  0.9137   0.9156   0.9207   0.9269   0.9287   0.9358   0.9438   0.9471
  0.9547   0.9604   0.9634   0.9698   0.9735   0.9787   0.9834   0.9885
  0.9931   0.9960   0.9970   1.0091   1.0152   1.0180   1.0259   1.0324
  1.0352   1.0459   1.0578   1.0595   1.0628   1.0684   1.0730   1.0770
  1.0792   1.0819   1.0853   1.0894   1.0911   1.1014   1.1082   1.1152
  1.1209   1.1306   1.1346   1.1404   1.1441   1.1469   1.1498   1.1556
  1.1627   1.1675   1.1746   1.1761   1.1812   1.1876   1.1943   1.1999
  1.2088   1.2121   1.2145   1.2228   1.2249   1.2315   1.2381   1.2402
  1.2445   1.2504   1.2578   1.2617   1.2669   1.2723   1.2889   1.3005
  1.3117   1.3257   1.3261   1.3339   1.3409   1.3427   1.3540   1.3594
  1.3654   1.3701   1.3804   1.3834   1.3896   1.3929   1.3970   1.4189
  1.4207   1.4338   1.4385   1.4423   1.4492   1.4537   1.4578   1.4707
  1.4763   1.4799   1.4862   1.4928   1.4978   1.5102   1.5202   1.5225
  1.5311   1.5338   1.5410   1.5483   1.5539   1.5601   1.5626   1.5658
  1.5712   1.5747   1.5864   1.5930   1.6052   1.6099   1.6214   1.6350
  1.6391   1.6460   1.6529   1.6581   1.6692   1.6756   1.6787   1.6958
  1.7033   1.7109   1.7222   1.7241   1.7316   1.7365   1.7416   1.7472
  1.7548   1.7692   1.7717   1.7796   1.7946   1.8042   1.8069   1.8176
  1.8259   1.8344   1.8434   1.8473   1.8524   1.8581   1.8624   1.8760
  1.8783   1.8892   1.9031   1.9057   1.9179   1.9256   1.9331   1.9447
  1.9546   1.9648   1.9726   1.9761   1.9794   2.0099   2.0298   2.0406
  2.0576   2.0709   2.0808   2.0960   2.1064   2.1192   2.1341   2.1434
  2.1565   2.1647   2.1727   2.1945   2.2001   2.2219   2.2272   2.2365
  2.2479   2.2637   2.2646   2.2734   2.2870   2.2913   2.2950   2.3022
  2.3242   2.3298   2.3341   2.3539   2.3622   2.3728   2.3812   2.4162
  2.4238   2.4287   2.4358   2.4466   2.4518   2.4555   2.4575   2.4755
  2.4799   2.4886   2.4960   2.5035   2.5085   2.5335   2.5388   2.5467
  2.5546   2.5690   2.5813   2.5850   2.5955   2.5991   2.6088   2.6149
  2.6196   2.6295   2.6385   2.6456   2.6544   2.6635   2.6652   2.6736
  2.6809   2.6841   2.6937   2.6948   2.7093   2.7199   2.7254   2.7372
  2.7412   2.7421   2.7531   2.7600   2.7621   2.7685   2.7709   2.7853
  2.7968   2.8066   2.8141   2.8288   2.8334   2.8478   2.8513   2.8533
  2.8683   2.8722   2.8749   2.8801   2.8883   2.8898   2.8929   2.9042
  2.9095   2.9126   2.9263   2.9318   2.9474   2.9514   2.9635   2.9732
  2.9747   2.9752   2.9872   2.9974   3.0012   3.0053   3.0122   3.0192
  3.0210   3.0341   3.0379   3.0441   3.0463   3.0594   3.0685   3.0785
  3.0799   3.0885   3.0975   3.1014   3.1036   3.1091   3.1124   3.1198
  3.1267   3.1298   3.1314   3.1568   3.1610   3.1693   3.1714   3.1791
  3.1866   3.1970   3.2050   3.2070   3.2096   3.2159   3.2225   3.2261
  3.2295   3.2303   3.2416   3.2482   3.2516   3.2548   3.2582   3.2687
  3.2734   3.2791   3.2796   3.2844   3.2857   3.2895   3.3002   3.3032
  3.3072   3.3117   3.3165   3.3232   3.3268   3.3309   3.3325   3.3380
  3.3415   3.3434   3.3457   3.3482   3.3610   3.3653   3.3662   3.3687
  3.3796   3.3847   3.3904   3.3919   3.3979   3.4018   3.4094   3.4145
  3.4223   3.4296   3.4339   3.4409   3.4446   3.4495   3.4535   3.4562
  3.4584   3.4628   3.4668   3.4747   3.4756   3.4843   3.4888   3.4932
  3.4966   3.5010   3.5094   3.5114   3.5127   3.5227   3.5251   3.5276
  3.5338   3.5384   3.5427   3.5488   3.5533   3.5651   3.5720   3.5814
  3.5885   3.5938   3.5949   3.6032   3.6122   3.6219   3.6272   3.6291
  3.6335   3.6392   3.6408   3.6474   3.6533   3.6662   3.6699   3.6762
  3.6798   3.6849   3.6949   3.6997   3.7060   3.7120   3.7145   3.7266
  3.7280   3.7340   3.7376   3.7394   3.7510   3.7553   3.7584   3.7609
  3.7751   3.7812   3.7840   3.7851   3.7938   3.7962   3.8003   3.8046
  3.8195   3.8265   3.8319   3.8381   3.8404   3.8439   3.8561   3.8593
  3.8615   3.8688   3.8748   3.8819   3.8902   3.8964   3.9171   3.9247
  3.9305   3.9326   3.9401   3.9455   3.9504   3.9538   3.9714   3.9789
  3.9824   3.9997   4.0059   4.0127   4.0221   4.0260   4.0409   4.0449
  4.0555   4.0608   4.0685   4.0865   4.0895   4.1028   4.1103   4.1139
  4.1208   4.1304   4.1331   4.1351   4.1483   4.1558   4.1637   4.1675
  4.1747   4.1874   4.1908   4.1978   4.2047   4.2170   4.2308   4.2376
  4.2443   4.2525   4.2631   4.2699   4.2749   4.2801   4.2807   4.2869
  4.2951   4.2976   4.3041   4.3053   4.3276   4.3310   4.3376   4.3418
  4.3533   4.3540   4.3633   4.3662   4.3675   4.3684   4.3724   4.3801
  4.3938   4.4012   4.4059   4.4167   4.4210   4.4215   4.4287   4.4367
  4.4534   4.4631   4.4683   4.4829   4.4988   4.5092   4.5151   4.5208
  4.5243   4.5316   4.5406   4.5443   4.5502   4.5519   4.5583   4.5734
  4.5776   4.5832   4.5902   4.5979   4.6144   4.6209   4.6246   4.6337
  4.6408   4.6594   4.6682   4.6710   4.6743   4.6812   4.6891   4.6919
  4.7089   4.7268   4.7358   4.7395   4.7618   4.7715   4.7826   4.7833
  4.8197   4.8293   4.8356   4.8377   4.8583   4.8651   4.8730   4.8801
  4.8920   4.8960   4.9176   4.9293   4.9467   4.9624   4.9719   4.9825
  5.0022   5.0154   5.0280   5.0377   5.0441   5.0494   5.0523   5.0603
  5.0985   5.1010   5.1083   5.1174   5.1244   5.1330   5.1421   5.1454
  5.1697   5.1745   5.1922   5.1944   5.2003   5.2371   5.2469   5.2561
  5.2690   5.2771   5.2892   5.2947   5.3137   5.3236   5.3318   5.3462
  5.3573   5.3897   5.3959   5.4032   5.4226   5.4314   5.4446   5.4462
  5.4876   5.5062   5.5083   5.5126   5.5154   5.5473   5.5494   5.5553
  5.5595   5.5613   5.5720   5.5743   5.5773   5.5902   5.6035   5.6050
  5.6254   5.6315   5.6520   5.6542   5.6593   5.6730   5.6762   5.6920
  5.6979   5.7115   5.7345   5.7436   5.7491   5.7575   5.7617   5.7753
  5.7794   5.7831   5.8192   5.8289   5.8595   5.8854   5.9058   5.9380
  5.9456   5.9665   6.0158   6.0212   6.0236   6.0325   6.0410   6.0644
  6.0782   6.1000   6.1041   6.1159   6.1391   6.1791   6.2072   6.2098
  6.2173   6.2189   6.2233   6.2637   6.2724   6.2811   6.3096   6.3446
  6.3511   6.3692   6.4444   6.4591   6.4783   6.5252   6.5614   6.5681
  6.5871   6.6101   6.6358   6.6464   6.6583   6.6918   6.7230   6.8333
  6.8369   6.8808   6.8856   6.8973   6.9108   6.9297   6.9903   7.0791
  7.1253   7.1449   7.1851   7.2082   7.2419   7.3320   7.3416   7.3437
  7.3582   7.4664   7.5451   7.5566   7.5737   7.5793   7.6183   7.6338
  7.6759   7.6876   7.7270   8.4134   9.9159  10.3218  11.1683  11.2535
 11.7002  11.7491  11.9817  12.3855  12.4409  12.7729  12.8531  12.9386
 13.3757  13.5473  13.8182  13.9294  14.0494  14.2019  14.3180  14.3731
 14.4816  14.7371  15.3492  15.7532  15.9768
 --------------------------------------------------------------
 
          Ground-State Mulliken Net Atomic Charges

     Atom                 Charge (a.u.)
  ----------------------------------------
      1 C                    -0.144514
      2 C                    -0.110213
      3 C                    -0.032191
      4 C                    -0.004012
      5 H                     0.188422
      6 C                     0.003323
      7 C                     0.082907
      8 C                    -0.001177
      9 C                    -0.078403
     10 C                    -0.133710
     11 C                     0.089392
     12 H                     0.181920
     13 C                     0.359408
     14 C                     0.365828
     15 N                    -0.101880
     16 C                     0.359704
     17 C                     0.376629
     18 N                    -0.094569
     19 O                    -0.463944
     20 O                    -0.476856
     21 O                    -0.482064
     22 O                    -0.459568
     23 C                    -0.201118
     24 H                     0.141222
     25 H                     0.112454
     26 H                     0.112445
     27 C                    -0.197782
     28 H                     0.134679
     29 H                     0.113375
     30 H                     0.113422
     31 H                     0.212907
     32 C                    -0.030450
     33 S                     0.092882
     34 C                    -0.217244
     35 C                    -0.161423
     36 C                    -0.232243
     37 H                     0.187875
     38 H                     0.185563
     39 H                     0.209004
  ----------------------------------------
  Sum of atomic charges =     0.000000

 -----------------------------------------------------------------
                    Cartesian Multipole Moments
 -----------------------------------------------------------------
    Charge (ESU x 10^10)
                 0.0000
    Dipole Moment (Debye)
         X      -0.0526      Y       1.2078      Z      -0.3160
       Tot       1.2496
    Quadrupole Moments (Debye-Ang)
        XX    -166.3352     XY       0.9444     YY    -169.0045
        XZ       6.0219     YZ       0.5685     ZZ    -174.0169
    Octopole Moments (Debye-Ang^2)
       XXX       3.0533    XXY     473.1288    XYY       3.2856
       YYY    1604.0130    XXZ     -32.8457    XYZ     -25.8468
       YYZ     -21.6527    XZZ       2.7891    YZZ     549.6639
       ZZZ    -101.2768
    Hexadecapole Moments (Debye-Ang^3)
      XXXX    -864.9593   XXXY      83.5971   XXYY   -2880.0236
      XYYY     260.3296   YYYY  -17254.0475   XXXZ     920.5867
      XXYZ     -88.0649   XYYZ     500.6036   YYYZ    -748.2101
      XXZZ   -1094.0320   XYZZ     -72.8807   YYZZ   -4073.1134
      XZZZ     994.0773   YZZZ     -74.1065   ZZZZ   -5707.9391
 -----------------------------------------------------------------
 Total job time:  292.23s(wall), 7555.07s(cpu) 
 Sun Sep 24 16:26:10 2023

        *************************************************************
        *                                                           *
        *  Thank you very much for using Q-Chem.  Have a nice day.  *
        *                                                           *
        *************************************************************


0 sent ACK to 0 
now end server 0 ... 
cleanup process ... done
remove work dirs ./qchem3000203.0 -- ./qchem3000203.0
rm -rf ./qchem3000203.0
rm -rf ./qchem3000203
