You are running Q-Chem version: 5.4.0

#
# job setting
#
local host:  exp-2-14
current dir: /expanse/lustre/projects/csd626/rramji/aromodel/PNDIT/Rotation_Test
input file:  Dimethyl_Naphthalene_Dicarboximide_Phi_5_Theta_30_Thiophene.qcin
output file: 
nprocs     : 1
nthreads   : 64
#
# qchem installation setting
#
QC:          /cm/shared/apps/spack/cpu/opt/spack/linux-centos8-zen2/gcc-10.2.0/qchem-5.4-akfmr7b3t57bfs6qan3padb2wnb2i7cl
QCAUX:       /cm/shared/apps/spack/cpu/opt/spack/linux-centos8-zen2/gcc-10.2.0/qchem-5.4-akfmr7b3t57bfs6qan3padb2wnb2i7cl/qcaux
QCPROG:      /cm/shared/apps/spack/cpu/opt/spack/linux-centos8-zen2/gcc-10.2.0/qchem-5.4-akfmr7b3t57bfs6qan3padb2wnb2i7cl/exe/qcprog.exe
QCPROG_S:    /cm/shared/apps/spack/cpu/opt/spack/linux-centos8-zen2/gcc-10.2.0/qchem-5.4-akfmr7b3t57bfs6qan3padb2wnb2i7cl/exe/qcprog.exe_s
PARALLEL:    -DPARALLEL
QCMPI:       mpich
#
# qchem directory setting
#
qcrun:       qchem2986504
QCSCRATCH:   .
QCLOCALSCR:  
QCTMPDIR:    .
QCFILEPREF:  ./qchem2986504
QCSAVEDIR:   
workdirs:    ./qchem2986504
workdir0:    ./qchem2986504
partmpdirs =  
#
# parallel setting
#
QCRSH:           ssh
QCMPI:           mpich
QCMPIRUN:        /cm/shared/apps/spack/cpu/opt/spack/linux-centos8-zen2/gcc-10.2.0/qchem-5.4-akfmr7b3t57bfs6qan3padb2wnb2i7cl/bin/mpi/mpirun_qchem
QCMACHINEFILE:   ./qchem2986504/hostfile
exp-2-14

#
# env setting
#
exported envs:   QC QCAUX QCSCRATCH QCRUNNAME QCFILEPREF QCPROG QCPROG_S GUIFILE

Running Job 1 of 1 Dimethyl_Naphthalene_Dicarboximide_Phi_5_Theta_30_Thiophene.qcin
qchem Dimethyl_Naphthalene_Dicarboximide_Phi_5_Theta_30_Thiophene.qcin_2986504.0 ./qchem2986504/ 1
/cm/shared/apps/spack/cpu/opt/spack/linux-centos8-zen2/gcc-10.2.0/qchem-5.4-akfmr7b3t57bfs6qan3padb2wnb2i7cl/bin/mpi/mpirun_qchem -machinefile ./qchem2986504/hostfile -np 1 /cm/shared/apps/spack/cpu/opt/spack/linux-centos8-zen2/gcc-10.2.0/qchem-5.4-akfmr7b3t57bfs6qan3padb2wnb2i7cl/exe/qcprog.exe Dimethyl_Naphthalene_Dicarboximide_Phi_5_Theta_30_Thiophene.qcin_2986504.0 ./qchem2986504/

Process 0 of 1 is on exp-2-14 - thread support 0
initial socket setup ...start
initial socket setup ...done 
now start server 0 ... 
                  Welcome to Q-Chem
     A Quantum Leap Into The Future Of Chemistry


 Q-Chem 5.4, Q-Chem, Inc., Pleasanton, CA (2021)

 License issued to: University of California, San Diego (site)

 E. Epifanovsky,  A. T. B. Gilbert,  Xintian Feng,  Joonho Lee,  Yuezhi Mao,  
 N. Mardirossian,  P. Pokhilko,  A. White,  M. Wormit,  M. P. Coons,  
 A. L. Dempwolff,  Zhengting Gan,  D. Hait,  P. R. Horn,  L. D. Jacobson,  
 I. Kaliman,  J. Kussmann,  A. W. Lange,  Ka Un Lao,  D. S. Levine,  Jie Liu,  
 S. C. McKenzie,  A. F. Morrison,  K. Nanda,  F. Plasser,  D. R. Rehn,  
 M. L. Vidal,  Zhi-Qiang You,  Ying Zhu,  B. Alam,  B. Albrecht,  
 A. Aldossary,  E. Alguire,  J. H. Andersen,  D. Barton,  K. Begam,  A. Behn,  
 Y. A. Bernard,  E. J. Berquist,  H. Burton,  A. Carreras,  K. Carter-Fenk,  
 R. Chakraborty,  A. D. Chien,  K. D. Closser,  V. Cofer-Shabica,  
 S. Dasgupta,  Jia Deng,  M. de Wergifosse,  M. Diedenhofen,  Hainam Do,  
 S. Ehlert,  Po-Tung Fang,  S. Fatehi,  Qingguo Feng,  J. Gayvert,  
 Qinghui Ge,  G. Gidofalvi,  M. Goldey,  J. Gomes,  C. Gonzalez-Espinoza,  
 S. Gulania,  A. Gunina,  M. W. D. Hanson-Heine,  P. H. P. Harbach,  
 A. W. Hauser,  M. F. Herbst,  M. Hernandez Vera,  M. Hodecker,  
 Z. C. Holden,  S. Houck,  Xunkun Huang,  Kerwin Hui,  B. C. Huynh,  
 M. Ivanov,  Hyunjun Ji,  Hanjie Jiang,  B. Kaduk,  S. Kaehler,  
 K. Khistyaev,  Jaehoon Kim,  P. Klunzinger,  Z. Koczor-Benda,  
 Joong Hoon Koh,  D. Kosenkov,  L. Koulias,  T. Kowalczyk,  C. M. Krauter,  
 K. Kue,  A. Kunitsa,  T. Kus,  A. Landau,  K. V. Lawler,  D. Lefrancois,  
 S. Lehtola,  Rain Li,  Yi-Pei Li,  Jiashu Liang,  M. Liebenthal,  
 Hung-Hsuan Lin,  You-Sheng Lin,  Fenglai Liu,  Kuan-Yu Liu,  
 M. Loipersberger,  A. Luenser,  A. Manjanath,  P. Manohar,  E. Mansoor,  
 S. F. Manzer,  Shan-Ping Mao,  A. V. Marenich,  T. Markovich,  S. Mason,  
 S. A. Maurer,  P. F. McLaughlin,  M. F. S. J. Menger,  J.-M. Mewes,  
 S. A. Mewes,  P. Morgante,  J. W. Mullinax,  T. S. Nguyen-Beck,  
 K. J. Oosterbaan,  G. Paran,  Alexander C. Paul,  Suranjan K. Paul,  
 F. Pavosevic,  Zheng Pei,  S. Prager,  E. I. Proynov,  E. Ramos,  B. Rana,  
 A. E. Rask,  A. Rettig,  R. M. Richard,  F. Rob,  E. Rossomme,  T. Scheele,  
 M. Scheurer,  M. Schneider,  N. Sergueev,  S. M. Sharada,  W. Skomorowski,  
 D. W. Small,  C. J. Stein,  Yu-Chuan Su,  E. J. Sundstrom,  Zhen Tao,  
 J. Thirman,  T. Tsuchimochi,  N. M. Tubman,  S. P. Veccham,  O. Vydrov,  
 J. Wenzel,  J. Witte,  A. Yamada,  Kun Yao,  S. Yeganeh,  S. R. Yost,  
 A. Zech,  Igor Ying Zhang,  Xing Zhang,  Yu Zhang,  D. Zuev,  
 A. Aspuru-Guzik,  A. T. Bell,  N. A. Besley,  K. B. Bravaya,  B. R. Brooks,  
 D. Casanova,  Jeng-Da Chai,  S. Coriani,  C. J. Cramer,  
 A. E. DePrince, III,  R. A. DiStasio Jr.,  A. Dreuw,  B. D. Dunietz,  
 T. R. Furlani,  W. A. Goddard III,  S. Grimme,  S. Hammes-Schiffer,  
 T. Head-Gordon,  W. J. Hehre,  Chao-Ping Hsu,  T.-C. Jagau,  Yousung Jung,  
 A. Klamt,  Jing Kong,  D. S. Lambrecht,  WanZhen Liang,  N. J. Mayhall,  
 C. W. McCurdy,  J. B. Neaton,  C. Ochsenfeld,  J. A. Parkhill,  R. Peverati,  
 V. A. Rassolov,  Yihan Shao,  L. V. Slipchenko,  T. Stauch,  R. P. Steele,  
 J. E. Subotnik,  A. J. W. Thom,  A. Tkatchenko,  D. G. Truhlar,  
 T. Van Voorhis,  T. A. Wesolowski,  K. B. Whaley,  H. L. Woodcock III,  
 P. M. Zimmerman,  S. Faraji,  P. M. W. Gill,  M. Head-Gordon,  
 J. M. Herbert,  A. I. Krylov

 Contributors to earlier versions of Q-Chem not listed above: 
 R. D. Adamson,  B. Austin,  R. Baer,  J. Baker,  G. J. O. Beran,  
 K. Brandhorst,  S. T. Brown,  E. F. C. Byrd,  A. K. Chakraborty,  
 G. K. L. Chan,  Chun-Min Chang,  Yunqing Chen,  C.-L. Cheng,  
 Siu Hung Chien,  D. M. Chipman,  D. L. Crittenden,  H. Dachsel,  
 R. J. Doerksen,  A. D. Dutoi,  R. G. Edgar,  J. Fosso-Tande,  
 L. Fusti-Molnar,  D. Ghosh,  A. Ghysels,  A. Golubeva-Zadorozhnaya,  
 J. Gonthier,  M. S. Gordon,  S. R. Gwaltney,  G. Hawkins,  J. E. Herr,  
 A. Heyden,  S. Hirata,  E. G. Hohenstein,  G. Kedziora,  F. J. Keil,  
 C. Kelley,  Jihan Kim,  R. A. King,  R. Z. Khaliullin,  P. P. Korambath,  
 W. Kurlancheek,  A. Laurent,  A. M. Lee,  M. S. Lee,  S. V. Levchenko,  
 Ching Yeh Lin,  D. Liotard,  E. Livshits,  R. C. Lochan,  I. Lotan,  
 L. A. Martinez-Martinez,  P. E. Maslen,  N. Nair,  D. P. O'Neill,  
 D. Neuhauser,  E. Neuscamman,  C. M. Oana,  R. Olivares-Amaya,  R. Olson,  
 T. M. Perrine,  B. Peters,  P. A. Pieniazek,  A. Prociuk,  Y. M. Rhee,  
 J. Ritchie,  M. A. Rohrdanz,  E. Rosta,  N. J. Russ,  H. F. Schaefer III,  
 M. W. Schmidt,  N. E. Schultz,  S. Sharma,  N. Shenvi,  C. D. Sherrill,  
 A. C. Simmonett,  A. Sodt,  T. Stein,  D. Stuck,  K. S. Thanthiriwatte,  
 V. Vanovschi,  L. Vogt,  Tao Wang,  A. Warshel,  M. A. Watson,  
 C. F. Williams,  Q. Wu,  X. Xu,  Jun Yang,  W. Zhang,  Yan Zhao

 Please cite Q-Chem as follows:
 Y. Shao et al., Mol. Phys. 113, 184-215 (2015)
 DOI: 10.1080/00268976.2014.952696

 Q-Chem 5.4.0 for Intel X86 EM64T Linux

 Parts of Q-Chem use Armadillo 9.800.1 (Horizon Scraper).
 http://arma.sourceforge.net/

 Q-Chem begins on Sun Sep 24 14:59:05 2023  

 Host: 
0

     Scratch files written to ./qchem2986504//
 May1621 |scratch|qcdevops|jenkins|workspace|build_RNUM    
 Parallel job on  1  processors
 Processing $rem in /cm/shared/apps/spack/cpu/opt/spack/linux-centos8-zen2/gcc-10.2.0/qchem-5.4-akfmr7b3t57bfs6qan3padb2wnb2i7cl/config/preferences:
 Processing $rem in /home/rramji/.qchemrc:
 Symmetry turned off for PCM/SM12/SMD calculation
 Core orbitals will be frozen

 Checking the input file for inconsistencies... 	...done.

 Q-Chem warning in module forms1/BasisType.C, line 2236:

 You are not using the predefined 5D/6D in this basis set.


--------------------------------------------------------------
User input:
--------------------------------------------------------------
$molecule
0 1
C	0.127184	-6.741404	-0.223244
C	0.779949	-6.155638	-1.354118
C	-0.415271	-5.791452	0.715408
C	0.919437	-4.803786	-1.595259
H	1.218801	-6.821518	-2.114613
C	-0.268806	-4.378638	0.463133
C	0.396744	-3.838032	-0.688925
C	-0.790835	-3.413062	1.368449
C	0.542026	-2.426473	-0.939189
C	-0.652669	-2.059348	1.130363
C	0.000000	-1.478216	0.000000
H	-1.091814	-1.394783	1.891815
C	-1.138124	-6.187987	1.963749
C	-1.506241	-3.798164	2.607351
N	-1.629443	-5.170003	2.817348
C	1.636646	-4.424987	-2.837621
C	1.264474	-2.036627	-2.188982
N	1.756205	-3.049156	-3.042637
O	-1.336258	-7.353131	2.301222
O	-1.967056	-2.986854	3.407386
O	2.092167	-5.248946	-3.628041
O	1.472160	-0.878829	-2.545844
C	-2.336642	-5.563799	4.040164
H	-2.360245	-6.664085	4.078749
H	-3.361968	-5.147101	4.027880
H	-1.813424	-5.148785	4.922811
C	2.452149	-2.587487	-4.247167
H	2.772531	-3.483329	-4.804209
H	3.322697	-1.964972	-3.965991
H	1.774507	-1.962932	-4.859678
H	0.033931	-7.822318	-0.062364
C	0.000000	0.000000	0.000000
S	0.068929	0.790170	1.580530
C	0.211639	2.421655	0.904911
C	0.086813	0.994207	-0.985400
C	0.201782	2.309433	-0.493528
H	0.066299	0.759454	-2.059934
H	0.278488	3.187020	-1.152593
H	0.288312	3.298992	1.556025
$end

$rem
JOBTYPE		SP
EXCHANGE	HF
CORRELATION	pRIMP2
BASIS		cc-pvtz
METHOD		rimp2
AUX_BASIS	rimp2-cc-pvtz
SOLVENT_METHOD	PCM
PURECART	11111
SYMMETRY	false
MEM_TOTAL	110000
SCF_CONVERGENCE = 6
THRESH=10
GUI = 2
$end



$solvent
dielectric 4.90
$end
--------------------------------------------------------------
 ----------------------------------------------------------------
             Standard Nuclear Orientation (Angstroms)
    I     Atom           X                Y                Z
 ----------------------------------------------------------------
    1      C       0.1271840000    -6.7414040000    -0.2232440000
    2      C       0.7799490000    -6.1556380000    -1.3541180000
    3      C      -0.4152710000    -5.7914520000     0.7154080000
    4      C       0.9194370000    -4.8037860000    -1.5952590000
    5      H       1.2188010000    -6.8215180000    -2.1146130000
    6      C      -0.2688060000    -4.3786380000     0.4631330000
    7      C       0.3967440000    -3.8380320000    -0.6889250000
    8      C      -0.7908350000    -3.4130620000     1.3684490000
    9      C       0.5420260000    -2.4264730000    -0.9391890000
   10      C      -0.6526690000    -2.0593480000     1.1303630000
   11      C       0.0000000000    -1.4782160000     0.0000000000
   12      H      -1.0918140000    -1.3947830000     1.8918150000
   13      C      -1.1381240000    -6.1879870000     1.9637490000
   14      C      -1.5062410000    -3.7981640000     2.6073510000
   15      N      -1.6294430000    -5.1700030000     2.8173480000
   16      C       1.6366460000    -4.4249870000    -2.8376210000
   17      C       1.2644740000    -2.0366270000    -2.1889820000
   18      N       1.7562050000    -3.0491560000    -3.0426370000
   19      O      -1.3362580000    -7.3531310000     2.3012220000
   20      O      -1.9670560000    -2.9868540000     3.4073860000
   21      O       2.0921670000    -5.2489460000    -3.6280410000
   22      O       1.4721600000    -0.8788290000    -2.5458440000
   23      C      -2.3366420000    -5.5637990000     4.0401640000
   24      H      -2.3602450000    -6.6640850000     4.0787490000
   25      H      -3.3619680000    -5.1471010000     4.0278800000
   26      H      -1.8134240000    -5.1487850000     4.9228110000
   27      C       2.4521490000    -2.5874870000    -4.2471670000
   28      H       2.7725310000    -3.4833290000    -4.8042090000
   29      H       3.3226970000    -1.9649720000    -3.9659910000
   30      H       1.7745070000    -1.9629320000    -4.8596780000
   31      H       0.0339310000    -7.8223180000    -0.0623640000
   32      C       0.0000000000     0.0000000000     0.0000000000
   33      S       0.0689290000     0.7901700000     1.5805300000
   34      C       0.2116390000     2.4216550000     0.9049110000
   35      C       0.0868130000     0.9942070000    -0.9854000000
   36      C       0.2017820000     2.3094330000    -0.4935280000
   37      H       0.0662990000     0.7594540000    -2.0599340000
   38      H       0.2784880000     3.1870200000    -1.1525930000
   39      H       0.2883120000     3.2989920000     1.5560250000
 ----------------------------------------------------------------
 Nuclear Repulsion Energy =        2495.12972232 hartrees
 There are       97 alpha and       97 beta electrons
 Requested basis set is cc-pVTZ
 There are 344 shells and 982 basis functions

 Total QAlloc Memory Limit 110000 MB
 Mega-Array Size       188 MB
 MEM_STATIC part       192 MB
 Discretize the solute cavity surface with Lebedev spheres
	Using 110 Lebedev grid points for each H atom
	Using 194 Lebedev grid points for other atoms
	Atomic van der Waals radii will be scaled by 1.20
 Remove points where switching function is < 1.0e-08
 Keep 2516 surface tesserae and discard 4042 interior tesserae
 Molecular Surface Area = 363.950 Angst**2
 Requested basis set is rimp2-cc-pVTZ
 There are 750 shells and 2588 basis functions
 A cutoff of  1.0D-10 yielded  31688 shell pairs
 There are    244118 function pairs (    317272 Cartesian)
 Smallest overlap matrix eigenvalue = 9.99E-06

 Q-Chem warning in module stvman/mkSTV.C, line 323:

 Overlap eigenvalue is smaller than square root of threshold
 Use THRESH >= 12 to get rid of this warning


 Scale SEOQF with 1.000000e-01/1.000000e-02/1.000000e-01

 Standard Electronic Orientation quadrupole field applied
 Nucleus-field energy     =    -0.0000000736 hartrees
 Guess from superposition of atomic densities
 Warning:  Energy on first SCF cycle will be non-variational
 SAD guess density has 194.000000 electrons

 -----------------------------------------------------------------------
  General SCF calculation program by
  Eric Jon Sundstrom, Paul Horn, Yuezhi Mao, Dmitri Zuev, Alec White,
  David Stuck, Shaama M.S., Shane Yost, Joonho Lee, David Small,
  Daniel Levine, Susi Lehtola, Hugh Burton, Evgeny Epifanovsky,
  Bang C. Huynh
 -----------------------------------------------------------------------
 Hartree-Fock
 using 64 threads for integral computing
 -------------------------------------------------------
 OpenMP Integral computing Module                
 Release: version 1.0, May 2013, Q-Chem Inc. Pittsburgh 
 -------------------------------------------------------
 A restricted SCF calculation will be
 performed using DIIS
 SCF converges when DIIS error is below 1.0e-06
 ---------------------------------------
  Cycle       Energy         DIIS error
 ---------------------------------------
    1   -1581.3356045138      1.87e-02  
    2   -1570.1193504056      2.09e-03  
    3   -1570.4473422347      1.62e-03  
    4   -1570.6764136207      2.57e-04  
    5   -1570.6885643048      7.68e-05  
    6   -1570.6896566877      2.83e-05  
    7   -1570.6899092076      1.42e-05  
    8   -1570.6899881576      5.92e-06  
    9   -1570.6900003391      2.26e-06  
   10   -1570.6900023508      7.44e-07  Convergence criterion met
 ---------------------------------------
 SCF time:   CPU 5601.01s  wall 226.00s 

************** Final PCM Free Energy Summary **************
 G_electrostatic  =      -0.02205597 hartree =     -13.84033172 kcal/mol
 G_cavitation     =       0.00000000 hartree =       0.00000000 kcal/mol
 G_dispersion     =       0.00000000 hartree =       0.00000000 kcal/mol
 G_repulsion      =       0.00000000 hartree =       0.00000000 kcal/mol
 --------------------------------------------------
 Non-electrostatic Free Energy =       0.00000000 hartree =       0.00000000 kcal/mol
 Total                         =      -0.02205597 hartree =     -13.84033172 kcal/mol
 --------------------------------------------------
 SCF Energy (H0 + V/2)                       =   -1570.69000235 
 Solute Internal Energy (H0)                 =   -1570.66794638 
 Total Free Energy (H0 + V/2 + non-elec)     =   -1570.69000235 hartree
                                             = -985622.85248014 kcal/mol
***********************************************************

 SCF   energy in the final basis set =    -1570.6900023508
 Total energy in the final basis set =    -1570.6900023508


 --------------------------------------------------------------
  Generalized many-body perturbation theory program
  by Joonho Lee, Fazle Rob, Xintian Feng, Evgeny Epifanovsky

 No regularization used 
 (reg. param. = 0.0000e+00)
  (P|Q)^-1/2 Time:  CPU 146.70 s  wall 2.91 s

 In RI-MP2 calculation: 
 # of frozen core orbitals: 31

 Components of the RIMP2 correlation energy:
        aaaa    correlation energy =        -0.6170898246 a.u.
        abab    correlation energy =        -3.3922209359 a.u.
        bbbb    correlation energy =        -0.6170898246 a.u.
        non-Brillouin singles      =        -0.0000000000 a.u.
        total same-spin energy     =        -1.2341796491 a.u.
        total opposite-spin energy =        -3.3922209359 a.u.

 Total  RIMP2   correlation energy =        -4.6264005850 a.u.
        RIMP2         total energy =     -1575.3164029358 a.u.

 RI-MP2 Energy Time:  CPU 1796.48 s  wall 30.47 s
 
 --------------------------------------------------------------
 
                    Orbital Energies (a.u.)
 --------------------------------------------------------------
 
 Alpha MOs
 -- Occupied --
-91.9940 -20.5585 -20.5564 -20.5544 -20.5540 -15.6312 -15.6302 -11.3999
-11.3959 -11.3916 -11.3907 -11.3184 -11.3023 -11.3011 -11.3000 -11.2964
-11.2955 -11.2907 -11.2885 -11.2871 -11.2843 -11.2795 -11.2783 -11.2647
-11.2644 -11.2565 -11.2508  -8.9935  -6.6743  -6.6739  -6.6732  -1.4249
 -1.4239  -1.4042  -1.4029  -1.2673  -1.2649  -1.2171  -1.1766  -1.1443
 -1.1167  -1.0636  -1.0495  -0.9926  -0.9900  -0.9858  -0.9588  -0.9478
 -0.8969  -0.8792  -0.8781  -0.8612  -0.7963  -0.7785  -0.7727  -0.7616
 -0.7365  -0.7187  -0.7044  -0.6942  -0.6813  -0.6733  -0.6663  -0.6620
 -0.6562  -0.6417  -0.6368  -0.6331  -0.6286  -0.6127  -0.5887  -0.5840
 -0.5785  -0.5732  -0.5654  -0.5625  -0.5616  -0.5556  -0.5525  -0.5476
 -0.5368  -0.5257  -0.5225  -0.5182  -0.4828  -0.4691  -0.4662  -0.4639
 -0.4595  -0.4526  -0.4285  -0.4184  -0.4093  -0.3733  -0.3537  -0.3367
 -0.3023
 -- Virtual --
 -0.0204   0.0552   0.0682   0.1035   0.1262   0.1530   0.1585   0.1594
  0.1662   0.1720   0.1782   0.1852   0.1973   0.1981   0.2036   0.2080
  0.2186   0.2275   0.2294   0.2330   0.2454   0.2504   0.2626   0.2636
  0.2664   0.3085   0.3116   0.3147   0.3202   0.3268   0.3350   0.3399
  0.3435   0.3473   0.3525   0.3569   0.3580   0.3620   0.3666   0.3774
  0.3790   0.3869   0.3949   0.3957   0.4011   0.4062   0.4085   0.4123
  0.4232   0.4261   0.4333   0.4393   0.4444   0.4469   0.4524   0.4572
  0.4617   0.4658   0.4702   0.4776   0.4783   0.4826   0.4874   0.4958
  0.5011   0.5061   0.5105   0.5164   0.5175   0.5220   0.5265   0.5292
  0.5347   0.5391   0.5442   0.5485   0.5522   0.5561   0.5633   0.5662
  0.5689   0.5730   0.5823   0.5849   0.5920   0.5935   0.5953   0.5989
  0.6035   0.6081   0.6139   0.6179   0.6192   0.6238   0.6305   0.6308
  0.6329   0.6357   0.6382   0.6415   0.6503   0.6563   0.6641   0.6724
  0.6757   0.6830   0.6920   0.6939   0.7014   0.7077   0.7123   0.7186
  0.7262   0.7350   0.7381   0.7435   0.7529   0.7588   0.7639   0.7655
  0.7735   0.7825   0.7886   0.7914   0.7966   0.8049   0.8116   0.8189
  0.8216   0.8283   0.8371   0.8423   0.8449   0.8487   0.8525   0.8599
  0.8613   0.8652   0.8694   0.8739   0.8813   0.8861   0.8995   0.9075
  0.9117   0.9180   0.9214   0.9270   0.9345   0.9411   0.9456   0.9491
  0.9544   0.9564   0.9606   0.9672   0.9707   0.9779   0.9834   0.9872
  0.9899   0.9935   1.0043   1.0094   1.0129   1.0153   1.0224   1.0262
  1.0342   1.0392   1.0468   1.0541   1.0578   1.0649   1.0667   1.0735
  1.0768   1.0791   1.0821   1.0882   1.0936   1.0961   1.1037   1.1137
  1.1268   1.1298   1.1353   1.1393   1.1459   1.1467   1.1510   1.1565
  1.1609   1.1670   1.1689   1.1769   1.1841   1.1865   1.1942   1.1980
  1.2107   1.2115   1.2179   1.2241   1.2282   1.2304   1.2341   1.2394
  1.2458   1.2483   1.2538   1.2568   1.2648   1.2716   1.2806   1.3015
  1.3167   1.3228   1.3276   1.3331   1.3414   1.3457   1.3524   1.3612
  1.3660   1.3775   1.3799   1.3858   1.3875   1.3962   1.4032   1.4110
  1.4193   1.4215   1.4276   1.4430   1.4478   1.4508   1.4638   1.4673
  1.4730   1.4815   1.4845   1.4901   1.4944   1.5027   1.5091   1.5132
  1.5291   1.5320   1.5350   1.5474   1.5526   1.5534   1.5583   1.5671
  1.5716   1.5757   1.5804   1.5891   1.5972   1.6080   1.6255   1.6399
  1.6402   1.6512   1.6523   1.6577   1.6716   1.6768   1.6829   1.6872
  1.6993   1.7070   1.7166   1.7274   1.7291   1.7378   1.7443   1.7487
  1.7576   1.7611   1.7682   1.7837   1.7929   1.8017   1.8038   1.8095
  1.8293   1.8333   1.8399   1.8486   1.8535   1.8559   1.8633   1.8687
  1.8732   1.8878   1.9009   1.9052   1.9175   1.9208   1.9355   1.9495
  1.9539   1.9679   1.9728   1.9751   1.9939   2.0114   2.0211   2.0289
  2.0496   2.0532   2.0617   2.0863   2.0870   2.1051   2.1281   2.1314
  2.1498   2.1565   2.1598   2.1810   2.1839   2.2100   2.2141   2.2296
  2.2338   2.2435   2.2568   2.2629   2.2785   2.2875   2.2903   2.2951
  2.3246   2.3267   2.3398   2.3500   2.3526   2.3659   2.3716   2.3795
  2.3979   2.4149   2.4252   2.4304   2.4479   2.4501   2.4571   2.4661
  2.4835   2.4864   2.4997   2.5013   2.5041   2.5186   2.5249   2.5330
  2.5503   2.5669   2.5746   2.5864   2.5884   2.6006   2.6083   2.6102
  2.6182   2.6186   2.6233   2.6511   2.6541   2.6607   2.6660   2.6689
  2.6722   2.6803   2.6947   2.6965   2.7063   2.7113   2.7173   2.7228
  2.7288   2.7481   2.7494   2.7509   2.7578   2.7721   2.7823   2.7929
  2.7940   2.8106   2.8269   2.8350   2.8363   2.8460   2.8592   2.8617
  2.8678   2.8694   2.8721   2.8799   2.8875   2.8888   2.8988   2.9088
  2.9115   2.9203   2.9296   2.9371   2.9514   2.9558   2.9611   2.9673
  2.9745   2.9821   2.9878   2.9968   3.0008   3.0052   3.0088   3.0168
  3.0212   3.0325   3.0376   3.0415   3.0455   3.0539   3.0613   3.0763
  3.0859   3.0894   3.0948   3.1003   3.1065   3.1106   3.1127   3.1225
  3.1258   3.1347   3.1402   3.1467   3.1588   3.1709   3.1723   3.1769
  3.1871   3.1956   3.1988   3.2004   3.2148   3.2172   3.2219   3.2262
  3.2281   3.2341   3.2375   3.2450   3.2474   3.2555   3.2608   3.2645
  3.2667   3.2712   3.2809   3.2865   3.2890   3.2961   3.2985   3.3012
  3.3049   3.3078   3.3125   3.3267   3.3293   3.3326   3.3357   3.3370
  3.3430   3.3493   3.3535   3.3557   3.3629   3.3642   3.3653   3.3694
  3.3740   3.3846   3.3864   3.3981   3.3999   3.4017   3.4163   3.4177
  3.4222   3.4253   3.4321   3.4362   3.4423   3.4489   3.4506   3.4555
  3.4595   3.4659   3.4676   3.4738   3.4781   3.4850   3.4885   3.4904
  3.4985   3.5000   3.5036   3.5086   3.5104   3.5155   3.5219   3.5266
  3.5307   3.5405   3.5453   3.5529   3.5599   3.5613   3.5691   3.5800
  3.5804   3.5920   3.5956   3.6037   3.6099   3.6185   3.6192   3.6296
  3.6305   3.6382   3.6416   3.6430   3.6502   3.6596   3.6702   3.6756
  3.6862   3.6904   3.6973   3.6987   3.7023   3.7079   3.7131   3.7241
  3.7281   3.7322   3.7393   3.7422   3.7510   3.7545   3.7605   3.7684
  3.7723   3.7818   3.7842   3.7872   3.7933   3.7965   3.8041   3.8057
  3.8146   3.8218   3.8320   3.8363   3.8380   3.8525   3.8579   3.8594
  3.8664   3.8748   3.8814   3.8832   3.8873   3.8974   3.9039   3.9208
  3.9264   3.9339   3.9378   3.9464   3.9574   3.9628   3.9656   3.9774
  3.9887   3.9958   3.9999   4.0084   4.0113   4.0219   4.0370   4.0488
  4.0579   4.0621   4.0735   4.0758   4.0867   4.0973   4.0986   4.1144
  4.1226   4.1297   4.1344   4.1417   4.1491   4.1552   4.1634   4.1719
  4.1774   4.1877   4.1985   4.2014   4.2064   4.2173   4.2241   4.2378
  4.2416   4.2599   4.2642   4.2734   4.2780   4.2810   4.2871   4.2944
  4.2986   4.3003   4.3071   4.3172   4.3177   4.3238   4.3328   4.3449
  4.3469   4.3566   4.3651   4.3662   4.3690   4.3756   4.3760   4.3855
  4.3899   4.4023   4.4043   4.4098   4.4125   4.4197   4.4255   4.4461
  4.4588   4.4603   4.4673   4.4908   4.4966   4.5035   4.5136   4.5174
  4.5201   4.5225   4.5360   4.5455   4.5522   4.5617   4.5698   4.5713
  4.5780   4.5827   4.5839   4.5871   4.6001   4.6138   4.6274   4.6393
  4.6439   4.6549   4.6640   4.6669   4.6723   4.6858   4.6873   4.6925
  4.7129   4.7243   4.7306   4.7410   4.7596   4.7726   4.7795   4.7957
  4.8037   4.8230   4.8346   4.8391   4.8489   4.8596   4.8711   4.8773
  4.8798   4.8961   4.9221   4.9290   4.9368   4.9643   4.9720   4.9864
  4.9977   5.0045   5.0141   5.0331   5.0441   5.0488   5.0516   5.0595
  5.1043   5.1065   5.1101   5.1185   5.1252   5.1310   5.1431   5.1554
  5.1619   5.1763   5.1873   5.1896   5.2062   5.2382   5.2563   5.2593
  5.2643   5.2788   5.2819   5.2987   5.3035   5.3235   5.3323   5.3368
  5.3658   5.3910   5.3956   5.4023   5.4153   5.4306   5.4319   5.4688
  5.4824   5.5065   5.5087   5.5128   5.5136   5.5394   5.5467   5.5580
  5.5598   5.5616   5.5727   5.5741   5.5777   5.5923   5.6021   5.6104
  5.6196   5.6366   5.6521   5.6533   5.6553   5.6769   5.6797   5.6950
  5.7011   5.7091   5.7189   5.7413   5.7506   5.7565   5.7595   5.7707
  5.7768   5.7826   5.8097   5.8249   5.8484   5.8795   5.8901   5.9177
  5.9455   5.9567   5.9980   6.0139   6.0229   6.0260   6.0466   6.0492
  6.0917   6.1023   6.1053   6.1174   6.1255   6.1822   6.1965   6.2118
  6.2178   6.2203   6.2227   6.2586   6.2676   6.2728   6.3048   6.3415
  6.3522   6.4033   6.4376   6.4459   6.4668   6.5254   6.5621   6.5708
  6.5864   6.6043   6.6432   6.6476   6.6598   6.7050   6.7379   6.8326
  6.8353   6.8810   6.8861   6.8969   6.9115   6.9309   6.9728   7.0784
  7.1035   7.1418   7.1860   7.1909   7.2307   7.3324   7.3418   7.3442
  7.3561   7.4684   7.5472   7.5577   7.5735   7.5794   7.6038   7.6341
  7.6782   7.6925   7.7295   8.4187   9.9115  10.3326  11.1656  11.2801
 11.7067  11.7354  11.9673  12.3745  12.4568  12.5907  12.8467  13.0818
 13.3244  13.5606  13.8145  13.9421  14.0142  14.1548  14.3124  14.4021
 14.4596  14.7452  15.3546  15.7289  15.9786
 --------------------------------------------------------------
 
          Ground-State Mulliken Net Atomic Charges

     Atom                 Charge (a.u.)
  ----------------------------------------
      1 C                    -0.141023
      2 C                    -0.108895
      3 C                    -0.036806
      4 C                    -0.005149
      5 H                     0.188385
      6 C                    -0.003941
      7 C                     0.074527
      8 C                     0.031606
      9 C                    -0.052837
     10 C                    -0.184812
     11 C                     0.116800
     12 H                     0.172105
     13 C                     0.360124
     14 C                     0.368131
     15 N                    -0.101589
     16 C                     0.359846
     17 C                     0.366501
     18 N                    -0.092739
     19 O                    -0.464422
     20 O                    -0.476164
     21 O                    -0.482399
     22 O                    -0.471363
     23 C                    -0.201015
     24 H                     0.141051
     25 H                     0.112454
     26 H                     0.112531
     27 C                    -0.197075
     28 H                     0.134170
     29 H                     0.113002
     30 H                     0.112107
     31 H                     0.213161
     32 C                    -0.054316
     33 S                     0.028712
     34 C                    -0.197334
     35 C                    -0.122719
     36 C                    -0.216592
     37 H                     0.198840
     38 H                     0.191370
     39 H                     0.215770
  ----------------------------------------
  Sum of atomic charges =     0.000000

 -----------------------------------------------------------------
                    Cartesian Multipole Moments
 -----------------------------------------------------------------
    Charge (ESU x 10^10)
                -0.0000
    Dipole Moment (Debye)
         X       0.1353      Y       1.8792      Z      -0.8799
       Tot       2.0794
    Quadrupole Moments (Debye-Ang)
        XX    -169.1741     XY       1.0388     YY    -166.7368
        XZ       9.0867     YZ       0.7984     ZZ    -173.0105
    Octopole Moments (Debye-Ang^2)
       XXX     -38.8915    XXY     484.7004    XYY      -5.8622
       YYY    1605.8286    XXZ      -0.8504    XYZ     -35.4093
       YYZ       2.5138    XZZ     -14.7063    YZZ     541.7448
       ZZZ      -5.3188
    Hexadecapole Moments (Debye-Ang^3)
      XXXX   -1638.1827   XXXY    -159.1172   XXYY   -3086.1918
      XYYY    -403.3136   YYYY  -17215.9011   XXXZ    1262.0217
      XXYZ       4.3773   XYYZ     676.0061   YYYZ     643.2190
      XXZZ   -1123.5547   XYZZ      74.9627   YYZZ   -3865.6806
      XZZZ    1332.0735   YZZZ      20.2455   ZZZZ   -4905.7551
 -----------------------------------------------------------------
 Total job time:  260.79s(wall), 7533.57s(cpu) 
 Sun Sep 24 15:03:26 2023

        *************************************************************
        *                                                           *
        *  Thank you very much for using Q-Chem.  Have a nice day.  *
        *                                                           *
        *************************************************************


0 sent ACK to 0 
now end server 0 ... 
cleanup process ... done
remove work dirs ./qchem2986504.0 -- ./qchem2986504.0
rm -rf ./qchem2986504.0
rm -rf ./qchem2986504
