You are running Q-Chem version: 5.4.0

#
# job setting
#
local host:  exp-2-14
current dir: /expanse/lustre/projects/csd626/rramji/aromodel/PNDIT/Rotation_Test
input file:  Dimethyl_Naphthalene_Dicarboximide_Phi_5_Theta_350_Thiophene.qcin
output file: 
nprocs     : 1
nthreads   : 64
#
# qchem installation setting
#
QC:          /cm/shared/apps/spack/cpu/opt/spack/linux-centos8-zen2/gcc-10.2.0/qchem-5.4-akfmr7b3t57bfs6qan3padb2wnb2i7cl
QCAUX:       /cm/shared/apps/spack/cpu/opt/spack/linux-centos8-zen2/gcc-10.2.0/qchem-5.4-akfmr7b3t57bfs6qan3padb2wnb2i7cl/qcaux
QCPROG:      /cm/shared/apps/spack/cpu/opt/spack/linux-centos8-zen2/gcc-10.2.0/qchem-5.4-akfmr7b3t57bfs6qan3padb2wnb2i7cl/exe/qcprog.exe
QCPROG_S:    /cm/shared/apps/spack/cpu/opt/spack/linux-centos8-zen2/gcc-10.2.0/qchem-5.4-akfmr7b3t57bfs6qan3padb2wnb2i7cl/exe/qcprog.exe_s
PARALLEL:    -DPARALLEL
QCMPI:       mpich
#
# qchem directory setting
#
qcrun:       qchem3012891
QCSCRATCH:   .
QCLOCALSCR:  
QCTMPDIR:    .
QCFILEPREF:  ./qchem3012891
QCSAVEDIR:   
workdirs:    ./qchem3012891
workdir0:    ./qchem3012891
partmpdirs =  
#
# parallel setting
#
QCRSH:           ssh
QCMPI:           mpich
QCMPIRUN:        /cm/shared/apps/spack/cpu/opt/spack/linux-centos8-zen2/gcc-10.2.0/qchem-5.4-akfmr7b3t57bfs6qan3padb2wnb2i7cl/bin/mpi/mpirun_qchem
QCMACHINEFILE:   ./qchem3012891/hostfile
exp-2-14

#
# env setting
#
exported envs:   QC QCAUX QCSCRATCH QCRUNNAME QCFILEPREF QCPROG QCPROG_S GUIFILE

Running Job 1 of 1 Dimethyl_Naphthalene_Dicarboximide_Phi_5_Theta_350_Thiophene.qcin
qchem Dimethyl_Naphthalene_Dicarboximide_Phi_5_Theta_350_Thiophene.qcin_3012891.0 ./qchem3012891/ 1
/cm/shared/apps/spack/cpu/opt/spack/linux-centos8-zen2/gcc-10.2.0/qchem-5.4-akfmr7b3t57bfs6qan3padb2wnb2i7cl/bin/mpi/mpirun_qchem -machinefile ./qchem3012891/hostfile -np 1 /cm/shared/apps/spack/cpu/opt/spack/linux-centos8-zen2/gcc-10.2.0/qchem-5.4-akfmr7b3t57bfs6qan3padb2wnb2i7cl/exe/qcprog.exe Dimethyl_Naphthalene_Dicarboximide_Phi_5_Theta_350_Thiophene.qcin_3012891.0 ./qchem3012891/

Process 0 of 1 is on exp-2-14 - thread support 0
initial socket setup ...start
initial socket setup ...done 
now start server 0 ... 
                  Welcome to Q-Chem
     A Quantum Leap Into The Future Of Chemistry


 Q-Chem 5.4, Q-Chem, Inc., Pleasanton, CA (2021)

 License issued to: University of California, San Diego (site)

 E. Epifanovsky,  A. T. B. Gilbert,  Xintian Feng,  Joonho Lee,  Yuezhi Mao,  
 N. Mardirossian,  P. Pokhilko,  A. White,  M. Wormit,  M. P. Coons,  
 A. L. Dempwolff,  Zhengting Gan,  D. Hait,  P. R. Horn,  L. D. Jacobson,  
 I. Kaliman,  J. Kussmann,  A. W. Lange,  Ka Un Lao,  D. S. Levine,  Jie Liu,  
 S. C. McKenzie,  A. F. Morrison,  K. Nanda,  F. Plasser,  D. R. Rehn,  
 M. L. Vidal,  Zhi-Qiang You,  Ying Zhu,  B. Alam,  B. Albrecht,  
 A. Aldossary,  E. Alguire,  J. H. Andersen,  D. Barton,  K. Begam,  A. Behn,  
 Y. A. Bernard,  E. J. Berquist,  H. Burton,  A. Carreras,  K. Carter-Fenk,  
 R. Chakraborty,  A. D. Chien,  K. D. Closser,  V. Cofer-Shabica,  
 S. Dasgupta,  Jia Deng,  M. de Wergifosse,  M. Diedenhofen,  Hainam Do,  
 S. Ehlert,  Po-Tung Fang,  S. Fatehi,  Qingguo Feng,  J. Gayvert,  
 Qinghui Ge,  G. Gidofalvi,  M. Goldey,  J. Gomes,  C. Gonzalez-Espinoza,  
 S. Gulania,  A. Gunina,  M. W. D. Hanson-Heine,  P. H. P. Harbach,  
 A. W. Hauser,  M. F. Herbst,  M. Hernandez Vera,  M. Hodecker,  
 Z. C. Holden,  S. Houck,  Xunkun Huang,  Kerwin Hui,  B. C. Huynh,  
 M. Ivanov,  Hyunjun Ji,  Hanjie Jiang,  B. Kaduk,  S. Kaehler,  
 K. Khistyaev,  Jaehoon Kim,  P. Klunzinger,  Z. Koczor-Benda,  
 Joong Hoon Koh,  D. Kosenkov,  L. Koulias,  T. Kowalczyk,  C. M. Krauter,  
 K. Kue,  A. Kunitsa,  T. Kus,  A. Landau,  K. V. Lawler,  D. Lefrancois,  
 S. Lehtola,  Rain Li,  Yi-Pei Li,  Jiashu Liang,  M. Liebenthal,  
 Hung-Hsuan Lin,  You-Sheng Lin,  Fenglai Liu,  Kuan-Yu Liu,  
 M. Loipersberger,  A. Luenser,  A. Manjanath,  P. Manohar,  E. Mansoor,  
 S. F. Manzer,  Shan-Ping Mao,  A. V. Marenich,  T. Markovich,  S. Mason,  
 S. A. Maurer,  P. F. McLaughlin,  M. F. S. J. Menger,  J.-M. Mewes,  
 S. A. Mewes,  P. Morgante,  J. W. Mullinax,  T. S. Nguyen-Beck,  
 K. J. Oosterbaan,  G. Paran,  Alexander C. Paul,  Suranjan K. Paul,  
 F. Pavosevic,  Zheng Pei,  S. Prager,  E. I. Proynov,  E. Ramos,  B. Rana,  
 A. E. Rask,  A. Rettig,  R. M. Richard,  F. Rob,  E. Rossomme,  T. Scheele,  
 M. Scheurer,  M. Schneider,  N. Sergueev,  S. M. Sharada,  W. Skomorowski,  
 D. W. Small,  C. J. Stein,  Yu-Chuan Su,  E. J. Sundstrom,  Zhen Tao,  
 J. Thirman,  T. Tsuchimochi,  N. M. Tubman,  S. P. Veccham,  O. Vydrov,  
 J. Wenzel,  J. Witte,  A. Yamada,  Kun Yao,  S. Yeganeh,  S. R. Yost,  
 A. Zech,  Igor Ying Zhang,  Xing Zhang,  Yu Zhang,  D. Zuev,  
 A. Aspuru-Guzik,  A. T. Bell,  N. A. Besley,  K. B. Bravaya,  B. R. Brooks,  
 D. Casanova,  Jeng-Da Chai,  S. Coriani,  C. J. Cramer,  
 A. E. DePrince, III,  R. A. DiStasio Jr.,  A. Dreuw,  B. D. Dunietz,  
 T. R. Furlani,  W. A. Goddard III,  S. Grimme,  S. Hammes-Schiffer,  
 T. Head-Gordon,  W. J. Hehre,  Chao-Ping Hsu,  T.-C. Jagau,  Yousung Jung,  
 A. Klamt,  Jing Kong,  D. S. Lambrecht,  WanZhen Liang,  N. J. Mayhall,  
 C. W. McCurdy,  J. B. Neaton,  C. Ochsenfeld,  J. A. Parkhill,  R. Peverati,  
 V. A. Rassolov,  Yihan Shao,  L. V. Slipchenko,  T. Stauch,  R. P. Steele,  
 J. E. Subotnik,  A. J. W. Thom,  A. Tkatchenko,  D. G. Truhlar,  
 T. Van Voorhis,  T. A. Wesolowski,  K. B. Whaley,  H. L. Woodcock III,  
 P. M. Zimmerman,  S. Faraji,  P. M. W. Gill,  M. Head-Gordon,  
 J. M. Herbert,  A. I. Krylov

 Contributors to earlier versions of Q-Chem not listed above: 
 R. D. Adamson,  B. Austin,  R. Baer,  J. Baker,  G. J. O. Beran,  
 K. Brandhorst,  S. T. Brown,  E. F. C. Byrd,  A. K. Chakraborty,  
 G. K. L. Chan,  Chun-Min Chang,  Yunqing Chen,  C.-L. Cheng,  
 Siu Hung Chien,  D. M. Chipman,  D. L. Crittenden,  H. Dachsel,  
 R. J. Doerksen,  A. D. Dutoi,  R. G. Edgar,  J. Fosso-Tande,  
 L. Fusti-Molnar,  D. Ghosh,  A. Ghysels,  A. Golubeva-Zadorozhnaya,  
 J. Gonthier,  M. S. Gordon,  S. R. Gwaltney,  G. Hawkins,  J. E. Herr,  
 A. Heyden,  S. Hirata,  E. G. Hohenstein,  G. Kedziora,  F. J. Keil,  
 C. Kelley,  Jihan Kim,  R. A. King,  R. Z. Khaliullin,  P. P. Korambath,  
 W. Kurlancheek,  A. Laurent,  A. M. Lee,  M. S. Lee,  S. V. Levchenko,  
 Ching Yeh Lin,  D. Liotard,  E. Livshits,  R. C. Lochan,  I. Lotan,  
 L. A. Martinez-Martinez,  P. E. Maslen,  N. Nair,  D. P. O'Neill,  
 D. Neuhauser,  E. Neuscamman,  C. M. Oana,  R. Olivares-Amaya,  R. Olson,  
 T. M. Perrine,  B. Peters,  P. A. Pieniazek,  A. Prociuk,  Y. M. Rhee,  
 J. Ritchie,  M. A. Rohrdanz,  E. Rosta,  N. J. Russ,  H. F. Schaefer III,  
 M. W. Schmidt,  N. E. Schultz,  S. Sharma,  N. Shenvi,  C. D. Sherrill,  
 A. C. Simmonett,  A. Sodt,  T. Stein,  D. Stuck,  K. S. Thanthiriwatte,  
 V. Vanovschi,  L. Vogt,  Tao Wang,  A. Warshel,  M. A. Watson,  
 C. F. Williams,  Q. Wu,  X. Xu,  Jun Yang,  W. Zhang,  Yan Zhao

 Please cite Q-Chem as follows:
 Y. Shao et al., Mol. Phys. 113, 184-215 (2015)
 DOI: 10.1080/00268976.2014.952696

 Q-Chem 5.4.0 for Intel X86 EM64T Linux

 Parts of Q-Chem use Armadillo 9.800.1 (Horizon Scraper).
 http://arma.sourceforge.net/

 Q-Chem begins on Sun Sep 24 17:32:22 2023  

 Host: 
0

     Scratch files written to ./qchem3012891//
 May1621 |scratch|qcdevops|jenkins|workspace|build_RNUM    
 Parallel job on  1  processors
 Processing $rem in /cm/shared/apps/spack/cpu/opt/spack/linux-centos8-zen2/gcc-10.2.0/qchem-5.4-akfmr7b3t57bfs6qan3padb2wnb2i7cl/config/preferences:
 Processing $rem in /home/rramji/.qchemrc:
 Symmetry turned off for PCM/SM12/SMD calculation
 Core orbitals will be frozen

 Checking the input file for inconsistencies... 	...done.

 Q-Chem warning in module forms1/BasisType.C, line 2236:

 You are not using the predefined 5D/6D in this basis set.


--------------------------------------------------------------
User input:
--------------------------------------------------------------
$molecule
0 1
C	-0.046070	-6.741404	-0.252767
C	-0.272935	-6.155638	-1.538656
C	0.141739	-5.791452	0.814966
C	-0.321083	-4.803786	-1.813042
H	-0.425592	-6.821518	-2.403318
C	0.091779	-4.378638	0.527566
C	-0.138909	-3.838032	-0.782769
C	0.273808	-3.413062	1.556632
C	-0.188483	-2.426473	-1.067868
C	0.226610	-2.059348	1.285436
C	0.000000	-1.478216	0.000000
H	0.379657	-1.394783	2.151019
C	0.390420	-6.187987	2.235891
C	0.522125	-3.798164	2.965540
N	0.562731	-5.170003	3.205600
C	-0.570244	-4.424987	-3.225760
C	-0.438407	-2.036627	-2.489646
N	-0.610438	-3.049156	-3.459662
O	0.455563	-7.353131	2.621768
O	0.683373	-2.986854	3.874608
O	-0.729367	-5.248946	-4.124059
O	-0.508697	-0.878829	-2.896516
C	0.806996	-5.563799	4.596910
H	0.813717	-6.664085	4.641640
H	0.013655	-5.147101	5.246567
H	1.775159	-5.148785	4.936739
C	-0.851572	-2.587487	-4.829729
H	-0.964204	-3.483329	-5.462387
H	-0.003956	-1.964972	-5.173914
H	-1.764390	-1.962932	-4.863360
H	-0.014094	-7.822318	-0.069584
C	0.000000	0.000000	0.000000
S	0.068929	0.790170	1.580530
C	0.211639	2.421655	0.904911
C	0.086813	0.994207	-0.985400
C	0.201782	2.309433	-0.493528
H	0.066299	0.759454	-2.059934
H	0.278488	3.187020	-1.152593
H	0.288312	3.298992	1.556025
$end

$rem
JOBTYPE		SP
EXCHANGE	HF
CORRELATION	pRIMP2
BASIS		cc-pvtz
METHOD		rimp2
AUX_BASIS	rimp2-cc-pvtz
SOLVENT_METHOD	PCM
PURECART	11111
SYMMETRY	false
MEM_TOTAL	110000
SCF_CONVERGENCE = 6
THRESH=10
GUI = 2
$end



$solvent
dielectric 4.90
$end
--------------------------------------------------------------
 ----------------------------------------------------------------
             Standard Nuclear Orientation (Angstroms)
    I     Atom           X                Y                Z
 ----------------------------------------------------------------
    1      C      -0.0460700000    -6.7414040000    -0.2527670000
    2      C      -0.2729350000    -6.1556380000    -1.5386560000
    3      C       0.1417390000    -5.7914520000     0.8149660000
    4      C      -0.3210830000    -4.8037860000    -1.8130420000
    5      H      -0.4255920000    -6.8215180000    -2.4033180000
    6      C       0.0917790000    -4.3786380000     0.5275660000
    7      C      -0.1389090000    -3.8380320000    -0.7827690000
    8      C       0.2738080000    -3.4130620000     1.5566320000
    9      C      -0.1884830000    -2.4264730000    -1.0678680000
   10      C       0.2266100000    -2.0593480000     1.2854360000
   11      C       0.0000000000    -1.4782160000     0.0000000000
   12      H       0.3796570000    -1.3947830000     2.1510190000
   13      C       0.3904200000    -6.1879870000     2.2358910000
   14      C       0.5221250000    -3.7981640000     2.9655400000
   15      N       0.5627310000    -5.1700030000     3.2056000000
   16      C      -0.5702440000    -4.4249870000    -3.2257600000
   17      C      -0.4384070000    -2.0366270000    -2.4896460000
   18      N      -0.6104380000    -3.0491560000    -3.4596620000
   19      O       0.4555630000    -7.3531310000     2.6217680000
   20      O       0.6833730000    -2.9868540000     3.8746080000
   21      O      -0.7293670000    -5.2489460000    -4.1240590000
   22      O      -0.5086970000    -0.8788290000    -2.8965160000
   23      C       0.8069960000    -5.5637990000     4.5969100000
   24      H       0.8137170000    -6.6640850000     4.6416400000
   25      H       0.0136550000    -5.1471010000     5.2465670000
   26      H       1.7751590000    -5.1487850000     4.9367390000
   27      C      -0.8515720000    -2.5874870000    -4.8297290000
   28      H      -0.9642040000    -3.4833290000    -5.4623870000
   29      H      -0.0039560000    -1.9649720000    -5.1739140000
   30      H      -1.7643900000    -1.9629320000    -4.8633600000
   31      H      -0.0140940000    -7.8223180000    -0.0695840000
   32      C       0.0000000000     0.0000000000     0.0000000000
   33      S       0.0689290000     0.7901700000     1.5805300000
   34      C       0.2116390000     2.4216550000     0.9049110000
   35      C       0.0868130000     0.9942070000    -0.9854000000
   36      C       0.2017820000     2.3094330000    -0.4935280000
   37      H       0.0662990000     0.7594540000    -2.0599340000
   38      H       0.2784880000     3.1870200000    -1.1525930000
   39      H       0.2883120000     3.2989920000     1.5560250000
 ----------------------------------------------------------------
 Nuclear Repulsion Energy =        2496.72086022 hartrees
 There are       97 alpha and       97 beta electrons
 Requested basis set is cc-pVTZ
 There are 344 shells and 982 basis functions

 Total QAlloc Memory Limit 110000 MB
 Mega-Array Size       188 MB
 MEM_STATIC part       192 MB
 Discretize the solute cavity surface with Lebedev spheres
	Using 110 Lebedev grid points for each H atom
	Using 194 Lebedev grid points for other atoms
	Atomic van der Waals radii will be scaled by 1.20
 Remove points where switching function is < 1.0e-08
 Keep 2550 surface tesserae and discard 4008 interior tesserae
 Molecular Surface Area = 360.082 Angst**2
 Requested basis set is rimp2-cc-pVTZ
 There are 750 shells and 2588 basis functions
 A cutoff of  1.0D-10 yielded  31680 shell pairs
 There are    244096 function pairs (    317213 Cartesian)
 Smallest overlap matrix eigenvalue = 9.74E-06

 Q-Chem warning in module stvman/mkSTV.C, line 323:

 Overlap eigenvalue is smaller than square root of threshold
 Use THRESH >= 12 to get rid of this warning


 Scale SEOQF with 1.000000e-01/1.000000e-02/1.000000e-02

 Standard Electronic Orientation quadrupole field applied
 Nucleus-field energy     =     0.0000000105 hartrees
 Guess from superposition of atomic densities
 Warning:  Energy on first SCF cycle will be non-variational
 SAD guess density has 194.000000 electrons

 -----------------------------------------------------------------------
  General SCF calculation program by
  Eric Jon Sundstrom, Paul Horn, Yuezhi Mao, Dmitri Zuev, Alec White,
  David Stuck, Shaama M.S., Shane Yost, Joonho Lee, David Small,
  Daniel Levine, Susi Lehtola, Hugh Burton, Evgeny Epifanovsky,
  Bang C. Huynh
 -----------------------------------------------------------------------
 Hartree-Fock
 using 64 threads for integral computing
 -------------------------------------------------------
 OpenMP Integral computing Module                
 Release: version 1.0, May 2013, Q-Chem Inc. Pittsburgh 
 -------------------------------------------------------
 A restricted SCF calculation will be
 performed using DIIS
 SCF converges when DIIS error is below 1.0e-06
 ---------------------------------------
  Cycle       Energy         DIIS error
 ---------------------------------------
    1   -1581.3873507355      1.87e-02  
    2   -1570.1171707635      2.08e-03  
    3   -1570.4464295910      1.61e-03  
    4   -1570.6725470227      2.59e-04  
    5   -1570.6847801802      7.76e-05  
    6   -1570.6858925014      2.85e-05  
    7   -1570.6861501200      1.42e-05  
    8   -1570.6862302834      5.92e-06  
    9   -1570.6862427072      2.27e-06  
   10   -1570.6862448164      7.81e-07  Convergence criterion met
 ---------------------------------------
 SCF time:   CPU 5713.84s  wall 225.00s 

************** Final PCM Free Energy Summary **************
 G_electrostatic  =      -0.02107626 hartree =     -13.22555403 kcal/mol
 G_cavitation     =       0.00000000 hartree =       0.00000000 kcal/mol
 G_dispersion     =       0.00000000 hartree =       0.00000000 kcal/mol
 G_repulsion      =       0.00000000 hartree =       0.00000000 kcal/mol
 --------------------------------------------------
 Non-electrostatic Free Energy =       0.00000000 hartree =       0.00000000 kcal/mol
 Total                         =      -0.02107626 hartree =     -13.22555403 kcal/mol
 --------------------------------------------------
 SCF Energy (H0 + V/2)                       =   -1570.68624482 
 Solute Internal Energy (H0)                 =   -1570.66516855 
 Total Free Energy (H0 + V/2 + non-elec)     =   -1570.68624482 hartree
                                             = -985620.49459173 kcal/mol
***********************************************************

 SCF   energy in the final basis set =    -1570.6862448164
 Total energy in the final basis set =    -1570.6862448164


 --------------------------------------------------------------
  Generalized many-body perturbation theory program
  by Joonho Lee, Fazle Rob, Xintian Feng, Evgeny Epifanovsky

 No regularization used 
 (reg. param. = 0.0000e+00)
  (P|Q)^-1/2 Time:  CPU 165.60 s  wall 2.65 s

 In RI-MP2 calculation: 
 # of frozen core orbitals: 31

 Components of the RIMP2 correlation energy:
        aaaa    correlation energy =        -0.6175871309 a.u.
        abab    correlation energy =        -3.3925117327 a.u.
        bbbb    correlation energy =        -0.6175871309 a.u.
        non-Brillouin singles      =        -0.0000000000 a.u.
        total same-spin energy     =        -1.2351742617 a.u.
        total opposite-spin energy =        -3.3925117327 a.u.

 Total  RIMP2   correlation energy =        -4.6276859944 a.u.
        RIMP2         total energy =     -1575.3139308108 a.u.

 RI-MP2 Energy Time:  CPU 2168.77 s  wall 35.69 s
 
 --------------------------------------------------------------
 
                    Orbital Energies (a.u.)
 --------------------------------------------------------------
 
 Alpha MOs
 -- Occupied --
-91.9934 -20.5586 -20.5566 -20.5558 -20.5538 -15.6312 -15.6307 -11.3999
-11.3972 -11.3915 -11.3909 -11.3198 -11.3022 -11.3004 -11.2990 -11.2957
-11.2945 -11.2919 -11.2899 -11.2876 -11.2836 -11.2792 -11.2786 -11.2649
-11.2644 -11.2537 -11.2501  -8.9933  -6.6741  -6.6736  -6.6729  -1.4254
 -1.4249  -1.4043  -1.4040  -1.2676  -1.2654  -1.2172  -1.1775  -1.1442
 -1.1165  -1.0639  -1.0496  -0.9927  -0.9904  -0.9870  -0.9589  -0.9475
 -0.8974  -0.8794  -0.8789  -0.8616  -0.7967  -0.7801  -0.7732  -0.7623
 -0.7360  -0.7227  -0.7036  -0.6942  -0.6823  -0.6741  -0.6666  -0.6624
 -0.6562  -0.6417  -0.6375  -0.6339  -0.6283  -0.6130  -0.5911  -0.5838
 -0.5793  -0.5715  -0.5660  -0.5637  -0.5618  -0.5561  -0.5539  -0.5472
 -0.5360  -0.5257  -0.5246  -0.5160  -0.4821  -0.4695  -0.4658  -0.4621
 -0.4586  -0.4514  -0.4293  -0.4192  -0.4099  -0.3772  -0.3553  -0.3367
 -0.2998
 -- Virtual --
 -0.0202   0.0515   0.0676   0.1041   0.1342   0.1537   0.1586   0.1589
  0.1664   0.1722   0.1759   0.1857   0.1968   0.2032   0.2069   0.2088
  0.2236   0.2277   0.2295   0.2355   0.2485   0.2545   0.2631   0.2669
  0.2704   0.3084   0.3105   0.3154   0.3202   0.3358   0.3375   0.3415
  0.3465   0.3485   0.3529   0.3560   0.3580   0.3637   0.3736   0.3800
  0.3830   0.3880   0.3966   0.3985   0.4026   0.4076   0.4110   0.4183
  0.4254   0.4277   0.4335   0.4396   0.4442   0.4458   0.4538   0.4553
  0.4605   0.4662   0.4689   0.4705   0.4789   0.4843   0.4903   0.4911
  0.5036   0.5106   0.5135   0.5162   0.5210   0.5234   0.5270   0.5323
  0.5364   0.5380   0.5472   0.5557   0.5587   0.5613   0.5627   0.5674
  0.5709   0.5720   0.5839   0.5899   0.5919   0.5945   0.5981   0.6000
  0.6022   0.6059   0.6151   0.6180   0.6210   0.6233   0.6284   0.6308
  0.6342   0.6352   0.6372   0.6428   0.6529   0.6623   0.6724   0.6796
  0.6831   0.6901   0.6972   0.7012   0.7079   0.7119   0.7140   0.7200
  0.7280   0.7354   0.7396   0.7462   0.7551   0.7587   0.7668   0.7674
  0.7763   0.7820   0.7844   0.7914   0.8079   0.8106   0.8149   0.8234
  0.8274   0.8363   0.8407   0.8451   0.8463   0.8525   0.8601   0.8620
  0.8661   0.8666   0.8744   0.8774   0.8850   0.8966   0.9062   0.9071
  0.9130   0.9208   0.9226   0.9284   0.9324   0.9356   0.9400   0.9491
  0.9567   0.9576   0.9648   0.9704   0.9752   0.9797   0.9807   0.9857
  0.9932   0.9971   1.0081   1.0125   1.0140   1.0217   1.0283   1.0328
  1.0429   1.0444   1.0561   1.0571   1.0629   1.0654   1.0709   1.0749
  1.0759   1.0811   1.0853   1.0862   1.0938   1.0998   1.1131   1.1205
  1.1257   1.1290   1.1363   1.1374   1.1456   1.1490   1.1577   1.1627
  1.1662   1.1709   1.1724   1.1774   1.1837   1.1868   1.1944   1.2010
  1.2095   1.2108   1.2141   1.2257   1.2278   1.2308   1.2369   1.2378
  1.2447   1.2464   1.2557   1.2594   1.2646   1.2755   1.2841   1.3066
  1.3168   1.3265   1.3300   1.3346   1.3440   1.3459   1.3480   1.3560
  1.3644   1.3806   1.3825   1.3874   1.3935   1.3972   1.4019   1.4201
  1.4238   1.4263   1.4347   1.4427   1.4491   1.4532   1.4561   1.4660
  1.4732   1.4787   1.4879   1.4925   1.4979   1.4987   1.5160   1.5231
  1.5284   1.5325   1.5397   1.5492   1.5569   1.5597   1.5604   1.5688
  1.5745   1.5780   1.5886   1.6006   1.6045   1.6118   1.6310   1.6382
  1.6422   1.6455   1.6554   1.6603   1.6651   1.6742   1.6853   1.6934
  1.6957   1.7111   1.7293   1.7298   1.7405   1.7424   1.7488   1.7521
  1.7670   1.7762   1.7803   1.7893   1.7973   1.8034   1.8084   1.8270
  1.8326   1.8372   1.8440   1.8549   1.8591   1.8630   1.8665   1.8690
  1.8768   1.8914   1.8988   1.9137   1.9245   1.9291   1.9317   1.9538
  1.9676   1.9700   1.9729   1.9791   1.9942   2.0090   2.0184   2.0349
  2.0517   2.0585   2.0790   2.0864   2.0960   2.1062   2.1243   2.1410
  2.1563   2.1582   2.1662   2.1712   2.2028   2.2113   2.2265   2.2334
  2.2415   2.2477   2.2629   2.2766   2.2846   2.2885   2.2920   2.3135
  2.3205   2.3232   2.3385   2.3515   2.3633   2.3714   2.3757   2.3856
  2.4067   2.4220   2.4341   2.4410   2.4490   2.4578   2.4622   2.4792
  2.4882   2.4921   2.4998   2.5063   2.5138   2.5183   2.5425   2.5525
  2.5624   2.5722   2.5843   2.5854   2.5914   2.5982   2.6043   2.6151
  2.6230   2.6293   2.6387   2.6442   2.6541   2.6624   2.6668   2.6708
  2.6751   2.6860   2.6885   2.7012   2.7120   2.7164   2.7226   2.7273
  2.7410   2.7476   2.7516   2.7548   2.7684   2.7694   2.7848   2.7930
  2.8044   2.8079   2.8265   2.8362   2.8440   2.8498   2.8543   2.8596
  2.8623   2.8696   2.8775   2.8822   2.8845   2.8924   2.9065   2.9105
  2.9197   2.9265   2.9356   2.9430   2.9519   2.9674   2.9721   2.9723
  2.9758   2.9775   2.9953   2.9995   3.0031   3.0088   3.0102   3.0172
  3.0196   3.0366   3.0393   3.0412   3.0461   3.0594   3.0622   3.0727
  3.0867   3.0875   3.0967   3.0975   3.1023   3.1102   3.1144   3.1204
  3.1307   3.1329   3.1350   3.1456   3.1660   3.1755   3.1763   3.1833
  3.1944   3.1957   3.2019   3.2106   3.2143   3.2150   3.2224   3.2254
  3.2324   3.2348   3.2395   3.2451   3.2514   3.2611   3.2641   3.2669
  3.2691   3.2741   3.2798   3.2851   3.2874   3.2962   3.3021   3.3067
  3.3105   3.3133   3.3154   3.3220   3.3271   3.3289   3.3327   3.3369
  3.3438   3.3476   3.3516   3.3561   3.3606   3.3668   3.3691   3.3712
  3.3740   3.3835   3.3897   3.3977   3.3986   3.4087   3.4151   3.4198
  3.4238   3.4285   3.4302   3.4367   3.4407   3.4476   3.4501   3.4583
  3.4611   3.4646   3.4714   3.4770   3.4871   3.4881   3.4886   3.4948
  3.4982   3.5018   3.5034   3.5108   3.5128   3.5159   3.5249   3.5280
  3.5326   3.5346   3.5466   3.5519   3.5635   3.5684   3.5795   3.5864
  3.5967   3.6007   3.6023   3.6073   3.6092   3.6133   3.6198   3.6306
  3.6330   3.6380   3.6421   3.6451   3.6533   3.6687   3.6718   3.6803
  3.6819   3.6867   3.6993   3.6996   3.7075   3.7094   3.7137   3.7169
  3.7300   3.7330   3.7433   3.7457   3.7495   3.7519   3.7559   3.7620
  3.7707   3.7827   3.7844   3.7905   3.7954   3.7997   3.8045   3.8098
  3.8183   3.8246   3.8306   3.8390   3.8477   3.8518   3.8589   3.8668
  3.8740   3.8786   3.8822   3.8890   3.8983   3.9139   3.9184   3.9188
  3.9338   3.9363   3.9394   3.9482   3.9559   3.9629   3.9709   3.9890
  3.9956   4.0016   4.0061   4.0138   4.0144   4.0274   4.0461   4.0476
  4.0627   4.0718   4.0770   4.0838   4.0918   4.0941   4.1035   4.1066
  4.1285   4.1336   4.1389   4.1411   4.1480   4.1551   4.1603   4.1715
  4.1744   4.1873   4.1908   4.1996   4.2062   4.2167   4.2317   4.2398
  4.2469   4.2603   4.2696   4.2734   4.2777   4.2832   4.2862   4.2926
  4.2986   4.3007   4.3085   4.3155   4.3232   4.3277   4.3319   4.3482
  4.3509   4.3546   4.3657   4.3676   4.3695   4.3802   4.3838   4.3869
  4.3926   4.3988   4.4057   4.4090   4.4172   4.4233   4.4382   4.4422
  4.4573   4.4601   4.4806   4.4982   4.5032   4.5109   4.5170   4.5222
  4.5234   4.5277   4.5431   4.5481   4.5608   4.5625   4.5690   4.5732
  4.5799   4.5851   4.5898   4.5965   4.6052   4.6145   4.6260   4.6414
  4.6471   4.6526   4.6638   4.6720   4.6759   4.6877   4.6911   4.6935
  4.7144   4.7259   4.7379   4.7536   4.7769   4.7797   4.7824   4.8015
  4.8205   4.8302   4.8390   4.8426   4.8496   4.8606   4.8803   4.8845
  4.8886   4.9047   4.9349   4.9403   4.9587   4.9745   4.9801   4.9874
  5.0071   5.0096   5.0246   5.0369   5.0480   5.0513   5.0524   5.0633
  5.1051   5.1080   5.1179   5.1231   5.1255   5.1370   5.1495   5.1659
  5.1731   5.1804   5.1910   5.2059   5.2149   5.2405   5.2563   5.2623
  5.2764   5.2842   5.2871   5.3009   5.3127   5.3236   5.3334   5.3409
  5.3697   5.3952   5.3995   5.4023   5.4236   5.4318   5.4355   5.4702
  5.4812   5.5078   5.5086   5.5123   5.5158   5.5433   5.5497   5.5569
  5.5601   5.5634   5.5730   5.5764   5.5776   5.5929   5.6069   5.6123
  5.6299   5.6408   5.6523   5.6545   5.6555   5.6766   5.6794   5.6923
  5.7027   5.7214   5.7239   5.7459   5.7540   5.7609   5.7695   5.7747
  5.7815   5.7913   5.8137   5.8294   5.8556   5.8945   5.9180   5.9320
  5.9530   5.9604   6.0036   6.0197   6.0238   6.0416   6.0510   6.0784
  6.1015   6.1087   6.1102   6.1194   6.1367   6.1888   6.2069   6.2163
  6.2176   6.2210   6.2409   6.2718   6.2731   6.2876   6.3079   6.3497
  6.3582   6.3974   6.4480   6.4540   6.4692   6.5283   6.5622   6.5732
  6.5894   6.6183   6.6475   6.6493   6.6601   6.7066   6.7558   6.8334
  6.8398   6.8824   6.8860   6.8970   6.9112   6.9345   6.9664   7.0804
  7.1282   7.1472   7.1920   7.2052   7.2464   7.3324   7.3422   7.3442
  7.3604   7.4705   7.5489   7.5589   7.5753   7.5817   7.6275   7.6352
  7.6817   7.7123   7.7811   8.4634   9.9572  10.3885  11.1870  11.2591
 11.7335  11.7784  12.0146  12.3888  12.5062  12.6046  12.8492  13.1666
 13.4627  13.5574  13.8205  13.9547  14.0462  14.1617  14.3243  14.4109
 14.5376  14.7795  15.3773  15.7506  16.0268
 --------------------------------------------------------------
 
          Ground-State Mulliken Net Atomic Charges

     Atom                 Charge (a.u.)
  ----------------------------------------
      1 C                    -0.143178
      2 C                    -0.111239
      3 C                    -0.030138
      4 C                    -0.003625
      5 H                     0.188076
      6 C                     0.004370
      7 C                     0.070759
      8 C                     0.053076
      9 C                    -0.071567
     10 C                    -0.176808
     11 C                     0.052682
     12 H                     0.167815
     13 C                     0.358255
     14 C                     0.365145
     15 N                    -0.101485
     16 C                     0.359644
     17 C                     0.383674
     18 N                    -0.092181
     19 O                    -0.464137
     20 O                    -0.476600
     21 O                    -0.483046
     22 O                    -0.479192
     23 C                    -0.201140
     24 H                     0.141138
     25 H                     0.112578
     26 H                     0.112488
     27 C                    -0.197922
     28 H                     0.134477
     29 H                     0.112371
     30 H                     0.112983
     31 H                     0.212801
     32 C                    -0.015611
     33 S                     0.006253
     34 C                    -0.182754
     35 C                    -0.107684
     36 C                    -0.247989
     37 H                     0.226911
     38 H                     0.191434
     39 H                     0.219365
  ----------------------------------------
  Sum of atomic charges =     0.000000

 -----------------------------------------------------------------
                    Cartesian Multipole Moments
 -----------------------------------------------------------------
    Charge (ESU x 10^10)
                -0.0000
    Dipole Moment (Debye)
         X       0.2582      Y       2.0971      Z      -0.8266
       Tot       2.2689
    Quadrupole Moments (Debye-Ang)
        XX    -164.5371     XY       0.8928     YY    -167.5082
        XZ      -3.4621     YZ       0.6094     ZZ    -177.4368
    Octopole Moments (Debye-Ang^2)
       XXX      -3.9620    XXY     466.5976    XYY       2.8532
       YYY    1612.1742    XXZ      -0.6054    XYZ      14.8811
       YYZ       5.1464    XZZ       1.5419    YZZ     560.0769
       ZZZ       2.8955
    Hexadecapole Moments (Debye-Ang^3)
      XXXX    -365.6996   XXXY      30.8130   XXYY   -2743.2416
      XYYY     116.7960   YYYY  -17254.0420   XXXZ    -492.1435
      XXYZ      87.3823   XYYZ    -263.9732   YYYZ     732.9923
      XXZZ   -1073.3253   XYZZ     -47.5566   YYZZ   -4209.0288
      XZZZ    -542.0280   YZZZ     -49.4942   ZZZZ   -6274.5446
 -----------------------------------------------------------------
 Total job time:  267.54s(wall), 8207.58s(cpu) 
 Sun Sep 24 17:36:50 2023

        *************************************************************
        *                                                           *
        *  Thank you very much for using Q-Chem.  Have a nice day.  *
        *                                                           *
        *************************************************************


0 sent ACK to 0 
now end server 0 ... 
cleanup process ... done
remove work dirs ./qchem3012891.0 -- ./qchem3012891.0
rm -rf ./qchem3012891.0
rm -rf ./qchem3012891
