You are running Q-Chem version: 5.4.0

#
# job setting
#
local host:  exp-3-18
current dir: /expanse/lustre/projects/csd626/rramji/aromodel/PNDIT/Rotation_Test
input file:  Dimethyl_Naphthalene_Dicarboximide_Phi_10_Theta_20_Thiophene.qcin
output file: 
nprocs     : 1
nthreads   : 64
#
# qchem installation setting
#
QC:          /cm/shared/apps/spack/cpu/opt/spack/linux-centos8-zen2/gcc-10.2.0/qchem-5.4-akfmr7b3t57bfs6qan3padb2wnb2i7cl
QCAUX:       /cm/shared/apps/spack/cpu/opt/spack/linux-centos8-zen2/gcc-10.2.0/qchem-5.4-akfmr7b3t57bfs6qan3padb2wnb2i7cl/qcaux
QCPROG:      /cm/shared/apps/spack/cpu/opt/spack/linux-centos8-zen2/gcc-10.2.0/qchem-5.4-akfmr7b3t57bfs6qan3padb2wnb2i7cl/exe/qcprog.exe
QCPROG_S:    /cm/shared/apps/spack/cpu/opt/spack/linux-centos8-zen2/gcc-10.2.0/qchem-5.4-akfmr7b3t57bfs6qan3padb2wnb2i7cl/exe/qcprog.exe_s
PARALLEL:    -DPARALLEL
QCMPI:       mpich
#
# qchem directory setting
#
qcrun:       qchem3544288
QCSCRATCH:   .
QCLOCALSCR:  
QCTMPDIR:    .
QCFILEPREF:  ./qchem3544288
QCSAVEDIR:   
workdirs:    ./qchem3544288
workdir0:    ./qchem3544288
partmpdirs =  
#
# parallel setting
#
QCRSH:           ssh
QCMPI:           mpich
QCMPIRUN:        /cm/shared/apps/spack/cpu/opt/spack/linux-centos8-zen2/gcc-10.2.0/qchem-5.4-akfmr7b3t57bfs6qan3padb2wnb2i7cl/bin/mpi/mpirun_qchem
QCMACHINEFILE:   ./qchem3544288/hostfile
exp-3-18

#
# env setting
#
exported envs:   QC QCAUX QCSCRATCH QCRUNNAME QCFILEPREF QCPROG QCPROG_S GUIFILE

Running Job 1 of 1 Dimethyl_Naphthalene_Dicarboximide_Phi_10_Theta_20_Thiophene.qcin
qchem Dimethyl_Naphthalene_Dicarboximide_Phi_10_Theta_20_Thiophene.qcin_3544288.0 ./qchem3544288/ 1
/cm/shared/apps/spack/cpu/opt/spack/linux-centos8-zen2/gcc-10.2.0/qchem-5.4-akfmr7b3t57bfs6qan3padb2wnb2i7cl/bin/mpi/mpirun_qchem -machinefile ./qchem3544288/hostfile -np 1 /cm/shared/apps/spack/cpu/opt/spack/linux-centos8-zen2/gcc-10.2.0/qchem-5.4-akfmr7b3t57bfs6qan3padb2wnb2i7cl/exe/qcprog.exe Dimethyl_Naphthalene_Dicarboximide_Phi_10_Theta_20_Thiophene.qcin_3544288.0 ./qchem3544288/

Process 0 of 1 is on exp-3-18 - thread support 0
initial socket setup ...start
initial socket setup ...done 
now start server 0 ... 
                  Welcome to Q-Chem
     A Quantum Leap Into The Future Of Chemistry


 Q-Chem 5.4, Q-Chem, Inc., Pleasanton, CA (2021)

 License issued to: University of California, San Diego (site)

 E. Epifanovsky,  A. T. B. Gilbert,  Xintian Feng,  Joonho Lee,  Yuezhi Mao,  
 N. Mardirossian,  P. Pokhilko,  A. White,  M. Wormit,  M. P. Coons,  
 A. L. Dempwolff,  Zhengting Gan,  D. Hait,  P. R. Horn,  L. D. Jacobson,  
 I. Kaliman,  J. Kussmann,  A. W. Lange,  Ka Un Lao,  D. S. Levine,  Jie Liu,  
 S. C. McKenzie,  A. F. Morrison,  K. Nanda,  F. Plasser,  D. R. Rehn,  
 M. L. Vidal,  Zhi-Qiang You,  Ying Zhu,  B. Alam,  B. Albrecht,  
 A. Aldossary,  E. Alguire,  J. H. Andersen,  D. Barton,  K. Begam,  A. Behn,  
 Y. A. Bernard,  E. J. Berquist,  H. Burton,  A. Carreras,  K. Carter-Fenk,  
 R. Chakraborty,  A. D. Chien,  K. D. Closser,  V. Cofer-Shabica,  
 S. Dasgupta,  Jia Deng,  M. de Wergifosse,  M. Diedenhofen,  Hainam Do,  
 S. Ehlert,  Po-Tung Fang,  S. Fatehi,  Qingguo Feng,  J. Gayvert,  
 Qinghui Ge,  G. Gidofalvi,  M. Goldey,  J. Gomes,  C. Gonzalez-Espinoza,  
 S. Gulania,  A. Gunina,  M. W. D. Hanson-Heine,  P. H. P. Harbach,  
 A. W. Hauser,  M. F. Herbst,  M. Hernandez Vera,  M. Hodecker,  
 Z. C. Holden,  S. Houck,  Xunkun Huang,  Kerwin Hui,  B. C. Huynh,  
 M. Ivanov,  Hyunjun Ji,  Hanjie Jiang,  B. Kaduk,  S. Kaehler,  
 K. Khistyaev,  Jaehoon Kim,  P. Klunzinger,  Z. Koczor-Benda,  
 Joong Hoon Koh,  D. Kosenkov,  L. Koulias,  T. Kowalczyk,  C. M. Krauter,  
 K. Kue,  A. Kunitsa,  T. Kus,  A. Landau,  K. V. Lawler,  D. Lefrancois,  
 S. Lehtola,  Rain Li,  Yi-Pei Li,  Jiashu Liang,  M. Liebenthal,  
 Hung-Hsuan Lin,  You-Sheng Lin,  Fenglai Liu,  Kuan-Yu Liu,  
 M. Loipersberger,  A. Luenser,  A. Manjanath,  P. Manohar,  E. Mansoor,  
 S. F. Manzer,  Shan-Ping Mao,  A. V. Marenich,  T. Markovich,  S. Mason,  
 S. A. Maurer,  P. F. McLaughlin,  M. F. S. J. Menger,  J.-M. Mewes,  
 S. A. Mewes,  P. Morgante,  J. W. Mullinax,  T. S. Nguyen-Beck,  
 K. J. Oosterbaan,  G. Paran,  Alexander C. Paul,  Suranjan K. Paul,  
 F. Pavosevic,  Zheng Pei,  S. Prager,  E. I. Proynov,  E. Ramos,  B. Rana,  
 A. E. Rask,  A. Rettig,  R. M. Richard,  F. Rob,  E. Rossomme,  T. Scheele,  
 M. Scheurer,  M. Schneider,  N. Sergueev,  S. M. Sharada,  W. Skomorowski,  
 D. W. Small,  C. J. Stein,  Yu-Chuan Su,  E. J. Sundstrom,  Zhen Tao,  
 J. Thirman,  T. Tsuchimochi,  N. M. Tubman,  S. P. Veccham,  O. Vydrov,  
 J. Wenzel,  J. Witte,  A. Yamada,  Kun Yao,  S. Yeganeh,  S. R. Yost,  
 A. Zech,  Igor Ying Zhang,  Xing Zhang,  Yu Zhang,  D. Zuev,  
 A. Aspuru-Guzik,  A. T. Bell,  N. A. Besley,  K. B. Bravaya,  B. R. Brooks,  
 D. Casanova,  Jeng-Da Chai,  S. Coriani,  C. J. Cramer,  
 A. E. DePrince, III,  R. A. DiStasio Jr.,  A. Dreuw,  B. D. Dunietz,  
 T. R. Furlani,  W. A. Goddard III,  S. Grimme,  S. Hammes-Schiffer,  
 T. Head-Gordon,  W. J. Hehre,  Chao-Ping Hsu,  T.-C. Jagau,  Yousung Jung,  
 A. Klamt,  Jing Kong,  D. S. Lambrecht,  WanZhen Liang,  N. J. Mayhall,  
 C. W. McCurdy,  J. B. Neaton,  C. Ochsenfeld,  J. A. Parkhill,  R. Peverati,  
 V. A. Rassolov,  Yihan Shao,  L. V. Slipchenko,  T. Stauch,  R. P. Steele,  
 J. E. Subotnik,  A. J. W. Thom,  A. Tkatchenko,  D. G. Truhlar,  
 T. Van Voorhis,  T. A. Wesolowski,  K. B. Whaley,  H. L. Woodcock III,  
 P. M. Zimmerman,  S. Faraji,  P. M. W. Gill,  M. Head-Gordon,  
 J. M. Herbert,  A. I. Krylov

 Contributors to earlier versions of Q-Chem not listed above: 
 R. D. Adamson,  B. Austin,  R. Baer,  J. Baker,  G. J. O. Beran,  
 K. Brandhorst,  S. T. Brown,  E. F. C. Byrd,  A. K. Chakraborty,  
 G. K. L. Chan,  Chun-Min Chang,  Yunqing Chen,  C.-L. Cheng,  
 Siu Hung Chien,  D. M. Chipman,  D. L. Crittenden,  H. Dachsel,  
 R. J. Doerksen,  A. D. Dutoi,  R. G. Edgar,  J. Fosso-Tande,  
 L. Fusti-Molnar,  D. Ghosh,  A. Ghysels,  A. Golubeva-Zadorozhnaya,  
 J. Gonthier,  M. S. Gordon,  S. R. Gwaltney,  G. Hawkins,  J. E. Herr,  
 A. Heyden,  S. Hirata,  E. G. Hohenstein,  G. Kedziora,  F. J. Keil,  
 C. Kelley,  Jihan Kim,  R. A. King,  R. Z. Khaliullin,  P. P. Korambath,  
 W. Kurlancheek,  A. Laurent,  A. M. Lee,  M. S. Lee,  S. V. Levchenko,  
 Ching Yeh Lin,  D. Liotard,  E. Livshits,  R. C. Lochan,  I. Lotan,  
 L. A. Martinez-Martinez,  P. E. Maslen,  N. Nair,  D. P. O'Neill,  
 D. Neuhauser,  E. Neuscamman,  C. M. Oana,  R. Olivares-Amaya,  R. Olson,  
 T. M. Perrine,  B. Peters,  P. A. Pieniazek,  A. Prociuk,  Y. M. Rhee,  
 J. Ritchie,  M. A. Rohrdanz,  E. Rosta,  N. J. Russ,  H. F. Schaefer III,  
 M. W. Schmidt,  N. E. Schultz,  S. Sharma,  N. Shenvi,  C. D. Sherrill,  
 A. C. Simmonett,  A. Sodt,  T. Stein,  D. Stuck,  K. S. Thanthiriwatte,  
 V. Vanovschi,  L. Vogt,  Tao Wang,  A. Warshel,  M. A. Watson,  
 C. F. Williams,  Q. Wu,  X. Xu,  Jun Yang,  W. Zhang,  Yan Zhao

 Please cite Q-Chem as follows:
 Y. Shao et al., Mol. Phys. 113, 184-215 (2015)
 DOI: 10.1080/00268976.2014.952696

 Q-Chem 5.4.0 for Intel X86 EM64T Linux

 Parts of Q-Chem use Armadillo 9.800.1 (Horizon Scraper).
 http://arma.sourceforge.net/

 Q-Chem begins on Wed Sep 20 08:10:08 2023  

 Host: 
0

     Scratch files written to ./qchem3544288//
 May1621 |scratch|qcdevops|jenkins|workspace|build_RNUM    
 Parallel job on  1  processors
 Processing $rem in /cm/shared/apps/spack/cpu/opt/spack/linux-centos8-zen2/gcc-10.2.0/qchem-5.4-akfmr7b3t57bfs6qan3padb2wnb2i7cl/config/preferences:
 Processing $rem in /home/rramji/.qchemrc:
 Symmetry turned off for PCM/SM12/SMD calculation
 Core orbitals will be frozen

 Checking the input file for inconsistencies... 	...done.

 Q-Chem warning in module forms1/BasisType.C, line 2236:

 You are not using the predefined 5D/6D in this basis set.


--------------------------------------------------------------
User input:
--------------------------------------------------------------
$molecule
0 1
C	0.086486	-6.741404	-0.241938
C	0.532960	-6.155638	-1.468983
C	-0.284733	-5.791452	0.776651
C	0.628455	-4.803786	-1.730681
H	0.833086	-6.821518	-2.294130
C	-0.184300	-4.378638	0.502775
C	0.271086	-3.838032	-0.747353
C	-0.541191	-3.413062	1.484986
C	0.370703	-2.426473	-1.019042
C	-0.446468	-2.059348	1.226525
C	0.000000	-1.478216	0.000000
H	-0.746717	-1.394783	2.052666
C	-0.779832	-6.187987	2.131549
C	-1.030596	-3.798164	2.829295
N	-1.115461	-5.170003	3.057496
C	1.119034	-4.424987	-3.078712
C	0.865151	-2.036627	-2.375300
N	1.201176	-3.049156	-3.301374
O	-0.916355	-7.353131	2.498300
O	-1.345486	-2.986854	3.697195
O	1.430379	-5.248946	-3.936224
O	1.007714	-0.878829	-2.762805
C	-1.599576	-5.563799	4.384539
H	-1.616121	-6.664085	4.426636
H	-2.611458	-5.147101	4.550487
H	-0.931037	-5.148785	5.162921
C	1.677382	-2.587487	-4.608454
H	1.896168	-3.483329	-5.212668
H	2.583531	-1.964972	-4.482719
H	0.903674	-1.962932	-5.093988
H	0.022586	-7.822318	-0.067309
C	0.000000	0.000000	0.000000
S	0.137535	0.781156	1.580530
C	0.421895	2.393994	0.904911
C	0.173134	0.982857	-0.985400
C	0.402294	2.283058	-0.493528
H	0.132237	0.750786	-2.059934
H	0.555196	3.150621	-1.152593
H	0.574741	3.261310	1.556025
$end

$rem
JOBTYPE		SP
EXCHANGE	HF
CORRELATION	pRIMP2
BASIS		cc-pvtz
METHOD		rimp2
AUX_BASIS	rimp2-cc-pvtz
SOLVENT_METHOD	PCM
PURECART	11111
SYMMETRY	false
MEM_TOTAL	110000
SCF_CONVERGENCE = 6
THRESH=10
GUI = 2
$end



$solvent
dielectric 4.90
$end
--------------------------------------------------------------
 ----------------------------------------------------------------
             Standard Nuclear Orientation (Angstroms)
    I     Atom           X                Y                Z
 ----------------------------------------------------------------
    1      C       0.0864860000    -6.7414040000    -0.2419380000
    2      C       0.5329600000    -6.1556380000    -1.4689830000
    3      C      -0.2847330000    -5.7914520000     0.7766510000
    4      C       0.6284550000    -4.8037860000    -1.7306810000
    5      H       0.8330860000    -6.8215180000    -2.2941300000
    6      C      -0.1843000000    -4.3786380000     0.5027750000
    7      C       0.2710860000    -3.8380320000    -0.7473530000
    8      C      -0.5411910000    -3.4130620000     1.4849860000
    9      C       0.3707030000    -2.4264730000    -1.0190420000
   10      C      -0.4464680000    -2.0593480000     1.2265250000
   11      C       0.0000000000    -1.4782160000     0.0000000000
   12      H      -0.7467170000    -1.3947830000     2.0526660000
   13      C      -0.7798320000    -6.1879870000     2.1315490000
   14      C      -1.0305960000    -3.7981640000     2.8292950000
   15      N      -1.1154610000    -5.1700030000     3.0574960000
   16      C       1.1190340000    -4.4249870000    -3.0787120000
   17      C       0.8651510000    -2.0366270000    -2.3753000000
   18      N       1.2011760000    -3.0491560000    -3.3013740000
   19      O      -0.9163550000    -7.3531310000     2.4983000000
   20      O      -1.3454860000    -2.9868540000     3.6971950000
   21      O       1.4303790000    -5.2489460000    -3.9362240000
   22      O       1.0077140000    -0.8788290000    -2.7628050000
   23      C      -1.5995760000    -5.5637990000     4.3845390000
   24      H      -1.6161210000    -6.6640850000     4.4266360000
   25      H      -2.6114580000    -5.1471010000     4.5504870000
   26      H      -0.9310370000    -5.1487850000     5.1629210000
   27      C       1.6773820000    -2.5874870000    -4.6084540000
   28      H       1.8961680000    -3.4833290000    -5.2126680000
   29      H       2.5835310000    -1.9649720000    -4.4827190000
   30      H       0.9036740000    -1.9629320000    -5.0939880000
   31      H       0.0225860000    -7.8223180000    -0.0673090000
   32      C       0.0000000000     0.0000000000     0.0000000000
   33      S       0.1375350000     0.7811560000     1.5805300000
   34      C       0.4218950000     2.3939940000     0.9049110000
   35      C       0.1731340000     0.9828570000    -0.9854000000
   36      C       0.4022940000     2.2830580000    -0.4935280000
   37      H       0.1322370000     0.7507860000    -2.0599340000
   38      H       0.5551960000     3.1506210000    -1.1525930000
   39      H       0.5747410000     3.2613100000     1.5560250000
 ----------------------------------------------------------------
 Nuclear Repulsion Energy =        2497.35407973 hartrees
 There are       97 alpha and       97 beta electrons
 Requested basis set is cc-pVTZ
 There are 344 shells and 982 basis functions

 Total QAlloc Memory Limit 110000 MB
 Mega-Array Size       188 MB
 MEM_STATIC part       192 MB
 Discretize the solute cavity surface with Lebedev spheres
	Using 110 Lebedev grid points for each H atom
	Using 194 Lebedev grid points for other atoms
	Atomic van der Waals radii will be scaled by 1.20
 Remove points where switching function is < 1.0e-08
 Keep 2509 surface tesserae and discard 4049 interior tesserae
 Molecular Surface Area = 361.619 Angst**2
 Requested basis set is rimp2-cc-pVTZ
 There are 750 shells and 2588 basis functions
 A cutoff of  1.0D-10 yielded  31742 shell pairs
 There are    244494 function pairs (    317725 Cartesian)
 Smallest overlap matrix eigenvalue = 1.00E-05

 Scale SEOQF with 1.000000e-01/1.000000e-02/1.000000e-01

 Standard Electronic Orientation quadrupole field applied
 Nucleus-field energy     =    -0.0000000974 hartrees
 Guess from superposition of atomic densities
 Warning:  Energy on first SCF cycle will be non-variational
 SAD guess density has 194.000000 electrons

 -----------------------------------------------------------------------
  General SCF calculation program by
  Eric Jon Sundstrom, Paul Horn, Yuezhi Mao, Dmitri Zuev, Alec White,
  David Stuck, Shaama M.S., Shane Yost, Joonho Lee, David Small,
  Daniel Levine, Susi Lehtola, Hugh Burton, Evgeny Epifanovsky,
  Bang C. Huynh
 -----------------------------------------------------------------------
 Hartree-Fock
 using 64 threads for integral computing
 -------------------------------------------------------
 OpenMP Integral computing Module                
 Release: version 1.0, May 2013, Q-Chem Inc. Pittsburgh 
 -------------------------------------------------------
 A restricted SCF calculation will be
 performed using DIIS
 SCF converges when DIIS error is below 1.0e-06
 ---------------------------------------
  Cycle       Energy         DIIS error
 ---------------------------------------
    1   -1581.3691045333      1.87e-02  
    2   -1570.1161072592      2.09e-03  
    3   -1570.4447612988      1.62e-03  
    4   -1570.6720445032      2.58e-04  
    5   -1570.6842679103      7.73e-05  
    6   -1570.6853780989      2.85e-05  
    7   -1570.6856366371      1.43e-05  
    8   -1570.6857173976      5.97e-06  
    9   -1570.6857299652      2.28e-06  
   10   -1570.6857321007      7.86e-07  Convergence criterion met
 ---------------------------------------
 SCF time:   CPU 5828.79s  wall 223.00s 

************** Final PCM Free Energy Summary **************
 G_electrostatic  =      -0.02130896 hartree =     -13.37157119 kcal/mol
 G_cavitation     =       0.00000000 hartree =       0.00000000 kcal/mol
 G_dispersion     =       0.00000000 hartree =       0.00000000 kcal/mol
 G_repulsion      =       0.00000000 hartree =       0.00000000 kcal/mol
 --------------------------------------------------
 Non-electrostatic Free Energy =       0.00000000 hartree =       0.00000000 kcal/mol
 Total                         =      -0.02130896 hartree =     -13.37157119 kcal/mol
 --------------------------------------------------
 SCF Energy (H0 + V/2)                       =   -1570.68573210 
 Solute Internal Energy (H0)                 =   -1570.66442315 
 Total Free Energy (H0 + V/2 + non-elec)     =   -1570.68573210 hartree
                                             = -985620.17285774 kcal/mol
***********************************************************

 SCF   energy in the final basis set =    -1570.6857321007
 Total energy in the final basis set =    -1570.6857321007


 --------------------------------------------------------------
  Generalized many-body perturbation theory program
  by Joonho Lee, Fazle Rob, Xintian Feng, Evgeny Epifanovsky

 No regularization used 
 (reg. param. = 0.0000e+00)
  (P|Q)^-1/2 Time:  CPU 177.68 s  wall 3.93 s

 In RI-MP2 calculation: 
 # of frozen core orbitals: 31

 Components of the RIMP2 correlation energy:
        aaaa    correlation energy =        -0.6174820329 a.u.
        abab    correlation energy =        -3.3925757068 a.u.
        bbbb    correlation energy =        -0.6174820329 a.u.
        non-Brillouin singles      =        -0.0000000000 a.u.
        total same-spin energy     =        -1.2349640659 a.u.
        total opposite-spin energy =        -3.3925757068 a.u.

 Total  RIMP2   correlation energy =        -4.6275397727 a.u.
        RIMP2         total energy =     -1575.3132718733 a.u.

 RI-MP2 Energy Time:  CPU 3533.61 s  wall 57.85 s
 
 --------------------------------------------------------------
 
                    Orbital Energies (a.u.)
 --------------------------------------------------------------
 
 Alpha MOs
 -- Occupied --
-91.9937 -20.5585 -20.5564 -20.5546 -20.5537 -15.6311 -15.6304 -11.3998
-11.3966 -11.3914 -11.3907 -11.3192 -11.3021 -11.3003 -11.2990 -11.2956
-11.2945 -11.2901 -11.2900 -11.2873 -11.2835 -11.2791 -11.2786 -11.2648
-11.2644 -11.2545 -11.2503  -8.9934  -6.6742  -6.6737  -6.6731  -1.4249
 -1.4247  -1.4042  -1.4035  -1.2674  -1.2652  -1.2169  -1.1771  -1.1441
 -1.1163  -1.0635  -1.0494  -0.9925  -0.9901  -0.9865  -0.9588  -0.9476
 -0.8970  -0.8792  -0.8783  -0.8615  -0.7963  -0.7790  -0.7729  -0.7621
 -0.7360  -0.7216  -0.7038  -0.6939  -0.6818  -0.6736  -0.6664  -0.6622
 -0.6560  -0.6415  -0.6370  -0.6337  -0.6282  -0.6128  -0.5900  -0.5838
 -0.5785  -0.5726  -0.5654  -0.5630  -0.5614  -0.5559  -0.5533  -0.5472
 -0.5354  -0.5255  -0.5233  -0.5178  -0.4822  -0.4687  -0.4656  -0.4637
 -0.4587  -0.4514  -0.4289  -0.4188  -0.4096  -0.3759  -0.3540  -0.3367
 -0.3003
 -- Virtual --
 -0.0198   0.0530   0.0679   0.1039   0.1294   0.1536   0.1585   0.1593
  0.1664   0.1723   0.1764   0.1856   0.1972   0.1993   0.2076   0.2084
  0.2214   0.2276   0.2296   0.2343   0.2485   0.2542   0.2633   0.2646
  0.2682   0.3101   0.3111   0.3153   0.3205   0.3319   0.3364   0.3413
  0.3450   0.3485   0.3543   0.3559   0.3580   0.3632   0.3689   0.3790
  0.3801   0.3875   0.3953   0.3979   0.4012   0.4071   0.4101   0.4139
  0.4251   0.4269   0.4323   0.4384   0.4457   0.4472   0.4529   0.4565
  0.4608   0.4661   0.4684   0.4753   0.4785   0.4822   0.4883   0.4939
  0.5011   0.5085   0.5126   0.5173   0.5208   0.5235   0.5262   0.5307
  0.5344   0.5395   0.5442   0.5499   0.5535   0.5568   0.5652   0.5664
  0.5708   0.5732   0.5839   0.5848   0.5938   0.5944   0.5979   0.5995
  0.6040   0.6062   0.6144   0.6179   0.6219   0.6254   0.6293   0.6311
  0.6336   0.6357   0.6392   0.6420   0.6513   0.6589   0.6668   0.6762
  0.6822   0.6846   0.6912   0.6959   0.7035   0.7097   0.7126   0.7237
  0.7307   0.7344   0.7384   0.7451   0.7543   0.7589   0.7646   0.7673
  0.7739   0.7843   0.7897   0.7919   0.7992   0.8092   0.8114   0.8210
  0.8239   0.8330   0.8413   0.8426   0.8475   0.8486   0.8537   0.8606
  0.8633   0.8662   0.8715   0.8791   0.8860   0.8892   0.9034   0.9077
  0.9145   0.9180   0.9211   0.9278   0.9350   0.9362   0.9418   0.9502
  0.9573   0.9613   0.9638   0.9696   0.9739   0.9767   0.9794   0.9853
  0.9921   0.9953   1.0059   1.0111   1.0149   1.0198   1.0238   1.0306
  1.0340   1.0409   1.0487   1.0548   1.0583   1.0663   1.0692   1.0745
  1.0763   1.0803   1.0838   1.0882   1.0970   1.1019   1.1076   1.1137
  1.1240   1.1325   1.1369   1.1415   1.1434   1.1506   1.1534   1.1590
  1.1613   1.1630   1.1694   1.1767   1.1831   1.1883   1.1946   1.2009
  1.2118   1.2129   1.2140   1.2243   1.2277   1.2312   1.2369   1.2393
  1.2481   1.2491   1.2524   1.2595   1.2653   1.2712   1.2832   1.3055
  1.3134   1.3253   1.3265   1.3351   1.3437   1.3498   1.3509   1.3565
  1.3645   1.3778   1.3828   1.3879   1.3882   1.4011   1.4041   1.4180
  1.4200   1.4244   1.4312   1.4437   1.4448   1.4498   1.4644   1.4681
  1.4762   1.4791   1.4842   1.4918   1.4978   1.5022   1.5094   1.5179
  1.5250   1.5329   1.5358   1.5489   1.5518   1.5549   1.5604   1.5658
  1.5750   1.5798   1.5840   1.5940   1.5966   1.6110   1.6250   1.6391
  1.6425   1.6463   1.6553   1.6583   1.6658   1.6754   1.6846   1.6903
  1.6953   1.7077   1.7225   1.7241   1.7320   1.7411   1.7478   1.7493
  1.7611   1.7675   1.7804   1.7861   1.7931   1.7983   1.8033   1.8137
  1.8303   1.8388   1.8419   1.8553   1.8560   1.8570   1.8639   1.8724
  1.8745   1.8882   1.9032   1.9059   1.9222   1.9279   1.9340   1.9530
  1.9592   1.9721   1.9727   1.9771   1.9968   2.0065   2.0231   2.0358
  2.0547   2.0583   2.0696   2.0916   2.0960   2.1098   2.1281   2.1391
  2.1507   2.1580   2.1617   2.1777   2.1886   2.2086   2.2198   2.2337
  2.2376   2.2453   2.2609   2.2684   2.2842   2.2885   2.2905   2.3011
  2.3208   2.3273   2.3438   2.3541   2.3609   2.3680   2.3755   2.3809
  2.4031   2.4155   2.4263   2.4365   2.4485   2.4506   2.4576   2.4675
  2.4854   2.4908   2.4986   2.5007   2.5086   2.5195   2.5306   2.5403
  2.5552   2.5665   2.5748   2.5860   2.5899   2.5966   2.6080   2.6102
  2.6187   2.6245   2.6366   2.6534   2.6545   2.6640   2.6660   2.6697
  2.6748   2.6800   2.6946   2.6960   2.7070   2.7118   2.7170   2.7271
  2.7334   2.7461   2.7508   2.7548   2.7616   2.7715   2.7858   2.7960
  2.8026   2.8028   2.8270   2.8363   2.8380   2.8494   2.8563   2.8620
  2.8706   2.8714   2.8743   2.8800   2.8885   2.9011   2.9092   2.9110
  2.9136   2.9192   2.9244   2.9395   2.9522   2.9569   2.9664   2.9712
  2.9736   2.9772   2.9922   2.9974   2.9999   3.0034   3.0107   3.0160
  3.0205   3.0325   3.0372   3.0429   3.0466   3.0554   3.0694   3.0759
  3.0866   3.0911   3.0975   3.1007   3.1088   3.1118   3.1161   3.1235
  3.1281   3.1342   3.1359   3.1405   3.1590   3.1732   3.1756   3.1805
  3.1927   3.1981   3.1998   3.2014   3.2147   3.2154   3.2211   3.2273
  3.2286   3.2326   3.2384   3.2459   3.2484   3.2559   3.2625   3.2650
  3.2684   3.2724   3.2789   3.2825   3.2880   3.2930   3.2978   3.2998
  3.3064   3.3078   3.3156   3.3246   3.3306   3.3326   3.3350   3.3391
  3.3408   3.3479   3.3525   3.3563   3.3603   3.3658   3.3672   3.3680
  3.3743   3.3852   3.3873   3.3994   3.4000   3.4064   3.4189   3.4201
  3.4227   3.4243   3.4291   3.4416   3.4430   3.4461   3.4518   3.4536
  3.4589   3.4642   3.4724   3.4762   3.4817   3.4843   3.4889   3.4955
  3.4980   3.5002   3.5051   3.5088   3.5133   3.5164   3.5240   3.5270
  3.5336   3.5412   3.5477   3.5548   3.5675   3.5681   3.5751   3.5806
  3.5898   3.5912   3.5994   3.6025   3.6079   3.6168   3.6182   3.6290
  3.6323   3.6367   3.6424   3.6446   3.6549   3.6630   3.6691   3.6792
  3.6859   3.6919   3.6963   3.7023   3.7057   3.7090   3.7168   3.7276
  3.7293   3.7320   3.7379   3.7476   3.7505   3.7555   3.7577   3.7650
  3.7704   3.7822   3.7847   3.7863   3.7943   3.7982   3.8038   3.8073
  3.8143   3.8238   3.8290   3.8403   3.8457   3.8515   3.8578   3.8598
  3.8724   3.8748   3.8844   3.8893   3.8908   3.9030   3.9081   3.9267
  3.9308   3.9353   3.9362   3.9490   3.9574   3.9597   3.9644   3.9791
  3.9880   3.9958   4.0014   4.0106   4.0140   4.0236   4.0404   4.0464
  4.0600   4.0609   4.0740   4.0783   4.0860   4.0997   4.1059   4.1120
  4.1250   4.1324   4.1338   4.1444   4.1498   4.1617   4.1657   4.1709
  4.1760   4.1882   4.1958   4.2038   4.2051   4.2167   4.2257   4.2408
  4.2438   4.2572   4.2653   4.2733   4.2785   4.2837   4.2894   4.2954
  4.2978   4.2991   4.3092   4.3141   4.3220   4.3244   4.3336   4.3483
  4.3506   4.3542   4.3652   4.3677   4.3726   4.3787   4.3828   4.3886
  4.3964   4.4019   4.4044   4.4077   4.4152   4.4227   4.4351   4.4559
  4.4585   4.4627   4.4801   4.4974   4.4992   4.5107   4.5125   4.5154
  4.5220   4.5278   4.5419   4.5448   4.5545   4.5634   4.5679   4.5746
  4.5771   4.5848   4.5869   4.5893   4.6029   4.6121   4.6276   4.6408
  4.6498   4.6551   4.6636   4.6688   4.6720   4.6839   4.6895   4.6926
  4.7122   4.7255   4.7345   4.7490   4.7630   4.7722   4.7795   4.8010
  4.8073   4.8292   4.8344   4.8380   4.8485   4.8617   4.8758   4.8787
  4.8864   4.8963   4.9246   4.9374   4.9389   4.9653   4.9720   4.9888
  5.0023   5.0068   5.0154   5.0400   5.0458   5.0517   5.0532   5.0573
  5.1034   5.1055   5.1145   5.1239   5.1262   5.1315   5.1409   5.1588
  5.1664   5.1787   5.1893   5.1910   5.2102   5.2390   5.2565   5.2581
  5.2741   5.2801   5.2833   5.2992   5.3054   5.3234   5.3322   5.3412
  5.3723   5.3956   5.3964   5.4024   5.4187   5.4312   5.4326   5.4679
  5.4811   5.5072   5.5087   5.5125   5.5144   5.5410   5.5503   5.5588
  5.5605   5.5628   5.5724   5.5735   5.5777   5.5923   5.6033   5.6124
  5.6237   5.6387   5.6524   5.6548   5.6561   5.6769   5.6810   5.6946
  5.7015   5.7165   5.7211   5.7456   5.7511   5.7607   5.7651   5.7719
  5.7803   5.7893   5.8123   5.8254   5.8536   5.8843   5.9038   5.9188
  5.9477   5.9588   6.0017   6.0164   6.0240   6.0329   6.0496   6.0547
  6.0982   6.1021   6.1068   6.1205   6.1255   6.1861   6.2015   6.2135
  6.2178   6.2211   6.2306   6.2633   6.2697   6.2799   6.3067   6.3436
  6.3546   6.4002   6.4434   6.4483   6.4682   6.5271   6.5624   6.5739
  6.5874   6.6121   6.6451   6.6480   6.6607   6.7060   6.7446   6.8330
  6.8376   6.8821   6.8862   6.8973   6.9115   6.9330   6.9851   7.0795
  7.1207   7.1439   7.1895   7.1997   7.2384   7.3325   7.3425   7.3446
  7.3667   7.4695   7.5484   7.5586   7.5746   7.5804   7.6104   7.6347
  7.6798   7.7063   7.7500   8.4455   9.9242  10.3559  11.1741  11.2610
 11.7070  11.7543  11.9916  12.3852  12.4746  12.5779  12.8487  13.1055
 13.3499  13.5583  13.8176  13.9472  14.0245  14.1636  14.3197  14.4112
 14.5026  14.7565  15.3655  15.7366  15.9914
 --------------------------------------------------------------
 
          Ground-State Mulliken Net Atomic Charges

     Atom                 Charge (a.u.)
  ----------------------------------------
      1 C                    -0.143270
      2 C                    -0.110136
      3 C                    -0.034299
      4 C                    -0.004716
      5 H                     0.188084
      6 C                    -0.002573
      7 C                     0.074149
      8 C                     0.041320
      9 C                    -0.064961
     10 C                    -0.183757
     11 C                     0.101226
     12 H                     0.166392
     13 C                     0.359595
     14 C                     0.367605
     15 N                    -0.101613
     16 C                     0.359626
     17 C                     0.379549
     18 N                    -0.092200
     19 O                    -0.464275
     20 O                    -0.476341
     21 O                    -0.482937
     22 O                    -0.476541
     23 C                    -0.201055
     24 H                     0.141041
     25 H                     0.112423
     26 H                     0.112595
     27 C                    -0.197814
     28 H                     0.134404
     29 H                     0.112823
     30 H                     0.112301
     31 H                     0.212852
     32 C                    -0.036617
     33 S                     0.025739
     34 C                    -0.196358
     35 C                    -0.134585
     36 C                    -0.217772
     37 H                     0.211414
     38 H                     0.191550
     39 H                     0.217136
  ----------------------------------------
  Sum of atomic charges =     0.000000

 -----------------------------------------------------------------
                    Cartesian Multipole Moments
 -----------------------------------------------------------------
    Charge (ESU x 10^10)
                -0.0000
    Dipole Moment (Debye)
         X       0.3862      Y       2.1018      Z      -0.8767
       Tot       2.3098
    Quadrupole Moments (Debye-Ang)
        XX    -166.0901     XY       2.1189     YY    -167.8479
        XZ       6.8122     YZ       0.6130     ZZ    -175.7398
    Octopole Moments (Debye-Ang^2)
       XXX     -43.1059    XXY     475.6409    XYY      -4.5445
       YYY    1612.6991    XXZ      -0.4585    XYZ     -25.4611
       YYZ       4.4700    XZZ     -14.3966    YZZ     553.6203
       ZZZ      -0.1925
    Hexadecapole Moments (Debye-Ang^3)
      XXXX    -878.5282   XXXY    -158.3868   XXYY   -2875.6029
      XYYY    -289.1351   YYYY  -17252.1329   XXXZ     917.8428
      XXYZ      53.2165   XYYZ     503.6937   YYYZ     695.6584
      XXZZ   -1097.8545   XYZZ      62.4917   YYZZ   -4073.3232
      XZZZ     997.5943   YZZZ     -20.8599   ZZZZ   -5731.6778
 -----------------------------------------------------------------
 Total job time:  290.54s(wall), 9779.14s(cpu) 
 Wed Sep 20 08:14:59 2023

        *************************************************************
        *                                                           *
        *  Thank you very much for using Q-Chem.  Have a nice day.  *
        *                                                           *
        *************************************************************


0 sent ACK to 0 
now end server 0 ... 
cleanup process ... done
remove work dirs ./qchem3544288.0 -- ./qchem3544288.0
rm -rf ./qchem3544288.0
rm -rf ./qchem3544288
