You are running Q-Chem version: 5.4.0

#
# job setting
#
local host:  exp-2-08
current dir: /expanse/lustre/projects/csd626/rramji/aromodel/PNDIT/Rotation_Test
input file:  Dimethyl_Naphthalene_Dicarboximide_Phi_0_Theta_90_Thiophene.qcin
output file: 
nprocs     : 1
nthreads   : 64
#
# qchem installation setting
#
QC:          /cm/shared/apps/spack/cpu/opt/spack/linux-centos8-zen2/gcc-10.2.0/qchem-5.4-akfmr7b3t57bfs6qan3padb2wnb2i7cl
QCAUX:       /cm/shared/apps/spack/cpu/opt/spack/linux-centos8-zen2/gcc-10.2.0/qchem-5.4-akfmr7b3t57bfs6qan3padb2wnb2i7cl/qcaux
QCPROG:      /cm/shared/apps/spack/cpu/opt/spack/linux-centos8-zen2/gcc-10.2.0/qchem-5.4-akfmr7b3t57bfs6qan3padb2wnb2i7cl/exe/qcprog.exe
QCPROG_S:    /cm/shared/apps/spack/cpu/opt/spack/linux-centos8-zen2/gcc-10.2.0/qchem-5.4-akfmr7b3t57bfs6qan3padb2wnb2i7cl/exe/qcprog.exe_s
PARALLEL:    -DPARALLEL
QCMPI:       mpich
#
# qchem directory setting
#
qcrun:       qchem665986
QCSCRATCH:   .
QCLOCALSCR:  
QCTMPDIR:    .
QCFILEPREF:  ./qchem665986
QCSAVEDIR:   
workdirs:    ./qchem665986
workdir0:    ./qchem665986
partmpdirs =  
#
# parallel setting
#
QCRSH:           ssh
QCMPI:           mpich
QCMPIRUN:        /cm/shared/apps/spack/cpu/opt/spack/linux-centos8-zen2/gcc-10.2.0/qchem-5.4-akfmr7b3t57bfs6qan3padb2wnb2i7cl/bin/mpi/mpirun_qchem
QCMACHINEFILE:   ./qchem665986/hostfile
exp-2-08

#
# env setting
#
exported envs:   QC QCAUX QCSCRATCH QCRUNNAME QCFILEPREF QCPROG QCPROG_S GUIFILE

Running Job 1 of 1 Dimethyl_Naphthalene_Dicarboximide_Phi_0_Theta_90_Thiophene.qcin
qchem Dimethyl_Naphthalene_Dicarboximide_Phi_0_Theta_90_Thiophene.qcin_665986.0 ./qchem665986/ 1
/cm/shared/apps/spack/cpu/opt/spack/linux-centos8-zen2/gcc-10.2.0/qchem-5.4-akfmr7b3t57bfs6qan3padb2wnb2i7cl/bin/mpi/mpirun_qchem -machinefile ./qchem665986/hostfile -np 1 /cm/shared/apps/spack/cpu/opt/spack/linux-centos8-zen2/gcc-10.2.0/qchem-5.4-akfmr7b3t57bfs6qan3padb2wnb2i7cl/exe/qcprog.exe Dimethyl_Naphthalene_Dicarboximide_Phi_0_Theta_90_Thiophene.qcin_665986.0 ./qchem665986/

Process 0 of 1 is on exp-2-08 - thread support 0
initial socket setup ...start
initial socket setup ...done 
now start server 0 ... 
                  Welcome to Q-Chem
     A Quantum Leap Into The Future Of Chemistry


 Q-Chem 5.4, Q-Chem, Inc., Pleasanton, CA (2021)

 License issued to: University of California, San Diego (site)

 E. Epifanovsky,  A. T. B. Gilbert,  Xintian Feng,  Joonho Lee,  Yuezhi Mao,  
 N. Mardirossian,  P. Pokhilko,  A. White,  M. Wormit,  M. P. Coons,  
 A. L. Dempwolff,  Zhengting Gan,  D. Hait,  P. R. Horn,  L. D. Jacobson,  
 I. Kaliman,  J. Kussmann,  A. W. Lange,  Ka Un Lao,  D. S. Levine,  Jie Liu,  
 S. C. McKenzie,  A. F. Morrison,  K. Nanda,  F. Plasser,  D. R. Rehn,  
 M. L. Vidal,  Zhi-Qiang You,  Ying Zhu,  B. Alam,  B. Albrecht,  
 A. Aldossary,  E. Alguire,  J. H. Andersen,  D. Barton,  K. Begam,  A. Behn,  
 Y. A. Bernard,  E. J. Berquist,  H. Burton,  A. Carreras,  K. Carter-Fenk,  
 R. Chakraborty,  A. D. Chien,  K. D. Closser,  V. Cofer-Shabica,  
 S. Dasgupta,  Jia Deng,  M. de Wergifosse,  M. Diedenhofen,  Hainam Do,  
 S. Ehlert,  Po-Tung Fang,  S. Fatehi,  Qingguo Feng,  J. Gayvert,  
 Qinghui Ge,  G. Gidofalvi,  M. Goldey,  J. Gomes,  C. Gonzalez-Espinoza,  
 S. Gulania,  A. Gunina,  M. W. D. Hanson-Heine,  P. H. P. Harbach,  
 A. W. Hauser,  M. F. Herbst,  M. Hernandez Vera,  M. Hodecker,  
 Z. C. Holden,  S. Houck,  Xunkun Huang,  Kerwin Hui,  B. C. Huynh,  
 M. Ivanov,  Hyunjun Ji,  Hanjie Jiang,  B. Kaduk,  S. Kaehler,  
 K. Khistyaev,  Jaehoon Kim,  P. Klunzinger,  Z. Koczor-Benda,  
 Joong Hoon Koh,  D. Kosenkov,  L. Koulias,  T. Kowalczyk,  C. M. Krauter,  
 K. Kue,  A. Kunitsa,  T. Kus,  A. Landau,  K. V. Lawler,  D. Lefrancois,  
 S. Lehtola,  Rain Li,  Yi-Pei Li,  Jiashu Liang,  M. Liebenthal,  
 Hung-Hsuan Lin,  You-Sheng Lin,  Fenglai Liu,  Kuan-Yu Liu,  
 M. Loipersberger,  A. Luenser,  A. Manjanath,  P. Manohar,  E. Mansoor,  
 S. F. Manzer,  Shan-Ping Mao,  A. V. Marenich,  T. Markovich,  S. Mason,  
 S. A. Maurer,  P. F. McLaughlin,  M. F. S. J. Menger,  J.-M. Mewes,  
 S. A. Mewes,  P. Morgante,  J. W. Mullinax,  T. S. Nguyen-Beck,  
 K. J. Oosterbaan,  G. Paran,  Alexander C. Paul,  Suranjan K. Paul,  
 F. Pavosevic,  Zheng Pei,  S. Prager,  E. I. Proynov,  E. Ramos,  B. Rana,  
 A. E. Rask,  A. Rettig,  R. M. Richard,  F. Rob,  E. Rossomme,  T. Scheele,  
 M. Scheurer,  M. Schneider,  N. Sergueev,  S. M. Sharada,  W. Skomorowski,  
 D. W. Small,  C. J. Stein,  Yu-Chuan Su,  E. J. Sundstrom,  Zhen Tao,  
 J. Thirman,  T. Tsuchimochi,  N. M. Tubman,  S. P. Veccham,  O. Vydrov,  
 J. Wenzel,  J. Witte,  A. Yamada,  Kun Yao,  S. Yeganeh,  S. R. Yost,  
 A. Zech,  Igor Ying Zhang,  Xing Zhang,  Yu Zhang,  D. Zuev,  
 A. Aspuru-Guzik,  A. T. Bell,  N. A. Besley,  K. B. Bravaya,  B. R. Brooks,  
 D. Casanova,  Jeng-Da Chai,  S. Coriani,  C. J. Cramer,  
 A. E. DePrince, III,  R. A. DiStasio Jr.,  A. Dreuw,  B. D. Dunietz,  
 T. R. Furlani,  W. A. Goddard III,  S. Grimme,  S. Hammes-Schiffer,  
 T. Head-Gordon,  W. J. Hehre,  Chao-Ping Hsu,  T.-C. Jagau,  Yousung Jung,  
 A. Klamt,  Jing Kong,  D. S. Lambrecht,  WanZhen Liang,  N. J. Mayhall,  
 C. W. McCurdy,  J. B. Neaton,  C. Ochsenfeld,  J. A. Parkhill,  R. Peverati,  
 V. A. Rassolov,  Yihan Shao,  L. V. Slipchenko,  T. Stauch,  R. P. Steele,  
 J. E. Subotnik,  A. J. W. Thom,  A. Tkatchenko,  D. G. Truhlar,  
 T. Van Voorhis,  T. A. Wesolowski,  K. B. Whaley,  H. L. Woodcock III,  
 P. M. Zimmerman,  S. Faraji,  P. M. W. Gill,  M. Head-Gordon,  
 J. M. Herbert,  A. I. Krylov

 Contributors to earlier versions of Q-Chem not listed above: 
 R. D. Adamson,  B. Austin,  R. Baer,  J. Baker,  G. J. O. Beran,  
 K. Brandhorst,  S. T. Brown,  E. F. C. Byrd,  A. K. Chakraborty,  
 G. K. L. Chan,  Chun-Min Chang,  Yunqing Chen,  C.-L. Cheng,  
 Siu Hung Chien,  D. M. Chipman,  D. L. Crittenden,  H. Dachsel,  
 R. J. Doerksen,  A. D. Dutoi,  R. G. Edgar,  J. Fosso-Tande,  
 L. Fusti-Molnar,  D. Ghosh,  A. Ghysels,  A. Golubeva-Zadorozhnaya,  
 J. Gonthier,  M. S. Gordon,  S. R. Gwaltney,  G. Hawkins,  J. E. Herr,  
 A. Heyden,  S. Hirata,  E. G. Hohenstein,  G. Kedziora,  F. J. Keil,  
 C. Kelley,  Jihan Kim,  R. A. King,  R. Z. Khaliullin,  P. P. Korambath,  
 W. Kurlancheek,  A. Laurent,  A. M. Lee,  M. S. Lee,  S. V. Levchenko,  
 Ching Yeh Lin,  D. Liotard,  E. Livshits,  R. C. Lochan,  I. Lotan,  
 L. A. Martinez-Martinez,  P. E. Maslen,  N. Nair,  D. P. O'Neill,  
 D. Neuhauser,  E. Neuscamman,  C. M. Oana,  R. Olivares-Amaya,  R. Olson,  
 T. M. Perrine,  B. Peters,  P. A. Pieniazek,  A. Prociuk,  Y. M. Rhee,  
 J. Ritchie,  M. A. Rohrdanz,  E. Rosta,  N. J. Russ,  H. F. Schaefer III,  
 M. W. Schmidt,  N. E. Schultz,  S. Sharma,  N. Shenvi,  C. D. Sherrill,  
 A. C. Simmonett,  A. Sodt,  T. Stein,  D. Stuck,  K. S. Thanthiriwatte,  
 V. Vanovschi,  L. Vogt,  Tao Wang,  A. Warshel,  M. A. Watson,  
 C. F. Williams,  Q. Wu,  X. Xu,  Jun Yang,  W. Zhang,  Yan Zhao

 Please cite Q-Chem as follows:
 Y. Shao et al., Mol. Phys. 113, 184-215 (2015)
 DOI: 10.1080/00268976.2014.952696

 Q-Chem 5.4.0 for Intel X86 EM64T Linux

 Parts of Q-Chem use Armadillo 9.800.1 (Horizon Scraper).
 http://arma.sourceforge.net/

 Q-Chem begins on Wed Sep 20 08:40:21 2023  

 Host: 
0

     Scratch files written to ./qchem665986//
 May1621 |scratch|qcdevops|jenkins|workspace|build_RNUM    
 Parallel job on  1  processors
 Processing $rem in /cm/shared/apps/spack/cpu/opt/spack/linux-centos8-zen2/gcc-10.2.0/qchem-5.4-akfmr7b3t57bfs6qan3padb2wnb2i7cl/config/preferences:
 Processing $rem in /home/rramji/.qchemrc:
 Symmetry turned off for PCM/SM12/SMD calculation
 Core orbitals will be frozen

 Checking the input file for inconsistencies... 	...done.

 Q-Chem warning in module forms1/BasisType.C, line 2236:

 You are not using the predefined 5D/6D in this basis set.


--------------------------------------------------------------
User input:
--------------------------------------------------------------
$molecule
0 1
C	0.256927	-6.741404	-0.001478
C	1.562675	-6.155638	-0.001603
C	-0.827197	-5.791452	-0.001931
C	1.841253	-4.803786	-0.001374
H	2.440709	-6.821518	-0.001794
C	-0.535488	-4.378638	-0.001227
C	0.794999	-3.838032	-0.000872
C	-1.580529	-3.413062	-0.000658
C	1.084374	-2.426473	-0.000186
C	-1.305258	-2.059348	-0.000046
C	-0.000000	-1.478216	-0.000000
H	-2.184267	-1.394783	0.000369
C	-2.269719	-6.187987	-0.003770
C	-3.011152	-3.798164	-0.000767
N	-3.254617	-5.170003	-0.002465
C	3.275775	-4.424987	-0.001433
C	2.527951	-2.036627	0.000576
N	3.513104	-3.049156	-0.000400
O	-2.661046	-7.353131	-0.006623
O	-3.934410	-2.986854	0.000172
O	4.188059	-5.248946	-0.002151
O	2.940845	-0.878829	0.002006
C	-4.667206	-5.563799	-0.003509
H	-4.712423	-6.664085	-0.004658
H	-5.169231	-5.147101	-0.897610
H	-5.169992	-5.148785	0.890935
C	4.904229	-2.587487	0.000039
H	5.546833	-3.483329	-0.001022
H	5.095998	-1.964972	0.894545
H	5.095858	-1.962932	-0.893071
H	0.070974	-7.822318	-0.001797
C	0.000000	0.000000	0.000000
S	-0.000201	0.793171	1.580530
C	-0.000228	2.430885	0.904911
C	-0.000168	0.997990	-0.985400
C	-0.000267	2.318231	-0.493528
H	-0.000145	0.762343	-2.059934
H	-0.000339	3.199164	-1.152593
H	-0.000311	3.311566	1.556025
$end

$rem
JOBTYPE		SP
EXCHANGE	HF
CORRELATION	pRIMP2
BASIS		cc-pvtz
METHOD		rimp2
AUX_BASIS	rimp2-cc-pvtz
SOLVENT_METHOD	PCM
PURECART	11111
SYMMETRY	false
MEM_TOTAL	110000
SCF_CONVERGENCE = 6
THRESH=10
GUI = 2
$end



$solvent
dielectric 4.90
$end
--------------------------------------------------------------
 ----------------------------------------------------------------
             Standard Nuclear Orientation (Angstroms)
    I     Atom           X                Y                Z
 ----------------------------------------------------------------
    1      C       0.2569270000    -6.7414040000    -0.0014780000
    2      C       1.5626750000    -6.1556380000    -0.0016030000
    3      C      -0.8271970000    -5.7914520000    -0.0019310000
    4      C       1.8412530000    -4.8037860000    -0.0013740000
    5      H       2.4407090000    -6.8215180000    -0.0017940000
    6      C      -0.5354880000    -4.3786380000    -0.0012270000
    7      C       0.7949990000    -3.8380320000    -0.0008720000
    8      C      -1.5805290000    -3.4130620000    -0.0006580000
    9      C       1.0843740000    -2.4264730000    -0.0001860000
   10      C      -1.3052580000    -2.0593480000    -0.0000460000
   11      C       0.0000000000    -1.4782160000     0.0000000000
   12      H      -2.1842670000    -1.3947830000     0.0003690000
   13      C      -2.2697190000    -6.1879870000    -0.0037700000
   14      C      -3.0111520000    -3.7981640000    -0.0007670000
   15      N      -3.2546170000    -5.1700030000    -0.0024650000
   16      C       3.2757750000    -4.4249870000    -0.0014330000
   17      C       2.5279510000    -2.0366270000     0.0005760000
   18      N       3.5131040000    -3.0491560000    -0.0004000000
   19      O      -2.6610460000    -7.3531310000    -0.0066230000
   20      O      -3.9344100000    -2.9868540000     0.0001720000
   21      O       4.1880590000    -5.2489460000    -0.0021510000
   22      O       2.9408450000    -0.8788290000     0.0020060000
   23      C      -4.6672060000    -5.5637990000    -0.0035090000
   24      H      -4.7124230000    -6.6640850000    -0.0046580000
   25      H      -5.1692310000    -5.1471010000    -0.8976100000
   26      H      -5.1699920000    -5.1487850000     0.8909350000
   27      C       4.9042290000    -2.5874870000     0.0000390000
   28      H       5.5468330000    -3.4833290000    -0.0010220000
   29      H       5.0959980000    -1.9649720000     0.8945450000
   30      H       5.0958580000    -1.9629320000    -0.8930710000
   31      H       0.0709740000    -7.8223180000    -0.0017970000
   32      C       0.0000000000     0.0000000000     0.0000000000
   33      S      -0.0002010000     0.7931710000     1.5805300000
   34      C      -0.0002280000     2.4308850000     0.9049110000
   35      C      -0.0001680000     0.9979900000    -0.9854000000
   36      C      -0.0002670000     2.3182310000    -0.4935280000
   37      H      -0.0001450000     0.7623430000    -2.0599340000
   38      H      -0.0003390000     3.1991640000    -1.1525930000
   39      H      -0.0003110000     3.3115660000     1.5560250000
 ----------------------------------------------------------------
 Nuclear Repulsion Energy =        2490.72128575 hartrees
 There are       97 alpha and       97 beta electrons
 Requested basis set is cc-pVTZ
 There are 344 shells and 982 basis functions

 Total QAlloc Memory Limit 110000 MB
 Mega-Array Size       188 MB
 MEM_STATIC part       192 MB
 Discretize the solute cavity surface with Lebedev spheres
	Using 110 Lebedev grid points for each H atom
	Using 194 Lebedev grid points for other atoms
	Atomic van der Waals radii will be scaled by 1.20
 Remove points where switching function is < 1.0e-08
 Keep 2554 surface tesserae and discard 4004 interior tesserae
 Molecular Surface Area = 373.827 Angst**2
 Requested basis set is rimp2-cc-pVTZ
 There are 750 shells and 2588 basis functions
 A cutoff of  1.0D-10 yielded  31499 shell pairs
 There are    242419 function pairs (    315125 Cartesian)
 Smallest overlap matrix eigenvalue = 9.35E-06

 Q-Chem warning in module stvman/mkSTV.C, line 323:

 Overlap eigenvalue is smaller than square root of threshold
 Use THRESH >= 12 to get rid of this warning


 Scale SEOQF with 1.000000e-02/1.000000e-02/1.000000e-01

 Standard Electronic Orientation quadrupole field applied
 Nucleus-field energy     =     0.0000000205 hartrees
 Guess from superposition of atomic densities
 Warning:  Energy on first SCF cycle will be non-variational
 SAD guess density has 194.000000 electrons

 -----------------------------------------------------------------------
  General SCF calculation program by
  Eric Jon Sundstrom, Paul Horn, Yuezhi Mao, Dmitri Zuev, Alec White,
  David Stuck, Shaama M.S., Shane Yost, Joonho Lee, David Small,
  Daniel Levine, Susi Lehtola, Hugh Burton, Evgeny Epifanovsky,
  Bang C. Huynh
 -----------------------------------------------------------------------
 Hartree-Fock
 using 64 threads for integral computing
 -------------------------------------------------------
 OpenMP Integral computing Module                
 Release: version 1.0, May 2013, Q-Chem Inc. Pittsburgh 
 -------------------------------------------------------
 A restricted SCF calculation will be
 performed using DIIS
 SCF converges when DIIS error is below 1.0e-06
 ---------------------------------------
  Cycle       Energy         DIIS error
 ---------------------------------------
    1   -1581.2701422985      1.87e-02  
    2   -1570.1182622414      2.10e-03  
    3   -1570.4451795262      1.63e-03  
    4   -1570.6773891155      2.56e-04  
    5   -1570.6892988460      7.48e-05  
    6   -1570.6903200346      2.76e-05  
    7   -1570.6905466171      1.42e-05  
    8   -1570.6906184517      5.81e-06  
    9   -1570.6906294759      2.28e-06  
   10   -1570.6906313011      6.94e-07  Convergence criterion met
 ---------------------------------------
 SCF time:   CPU 5828.05s  wall 218.00s 

************** Final PCM Free Energy Summary **************
 G_electrostatic  =      -0.02547416 hartree =     -15.98527599 kcal/mol
 G_cavitation     =       0.00000000 hartree =       0.00000000 kcal/mol
 G_dispersion     =       0.00000000 hartree =       0.00000000 kcal/mol
 G_repulsion      =       0.00000000 hartree =       0.00000000 kcal/mol
 --------------------------------------------------
 Non-electrostatic Free Energy =       0.00000000 hartree =       0.00000000 kcal/mol
 Total                         =      -0.02547416 hartree =     -15.98527599 kcal/mol
 --------------------------------------------------
 SCF Energy (H0 + V/2)                       =   -1570.69063130 
 Solute Internal Energy (H0)                 =   -1570.66515714 
 Total Free Energy (H0 + V/2 + non-elec)     =   -1570.69063130 hartree
                                             = -985623.24715242 kcal/mol
***********************************************************

 SCF   energy in the final basis set =    -1570.6906313011
 Total energy in the final basis set =    -1570.6906313011


 --------------------------------------------------------------
  Generalized many-body perturbation theory program
  by Joonho Lee, Fazle Rob, Xintian Feng, Evgeny Epifanovsky

 No regularization used 
 (reg. param. = 0.0000e+00)
  (P|Q)^-1/2 Time:  CPU 113.38 s  wall 1.79 s

 In RI-MP2 calculation: 
 # of frozen core orbitals: 31

 Components of the RIMP2 correlation energy:
        aaaa    correlation energy =        -0.6158528629 a.u.
        abab    correlation energy =        -3.3914067264 a.u.
        bbbb    correlation energy =        -0.6158528629 a.u.
        non-Brillouin singles      =        -0.0000000000 a.u.
        total same-spin energy     =        -1.2317057257 a.u.
        total opposite-spin energy =        -3.3914067264 a.u.

 Total  RIMP2   correlation energy =        -4.6231124522 a.u.
        RIMP2         total energy =     -1575.3137437533 a.u.

 RI-MP2 Energy Time:  CPU 1828.18 s  wall 30.72 s
 
 --------------------------------------------------------------
 
                    Orbital Energies (a.u.)
 --------------------------------------------------------------
 
 Alpha MOs
 -- Occupied --
-91.9918 -20.5589 -20.5579 -20.5564 -20.5560 -15.6316 -15.6316 -11.4006
-11.3978 -11.3935 -11.3909 -11.3160 -11.3091 -11.3035 -11.3018 -11.3003
-11.2998 -11.2939 -11.2878 -11.2865 -11.2813 -11.2799 -11.2793 -11.2649
-11.2648 -11.2544 -11.2498  -8.9910  -6.6718  -6.6714  -6.6707  -1.4253
 -1.4249  -1.4045  -1.4040  -1.2681  -1.2658  -1.2187  -1.1744  -1.1448
 -1.1187  -1.0638  -1.0510  -0.9937  -0.9895  -0.9824  -0.9597  -0.9490
 -0.8980  -0.8803  -0.8785  -0.8619  -0.7961  -0.7780  -0.7736  -0.7593
 -0.7375  -0.7195  -0.7055  -0.6956  -0.6813  -0.6734  -0.6669  -0.6627
 -0.6576  -0.6430  -0.6383  -0.6347  -0.6309  -0.6130  -0.5857  -0.5849
 -0.5784  -0.5729  -0.5665  -0.5646  -0.5621  -0.5556  -0.5532  -0.5489
 -0.5349  -0.5270  -0.5190  -0.5181  -0.4839  -0.4712  -0.4671  -0.4611
 -0.4602  -0.4541  -0.4288  -0.4185  -0.4093  -0.3553  -0.3501  -0.3337
 -0.3250
 -- Virtual --
 -0.0201   0.0642   0.0733   0.0962   0.1133   0.1557   0.1578   0.1585
  0.1649   0.1669   0.1768   0.1831   0.1871   0.1930   0.1973   0.2064
  0.2103   0.2235   0.2273   0.2295   0.2307   0.2378   0.2587   0.2610
  0.2631   0.2942   0.3071   0.3132   0.3162   0.3196   0.3216   0.3329
  0.3396   0.3435   0.3514   0.3573   0.3587   0.3628   0.3693   0.3738
  0.3772   0.3830   0.3870   0.3935   0.3969   0.4022   0.4060   0.4102
  0.4109   0.4223   0.4292   0.4364   0.4408   0.4423   0.4501   0.4544
  0.4557   0.4600   0.4633   0.4660   0.4702   0.4800   0.4845   0.4912
  0.4966   0.5003   0.5054   0.5083   0.5149   0.5248   0.5282   0.5307
  0.5353   0.5366   0.5452   0.5466   0.5502   0.5563   0.5609   0.5637
  0.5685   0.5709   0.5791   0.5819   0.5905   0.5928   0.5958   0.5979
  0.6019   0.6037   0.6104   0.6177   0.6233   0.6234   0.6265   0.6303
  0.6334   0.6347   0.6358   0.6406   0.6448   0.6480   0.6546   0.6575
  0.6655   0.6713   0.6883   0.6935   0.7018   0.7052   0.7082   0.7106
  0.7250   0.7278   0.7307   0.7386   0.7499   0.7555   0.7577   0.7611
  0.7662   0.7744   0.7766   0.7860   0.7932   0.8016   0.8048   0.8108
  0.8127   0.8271   0.8320   0.8387   0.8409   0.8443   0.8487   0.8550
  0.8575   0.8624   0.8674   0.8734   0.8843   0.8901   0.8975   0.9012
  0.9029   0.9120   0.9168   0.9254   0.9306   0.9320   0.9408   0.9452
  0.9463   0.9565   0.9602   0.9651   0.9692   0.9776   0.9801   0.9828
  0.9908   0.9963   1.0007   1.0042   1.0080   1.0114   1.0229   1.0269
  1.0280   1.0328   1.0385   1.0516   1.0575   1.0638   1.0703   1.0705
  1.0772   1.0801   1.0848   1.0860   1.0881   1.0973   1.0986   1.1107
  1.1165   1.1255   1.1335   1.1404   1.1453   1.1489   1.1536   1.1551
  1.1568   1.1630   1.1679   1.1743   1.1771   1.1848   1.1863   1.1950
  1.2009   1.2081   1.2121   1.2158   1.2233   1.2306   1.2354   1.2369
  1.2391   1.2498   1.2539   1.2576   1.2620   1.2708   1.2871   1.2960
  1.3013   1.3249   1.3286   1.3372   1.3384   1.3445   1.3448   1.3563
  1.3637   1.3730   1.3788   1.3809   1.3862   1.3942   1.3994   1.4148
  1.4217   1.4295   1.4329   1.4420   1.4488   1.4493   1.4640   1.4693
  1.4772   1.4847   1.4863   1.4939   1.5001   1.5094   1.5127   1.5151
  1.5242   1.5285   1.5372   1.5423   1.5533   1.5550   1.5590   1.5628
  1.5676   1.5768   1.5810   1.5888   1.5989   1.6062   1.6169   1.6296
  1.6338   1.6405   1.6526   1.6587   1.6634   1.6743   1.6787   1.6879
  1.6949   1.7020   1.7114   1.7198   1.7315   1.7342   1.7449   1.7480
  1.7534   1.7588   1.7685   1.7698   1.7847   1.7932   1.8051   1.8106
  1.8120   1.8289   1.8344   1.8472   1.8492   1.8557   1.8606   1.8637
  1.8685   1.8760   1.8894   1.9065   1.9120   1.9166   1.9306   1.9458
  1.9623   1.9659   1.9708   1.9759   1.9780   1.9959   2.0129   2.0295
  2.0389   2.0546   2.0626   2.0769   2.0841   2.1101   2.1189   2.1273
  2.1434   2.1521   2.1580   2.1626   2.1888   2.2050   2.2119   2.2200
  2.2324   2.2351   2.2556   2.2745   2.2833   2.2865   2.2918   2.2960
  2.3063   2.3177   2.3263   2.3376   2.3518   2.3618   2.3680   2.3980
  2.4045   2.4194   2.4270   2.4347   2.4432   2.4528   2.4559   2.4585
  2.4718   2.4829   2.4907   2.4978   2.5112   2.5163   2.5211   2.5341
  2.5370   2.5621   2.5695   2.5827   2.5831   2.5850   2.6013   2.6035
  2.6132   2.6149   2.6193   2.6290   2.6492   2.6574   2.6631   2.6656
  2.6769   2.6807   2.6869   2.6925   2.7096   2.7114   2.7133   2.7217
  2.7341   2.7353   2.7453   2.7520   2.7579   2.7650   2.7721   2.7844
  2.7911   2.8163   2.8268   2.8294   2.8360   2.8402   2.8453   2.8538
  2.8600   2.8616   2.8678   2.8809   2.8876   2.8910   2.9040   2.9050
  2.9147   2.9223   2.9265   2.9306   2.9471   2.9537   2.9587   2.9719
  2.9729   2.9781   2.9870   2.9929   3.0000   3.0019   3.0115   3.0146
  3.0247   3.0290   3.0357   3.0426   3.0468   3.0603   3.0709   3.0773
  3.0882   3.0904   3.0918   3.1009   3.1073   3.1127   3.1190   3.1253
  3.1267   3.1425   3.1471   3.1547   3.1569   3.1705   3.1707   3.1782
  3.1859   3.1981   3.2000   3.2056   3.2102   3.2137   3.2147   3.2212
  3.2263   3.2286   3.2317   3.2410   3.2462   3.2509   3.2534   3.2608
  3.2670   3.2699   3.2785   3.2844   3.2862   3.2900   3.2928   3.2971
  3.3009   3.3052   3.3147   3.3166   3.3217   3.3289   3.3337   3.3353
  3.3402   3.3420   3.3452   3.3524   3.3555   3.3619   3.3701   3.3719
  3.3726   3.3791   3.3818   3.3882   3.3977   3.4008   3.4052   3.4161
  3.4263   3.4280   3.4303   3.4339   3.4384   3.4463   3.4502   3.4545
  3.4564   3.4612   3.4690   3.4710   3.4773   3.4804   3.4901   3.4946
  3.4973   3.4991   3.5044   3.5068   3.5113   3.5205   3.5211   3.5303
  3.5338   3.5351   3.5442   3.5468   3.5556   3.5693   3.5706   3.5808
  3.5819   3.5912   3.5981   3.6023   3.6081   3.6121   3.6268   3.6294
  3.6323   3.6347   3.6370   3.6403   3.6524   3.6622   3.6744   3.6790
  3.6853   3.6913   3.6935   3.7030   3.7069   3.7151   3.7169   3.7211
  3.7239   3.7325   3.7358   3.7405   3.7462   3.7506   3.7551   3.7666
  3.7690   3.7758   3.7811   3.7824   3.7888   3.7929   3.7946   3.8022
  3.8048   3.8125   3.8216   3.8287   3.8368   3.8451   3.8529   3.8568
  3.8587   3.8660   3.8749   3.8810   3.8922   3.8998   3.9112   3.9128
  3.9285   3.9340   3.9410   3.9437   3.9478   3.9579   3.9596   3.9746
  3.9818   3.9955   3.9981   4.0047   4.0079   4.0209   4.0290   4.0405
  4.0506   4.0615   4.0669   4.0820   4.0861   4.0922   4.0969   4.1077
  4.1151   4.1228   4.1327   4.1416   4.1437   4.1536   4.1580   4.1741
  4.1802   4.1833   4.1916   4.1972   4.2027   4.2086   4.2137   4.2332
  4.2450   4.2524   4.2551   4.2632   4.2733   4.2750   4.2819   4.2888
  4.2903   4.2952   4.2990   4.3024   4.3107   4.3248   4.3316   4.3331
  4.3433   4.3500   4.3616   4.3657   4.3664   4.3701   4.3740   4.3802
  4.3884   4.3946   4.4009   4.4019   4.4126   4.4182   4.4260   4.4299
  4.4464   4.4638   4.4678   4.4762   4.4949   4.5067   4.5148   4.5166
  4.5221   4.5281   4.5332   4.5390   4.5404   4.5518   4.5626   4.5668
  4.5753   4.5818   4.5832   4.5879   4.6048   4.6132   4.6288   4.6336
  4.6383   4.6496   4.6662   4.6677   4.6701   4.6725   4.6858   4.6918
  4.7120   4.7215   4.7317   4.7362   4.7490   4.7665   4.7778   4.7888
  4.8214   4.8257   4.8316   4.8462   4.8486   4.8527   4.8645   4.8777
  4.8816   4.8950   4.9050   4.9281   4.9358   4.9608   4.9720   4.9773
  4.9892   4.9906   5.0161   5.0349   5.0393   5.0460   5.0500   5.0584
  5.0971   5.1020   5.1070   5.1119   5.1242   5.1271   5.1403   5.1484
  5.1663   5.1791   5.1865   5.1907   5.2055   5.2190   5.2345   5.2557
  5.2602   5.2698   5.2785   5.2933   5.3209   5.3269   5.3327   5.3370
  5.3426   5.3859   5.3952   5.4015   5.4178   5.4291   5.4344   5.4576
  5.4884   5.5042   5.5070   5.5083   5.5122   5.5198   5.5460   5.5544
  5.5570   5.5598   5.5728   5.5771   5.5814   5.5894   5.6027   5.6098
  5.6240   5.6311   5.6446   5.6518   5.6536   5.6747   5.6762   5.6869
  5.6924   5.7010   5.7241   5.7361   5.7482   5.7576   5.7628   5.7680
  5.7722   5.7754   5.8110   5.8179   5.8394   5.8538   5.8831   5.9201
  5.9422   5.9542   5.9989   6.0113   6.0210   6.0233   6.0281   6.0493
  6.0859   6.0998   6.1013   6.1128   6.1156   6.1588   6.1908   6.2063
  6.2170   6.2177   6.2202   6.2514   6.2615   6.2664   6.2982   6.3388
  6.3496   6.3919   6.4336   6.4429   6.4653   6.5208   6.5615   6.5679
  6.5867   6.5964   6.6434   6.6468   6.6581   6.6703   6.7022   6.8272
  6.8303   6.8769   6.8855   6.8920   6.9106   6.9205   6.9211   7.0766
  7.0953   7.1370   7.1813   7.1861   7.2260   7.3320   7.3394   7.3437
  7.3493   7.4650   7.5420   7.5558   7.5702   7.5722   7.5837   7.6324
  7.6607   7.6783   7.7197   8.3142   9.8842  10.2623  11.1181  11.2842
 11.6398  11.7162  11.9431  12.3554  12.4481  12.7256  12.8500  12.8997
 13.2526  13.5563  13.8038  13.9267  14.0035  14.1204  14.1846  14.3405
 14.4040  14.7192  15.3091  15.7150  15.9856
 --------------------------------------------------------------
 
          Ground-State Mulliken Net Atomic Charges

     Atom                 Charge (a.u.)
  ----------------------------------------
      1 C                    -0.128603
      2 C                    -0.107524
      3 C                    -0.044565
      4 C                     0.000023
      5 H                     0.189137
      6 C                    -0.001846
      7 C                     0.072477
      8 C                     0.002466
      9 C                    -0.008032
     10 C                    -0.114078
     11 C                     0.047539
     12 H                     0.182289
     13 C                     0.361132
     14 C                     0.369343
     15 N                    -0.102010
     16 C                     0.359831
     17 C                     0.357798
     18 N                    -0.097850
     19 O                    -0.464784
     20 O                    -0.476307
     21 O                    -0.479125
     22 O                    -0.457490
     23 C                    -0.200939
     24 H                     0.141080
     25 H                     0.112413
     26 H                     0.112643
     27 C                    -0.195720
     28 H                     0.133893
     29 H                     0.113716
     30 H                     0.113160
     31 H                     0.214914
     32 C                    -0.037964
     33 S                     0.031946
     34 C                    -0.212846
     35 C                    -0.174854
     36 C                    -0.201961
     37 H                     0.188724
     38 H                     0.191205
     39 H                     0.210769
  ----------------------------------------
  Sum of atomic charges =     0.000000

 -----------------------------------------------------------------
                    Cartesian Multipole Moments
 -----------------------------------------------------------------
    Charge (ESU x 10^10)
                 0.0000
    Dipole Moment (Debye)
         X       0.1102      Y       0.5627      Z      -0.9345
       Tot       1.0964
    Quadrupole Moments (Debye-Ang)
        XX    -184.2160     XY      -1.2980     YY    -163.0978
        XZ       0.0374     YZ       0.6212     ZZ    -157.5532
    Octopole Moments (Debye-Ang^2)
       XXX     -54.6840    XXY     542.5151    XYY      -6.8500
       YYY    1574.8334    XXZ     -17.0458    XYZ       0.0606
       YYZ      -8.9189    XZZ     -16.2016    YZZ     477.5332
       ZZZ     -54.0249
    Hexadecapole Moments (Debye-Ang^3)
      XXXX   -6180.1141   XXXY       1.2987   XXYY   -4241.7115
      XYYY    -806.0054   YYYY  -17041.0485   XXXZ      -0.1336
      XXYZ     -19.8320   XYYZ      -1.1616   YYYZ     -35.4218
      XXZZ   -1063.5010   XYZZ    -118.8895   YYZZ   -2694.9710
      XZZZ      -0.5534   YZZZ     -45.7725   ZZZZ    -459.9965
 -----------------------------------------------------------------
 Total job time:  251.70s(wall), 7747.77s(cpu) 
 Wed Sep 20 08:44:32 2023

        *************************************************************
        *                                                           *
        *  Thank you very much for using Q-Chem.  Have a nice day.  *
        *                                                           *
        *************************************************************


0 sent ACK to 0 
now end server 0 ... 
cleanup process ... done
remove work dirs ./qchem665986.0 -- ./qchem665986.0
rm -rf ./qchem665986.0
rm -rf ./qchem665986
