You are running Q-Chem version: 5.4.0

#
# job setting
#
local host:  exp-2-22
current dir: /expanse/lustre/projects/csd626/rramji/aromodel/PNDIT/Rotation_Test
input file:  Dimethyl_Naphthalene_Dicarboximide_Phi_25_Theta_280_Thiophene.qcin
output file: 
nprocs     : 1
nthreads   : 64
#
# qchem installation setting
#
QC:          /cm/shared/apps/spack/cpu/opt/spack/linux-centos8-zen2/gcc-10.2.0/qchem-5.4-akfmr7b3t57bfs6qan3padb2wnb2i7cl
QCAUX:       /cm/shared/apps/spack/cpu/opt/spack/linux-centos8-zen2/gcc-10.2.0/qchem-5.4-akfmr7b3t57bfs6qan3padb2wnb2i7cl/qcaux
QCPROG:      /cm/shared/apps/spack/cpu/opt/spack/linux-centos8-zen2/gcc-10.2.0/qchem-5.4-akfmr7b3t57bfs6qan3padb2wnb2i7cl/exe/qcprog.exe
QCPROG_S:    /cm/shared/apps/spack/cpu/opt/spack/linux-centos8-zen2/gcc-10.2.0/qchem-5.4-akfmr7b3t57bfs6qan3padb2wnb2i7cl/exe/qcprog.exe_s
PARALLEL:    -DPARALLEL
QCMPI:       mpich
#
# qchem directory setting
#
qcrun:       qchem2408830
QCSCRATCH:   .
QCLOCALSCR:  
QCTMPDIR:    .
QCFILEPREF:  ./qchem2408830
QCSAVEDIR:   
workdirs:    ./qchem2408830
workdir0:    ./qchem2408830
partmpdirs =  
#
# parallel setting
#
QCRSH:           ssh
QCMPI:           mpich
QCMPIRUN:        /cm/shared/apps/spack/cpu/opt/spack/linux-centos8-zen2/gcc-10.2.0/qchem-5.4-akfmr7b3t57bfs6qan3padb2wnb2i7cl/bin/mpi/mpirun_qchem
QCMACHINEFILE:   ./qchem2408830/hostfile
exp-2-22

#
# env setting
#
exported envs:   QC QCAUX QCSCRATCH QCRUNNAME QCFILEPREF QCPROG QCPROG_S GUIFILE

Running Job 1 of 1 Dimethyl_Naphthalene_Dicarboximide_Phi_25_Theta_280_Thiophene.qcin
qchem Dimethyl_Naphthalene_Dicarboximide_Phi_25_Theta_280_Thiophene.qcin_2408830.0 ./qchem2408830/ 1
/cm/shared/apps/spack/cpu/opt/spack/linux-centos8-zen2/gcc-10.2.0/qchem-5.4-akfmr7b3t57bfs6qan3padb2wnb2i7cl/bin/mpi/mpirun_qchem -machinefile ./qchem2408830/hostfile -np 1 /cm/shared/apps/spack/cpu/opt/spack/linux-centos8-zen2/gcc-10.2.0/qchem-5.4-akfmr7b3t57bfs6qan3padb2wnb2i7cl/exe/qcprog.exe Dimethyl_Naphthalene_Dicarboximide_Phi_25_Theta_280_Thiophene.qcin_2408830.0 ./qchem2408830/

Process 0 of 1 is on exp-2-22 - thread support 0
initial socket setup ...start
initial socket setup ...done 
now start server 0 ... 
                  Welcome to Q-Chem
     A Quantum Leap Into The Future Of Chemistry


 Q-Chem 5.4, Q-Chem, Inc., Pleasanton, CA (2021)

 License issued to: University of California, San Diego (site)

 E. Epifanovsky,  A. T. B. Gilbert,  Xintian Feng,  Joonho Lee,  Yuezhi Mao,  
 N. Mardirossian,  P. Pokhilko,  A. White,  M. Wormit,  M. P. Coons,  
 A. L. Dempwolff,  Zhengting Gan,  D. Hait,  P. R. Horn,  L. D. Jacobson,  
 I. Kaliman,  J. Kussmann,  A. W. Lange,  Ka Un Lao,  D. S. Levine,  Jie Liu,  
 S. C. McKenzie,  A. F. Morrison,  K. Nanda,  F. Plasser,  D. R. Rehn,  
 M. L. Vidal,  Zhi-Qiang You,  Ying Zhu,  B. Alam,  B. Albrecht,  
 A. Aldossary,  E. Alguire,  J. H. Andersen,  D. Barton,  K. Begam,  A. Behn,  
 Y. A. Bernard,  E. J. Berquist,  H. Burton,  A. Carreras,  K. Carter-Fenk,  
 R. Chakraborty,  A. D. Chien,  K. D. Closser,  V. Cofer-Shabica,  
 S. Dasgupta,  Jia Deng,  M. de Wergifosse,  M. Diedenhofen,  Hainam Do,  
 S. Ehlert,  Po-Tung Fang,  S. Fatehi,  Qingguo Feng,  J. Gayvert,  
 Qinghui Ge,  G. Gidofalvi,  M. Goldey,  J. Gomes,  C. Gonzalez-Espinoza,  
 S. Gulania,  A. Gunina,  M. W. D. Hanson-Heine,  P. H. P. Harbach,  
 A. W. Hauser,  M. F. Herbst,  M. Hernandez Vera,  M. Hodecker,  
 Z. C. Holden,  S. Houck,  Xunkun Huang,  Kerwin Hui,  B. C. Huynh,  
 M. Ivanov,  Hyunjun Ji,  Hanjie Jiang,  B. Kaduk,  S. Kaehler,  
 K. Khistyaev,  Jaehoon Kim,  P. Klunzinger,  Z. Koczor-Benda,  
 Joong Hoon Koh,  D. Kosenkov,  L. Koulias,  T. Kowalczyk,  C. M. Krauter,  
 K. Kue,  A. Kunitsa,  T. Kus,  A. Landau,  K. V. Lawler,  D. Lefrancois,  
 S. Lehtola,  Rain Li,  Yi-Pei Li,  Jiashu Liang,  M. Liebenthal,  
 Hung-Hsuan Lin,  You-Sheng Lin,  Fenglai Liu,  Kuan-Yu Liu,  
 M. Loipersberger,  A. Luenser,  A. Manjanath,  P. Manohar,  E. Mansoor,  
 S. F. Manzer,  Shan-Ping Mao,  A. V. Marenich,  T. Markovich,  S. Mason,  
 S. A. Maurer,  P. F. McLaughlin,  M. F. S. J. Menger,  J.-M. Mewes,  
 S. A. Mewes,  P. Morgante,  J. W. Mullinax,  T. S. Nguyen-Beck,  
 K. J. Oosterbaan,  G. Paran,  Alexander C. Paul,  Suranjan K. Paul,  
 F. Pavosevic,  Zheng Pei,  S. Prager,  E. I. Proynov,  E. Ramos,  B. Rana,  
 A. E. Rask,  A. Rettig,  R. M. Richard,  F. Rob,  E. Rossomme,  T. Scheele,  
 M. Scheurer,  M. Schneider,  N. Sergueev,  S. M. Sharada,  W. Skomorowski,  
 D. W. Small,  C. J. Stein,  Yu-Chuan Su,  E. J. Sundstrom,  Zhen Tao,  
 J. Thirman,  T. Tsuchimochi,  N. M. Tubman,  S. P. Veccham,  O. Vydrov,  
 J. Wenzel,  J. Witte,  A. Yamada,  Kun Yao,  S. Yeganeh,  S. R. Yost,  
 A. Zech,  Igor Ying Zhang,  Xing Zhang,  Yu Zhang,  D. Zuev,  
 A. Aspuru-Guzik,  A. T. Bell,  N. A. Besley,  K. B. Bravaya,  B. R. Brooks,  
 D. Casanova,  Jeng-Da Chai,  S. Coriani,  C. J. Cramer,  
 A. E. DePrince, III,  R. A. DiStasio Jr.,  A. Dreuw,  B. D. Dunietz,  
 T. R. Furlani,  W. A. Goddard III,  S. Grimme,  S. Hammes-Schiffer,  
 T. Head-Gordon,  W. J. Hehre,  Chao-Ping Hsu,  T.-C. Jagau,  Yousung Jung,  
 A. Klamt,  Jing Kong,  D. S. Lambrecht,  WanZhen Liang,  N. J. Mayhall,  
 C. W. McCurdy,  J. B. Neaton,  C. Ochsenfeld,  J. A. Parkhill,  R. Peverati,  
 V. A. Rassolov,  Yihan Shao,  L. V. Slipchenko,  T. Stauch,  R. P. Steele,  
 J. E. Subotnik,  A. J. W. Thom,  A. Tkatchenko,  D. G. Truhlar,  
 T. Van Voorhis,  T. A. Wesolowski,  K. B. Whaley,  H. L. Woodcock III,  
 P. M. Zimmerman,  S. Faraji,  P. M. W. Gill,  M. Head-Gordon,  
 J. M. Herbert,  A. I. Krylov

 Contributors to earlier versions of Q-Chem not listed above: 
 R. D. Adamson,  B. Austin,  R. Baer,  J. Baker,  G. J. O. Beran,  
 K. Brandhorst,  S. T. Brown,  E. F. C. Byrd,  A. K. Chakraborty,  
 G. K. L. Chan,  Chun-Min Chang,  Yunqing Chen,  C.-L. Cheng,  
 Siu Hung Chien,  D. M. Chipman,  D. L. Crittenden,  H. Dachsel,  
 R. J. Doerksen,  A. D. Dutoi,  R. G. Edgar,  J. Fosso-Tande,  
 L. Fusti-Molnar,  D. Ghosh,  A. Ghysels,  A. Golubeva-Zadorozhnaya,  
 J. Gonthier,  M. S. Gordon,  S. R. Gwaltney,  G. Hawkins,  J. E. Herr,  
 A. Heyden,  S. Hirata,  E. G. Hohenstein,  G. Kedziora,  F. J. Keil,  
 C. Kelley,  Jihan Kim,  R. A. King,  R. Z. Khaliullin,  P. P. Korambath,  
 W. Kurlancheek,  A. Laurent,  A. M. Lee,  M. S. Lee,  S. V. Levchenko,  
 Ching Yeh Lin,  D. Liotard,  E. Livshits,  R. C. Lochan,  I. Lotan,  
 L. A. Martinez-Martinez,  P. E. Maslen,  N. Nair,  D. P. O'Neill,  
 D. Neuhauser,  E. Neuscamman,  C. M. Oana,  R. Olivares-Amaya,  R. Olson,  
 T. M. Perrine,  B. Peters,  P. A. Pieniazek,  A. Prociuk,  Y. M. Rhee,  
 J. Ritchie,  M. A. Rohrdanz,  E. Rosta,  N. J. Russ,  H. F. Schaefer III,  
 M. W. Schmidt,  N. E. Schultz,  S. Sharma,  N. Shenvi,  C. D. Sherrill,  
 A. C. Simmonett,  A. Sodt,  T. Stein,  D. Stuck,  K. S. Thanthiriwatte,  
 V. Vanovschi,  L. Vogt,  Tao Wang,  A. Warshel,  M. A. Watson,  
 C. F. Williams,  Q. Wu,  X. Xu,  Jun Yang,  W. Zhang,  Yan Zhao

 Please cite Q-Chem as follows:
 Y. Shao et al., Mol. Phys. 113, 184-215 (2015)
 DOI: 10.1080/00268976.2014.952696

 Q-Chem 5.4.0 for Intel X86 EM64T Linux

 Parts of Q-Chem use Armadillo 9.800.1 (Horizon Scraper).
 http://arma.sourceforge.net/

 Q-Chem begins on Sun Sep 24 17:10:09 2023  

 Host: 
0

     Scratch files written to ./qchem2408830//
 May1621 |scratch|qcdevops|jenkins|workspace|build_RNUM    
 Parallel job on  1  processors
 Processing $rem in /cm/shared/apps/spack/cpu/opt/spack/linux-centos8-zen2/gcc-10.2.0/qchem-5.4-akfmr7b3t57bfs6qan3padb2wnb2i7cl/config/preferences:
 Processing $rem in /home/rramji/.qchemrc:
 Symmetry turned off for PCM/SM12/SMD calculation
 Core orbitals will be frozen

 Checking the input file for inconsistencies... 	...done.

 Q-Chem warning in module forms1/BasisType.C, line 2236:

 You are not using the predefined 5D/6D in this basis set.


--------------------------------------------------------------
User input:
--------------------------------------------------------------
$molecule
0 1
C	-0.253280	-6.741404	-0.043160
C	-1.539213	-6.155638	-0.269777
C	0.814295	-5.791452	0.145543
C	-1.813519	-4.803786	-0.318377
H	-2.403941	-6.821518	-0.422058
C	0.527140	-4.378638	0.094194
C	-0.783072	-3.838032	-0.137191
C	1.556403	-3.413062	0.275104
C	-1.067932	-2.426473	-0.188116
C	1.285420	-2.059348	0.226701
C	-0.000000	-1.478216	-0.000000
H	2.151147	-1.394783	0.378931
C	2.234582	-6.187987	0.397845
C	2.965273	-3.798164	0.523637
N	3.204744	-5.170003	0.567586
C	-3.226257	-4.424987	-0.567421
C	-2.489446	-2.036627	-0.439541
N	-3.459801	-3.049156	-0.609650
O	2.619468	-7.353131	0.468608
O	3.874668	-2.986854	0.683034
O	-4.124806	-5.248946	-0.725131
O	-2.895819	-0.878829	-0.512648
C	4.595691	-5.563799	0.813908
H	4.640022	-6.664085	0.822891
H	4.934830	-5.147101	1.781600
H	5.246157	-5.148785	0.020360
C	-4.829716	-2.587487	-0.851649
H	-5.462742	-3.483329	-0.962191
H	-4.863242	-1.964972	-1.765865
H	-5.173521	-1.962932	-0.005383
H	-0.070208	-7.822318	-0.010555
C	0.000000	0.000000	0.000000
S	0.335026	0.718942	1.580530
C	1.027130	2.203226	0.904911
C	0.421617	0.904557	-0.985400
C	0.979485	2.101144	-0.493528
H	0.322049	0.690978	-2.059934
H	1.351718	2.899571	-1.152593
H	1.399246	3.001430	1.556025
$end

$rem
JOBTYPE		SP
EXCHANGE	HF
CORRELATION	pRIMP2
BASIS		cc-pvtz
METHOD		rimp2
AUX_BASIS	rimp2-cc-pvtz
SOLVENT_METHOD	PCM
PURECART	11111
SYMMETRY	false
MEM_TOTAL	110000
SCF_CONVERGENCE = 6
THRESH=10
GUI = 2
$end



$solvent
dielectric 4.90
$end
--------------------------------------------------------------
 ----------------------------------------------------------------
             Standard Nuclear Orientation (Angstroms)
    I     Atom           X                Y                Z
 ----------------------------------------------------------------
    1      C      -0.2532800000    -6.7414040000    -0.0431600000
    2      C      -1.5392130000    -6.1556380000    -0.2697770000
    3      C       0.8142950000    -5.7914520000     0.1455430000
    4      C      -1.8135190000    -4.8037860000    -0.3183770000
    5      H      -2.4039410000    -6.8215180000    -0.4220580000
    6      C       0.5271400000    -4.3786380000     0.0941940000
    7      C      -0.7830720000    -3.8380320000    -0.1371910000
    8      C       1.5564030000    -3.4130620000     0.2751040000
    9      C      -1.0679320000    -2.4264730000    -0.1881160000
   10      C       1.2854200000    -2.0593480000     0.2267010000
   11      C       0.0000000000    -1.4782160000     0.0000000000
   12      H       2.1511470000    -1.3947830000     0.3789310000
   13      C       2.2345820000    -6.1879870000     0.3978450000
   14      C       2.9652730000    -3.7981640000     0.5236370000
   15      N       3.2047440000    -5.1700030000     0.5675860000
   16      C      -3.2262570000    -4.4249870000    -0.5674210000
   17      C      -2.4894460000    -2.0366270000    -0.4395410000
   18      N      -3.4598010000    -3.0491560000    -0.6096500000
   19      O       2.6194680000    -7.3531310000     0.4686080000
   20      O       3.8746680000    -2.9868540000     0.6830340000
   21      O      -4.1248060000    -5.2489460000    -0.7251310000
   22      O      -2.8958190000    -0.8788290000    -0.5126480000
   23      C       4.5956910000    -5.5637990000     0.8139080000
   24      H       4.6400220000    -6.6640850000     0.8228910000
   25      H       4.9348300000    -5.1471010000     1.7816000000
   26      H       5.2461570000    -5.1487850000     0.0203600000
   27      C      -4.8297160000    -2.5874870000    -0.8516490000
   28      H      -5.4627420000    -3.4833290000    -0.9621910000
   29      H      -4.8632420000    -1.9649720000    -1.7658650000
   30      H      -5.1735210000    -1.9629320000    -0.0053830000
   31      H      -0.0702080000    -7.8223180000    -0.0105550000
   32      C       0.0000000000     0.0000000000     0.0000000000
   33      S       0.3350260000     0.7189420000     1.5805300000
   34      C       1.0271300000     2.2032260000     0.9049110000
   35      C       0.4216170000     0.9045570000    -0.9854000000
   36      C       0.9794850000     2.1011440000    -0.4935280000
   37      H       0.3220490000     0.6909780000    -2.0599340000
   38      H       1.3517180000     2.8995710000    -1.1525930000
   39      H       1.3992460000     3.0014300000     1.5560250000
 ----------------------------------------------------------------
 Nuclear Repulsion Energy =        2493.37285275 hartrees
 There are       97 alpha and       97 beta electrons
 Requested basis set is cc-pVTZ
 There are 344 shells and 982 basis functions

 Total QAlloc Memory Limit 110000 MB
 Mega-Array Size       188 MB
 MEM_STATIC part       192 MB
 Discretize the solute cavity surface with Lebedev spheres
	Using 110 Lebedev grid points for each H atom
	Using 194 Lebedev grid points for other atoms
	Atomic van der Waals radii will be scaled by 1.20
 Remove points where switching function is < 1.0e-08
 Keep 2596 surface tesserae and discard 3962 interior tesserae
 Molecular Surface Area = 370.170 Angst**2
 Requested basis set is rimp2-cc-pVTZ
 There are 750 shells and 2588 basis functions
 A cutoff of  1.0D-10 yielded  31468 shell pairs
 There are    242054 function pairs (    314472 Cartesian)
 Smallest overlap matrix eigenvalue = 9.23E-06

 Q-Chem warning in module stvman/mkSTV.C, line 323:

 Overlap eigenvalue is smaller than square root of threshold
 Use THRESH >= 12 to get rid of this warning


 Scale SEOQF with 1.000000e-02/1.000000e-02/1.000000e-01

 Standard Electronic Orientation quadrupole field applied
 Nucleus-field energy     =     0.0000000162 hartrees
 Guess from superposition of atomic densities
 Warning:  Energy on first SCF cycle will be non-variational
 SAD guess density has 194.000000 electrons

 -----------------------------------------------------------------------
  General SCF calculation program by
  Eric Jon Sundstrom, Paul Horn, Yuezhi Mao, Dmitri Zuev, Alec White,
  David Stuck, Shaama M.S., Shane Yost, Joonho Lee, David Small,
  Daniel Levine, Susi Lehtola, Hugh Burton, Evgeny Epifanovsky,
  Bang C. Huynh
 -----------------------------------------------------------------------
 Hartree-Fock
 using 64 threads for integral computing
 -------------------------------------------------------
 OpenMP Integral computing Module                
 Release: version 1.0, May 2013, Q-Chem Inc. Pittsburgh 
 -------------------------------------------------------
 A restricted SCF calculation will be
 performed using DIIS
 SCF converges when DIIS error is below 1.0e-06
 ---------------------------------------
  Cycle       Energy         DIIS error
 ---------------------------------------
    1   -1581.2909217680      1.87e-02  
    2   -1570.1110390904      2.09e-03  
    3   -1570.4377785890      1.63e-03  
    4   -1570.6687521417      2.57e-04  
    5   -1570.6807390915      7.53e-05  
    6   -1570.6817775080      2.80e-05  
    7   -1570.6820093750      1.43e-05  
    8   -1570.6820833359      5.95e-06  
    9   -1570.6820949390      2.29e-06  
   10   -1570.6820969000      7.30e-07  Convergence criterion met
 ---------------------------------------
 SCF time:   CPU 5965.07s  wall 223.00s 

************** Final PCM Free Energy Summary **************
 G_electrostatic  =      -0.02522912 hartree =     -15.83151287 kcal/mol
 G_cavitation     =       0.00000000 hartree =       0.00000000 kcal/mol
 G_dispersion     =       0.00000000 hartree =       0.00000000 kcal/mol
 G_repulsion      =       0.00000000 hartree =       0.00000000 kcal/mol
 --------------------------------------------------
 Non-electrostatic Free Energy =       0.00000000 hartree =       0.00000000 kcal/mol
 Total                         =      -0.02522912 hartree =     -15.83151287 kcal/mol
 --------------------------------------------------
 SCF Energy (H0 + V/2)                       =   -1570.68209690 
 Solute Internal Energy (H0)                 =   -1570.65686778 
 Total Free Energy (H0 + V/2 + non-elec)     =   -1570.68209690 hartree
                                             = -985617.89173491 kcal/mol
***********************************************************

 SCF   energy in the final basis set =    -1570.6820969000
 Total energy in the final basis set =    -1570.6820969000


 --------------------------------------------------------------
  Generalized many-body perturbation theory program
  by Joonho Lee, Fazle Rob, Xintian Feng, Evgeny Epifanovsky

 No regularization used 
 (reg. param. = 0.0000e+00)
  (P|Q)^-1/2 Time:  CPU 166.54 s  wall 2.81 s

 In RI-MP2 calculation: 
 # of frozen core orbitals: 31

 Components of the RIMP2 correlation energy:
        aaaa    correlation energy =        -0.6163240554 a.u.
        abab    correlation energy =        -3.3929025950 a.u.
        bbbb    correlation energy =        -0.6163240554 a.u.
        non-Brillouin singles      =        -0.0000000000 a.u.
        total same-spin energy     =        -1.2326481108 a.u.
        total opposite-spin energy =        -3.3929025950 a.u.

 Total  RIMP2   correlation energy =        -4.6255507058 a.u.
        RIMP2         total energy =     -1575.3076476059 a.u.

 RI-MP2 Energy Time:  CPU 1949.29 s  wall 32.10 s
 
 --------------------------------------------------------------
 
                    Orbital Energies (a.u.)
 --------------------------------------------------------------
 
 Alpha MOs
 -- Occupied --
-91.9927 -20.5586 -20.5576 -20.5560 -20.5557 -15.6314 -15.6313 -11.4002
-11.3975 -11.3932 -11.3906 -11.3163 -11.3063 -11.3029 -11.3006 -11.2991
-11.2987 -11.2920 -11.2869 -11.2858 -11.2838 -11.2804 -11.2791 -11.2648
-11.2646 -11.2577 -11.2514  -8.9921  -6.6729  -6.6724  -6.6718  -1.4249
 -1.4246  -1.4042  -1.4037  -1.2678  -1.2656  -1.2182  -1.1777  -1.1441
 -1.1179  -1.0635  -1.0503  -0.9932  -0.9906  -0.9848  -0.9594  -0.9481
 -0.8977  -0.8796  -0.8780  -0.8606  -0.7959  -0.7777  -0.7734  -0.7605
 -0.7376  -0.7189  -0.7058  -0.6951  -0.6815  -0.6737  -0.6666  -0.6625
 -0.6572  -0.6425  -0.6380  -0.6343  -0.6303  -0.6129  -0.5856  -0.5846
 -0.5783  -0.5739  -0.5672  -0.5643  -0.5619  -0.5553  -0.5531  -0.5485
 -0.5371  -0.5272  -0.5213  -0.5112  -0.4838  -0.4716  -0.4673  -0.4616
 -0.4607  -0.4538  -0.4284  -0.4184  -0.4089  -0.3630  -0.3444  -0.3341
 -0.3240
 -- Virtual --
 -0.0186   0.0646   0.0733   0.0880   0.1132   0.1549   0.1582   0.1585
  0.1652   0.1677   0.1760   0.1832   0.1872   0.1911   0.2020   0.2061
  0.2087   0.2237   0.2276   0.2295   0.2301   0.2379   0.2581   0.2611
  0.2635   0.2978   0.3092   0.3124   0.3147   0.3190   0.3257   0.3320
  0.3413   0.3438   0.3500   0.3580   0.3596   0.3618   0.3673   0.3737
  0.3759   0.3819   0.3885   0.3918   0.3959   0.4037   0.4050   0.4082
  0.4143   0.4244   0.4318   0.4373   0.4421   0.4435   0.4515   0.4539
  0.4551   0.4618   0.4651   0.4656   0.4725   0.4764   0.4817   0.4914
  0.4954   0.4985   0.5013   0.5093   0.5167   0.5215   0.5286   0.5309
  0.5338   0.5432   0.5456   0.5487   0.5522   0.5531   0.5634   0.5653
  0.5677   0.5717   0.5784   0.5822   0.5886   0.5936   0.5964   0.5982
  0.6004   0.6037   0.6109   0.6126   0.6222   0.6236   0.6281   0.6313
  0.6320   0.6344   0.6361   0.6379   0.6414   0.6506   0.6524   0.6609
  0.6646   0.6693   0.6885   0.6926   0.6982   0.7013   0.7098   0.7136
  0.7243   0.7274   0.7370   0.7393   0.7497   0.7556   0.7583   0.7663
  0.7685   0.7763   0.7855   0.7860   0.7904   0.7946   0.8050   0.8105
  0.8127   0.8226   0.8279   0.8382   0.8414   0.8475   0.8495   0.8584
  0.8615   0.8642   0.8694   0.8718   0.8819   0.8865   0.8945   0.9002
  0.9059   0.9143   0.9202   0.9258   0.9285   0.9319   0.9343   0.9439
  0.9487   0.9532   0.9597   0.9669   0.9742   0.9774   0.9789   0.9868
  0.9921   0.9946   1.0000   1.0033   1.0103   1.0113   1.0156   1.0271
  1.0328   1.0357   1.0400   1.0503   1.0562   1.0622   1.0671   1.0706
  1.0762   1.0807   1.0843   1.0876   1.0910   1.0937   1.1046   1.1102
  1.1199   1.1258   1.1338   1.1392   1.1403   1.1478   1.1536   1.1545
  1.1589   1.1664   1.1724   1.1735   1.1761   1.1839   1.1868   1.1942
  1.1977   1.2079   1.2116   1.2205   1.2219   1.2276   1.2328   1.2387
  1.2435   1.2509   1.2567   1.2583   1.2724   1.2737   1.2874   1.2918
  1.3043   1.3240   1.3296   1.3374   1.3411   1.3430   1.3464   1.3531
  1.3616   1.3704   1.3805   1.3832   1.3852   1.3928   1.4073   1.4118
  1.4200   1.4289   1.4347   1.4420   1.4469   1.4562   1.4646   1.4696
  1.4798   1.4856   1.4889   1.5010   1.5053   1.5111   1.5158   1.5198
  1.5240   1.5319   1.5397   1.5432   1.5517   1.5546   1.5555   1.5605
  1.5687   1.5741   1.5783   1.5881   1.6027   1.6093   1.6156   1.6242
  1.6348   1.6397   1.6435   1.6568   1.6652   1.6704   1.6832   1.6846
  1.6948   1.6987   1.7021   1.7140   1.7284   1.7344   1.7389   1.7456
  1.7506   1.7570   1.7684   1.7718   1.7841   1.7897   1.8057   1.8082
  1.8128   1.8245   1.8340   1.8371   1.8536   1.8547   1.8599   1.8644
  1.8684   1.8750   1.8961   1.9085   1.9143   1.9218   1.9292   1.9410
  1.9571   1.9683   1.9736   1.9757   1.9912   2.0024   2.0141   2.0303
  2.0333   2.0453   2.0573   2.0820   2.0846   2.1104   2.1182   2.1297
  2.1379   2.1431   2.1536   2.1733   2.1812   2.1954   2.2110   2.2190
  2.2297   2.2334   2.2560   2.2588   2.2832   2.2855   2.2929   2.2954
  2.3112   2.3200   2.3315   2.3365   2.3536   2.3574   2.3693   2.3847
  2.3931   2.4234   2.4298   2.4361   2.4502   2.4543   2.4567   2.4639
  2.4674   2.4742   2.4873   2.4956   2.4981   2.5158   2.5250   2.5359
  2.5488   2.5586   2.5775   2.5822   2.5873   2.5928   2.6020   2.6052
  2.6129   2.6149   2.6226   2.6373   2.6469   2.6636   2.6657   2.6708
  2.6736   2.6874   2.6915   2.6952   2.7086   2.7138   2.7155   2.7211
  2.7349   2.7440   2.7489   2.7531   2.7555   2.7648   2.7748   2.7895
  2.8098   2.8193   2.8268   2.8330   2.8349   2.8408   2.8455   2.8599
  2.8629   2.8669   2.8723   2.8781   2.8846   2.8904   2.8987   2.9039
  2.9117   2.9180   2.9275   2.9353   2.9421   2.9527   2.9554   2.9669
  2.9726   2.9801   2.9856   2.9979   3.0019   3.0042   3.0076   3.0150
  3.0199   3.0246   3.0371   3.0442   3.0518   3.0550   3.0624   3.0751
  3.0799   3.0897   3.0920   3.1005   3.1079   3.1126   3.1167   3.1186
  3.1260   3.1283   3.1395   3.1478   3.1600   3.1696   3.1727   3.1754
  3.1828   3.1975   3.2009   3.2056   3.2070   3.2121   3.2175   3.2204
  3.2230   3.2326   3.2331   3.2417   3.2472   3.2510   3.2595   3.2639
  3.2646   3.2735   3.2758   3.2821   3.2867   3.2890   3.2900   3.3021
  3.3067   3.3137   3.3170   3.3215   3.3277   3.3306   3.3335   3.3363
  3.3398   3.3433   3.3452   3.3487   3.3590   3.3599   3.3668   3.3708
  3.3763   3.3870   3.3891   3.3928   3.3983   3.4043   3.4135   3.4166
  3.4227   3.4288   3.4323   3.4359   3.4425   3.4466   3.4494   3.4509
  3.4534   3.4626   3.4659   3.4732   3.4773   3.4822   3.4850   3.4908
  3.4961   3.5001   3.5022   3.5073   3.5116   3.5188   3.5221   3.5258
  3.5342   3.5362   3.5470   3.5561   3.5667   3.5720   3.5764   3.5838
  3.5862   3.5928   3.6006   3.6092   3.6109   3.6193   3.6233   3.6266
  3.6306   3.6336   3.6406   3.6430   3.6542   3.6581   3.6749   3.6772
  3.6858   3.6962   3.7004   3.7051   3.7063   3.7083   3.7177   3.7260
  3.7276   3.7339   3.7352   3.7378   3.7489   3.7562   3.7586   3.7667
  3.7745   3.7787   3.7825   3.7871   3.7911   3.7937   3.7965   3.8010
  3.8068   3.8132   3.8225   3.8309   3.8336   3.8469   3.8560   3.8604
  3.8624   3.8700   3.8753   3.8817   3.8866   3.8991   3.9023   3.9196
  3.9265   3.9331   3.9392   3.9425   3.9462   3.9523   3.9610   3.9626
  3.9729   3.9849   3.9926   4.0097   4.0115   4.0151   4.0276   4.0333
  4.0536   4.0605   4.0664   4.0759   4.0839   4.0936   4.0972   4.1055
  4.1120   4.1245   4.1294   4.1373   4.1511   4.1548   4.1636   4.1745
  4.1836   4.1851   4.1857   4.1980   4.2037   4.2140   4.2244   4.2385
  4.2481   4.2560   4.2596   4.2644   4.2705   4.2777   4.2853   4.2917
  4.2930   4.2955   4.2994   4.3087   4.3164   4.3256   4.3290   4.3364
  4.3400   4.3511   4.3568   4.3640   4.3667   4.3680   4.3769   4.3787
  4.3854   4.3953   4.4005   4.4064   4.4100   4.4184   4.4238   4.4310
  4.4519   4.4641   4.4656   4.4759   4.4931   4.5061   4.5152   4.5168
  4.5229   4.5294   4.5321   4.5379   4.5444   4.5499   4.5632   4.5708
  4.5767   4.5815   4.5832   4.5892   4.6046   4.6125   4.6288   4.6305
  4.6449   4.6547   4.6647   4.6669   4.6699   4.6746   4.6835   4.6927
  4.7146   4.7321   4.7381   4.7446   4.7563   4.7568   4.7723   4.7951
  4.7994   4.8268   4.8340   4.8403   4.8458   4.8580   4.8648   4.8688
  4.8791   4.8919   4.9053   4.9077   4.9327   4.9532   4.9696   4.9855
  4.9860   5.0045   5.0214   5.0308   5.0415   5.0501   5.0587   5.0630
  5.0933   5.1011   5.1065   5.1091   5.1244   5.1268   5.1400   5.1484
  5.1629   5.1731   5.1766   5.1901   5.2044   5.2086   5.2304   5.2558
  5.2570   5.2770   5.2785   5.2930   5.3206   5.3268   5.3306   5.3407
  5.3449   5.3947   5.3964   5.4027   5.4130   5.4304   5.4407   5.4469
  5.4935   5.4973   5.5069   5.5086   5.5124   5.5297   5.5383   5.5470
  5.5545   5.5600   5.5634   5.5731   5.5773   5.5881   5.5979   5.6045
  5.6200   5.6322   5.6521   5.6539   5.6560   5.6730   5.6765   5.6878
  5.6969   5.6993   5.7302   5.7387   5.7541   5.7582   5.7612   5.7682
  5.7703   5.7750   5.8130   5.8218   5.8231   5.8596   5.8771   5.9145
  5.9396   5.9564   5.9857   5.9965   6.0212   6.0226   6.0283   6.0385
  6.0847   6.0894   6.1002   6.1126   6.1156   6.1502   6.1862   6.2055
  6.2172   6.2178   6.2204   6.2499   6.2608   6.2684   6.2976   6.3386
  6.3498   6.3844   6.4088   6.4428   6.4627   6.5219   6.5618   6.5679
  6.5849   6.5936   6.6224   6.6470   6.6502   6.6586   6.7043   6.8263
  6.8300   6.8776   6.8860   6.8927   6.9113   6.9206   6.9223   7.0766
  7.0955   7.1382   7.1811   7.1859   7.2259   7.3322   7.3395   7.3442
  7.3490   7.4648   7.5417   7.5555   7.5698   7.5726   7.5840   7.6329
  7.6608   7.6788   7.7197   8.2908   9.8249  10.2707  11.0934  11.2015
 11.6591  11.7384  11.9895  12.3572  12.4592  12.6938  12.8244  12.8717
 13.2849  13.5550  13.8028  13.9235  13.9885  14.0889  14.1887  14.3405
 14.4078  14.7238  15.2989  15.7280  16.0090
 --------------------------------------------------------------
 
          Ground-State Mulliken Net Atomic Charges

     Atom                 Charge (a.u.)
  ----------------------------------------
      1 C                    -0.130295
      2 C                    -0.109985
      3 C                    -0.043344
      4 C                     0.001247
      5 H                     0.188804
      6 C                     0.002954
      7 C                     0.074037
      8 C                    -0.006908
      9 C                    -0.010645
     10 C                    -0.087621
     11 C                    -0.002175
     12 H                     0.190451
     13 C                     0.360877
     14 C                     0.363412
     15 N                    -0.101601
     16 C                     0.359958
     17 C                     0.354969
     18 N                    -0.098624
     19 O                    -0.465036
     20 O                    -0.476539
     21 O                    -0.479388
     22 O                    -0.458526
     23 C                    -0.201175
     24 H                     0.141099
     25 H                     0.112490
     26 H                     0.112361
     27 C                    -0.195878
     28 H                     0.133677
     29 H                     0.113035
     30 H                     0.113631
     31 H                     0.214476
     32 C                     0.007848
     33 S                     0.028387
     34 C                    -0.209256
     35 C                    -0.197104
     36 C                    -0.191710
     37 H                     0.187784
     38 H                     0.192867
     39 H                     0.211444
  ----------------------------------------
  Sum of atomic charges =     0.000000

 -----------------------------------------------------------------
                    Cartesian Multipole Moments
 -----------------------------------------------------------------
    Charge (ESU x 10^10)
                 0.0000
    Dipole Moment (Debye)
         X       0.9038      Y       0.8096      Z      -0.9430
       Tot       1.5368
    Quadrupole Moments (Debye-Ang)
        XX    -181.7970     XY       5.5836     YY    -166.3451
        XZ      -3.1867     YZ       0.9373     ZZ    -157.9870
    Octopole Moments (Debye-Ang^2)
       XXX      -6.9582    XXY     553.6414    XYY       2.4393
       YYY    1588.1189    XXZ     -12.1283    XYZ      16.9896
       YYZ      -9.9440    XZZ       1.2452    YZZ     483.8750
       ZZZ     -46.4196
    Hexadecapole Moments (Debye-Ang^3)
      XXXX   -6095.0172   XXXY     -92.3795   XXYY   -4172.0490
      XYYY     732.6345   YYYY  -17056.6588   XXXZ    -558.2693
      XXYZ     -50.3773   XYYZ    -264.3208   YYYZ     116.8387
      XXZZ   -1081.1135   XYZZ      87.8288   YYZZ   -2734.3680
      XZZZ    -506.5205   YZZZ      24.0344   ZZZZ    -631.2499
 -----------------------------------------------------------------
 Total job time:  259.10s(wall), 8017.91s(cpu) 
 Sun Sep 24 17:14:28 2023

        *************************************************************
        *                                                           *
        *  Thank you very much for using Q-Chem.  Have a nice day.  *
        *                                                           *
        *************************************************************


0 sent ACK to 0 
now end server 0 ... 
cleanup process ... done
remove work dirs ./qchem2408830.0 -- ./qchem2408830.0
rm -rf ./qchem2408830.0
rm -rf ./qchem2408830
