You are running Q-Chem version: 5.4.0

#
# job setting
#
local host:  exp-2-22
current dir: /expanse/lustre/projects/csd626/rramji/aromodel/PNDIT/Rotation_Test
input file:  Dimethyl_Naphthalene_Dicarboximide_Phi_25_Theta_310_Thiophene.qcin
output file: 
nprocs     : 1
nthreads   : 64
#
# qchem installation setting
#
QC:          /cm/shared/apps/spack/cpu/opt/spack/linux-centos8-zen2/gcc-10.2.0/qchem-5.4-akfmr7b3t57bfs6qan3padb2wnb2i7cl
QCAUX:       /cm/shared/apps/spack/cpu/opt/spack/linux-centos8-zen2/gcc-10.2.0/qchem-5.4-akfmr7b3t57bfs6qan3padb2wnb2i7cl/qcaux
QCPROG:      /cm/shared/apps/spack/cpu/opt/spack/linux-centos8-zen2/gcc-10.2.0/qchem-5.4-akfmr7b3t57bfs6qan3padb2wnb2i7cl/exe/qcprog.exe
QCPROG_S:    /cm/shared/apps/spack/cpu/opt/spack/linux-centos8-zen2/gcc-10.2.0/qchem-5.4-akfmr7b3t57bfs6qan3padb2wnb2i7cl/exe/qcprog.exe_s
PARALLEL:    -DPARALLEL
QCMPI:       mpich
#
# qchem directory setting
#
qcrun:       qchem2411075
QCSCRATCH:   .
QCLOCALSCR:  
QCTMPDIR:    .
QCFILEPREF:  ./qchem2411075
QCSAVEDIR:   
workdirs:    ./qchem2411075
workdir0:    ./qchem2411075
partmpdirs =  
#
# parallel setting
#
QCRSH:           ssh
QCMPI:           mpich
QCMPIRUN:        /cm/shared/apps/spack/cpu/opt/spack/linux-centos8-zen2/gcc-10.2.0/qchem-5.4-akfmr7b3t57bfs6qan3padb2wnb2i7cl/bin/mpi/mpirun_qchem
QCMACHINEFILE:   ./qchem2411075/hostfile
exp-2-22

#
# env setting
#
exported envs:   QC QCAUX QCSCRATCH QCRUNNAME QCFILEPREF QCPROG QCPROG_S GUIFILE

Running Job 1 of 1 Dimethyl_Naphthalene_Dicarboximide_Phi_25_Theta_310_Thiophene.qcin
qchem Dimethyl_Naphthalene_Dicarboximide_Phi_25_Theta_310_Thiophene.qcin_2411075.0 ./qchem2411075/ 1
/cm/shared/apps/spack/cpu/opt/spack/linux-centos8-zen2/gcc-10.2.0/qchem-5.4-akfmr7b3t57bfs6qan3padb2wnb2i7cl/bin/mpi/mpirun_qchem -machinefile ./qchem2411075/hostfile -np 1 /cm/shared/apps/spack/cpu/opt/spack/linux-centos8-zen2/gcc-10.2.0/qchem-5.4-akfmr7b3t57bfs6qan3padb2wnb2i7cl/exe/qcprog.exe Dimethyl_Naphthalene_Dicarboximide_Phi_25_Theta_310_Thiophene.qcin_2411075.0 ./qchem2411075/

Process 0 of 1 is on exp-2-22 - thread support 0
initial socket setup ...start
initial socket setup ...done 
now start server 0 ... 
                  Welcome to Q-Chem
     A Quantum Leap Into The Future Of Chemistry


 Q-Chem 5.4, Q-Chem, Inc., Pleasanton, CA (2021)

 License issued to: University of California, San Diego (site)

 E. Epifanovsky,  A. T. B. Gilbert,  Xintian Feng,  Joonho Lee,  Yuezhi Mao,  
 N. Mardirossian,  P. Pokhilko,  A. White,  M. Wormit,  M. P. Coons,  
 A. L. Dempwolff,  Zhengting Gan,  D. Hait,  P. R. Horn,  L. D. Jacobson,  
 I. Kaliman,  J. Kussmann,  A. W. Lange,  Ka Un Lao,  D. S. Levine,  Jie Liu,  
 S. C. McKenzie,  A. F. Morrison,  K. Nanda,  F. Plasser,  D. R. Rehn,  
 M. L. Vidal,  Zhi-Qiang You,  Ying Zhu,  B. Alam,  B. Albrecht,  
 A. Aldossary,  E. Alguire,  J. H. Andersen,  D. Barton,  K. Begam,  A. Behn,  
 Y. A. Bernard,  E. J. Berquist,  H. Burton,  A. Carreras,  K. Carter-Fenk,  
 R. Chakraborty,  A. D. Chien,  K. D. Closser,  V. Cofer-Shabica,  
 S. Dasgupta,  Jia Deng,  M. de Wergifosse,  M. Diedenhofen,  Hainam Do,  
 S. Ehlert,  Po-Tung Fang,  S. Fatehi,  Qingguo Feng,  J. Gayvert,  
 Qinghui Ge,  G. Gidofalvi,  M. Goldey,  J. Gomes,  C. Gonzalez-Espinoza,  
 S. Gulania,  A. Gunina,  M. W. D. Hanson-Heine,  P. H. P. Harbach,  
 A. W. Hauser,  M. F. Herbst,  M. Hernandez Vera,  M. Hodecker,  
 Z. C. Holden,  S. Houck,  Xunkun Huang,  Kerwin Hui,  B. C. Huynh,  
 M. Ivanov,  Hyunjun Ji,  Hanjie Jiang,  B. Kaduk,  S. Kaehler,  
 K. Khistyaev,  Jaehoon Kim,  P. Klunzinger,  Z. Koczor-Benda,  
 Joong Hoon Koh,  D. Kosenkov,  L. Koulias,  T. Kowalczyk,  C. M. Krauter,  
 K. Kue,  A. Kunitsa,  T. Kus,  A. Landau,  K. V. Lawler,  D. Lefrancois,  
 S. Lehtola,  Rain Li,  Yi-Pei Li,  Jiashu Liang,  M. Liebenthal,  
 Hung-Hsuan Lin,  You-Sheng Lin,  Fenglai Liu,  Kuan-Yu Liu,  
 M. Loipersberger,  A. Luenser,  A. Manjanath,  P. Manohar,  E. Mansoor,  
 S. F. Manzer,  Shan-Ping Mao,  A. V. Marenich,  T. Markovich,  S. Mason,  
 S. A. Maurer,  P. F. McLaughlin,  M. F. S. J. Menger,  J.-M. Mewes,  
 S. A. Mewes,  P. Morgante,  J. W. Mullinax,  T. S. Nguyen-Beck,  
 K. J. Oosterbaan,  G. Paran,  Alexander C. Paul,  Suranjan K. Paul,  
 F. Pavosevic,  Zheng Pei,  S. Prager,  E. I. Proynov,  E. Ramos,  B. Rana,  
 A. E. Rask,  A. Rettig,  R. M. Richard,  F. Rob,  E. Rossomme,  T. Scheele,  
 M. Scheurer,  M. Schneider,  N. Sergueev,  S. M. Sharada,  W. Skomorowski,  
 D. W. Small,  C. J. Stein,  Yu-Chuan Su,  E. J. Sundstrom,  Zhen Tao,  
 J. Thirman,  T. Tsuchimochi,  N. M. Tubman,  S. P. Veccham,  O. Vydrov,  
 J. Wenzel,  J. Witte,  A. Yamada,  Kun Yao,  S. Yeganeh,  S. R. Yost,  
 A. Zech,  Igor Ying Zhang,  Xing Zhang,  Yu Zhang,  D. Zuev,  
 A. Aspuru-Guzik,  A. T. Bell,  N. A. Besley,  K. B. Bravaya,  B. R. Brooks,  
 D. Casanova,  Jeng-Da Chai,  S. Coriani,  C. J. Cramer,  
 A. E. DePrince, III,  R. A. DiStasio Jr.,  A. Dreuw,  B. D. Dunietz,  
 T. R. Furlani,  W. A. Goddard III,  S. Grimme,  S. Hammes-Schiffer,  
 T. Head-Gordon,  W. J. Hehre,  Chao-Ping Hsu,  T.-C. Jagau,  Yousung Jung,  
 A. Klamt,  Jing Kong,  D. S. Lambrecht,  WanZhen Liang,  N. J. Mayhall,  
 C. W. McCurdy,  J. B. Neaton,  C. Ochsenfeld,  J. A. Parkhill,  R. Peverati,  
 V. A. Rassolov,  Yihan Shao,  L. V. Slipchenko,  T. Stauch,  R. P. Steele,  
 J. E. Subotnik,  A. J. W. Thom,  A. Tkatchenko,  D. G. Truhlar,  
 T. Van Voorhis,  T. A. Wesolowski,  K. B. Whaley,  H. L. Woodcock III,  
 P. M. Zimmerman,  S. Faraji,  P. M. W. Gill,  M. Head-Gordon,  
 J. M. Herbert,  A. I. Krylov

 Contributors to earlier versions of Q-Chem not listed above: 
 R. D. Adamson,  B. Austin,  R. Baer,  J. Baker,  G. J. O. Beran,  
 K. Brandhorst,  S. T. Brown,  E. F. C. Byrd,  A. K. Chakraborty,  
 G. K. L. Chan,  Chun-Min Chang,  Yunqing Chen,  C.-L. Cheng,  
 Siu Hung Chien,  D. M. Chipman,  D. L. Crittenden,  H. Dachsel,  
 R. J. Doerksen,  A. D. Dutoi,  R. G. Edgar,  J. Fosso-Tande,  
 L. Fusti-Molnar,  D. Ghosh,  A. Ghysels,  A. Golubeva-Zadorozhnaya,  
 J. Gonthier,  M. S. Gordon,  S. R. Gwaltney,  G. Hawkins,  J. E. Herr,  
 A. Heyden,  S. Hirata,  E. G. Hohenstein,  G. Kedziora,  F. J. Keil,  
 C. Kelley,  Jihan Kim,  R. A. King,  R. Z. Khaliullin,  P. P. Korambath,  
 W. Kurlancheek,  A. Laurent,  A. M. Lee,  M. S. Lee,  S. V. Levchenko,  
 Ching Yeh Lin,  D. Liotard,  E. Livshits,  R. C. Lochan,  I. Lotan,  
 L. A. Martinez-Martinez,  P. E. Maslen,  N. Nair,  D. P. O'Neill,  
 D. Neuhauser,  E. Neuscamman,  C. M. Oana,  R. Olivares-Amaya,  R. Olson,  
 T. M. Perrine,  B. Peters,  P. A. Pieniazek,  A. Prociuk,  Y. M. Rhee,  
 J. Ritchie,  M. A. Rohrdanz,  E. Rosta,  N. J. Russ,  H. F. Schaefer III,  
 M. W. Schmidt,  N. E. Schultz,  S. Sharma,  N. Shenvi,  C. D. Sherrill,  
 A. C. Simmonett,  A. Sodt,  T. Stein,  D. Stuck,  K. S. Thanthiriwatte,  
 V. Vanovschi,  L. Vogt,  Tao Wang,  A. Warshel,  M. A. Watson,  
 C. F. Williams,  Q. Wu,  X. Xu,  Jun Yang,  W. Zhang,  Yan Zhao

 Please cite Q-Chem as follows:
 Y. Shao et al., Mol. Phys. 113, 184-215 (2015)
 DOI: 10.1080/00268976.2014.952696

 Q-Chem 5.4.0 for Intel X86 EM64T Linux

 Parts of Q-Chem use Armadillo 9.800.1 (Horizon Scraper).
 http://arma.sourceforge.net/

 Q-Chem begins on Sun Sep 24 17:24:32 2023  

 Host: 
0

     Scratch files written to ./qchem2411075//
 May1621 |scratch|qcdevops|jenkins|workspace|build_RNUM    
 Parallel job on  1  processors
 Processing $rem in /cm/shared/apps/spack/cpu/opt/spack/linux-centos8-zen2/gcc-10.2.0/qchem-5.4-akfmr7b3t57bfs6qan3padb2wnb2i7cl/config/preferences:
 Processing $rem in /home/rramji/.qchemrc:
 Symmetry turned off for PCM/SM12/SMD calculation
 Core orbitals will be frozen

 Checking the input file for inconsistencies... 	...done.

 Q-Chem warning in module forms1/BasisType.C, line 2236:

 You are not using the predefined 5D/6D in this basis set.


--------------------------------------------------------------
User input:
--------------------------------------------------------------
$molecule
0 1
C	-0.197767	-6.741404	-0.164018
C	-1.198109	-6.155638	-1.003240
C	0.632428	-5.791452	0.533192
C	-1.411364	-4.803786	-1.182482
H	-1.870845	-6.821518	-1.567483
C	0.409419	-4.378638	0.345145
C	-0.609565	-3.838032	-0.510347
C	1.210332	-3.413062	1.016449
C	-0.830799	-2.426473	-0.696879
C	0.999856	-2.059348	0.839039
C	-0.000000	-1.478216	-0.000000
H	1.673483	-1.394783	1.403737
C	1.736282	-6.187987	1.461835
C	2.306183	-3.798164	1.936119
N	2.491597	-5.170003	2.093916
C	-2.510310	-4.424987	-2.104529
C	-1.936153	-2.036627	-1.625377
N	-2.691451	-3.049156	-2.257873
O	2.034222	-7.353131	1.715561
O	3.014044	-2.986854	2.528858
O	-3.209622	-5.248946	-2.690385
O	-2.251529	-0.878829	-1.891876
C	3.573032	-5.563799	3.002711
H	3.606932	-6.664085	3.032655
H	3.382888	-5.147101	4.010326
H	4.533125	-5.148785	2.640711
C	-3.756832	-2.587487	-3.152408
H	-4.249778	-3.483329	-3.564653
H	-3.328759	-1.964972	-3.960905
H	-4.477709	-1.962932	-2.591422
H	-0.055524	-7.822318	-0.044245
C	0.000000	0.000000	0.000000
S	0.335026	0.718942	1.580530
C	1.027130	2.203226	0.904911
C	0.421617	0.904557	-0.985400
C	0.979485	2.101144	-0.493528
H	0.322049	0.690978	-2.059934
H	1.351718	2.899571	-1.152593
H	1.399246	3.001430	1.556025
$end

$rem
JOBTYPE		SP
EXCHANGE	HF
CORRELATION	pRIMP2
BASIS		cc-pvtz
METHOD		rimp2
AUX_BASIS	rimp2-cc-pvtz
SOLVENT_METHOD	PCM
PURECART	11111
SYMMETRY	false
MEM_TOTAL	110000
SCF_CONVERGENCE = 6
THRESH=10
GUI = 2
$end



$solvent
dielectric 4.90
$end
--------------------------------------------------------------
 ----------------------------------------------------------------
             Standard Nuclear Orientation (Angstroms)
    I     Atom           X                Y                Z
 ----------------------------------------------------------------
    1      C      -0.1977670000    -6.7414040000    -0.1640180000
    2      C      -1.1981090000    -6.1556380000    -1.0032400000
    3      C       0.6324280000    -5.7914520000     0.5331920000
    4      C      -1.4113640000    -4.8037860000    -1.1824820000
    5      H      -1.8708450000    -6.8215180000    -1.5674830000
    6      C       0.4094190000    -4.3786380000     0.3451450000
    7      C      -0.6095650000    -3.8380320000    -0.5103470000
    8      C       1.2103320000    -3.4130620000     1.0164490000
    9      C      -0.8307990000    -2.4264730000    -0.6968790000
   10      C       0.9998560000    -2.0593480000     0.8390390000
   11      C       0.0000000000    -1.4782160000     0.0000000000
   12      H       1.6734830000    -1.3947830000     1.4037370000
   13      C       1.7362820000    -6.1879870000     1.4618350000
   14      C       2.3061830000    -3.7981640000     1.9361190000
   15      N       2.4915970000    -5.1700030000     2.0939160000
   16      C      -2.5103100000    -4.4249870000    -2.1045290000
   17      C      -1.9361530000    -2.0366270000    -1.6253770000
   18      N      -2.6914510000    -3.0491560000    -2.2578730000
   19      O       2.0342220000    -7.3531310000     1.7155610000
   20      O       3.0140440000    -2.9868540000     2.5288580000
   21      O      -3.2096220000    -5.2489460000    -2.6903850000
   22      O      -2.2515290000    -0.8788290000    -1.8918760000
   23      C       3.5730320000    -5.5637990000     3.0027110000
   24      H       3.6069320000    -6.6640850000     3.0326550000
   25      H       3.3828880000    -5.1471010000     4.0103260000
   26      H       4.5331250000    -5.1487850000     2.6407110000
   27      C      -3.7568320000    -2.5874870000    -3.1524080000
   28      H      -4.2497780000    -3.4833290000    -3.5646530000
   29      H      -3.3287590000    -1.9649720000    -3.9609050000
   30      H      -4.4777090000    -1.9629320000    -2.5914220000
   31      H      -0.0555240000    -7.8223180000    -0.0442450000
   32      C       0.0000000000     0.0000000000     0.0000000000
   33      S       0.3350260000     0.7189420000     1.5805300000
   34      C       1.0271300000     2.2032260000     0.9049110000
   35      C       0.4216170000     0.9045570000    -0.9854000000
   36      C       0.9794850000     2.1011440000    -0.4935280000
   37      H       0.3220490000     0.6909780000    -2.0599340000
   38      H       1.3517180000     2.8995710000    -1.1525930000
   39      H       1.3992460000     3.0014300000     1.5560250000
 ----------------------------------------------------------------
 Nuclear Repulsion Energy =        2496.20039388 hartrees
 There are       97 alpha and       97 beta electrons
 Requested basis set is cc-pVTZ
 There are 344 shells and 982 basis functions

 Total QAlloc Memory Limit 110000 MB
 Mega-Array Size       188 MB
 MEM_STATIC part       192 MB
 Discretize the solute cavity surface with Lebedev spheres
	Using 110 Lebedev grid points for each H atom
	Using 194 Lebedev grid points for other atoms
	Atomic van der Waals radii will be scaled by 1.20
 Remove points where switching function is < 1.0e-08
 Keep 2529 surface tesserae and discard 4029 interior tesserae
 Molecular Surface Area = 367.452 Angst**2
 Requested basis set is rimp2-cc-pVTZ
 There are 750 shells and 2588 basis functions
 A cutoff of  1.0D-10 yielded  31591 shell pairs
 There are    243359 function pairs (    316316 Cartesian)
 Smallest overlap matrix eigenvalue = 9.25E-06

 Q-Chem warning in module stvman/mkSTV.C, line 323:

 Overlap eigenvalue is smaller than square root of threshold
 Use THRESH >= 12 to get rid of this warning


 Scale SEOQF with 1.000000e-01/1.000000e-02/1.000000e-01

 Standard Electronic Orientation quadrupole field applied
 Nucleus-field energy     =    -0.0000000127 hartrees
 Guess from superposition of atomic densities
 Warning:  Energy on first SCF cycle will be non-variational
 SAD guess density has 194.000000 electrons

 -----------------------------------------------------------------------
  General SCF calculation program by
  Eric Jon Sundstrom, Paul Horn, Yuezhi Mao, Dmitri Zuev, Alec White,
  David Stuck, Shaama M.S., Shane Yost, Joonho Lee, David Small,
  Daniel Levine, Susi Lehtola, Hugh Burton, Evgeny Epifanovsky,
  Bang C. Huynh
 -----------------------------------------------------------------------
 Hartree-Fock
 using 64 threads for integral computing
 -------------------------------------------------------
 OpenMP Integral computing Module                
 Release: version 1.0, May 2013, Q-Chem Inc. Pittsburgh 
 -------------------------------------------------------
 A restricted SCF calculation will be
 performed using DIIS
 SCF converges when DIIS error is below 1.0e-06
 ---------------------------------------
  Cycle       Energy         DIIS error
 ---------------------------------------
    1   -1581.3227263383      1.87e-02  
    2   -1570.1106807703      2.09e-03  
    3   -1570.4379808710      1.62e-03  
    4   -1570.6672686389      2.57e-04  
    5   -1570.6793492189      7.60e-05  
    6   -1570.6804158714      2.81e-05  
    7   -1570.6806583075      1.42e-05  
    8   -1570.6807345795      5.94e-06  
    9   -1570.6807464432      2.26e-06  
   10   -1570.6807483779      7.21e-07  Convergence criterion met
 ---------------------------------------
 SCF time:   CPU 5879.84s  wall 218.00s 

************** Final PCM Free Energy Summary **************
 G_electrostatic  =      -0.02403318 hartree =     -15.08104595 kcal/mol
 G_cavitation     =       0.00000000 hartree =       0.00000000 kcal/mol
 G_dispersion     =       0.00000000 hartree =       0.00000000 kcal/mol
 G_repulsion      =       0.00000000 hartree =       0.00000000 kcal/mol
 --------------------------------------------------
 Non-electrostatic Free Energy =       0.00000000 hartree =       0.00000000 kcal/mol
 Total                         =      -0.02403318 hartree =     -15.08104595 kcal/mol
 --------------------------------------------------
 SCF Energy (H0 + V/2)                       =   -1570.68074838 
 Solute Internal Energy (H0)                 =   -1570.65671520 
 Total Free Energy (H0 + V/2 + non-elec)     =   -1570.68074838 hartree
                                             = -985617.04552450 kcal/mol
***********************************************************

 SCF   energy in the final basis set =    -1570.6807483779
 Total energy in the final basis set =    -1570.6807483779


 --------------------------------------------------------------
  Generalized many-body perturbation theory program
  by Joonho Lee, Fazle Rob, Xintian Feng, Evgeny Epifanovsky

 No regularization used 
 (reg. param. = 0.0000e+00)
  (P|Q)^-1/2 Time:  CPU 160.10 s  wall 2.94 s

 In RI-MP2 calculation: 
 # of frozen core orbitals: 31

 Components of the RIMP2 correlation energy:
        aaaa    correlation energy =        -0.6170096181 a.u.
        abab    correlation energy =        -3.3935126270 a.u.
        bbbb    correlation energy =        -0.6170096181 a.u.
        non-Brillouin singles      =        -0.0000000000 a.u.
        total same-spin energy     =        -1.2340192362 a.u.
        total opposite-spin energy =        -3.3935126270 a.u.

 Total  RIMP2   correlation energy =        -4.6275318632 a.u.
        RIMP2         total energy =     -1575.3082802411 a.u.

 RI-MP2 Energy Time:  CPU 1894.22 s  wall 31.74 s
 
 --------------------------------------------------------------
 
                    Orbital Energies (a.u.)
 --------------------------------------------------------------
 
 Alpha MOs
 -- Occupied --
-91.9923 -20.5584 -20.5561 -20.5557 -20.5545 -15.6311 -15.6303 -11.3999
-11.3959 -11.3920 -11.3904 -11.3172 -11.3023 -11.3021 -11.2999 -11.2971
-11.2967 -11.2912 -11.2882 -11.2859 -11.2850 -11.2798 -11.2762 -11.2645
-11.2645 -11.2616 -11.2518  -8.9921  -6.6729  -6.6724  -6.6718  -1.4247
 -1.4235  -1.4040  -1.4026  -1.2672  -1.2648  -1.2174  -1.1790  -1.1437
 -1.1168  -1.0635  -1.0494  -0.9926  -0.9908  -0.9869  -0.9588  -0.9474
 -0.8971  -0.8789  -0.8777  -0.8600  -0.7961  -0.7783  -0.7728  -0.7613
 -0.7371  -0.7173  -0.7059  -0.6950  -0.6806  -0.6734  -0.6661  -0.6620
 -0.6564  -0.6419  -0.6371  -0.6330  -0.6292  -0.6127  -0.5863  -0.5842
 -0.5793  -0.5740  -0.5668  -0.5637  -0.5610  -0.5552  -0.5526  -0.5480
 -0.5404  -0.5268  -0.5210  -0.5099  -0.4833  -0.4700  -0.4676  -0.4635
 -0.4599  -0.4531  -0.4280  -0.4182  -0.4086  -0.3673  -0.3525  -0.3357
 -0.3100
 -- Virtual --
 -0.0198   0.0599   0.0704   0.0966   0.1175   0.1535   0.1577   0.1588
  0.1658   0.1700   0.1794   0.1828   0.1869   0.1926   0.2064   0.2103
  0.2123   0.2245   0.2284   0.2301   0.2336   0.2392   0.2579   0.2617
  0.2642   0.3002   0.3099   0.3133   0.3178   0.3216   0.3310   0.3351
  0.3405   0.3441   0.3497   0.3551   0.3590   0.3618   0.3634   0.3743
  0.3769   0.3840   0.3919   0.3954   0.3979   0.4045   0.4054   0.4104
  0.4177   0.4268   0.4321   0.4386   0.4440   0.4453   0.4481   0.4553
  0.4572   0.4596   0.4664   0.4715   0.4769   0.4835   0.4894   0.4935
  0.4957   0.5048   0.5081   0.5128   0.5166   0.5209   0.5266   0.5293
  0.5333   0.5405   0.5445   0.5501   0.5515   0.5576   0.5619   0.5674
  0.5716   0.5744   0.5770   0.5852   0.5878   0.5928   0.5957   0.5981
  0.6031   0.6076   0.6123   0.6156   0.6211   0.6233   0.6268   0.6305
  0.6325   0.6341   0.6355   0.6385   0.6471   0.6530   0.6570   0.6614
  0.6675   0.6810   0.6927   0.6935   0.7014   0.7048   0.7108   0.7160
  0.7221   0.7294   0.7344   0.7381   0.7428   0.7555   0.7602   0.7657
  0.7731   0.7756   0.7852   0.7882   0.7926   0.7957   0.8037   0.8130
  0.8205   0.8263   0.8344   0.8390   0.8452   0.8475   0.8486   0.8543
  0.8632   0.8641   0.8672   0.8731   0.8777   0.8882   0.8937   0.9044
  0.9099   0.9122   0.9195   0.9240   0.9283   0.9322   0.9381   0.9435
  0.9501   0.9536   0.9603   0.9666   0.9702   0.9754   0.9808   0.9861
  0.9905   0.9981   1.0022   1.0071   1.0132   1.0170   1.0193   1.0262
  1.0331   1.0410   1.0486   1.0534   1.0570   1.0587   1.0675   1.0751
  1.0759   1.0797   1.0820   1.0854   1.0926   1.0963   1.1012   1.1074
  1.1260   1.1303   1.1354   1.1411   1.1439   1.1483   1.1496   1.1588
  1.1598   1.1690   1.1699   1.1776   1.1807   1.1824   1.1896   1.1923
  1.1963   1.2050   1.2118   1.2135   1.2259   1.2264   1.2323   1.2372
  1.2455   1.2498   1.2526   1.2550   1.2622   1.2719   1.2826   1.2885
  1.3079   1.3278   1.3304   1.3356   1.3389   1.3448   1.3485   1.3651
  1.3729   1.3752   1.3773   1.3835   1.3883   1.3943   1.4012   1.4141
  1.4186   1.4259   1.4373   1.4406   1.4468   1.4487   1.4537   1.4673
  1.4763   1.4784   1.4867   1.4910   1.4991   1.5054   1.5151   1.5231
  1.5296   1.5327   1.5364   1.5404   1.5483   1.5544   1.5581   1.5618
  1.5663   1.5743   1.5819   1.5900   1.5952   1.5978   1.6090   1.6348
  1.6384   1.6404   1.6536   1.6569   1.6663   1.6723   1.6823   1.6929
  1.6991   1.7037   1.7067   1.7220   1.7264   1.7382   1.7408   1.7445
  1.7496   1.7630   1.7695   1.7715   1.7788   1.7931   1.8049   1.8130
  1.8174   1.8265   1.8390   1.8456   1.8523   1.8552   1.8601   1.8650
  1.8717   1.8779   1.8930   1.9096   1.9131   1.9215   1.9306   1.9421
  1.9612   1.9624   1.9727   1.9780   1.9892   2.0107   2.0177   2.0335
  2.0423   2.0457   2.0583   2.0672   2.0872   2.1083   2.1224   2.1318
  2.1431   2.1480   2.1600   2.1805   2.1976   2.2111   2.2132   2.2200
  2.2359   2.2383   2.2515   2.2598   2.2768   2.2884   2.2957   2.3053
  2.3123   2.3228   2.3252   2.3385   2.3539   2.3559   2.3690   2.3769
  2.3905   2.4191   2.4327   2.4386   2.4467   2.4511   2.4569   2.4617
  2.4665   2.4838   2.4854   2.4992   2.5032   2.5108   2.5232   2.5340
  2.5496   2.5649   2.5822   2.5844   2.5878   2.5959   2.6019   2.6064
  2.6119   2.6142   2.6263   2.6443   2.6499   2.6658   2.6680   2.6756
  2.6796   2.6893   2.6965   2.7003   2.7077   2.7100   2.7171   2.7282
  2.7339   2.7390   2.7460   2.7537   2.7580   2.7688   2.7873   2.7949
  2.7996   2.8129   2.8298   2.8329   2.8369   2.8496   2.8518   2.8595
  2.8658   2.8682   2.8781   2.8835   2.8900   2.8966   2.8977   2.9043
  2.9123   2.9191   2.9281   2.9365   2.9473   2.9507   2.9545   2.9639
  2.9718   2.9788   2.9868   2.9889   3.0027   3.0034   3.0060   3.0116
  3.0229   3.0278   3.0370   3.0418   3.0536   3.0628   3.0654   3.0821
  3.0879   3.0939   3.0963   3.1004   3.1088   3.1139   3.1154   3.1204
  3.1274   3.1297   3.1447   3.1519   3.1600   3.1664   3.1716   3.1788
  3.1843   3.1939   3.1969   3.2060   3.2122   3.2153   3.2173   3.2267
  3.2285   3.2327   3.2351   3.2450   3.2492   3.2526   3.2601   3.2625
  3.2686   3.2716   3.2761   3.2775   3.2877   3.2893   3.2985   3.3023
  3.3084   3.3139   3.3165   3.3246   3.3299   3.3322   3.3351   3.3390
  3.3418   3.3454   3.3467   3.3532   3.3581   3.3659   3.3676   3.3706
  3.3748   3.3854   3.3877   3.3917   3.3947   3.4004   3.4103   3.4170
  3.4197   3.4224   3.4339   3.4386   3.4434   3.4452   3.4537   3.4551
  3.4610   3.4641   3.4672   3.4688   3.4760   3.4801   3.4871   3.4907
  3.4955   3.4979   3.5029   3.5083   3.5117   3.5179   3.5189   3.5219
  3.5304   3.5346   3.5428   3.5508   3.5592   3.5662   3.5788   3.5816
  3.5839   3.5890   3.5932   3.6093   3.6115   3.6194   3.6254   3.6290
  3.6304   3.6352   3.6403   3.6454   3.6504   3.6615   3.6685   3.6718
  3.6800   3.6873   3.6891   3.6977   3.7043   3.7093   3.7148   3.7158
  3.7318   3.7326   3.7389   3.7406   3.7471   3.7570   3.7651   3.7721
  3.7787   3.7820   3.7829   3.7911   3.7941   3.7985   3.8015   3.8051
  3.8059   3.8140   3.8303   3.8375   3.8464   3.8481   3.8560   3.8580
  3.8638   3.8720   3.8770   3.8829   3.8911   3.8976   3.9039   3.9166
  3.9256   3.9326   3.9387   3.9433   3.9442   3.9569   3.9593   3.9643
  3.9876   3.9921   3.9985   4.0101   4.0104   4.0178   4.0270   4.0461
  4.0525   4.0576   4.0697   4.0768   4.0826   4.0912   4.0999   4.1060
  4.1201   4.1236   4.1375   4.1441   4.1468   4.1548   4.1645   4.1741
  4.1779   4.1863   4.1915   4.1967   4.2045   4.2191   4.2316   4.2357
  4.2435   4.2605   4.2638   4.2717   4.2728   4.2788   4.2858   4.2880
  4.2947   4.2959   4.3045   4.3080   4.3114   4.3242   4.3284   4.3371
  4.3445   4.3494   4.3527   4.3653   4.3673   4.3708   4.3782   4.3808
  4.3847   4.3936   4.4025   4.4083   4.4101   4.4201   4.4310   4.4314
  4.4514   4.4594   4.4672   4.4773   4.4937   4.5026   4.5095   4.5163
  4.5220   4.5292   4.5379   4.5421   4.5489   4.5538   4.5612   4.5661
  4.5741   4.5819   4.5857   4.5948   4.6031   4.6119   4.6322   4.6388
  4.6448   4.6470   4.6614   4.6673   4.6693   4.6788   4.6881   4.6947
  4.7116   4.7261   4.7370   4.7431   4.7529   4.7621   4.7796   4.7852
  4.7986   4.8290   4.8335   4.8397   4.8473   4.8598   4.8678   4.8774
  4.8808   4.8942   4.9069   4.9166   4.9369   4.9460   4.9677   4.9837
  4.9878   5.0065   5.0233   5.0351   5.0391   5.0494   5.0510   5.0631
  5.0971   5.1001   5.1080   5.1133   5.1251   5.1305   5.1423   5.1432
  5.1643   5.1689   5.1820   5.1888   5.2082   5.2212   5.2359   5.2563
  5.2595   5.2764   5.2880   5.2914   5.3170   5.3250   5.3312   5.3386
  5.3488   5.3954   5.4002   5.4049   5.4170   5.4315   5.4377   5.4590
  5.4857   5.5043   5.5088   5.5095   5.5129   5.5268   5.5446   5.5536
  5.5555   5.5602   5.5654   5.5741   5.5777   5.5893   5.6036   5.6049
  5.6225   5.6336   5.6526   5.6544   5.6595   5.6755   5.6769   5.6886
  5.7019   5.7102   5.7261   5.7388   5.7527   5.7554   5.7597   5.7698
  5.7716   5.7764   5.8102   5.8216   5.8433   5.8713   5.9070   5.9154
  5.9427   5.9550   5.9915   5.9916   6.0201   6.0221   6.0295   6.0393
  6.0858   6.0930   6.1008   6.1151   6.1175   6.1624   6.1884   6.2065
  6.2174   6.2188   6.2208   6.2529   6.2644   6.2696   6.3006   6.3405
  6.3507   6.3921   6.4062   6.4437   6.4637   6.5246   6.5620   6.5691
  6.5862   6.5975   6.6142   6.6468   6.6479   6.6596   6.7048   6.8299
  6.8313   6.8793   6.8863   6.8944   6.9115   6.9246   6.9272   7.0778
  7.0988   7.1402   7.1836   7.1872   7.2271   7.3325   7.3411   7.3444
  7.3528   7.4660   7.5435   7.5568   7.5732   7.5751   7.5872   7.6336
  7.6679   7.6797   7.7205   8.3377   9.8537  10.2956  11.1016  11.1949
 11.6752  11.7380  11.9866  12.3575  12.4500  12.7029  12.8438  12.9231
 13.2971  13.5506  13.8086  13.9319  14.0122  14.0965  14.1961  14.3476
 14.4106  14.7336  15.3100  15.7314  15.9902
 --------------------------------------------------------------
 
          Ground-State Mulliken Net Atomic Charges

     Atom                 Charge (a.u.)
  ----------------------------------------
      1 C                    -0.136035
      2 C                    -0.108617
      3 C                    -0.039055
      4 C                    -0.002163
      5 H                     0.188582
      6 C                     0.001532
      7 C                     0.071507
      8 C                     0.008992
      9 C                    -0.035012
     10 C                    -0.130246
     11 C                     0.049764
     12 H                     0.189071
     13 C                     0.359836
     14 C                     0.363471
     15 N                    -0.101485
     16 C                     0.359042
     17 C                     0.351078
     18 N                    -0.096604
     19 O                    -0.464830
     20 O                    -0.476250
     21 O                    -0.481273
     22 O                    -0.464093
     23 C                    -0.201161
     24 H                     0.141032
     25 H                     0.112443
     26 H                     0.112286
     27 C                    -0.196459
     28 H                     0.133676
     29 H                     0.112224
     30 H                     0.113444
     31 H                     0.213681
     32 C                    -0.020944
     33 S                     0.015361
     34 C                    -0.185392
     35 C                    -0.139243
     36 C                    -0.216559
     37 H                     0.192544
     38 H                     0.192429
     39 H                     0.213426
  ----------------------------------------
  Sum of atomic charges =     0.000000

 -----------------------------------------------------------------
                    Cartesian Multipole Moments
 -----------------------------------------------------------------
    Charge (ESU x 10^10)
                 0.0000
    Dipole Moment (Debye)
         X       1.1701      Y       1.3972      Z      -0.8361
       Tot       2.0051
    Quadrupole Moments (Debye-Ang)
        XX    -174.1836     XY       4.9116     YY    -168.0001
        XZ      -9.9091     YZ       1.1091     ZZ    -165.8716
    Octopole Moments (Debye-Ang^2)
       XXX     -18.6285    XXY     524.1270    XYY       3.4725
       YYY    1601.6904    XXZ      -2.0490    XYZ      44.0932
       YYZ      -4.1153    XZZ       0.6757    YZZ     516.3898
       ZZZ     -20.5391
    Hexadecapole Moments (Debye-Ang^3)
      XXXX   -3736.5952   XXXY       5.4018   XXYY   -3582.1654
      XYYY     544.9846   YYYY  -17134.8232   XXXZ   -1512.6169
      XXYZ     -72.4280   XYYZ    -765.0166   YYYZ     484.1881
      XXZZ   -1148.8481   XYZZ     -44.0067   YYZZ   -3333.7512
      XZZZ   -1483.3228   YZZZ      94.1019   ZZZZ   -2864.8434
 -----------------------------------------------------------------
 Total job time:  256.72s(wall), 8092.26s(cpu) 
 Sun Sep 24 17:28:49 2023

        *************************************************************
        *                                                           *
        *  Thank you very much for using Q-Chem.  Have a nice day.  *
        *                                                           *
        *************************************************************


0 sent ACK to 0 
now end server 0 ... 
cleanup process ... done
remove work dirs ./qchem2411075.0 -- ./qchem2411075.0
rm -rf ./qchem2411075.0
rm -rf ./qchem2411075
