You are running Q-Chem version: 5.4.0

#
# job setting
#
local host:  exp-4-16
current dir: /expanse/lustre/projects/csd626/rramji/aromodel/PNDIT/Rotation_Test
input file:  Dimethyl_Naphthalene_Dicarboximide_Phi_30_Theta_50_Thiophene.qcin
output file: 
nprocs     : 1
nthreads   : 64
#
# qchem installation setting
#
QC:          /cm/shared/apps/spack/cpu/opt/spack/linux-centos8-zen2/gcc-10.2.0/qchem-5.4-akfmr7b3t57bfs6qan3padb2wnb2i7cl
QCAUX:       /cm/shared/apps/spack/cpu/opt/spack/linux-centos8-zen2/gcc-10.2.0/qchem-5.4-akfmr7b3t57bfs6qan3padb2wnb2i7cl/qcaux
QCPROG:      /cm/shared/apps/spack/cpu/opt/spack/linux-centos8-zen2/gcc-10.2.0/qchem-5.4-akfmr7b3t57bfs6qan3padb2wnb2i7cl/exe/qcprog.exe
QCPROG_S:    /cm/shared/apps/spack/cpu/opt/spack/linux-centos8-zen2/gcc-10.2.0/qchem-5.4-akfmr7b3t57bfs6qan3padb2wnb2i7cl/exe/qcprog.exe_s
PARALLEL:    -DPARALLEL
QCMPI:       mpich
#
# qchem directory setting
#
qcrun:       qchem4136536
QCSCRATCH:   .
QCLOCALSCR:  
QCTMPDIR:    .
QCFILEPREF:  ./qchem4136536
QCSAVEDIR:   
workdirs:    ./qchem4136536
workdir0:    ./qchem4136536
partmpdirs =  
#
# parallel setting
#
QCRSH:           ssh
QCMPI:           mpich
QCMPIRUN:        /cm/shared/apps/spack/cpu/opt/spack/linux-centos8-zen2/gcc-10.2.0/qchem-5.4-akfmr7b3t57bfs6qan3padb2wnb2i7cl/bin/mpi/mpirun_qchem
QCMACHINEFILE:   ./qchem4136536/hostfile
exp-4-16

#
# env setting
#
exported envs:   QC QCAUX QCSCRATCH QCRUNNAME QCFILEPREF QCPROG QCPROG_S GUIFILE

Running Job 1 of 1 Dimethyl_Naphthalene_Dicarboximide_Phi_30_Theta_50_Thiophene.qcin
qchem Dimethyl_Naphthalene_Dicarboximide_Phi_30_Theta_50_Thiophene.qcin_4136536.0 ./qchem4136536/ 1
/cm/shared/apps/spack/cpu/opt/spack/linux-centos8-zen2/gcc-10.2.0/qchem-5.4-akfmr7b3t57bfs6qan3padb2wnb2i7cl/bin/mpi/mpirun_qchem -machinefile ./qchem4136536/hostfile -np 1 /cm/shared/apps/spack/cpu/opt/spack/linux-centos8-zen2/gcc-10.2.0/qchem-5.4-akfmr7b3t57bfs6qan3padb2wnb2i7cl/exe/qcprog.exe Dimethyl_Naphthalene_Dicarboximide_Phi_30_Theta_50_Thiophene.qcin_4136536.0 ./qchem4136536/

Process 0 of 1 is on exp-4-16 - thread support 0
initial socket setup ...start
initial socket setup ...done 
now start server 0 ... 
                  Welcome to Q-Chem
     A Quantum Leap Into The Future Of Chemistry


 Q-Chem 5.4, Q-Chem, Inc., Pleasanton, CA (2021)

 License issued to: University of California, San Diego (site)

 E. Epifanovsky,  A. T. B. Gilbert,  Xintian Feng,  Joonho Lee,  Yuezhi Mao,  
 N. Mardirossian,  P. Pokhilko,  A. White,  M. Wormit,  M. P. Coons,  
 A. L. Dempwolff,  Zhengting Gan,  D. Hait,  P. R. Horn,  L. D. Jacobson,  
 I. Kaliman,  J. Kussmann,  A. W. Lange,  Ka Un Lao,  D. S. Levine,  Jie Liu,  
 S. C. McKenzie,  A. F. Morrison,  K. Nanda,  F. Plasser,  D. R. Rehn,  
 M. L. Vidal,  Zhi-Qiang You,  Ying Zhu,  B. Alam,  B. Albrecht,  
 A. Aldossary,  E. Alguire,  J. H. Andersen,  D. Barton,  K. Begam,  A. Behn,  
 Y. A. Bernard,  E. J. Berquist,  H. Burton,  A. Carreras,  K. Carter-Fenk,  
 R. Chakraborty,  A. D. Chien,  K. D. Closser,  V. Cofer-Shabica,  
 S. Dasgupta,  Jia Deng,  M. de Wergifosse,  M. Diedenhofen,  Hainam Do,  
 S. Ehlert,  Po-Tung Fang,  S. Fatehi,  Qingguo Feng,  J. Gayvert,  
 Qinghui Ge,  G. Gidofalvi,  M. Goldey,  J. Gomes,  C. Gonzalez-Espinoza,  
 S. Gulania,  A. Gunina,  M. W. D. Hanson-Heine,  P. H. P. Harbach,  
 A. W. Hauser,  M. F. Herbst,  M. Hernandez Vera,  M. Hodecker,  
 Z. C. Holden,  S. Houck,  Xunkun Huang,  Kerwin Hui,  B. C. Huynh,  
 M. Ivanov,  Hyunjun Ji,  Hanjie Jiang,  B. Kaduk,  S. Kaehler,  
 K. Khistyaev,  Jaehoon Kim,  P. Klunzinger,  Z. Koczor-Benda,  
 Joong Hoon Koh,  D. Kosenkov,  L. Koulias,  T. Kowalczyk,  C. M. Krauter,  
 K. Kue,  A. Kunitsa,  T. Kus,  A. Landau,  K. V. Lawler,  D. Lefrancois,  
 S. Lehtola,  Rain Li,  Yi-Pei Li,  Jiashu Liang,  M. Liebenthal,  
 Hung-Hsuan Lin,  You-Sheng Lin,  Fenglai Liu,  Kuan-Yu Liu,  
 M. Loipersberger,  A. Luenser,  A. Manjanath,  P. Manohar,  E. Mansoor,  
 S. F. Manzer,  Shan-Ping Mao,  A. V. Marenich,  T. Markovich,  S. Mason,  
 S. A. Maurer,  P. F. McLaughlin,  M. F. S. J. Menger,  J.-M. Mewes,  
 S. A. Mewes,  P. Morgante,  J. W. Mullinax,  T. S. Nguyen-Beck,  
 K. J. Oosterbaan,  G. Paran,  Alexander C. Paul,  Suranjan K. Paul,  
 F. Pavosevic,  Zheng Pei,  S. Prager,  E. I. Proynov,  E. Ramos,  B. Rana,  
 A. E. Rask,  A. Rettig,  R. M. Richard,  F. Rob,  E. Rossomme,  T. Scheele,  
 M. Scheurer,  M. Schneider,  N. Sergueev,  S. M. Sharada,  W. Skomorowski,  
 D. W. Small,  C. J. Stein,  Yu-Chuan Su,  E. J. Sundstrom,  Zhen Tao,  
 J. Thirman,  T. Tsuchimochi,  N. M. Tubman,  S. P. Veccham,  O. Vydrov,  
 J. Wenzel,  J. Witte,  A. Yamada,  Kun Yao,  S. Yeganeh,  S. R. Yost,  
 A. Zech,  Igor Ying Zhang,  Xing Zhang,  Yu Zhang,  D. Zuev,  
 A. Aspuru-Guzik,  A. T. Bell,  N. A. Besley,  K. B. Bravaya,  B. R. Brooks,  
 D. Casanova,  Jeng-Da Chai,  S. Coriani,  C. J. Cramer,  
 A. E. DePrince, III,  R. A. DiStasio Jr.,  A. Dreuw,  B. D. Dunietz,  
 T. R. Furlani,  W. A. Goddard III,  S. Grimme,  S. Hammes-Schiffer,  
 T. Head-Gordon,  W. J. Hehre,  Chao-Ping Hsu,  T.-C. Jagau,  Yousung Jung,  
 A. Klamt,  Jing Kong,  D. S. Lambrecht,  WanZhen Liang,  N. J. Mayhall,  
 C. W. McCurdy,  J. B. Neaton,  C. Ochsenfeld,  J. A. Parkhill,  R. Peverati,  
 V. A. Rassolov,  Yihan Shao,  L. V. Slipchenko,  T. Stauch,  R. P. Steele,  
 J. E. Subotnik,  A. J. W. Thom,  A. Tkatchenko,  D. G. Truhlar,  
 T. Van Voorhis,  T. A. Wesolowski,  K. B. Whaley,  H. L. Woodcock III,  
 P. M. Zimmerman,  S. Faraji,  P. M. W. Gill,  M. Head-Gordon,  
 J. M. Herbert,  A. I. Krylov

 Contributors to earlier versions of Q-Chem not listed above: 
 R. D. Adamson,  B. Austin,  R. Baer,  J. Baker,  G. J. O. Beran,  
 K. Brandhorst,  S. T. Brown,  E. F. C. Byrd,  A. K. Chakraborty,  
 G. K. L. Chan,  Chun-Min Chang,  Yunqing Chen,  C.-L. Cheng,  
 Siu Hung Chien,  D. M. Chipman,  D. L. Crittenden,  H. Dachsel,  
 R. J. Doerksen,  A. D. Dutoi,  R. G. Edgar,  J. Fosso-Tande,  
 L. Fusti-Molnar,  D. Ghosh,  A. Ghysels,  A. Golubeva-Zadorozhnaya,  
 J. Gonthier,  M. S. Gordon,  S. R. Gwaltney,  G. Hawkins,  J. E. Herr,  
 A. Heyden,  S. Hirata,  E. G. Hohenstein,  G. Kedziora,  F. J. Keil,  
 C. Kelley,  Jihan Kim,  R. A. King,  R. Z. Khaliullin,  P. P. Korambath,  
 W. Kurlancheek,  A. Laurent,  A. M. Lee,  M. S. Lee,  S. V. Levchenko,  
 Ching Yeh Lin,  D. Liotard,  E. Livshits,  R. C. Lochan,  I. Lotan,  
 L. A. Martinez-Martinez,  P. E. Maslen,  N. Nair,  D. P. O'Neill,  
 D. Neuhauser,  E. Neuscamman,  C. M. Oana,  R. Olivares-Amaya,  R. Olson,  
 T. M. Perrine,  B. Peters,  P. A. Pieniazek,  A. Prociuk,  Y. M. Rhee,  
 J. Ritchie,  M. A. Rohrdanz,  E. Rosta,  N. J. Russ,  H. F. Schaefer III,  
 M. W. Schmidt,  N. E. Schultz,  S. Sharma,  N. Shenvi,  C. D. Sherrill,  
 A. C. Simmonett,  A. Sodt,  T. Stein,  D. Stuck,  K. S. Thanthiriwatte,  
 V. Vanovschi,  L. Vogt,  Tao Wang,  A. Warshel,  M. A. Watson,  
 C. F. Williams,  Q. Wu,  X. Xu,  Jun Yang,  W. Zhang,  Yan Zhao

 Please cite Q-Chem as follows:
 Y. Shao et al., Mol. Phys. 113, 184-215 (2015)
 DOI: 10.1080/00268976.2014.952696

 Q-Chem 5.4.0 for Intel X86 EM64T Linux

 Parts of Q-Chem use Armadillo 9.800.1 (Horizon Scraper).
 http://arma.sourceforge.net/

 Q-Chem begins on Wed Sep 20 08:24:56 2023  

 Host: 
0

     Scratch files written to ./qchem4136536//
 May1621 |scratch|qcdevops|jenkins|workspace|build_RNUM    
 Parallel job on  1  processors
 Processing $rem in /cm/shared/apps/spack/cpu/opt/spack/linux-centos8-zen2/gcc-10.2.0/qchem-5.4-akfmr7b3t57bfs6qan3padb2wnb2i7cl/config/preferences:
 Processing $rem in /home/rramji/.qchemrc:
 Symmetry turned off for PCM/SM12/SMD calculation
 Core orbitals will be frozen

 Checking the input file for inconsistencies... 	...done.

 Q-Chem warning in module forms1/BasisType.C, line 2236:

 You are not using the predefined 5D/6D in this basis set.


--------------------------------------------------------------
User input:
--------------------------------------------------------------
$molecule
0 1
C	0.195868	-6.741404	-0.166281
C	1.196048	-6.155638	-1.005696
C	-0.634911	-5.791452	0.530233
C	1.409599	-4.803786	-1.184587
H	1.868538	-6.821518	-1.570232
C	-0.410996	-4.378638	0.343266
C	0.608444	-3.838032	-0.511683
C	-1.211179	-3.413062	1.015440
C	0.830559	-2.426473	-0.697165
C	-0.999915	-2.059348	0.838968
C	0.000000	-1.478216	0.000000
H	-1.673009	-1.394783	1.404302
C	-1.741129	-6.187987	1.456059
C	-2.307170	-3.798164	1.934944
N	-2.494766	-5.170003	2.090139
C	2.508468	-4.424987	-2.106725
C	1.936893	-2.036627	-1.624494
N	2.690936	-3.049156	-2.258486
O	-2.042736	-7.353131	1.705414
O	-3.013823	-2.986854	2.529122
O	3.206857	-5.248946	-2.693680
O	2.254108	-0.878829	-1.888802
C	-3.577543	-5.563799	2.997334
H	-3.612920	-6.664085	3.025519
H	-4.536833	-5.147101	2.635109
H	-3.387762	-5.148785	4.005702
C	3.756883	-2.587487	-3.152347
H	4.248464	-3.483329	-3.566218
H	4.478763	-1.964972	-2.590383
H	3.329599	-1.962932	-3.959687
H	0.053215	-7.822318	-0.046998
C	0.000000	0.000000	0.000000
S	0.396411	0.687007	1.580530
C	1.215245	2.105322	0.904911
C	0.498850	0.864369	-0.985400
C	1.158885	2.007781	-0.493528
H	0.381046	0.660280	-2.059934
H	1.599289	2.770727	-1.152593
H	1.655514	2.868056	1.556025
$end

$rem
JOBTYPE		SP
EXCHANGE	HF
CORRELATION	pRIMP2
BASIS		cc-pvtz
METHOD		rimp2
AUX_BASIS	rimp2-cc-pvtz
SOLVENT_METHOD	PCM
PURECART	11111
SYMMETRY	false
MEM_TOTAL	110000
SCF_CONVERGENCE = 6
THRESH=10
GUI = 2
$end



$solvent
dielectric 4.90
$end
--------------------------------------------------------------
 ----------------------------------------------------------------
             Standard Nuclear Orientation (Angstroms)
    I     Atom           X                Y                Z
 ----------------------------------------------------------------
    1      C       0.1958680000    -6.7414040000    -0.1662810000
    2      C       1.1960480000    -6.1556380000    -1.0056960000
    3      C      -0.6349110000    -5.7914520000     0.5302330000
    4      C       1.4095990000    -4.8037860000    -1.1845870000
    5      H       1.8685380000    -6.8215180000    -1.5702320000
    6      C      -0.4109960000    -4.3786380000     0.3432660000
    7      C       0.6084440000    -3.8380320000    -0.5116830000
    8      C      -1.2111790000    -3.4130620000     1.0154400000
    9      C       0.8305590000    -2.4264730000    -0.6971650000
   10      C      -0.9999150000    -2.0593480000     0.8389680000
   11      C       0.0000000000    -1.4782160000     0.0000000000
   12      H      -1.6730090000    -1.3947830000     1.4043020000
   13      C      -1.7411290000    -6.1879870000     1.4560590000
   14      C      -2.3071700000    -3.7981640000     1.9349440000
   15      N      -2.4947660000    -5.1700030000     2.0901390000
   16      C       2.5084680000    -4.4249870000    -2.1067250000
   17      C       1.9368930000    -2.0366270000    -1.6244940000
   18      N       2.6909360000    -3.0491560000    -2.2584860000
   19      O      -2.0427360000    -7.3531310000     1.7054140000
   20      O      -3.0138230000    -2.9868540000     2.5291220000
   21      O       3.2068570000    -5.2489460000    -2.6936800000
   22      O       2.2541080000    -0.8788290000    -1.8888020000
   23      C      -3.5775430000    -5.5637990000     2.9973340000
   24      H      -3.6129200000    -6.6640850000     3.0255190000
   25      H      -4.5368330000    -5.1471010000     2.6351090000
   26      H      -3.3877620000    -5.1487850000     4.0057020000
   27      C       3.7568830000    -2.5874870000    -3.1523470000
   28      H       4.2484640000    -3.4833290000    -3.5662180000
   29      H       4.4787630000    -1.9649720000    -2.5903830000
   30      H       3.3295990000    -1.9629320000    -3.9596870000
   31      H       0.0532150000    -7.8223180000    -0.0469980000
   32      C       0.0000000000     0.0000000000     0.0000000000
   33      S       0.3964110000     0.6870070000     1.5805300000
   34      C       1.2152450000     2.1053220000     0.9049110000
   35      C       0.4988500000     0.8643690000    -0.9854000000
   36      C       1.1588850000     2.0077810000    -0.4935280000
   37      H       0.3810460000     0.6602800000    -2.0599340000
   38      H       1.5992890000     2.7707270000    -1.1525930000
   39      H       1.6555140000     2.8680560000     1.5560250000
 ----------------------------------------------------------------
 Nuclear Repulsion Energy =        2506.64896211 hartrees
 There are       97 alpha and       97 beta electrons
 Requested basis set is cc-pVTZ
 There are 344 shells and 982 basis functions

 Total QAlloc Memory Limit 110000 MB
 Mega-Array Size       188 MB
 MEM_STATIC part       192 MB
 Discretize the solute cavity surface with Lebedev spheres
	Using 110 Lebedev grid points for each H atom
	Using 194 Lebedev grid points for other atoms
	Atomic van der Waals radii will be scaled by 1.20
 Remove points where switching function is < 1.0e-08
 Keep 2511 surface tesserae and discard 4047 interior tesserae
 Molecular Surface Area = 363.820 Angst**2
 Requested basis set is rimp2-cc-pVTZ
 There are 750 shells and 2588 basis functions
 A cutoff of  1.0D-10 yielded  32012 shell pairs
 There are    246626 function pairs (    320541 Cartesian)
 Smallest overlap matrix eigenvalue = 9.68E-06

 Q-Chem warning in module stvman/mkSTV.C, line 323:

 Overlap eigenvalue is smaller than square root of threshold
 Use THRESH >= 12 to get rid of this warning


 Scale SEOQF with 1.000000e-01/1.000000e-02/1.000000e-01

 Standard Electronic Orientation quadrupole field applied
 Nucleus-field energy     =    -0.0000000124 hartrees
 Guess from superposition of atomic densities
 Warning:  Energy on first SCF cycle will be non-variational
 SAD guess density has 194.000000 electrons

 -----------------------------------------------------------------------
  General SCF calculation program by
  Eric Jon Sundstrom, Paul Horn, Yuezhi Mao, Dmitri Zuev, Alec White,
  David Stuck, Shaama M.S., Shane Yost, Joonho Lee, David Small,
  Daniel Levine, Susi Lehtola, Hugh Burton, Evgeny Epifanovsky,
  Bang C. Huynh
 -----------------------------------------------------------------------
 Hartree-Fock
 using 64 threads for integral computing
 -------------------------------------------------------
 OpenMP Integral computing Module                
 Release: version 1.0, May 2013, Q-Chem Inc. Pittsburgh 
 -------------------------------------------------------
 A restricted SCF calculation will be
 performed using DIIS
 SCF converges when DIIS error is below 1.0e-06
 ---------------------------------------
  Cycle       Energy         DIIS error
 ---------------------------------------
    1   -1581.3258585958      1.87e-02  
    2   -1570.1015631821      2.09e-03  
    3   -1570.4274386415      1.63e-03  
    4   -1570.6589948581      2.57e-04  
    5   -1570.6712478972      7.63e-05  
    6   -1570.6723544898      2.87e-05  
    7   -1570.6726203422      1.45e-05  
    8   -1570.6727062201      6.30e-06  
    9   -1570.6727203678      2.37e-06  
   10   -1570.6727229386      8.99e-07  Convergence criterion met
 ---------------------------------------
 SCF time:   CPU 5824.79s  wall 220.00s 

************** Final PCM Free Energy Summary **************
 G_electrostatic  =      -0.02258794 hartree =     -14.17414898 kcal/mol
 G_cavitation     =       0.00000000 hartree =       0.00000000 kcal/mol
 G_dispersion     =       0.00000000 hartree =       0.00000000 kcal/mol
 G_repulsion      =       0.00000000 hartree =       0.00000000 kcal/mol
 --------------------------------------------------
 Non-electrostatic Free Energy =       0.00000000 hartree =       0.00000000 kcal/mol
 Total                         =      -0.02258794 hartree =     -14.17414898 kcal/mol
 --------------------------------------------------
 SCF Energy (H0 + V/2)                       =   -1570.67272294 
 Solute Internal Energy (H0)                 =   -1570.65013499 
 Total Free Energy (H0 + V/2 + non-elec)     =   -1570.67272294 hartree
                                             = -985612.00948531 kcal/mol
***********************************************************

 SCF   energy in the final basis set =    -1570.6727229386
 Total energy in the final basis set =    -1570.6727229386


 --------------------------------------------------------------
  Generalized many-body perturbation theory program
  by Joonho Lee, Fazle Rob, Xintian Feng, Evgeny Epifanovsky

 No regularization used 
 (reg. param. = 0.0000e+00)
  (P|Q)^-1/2 Time:  CPU 169.55 s  wall 2.93 s

 In RI-MP2 calculation: 
 # of frozen core orbitals: 31

 Components of the RIMP2 correlation energy:
        aaaa    correlation energy =        -0.6172894154 a.u.
        abab    correlation energy =        -3.3941565455 a.u.
        bbbb    correlation energy =        -0.6172894154 a.u.
        non-Brillouin singles      =        -0.0000000000 a.u.
        total same-spin energy     =        -1.2345788308 a.u.
        total opposite-spin energy =        -3.3941565455 a.u.

 Total  RIMP2   correlation energy =        -4.6287353763 a.u.
        RIMP2         total energy =     -1575.3014583149 a.u.

 RI-MP2 Energy Time:  CPU 2889.39 s  wall 47.42 s
 
 --------------------------------------------------------------
 
                    Orbital Energies (a.u.)
 --------------------------------------------------------------
 
 Alpha MOs
 -- Occupied --
-91.9927 -20.5581 -20.5556 -20.5539 -20.5523 -15.6306 -15.6297 -11.3995
-11.3950 -11.3914 -11.3898 -11.3155 -11.3017 -11.2999 -11.2989 -11.2955
-11.2951 -11.2926 -11.2852 -11.2838 -11.2790 -11.2779 -11.2752 -11.2645
-11.2641 -11.2621 -11.2499  -8.9921  -6.6729  -6.6724  -6.6718  -1.4243
 -1.4231  -1.4036  -1.4022  -1.2667  -1.2644  -1.2160  -1.1765  -1.1431
 -1.1156  -1.0617  -1.0483  -0.9921  -0.9891  -0.9858  -0.9584  -0.9476
 -0.8957  -0.8786  -0.8752  -0.8604  -0.7942  -0.7762  -0.7721  -0.7613
 -0.7359  -0.7182  -0.7043  -0.6935  -0.6803  -0.6718  -0.6657  -0.6615
 -0.6556  -0.6413  -0.6362  -0.6332  -0.6278  -0.6117  -0.5865  -0.5839
 -0.5766  -0.5757  -0.5649  -0.5622  -0.5595  -0.5548  -0.5511  -0.5479
 -0.5356  -0.5248  -0.5209  -0.5153  -0.4823  -0.4706  -0.4643  -0.4612
 -0.4580  -0.4523  -0.4274  -0.4177  -0.4080  -0.3675  -0.3480  -0.3352
 -0.3068
 -- Virtual --
 -0.0180   0.0601   0.0700   0.0941   0.1163   0.1516   0.1576   0.1597
  0.1663   0.1720   0.1790   0.1835   0.1857   0.1953   0.2026   0.2080
  0.2162   0.2273   0.2291   0.2312   0.2401   0.2418   0.2601   0.2631
  0.2659   0.3089   0.3122   0.3136   0.3156   0.3245   0.3255   0.3376
  0.3451   0.3462   0.3520   0.3560   0.3588   0.3642   0.3700   0.3749
  0.3762   0.3848   0.3909   0.3985   0.4010   0.4036   0.4078   0.4103
  0.4166   0.4262   0.4330   0.4394   0.4427   0.4444   0.4504   0.4538
  0.4577   0.4588   0.4631   0.4760   0.4799   0.4811   0.4901   0.4975
  0.4991   0.5025   0.5099   0.5151   0.5184   0.5235   0.5257   0.5284
  0.5329   0.5424   0.5447   0.5464   0.5508   0.5570   0.5592   0.5668
  0.5712   0.5738   0.5772   0.5851   0.5930   0.5948   0.5964   0.6014
  0.6031   0.6119   0.6156   0.6172   0.6192   0.6245   0.6271   0.6328
  0.6345   0.6346   0.6392   0.6419   0.6456   0.6525   0.6588   0.6646
  0.6731   0.6809   0.6921   0.6971   0.7006   0.7091   0.7149   0.7177
  0.7319   0.7360   0.7375   0.7428   0.7520   0.7594   0.7609   0.7677
  0.7715   0.7781   0.7864   0.7888   0.7975   0.7991   0.8048   0.8120
  0.8172   0.8230   0.8322   0.8366   0.8439   0.8491   0.8578   0.8636
  0.8666   0.8694   0.8753   0.8780   0.8806   0.8909   0.8954   0.9086
  0.9115   0.9154   0.9205   0.9266   0.9282   0.9332   0.9360   0.9438
  0.9487   0.9605   0.9626   0.9710   0.9719   0.9795   0.9829   0.9884
  0.9901   0.9966   1.0028   1.0054   1.0119   1.0151   1.0200   1.0294
  1.0348   1.0421   1.0486   1.0548   1.0593   1.0675   1.0710   1.0750
  1.0796   1.0822   1.0876   1.0895   1.0959   1.1016   1.1053   1.1201
  1.1295   1.1310   1.1340   1.1402   1.1454   1.1489   1.1567   1.1596
  1.1652   1.1735   1.1758   1.1798   1.1889   1.1936   1.1963   1.1994
  1.2033   1.2111   1.2204   1.2220   1.2290   1.2308   1.2331   1.2410
  1.2473   1.2510   1.2562   1.2592   1.2704   1.2841   1.2991   1.3185
  1.3198   1.3264   1.3396   1.3403   1.3448   1.3464   1.3498   1.3551
  1.3630   1.3766   1.3833   1.3844   1.3895   1.3960   1.4044   1.4126
  1.4226   1.4271   1.4353   1.4433   1.4489   1.4536   1.4584   1.4627
  1.4772   1.4865   1.4868   1.4942   1.5062   1.5074   1.5140   1.5175
  1.5246   1.5338   1.5407   1.5456   1.5499   1.5559   1.5562   1.5629
  1.5681   1.5695   1.5754   1.5865   1.5964   1.6064   1.6222   1.6333
  1.6425   1.6472   1.6516   1.6568   1.6692   1.6779   1.6812   1.6866
  1.6992   1.7039   1.7145   1.7208   1.7327   1.7380   1.7464   1.7496
  1.7559   1.7611   1.7686   1.7889   1.7916   1.7972   1.8071   1.8095
  1.8177   1.8364   1.8379   1.8494   1.8567   1.8599   1.8672   1.8724
  1.8764   1.8845   1.8994   1.9173   1.9196   1.9261   1.9385   1.9524
  1.9606   1.9687   1.9735   1.9853   1.9936   1.9976   2.0173   2.0206
  2.0459   2.0525   2.0611   2.0839   2.0946   2.1126   2.1161   2.1319
  2.1405   2.1535   2.1604   2.1630   2.1827   2.1914   2.2169   2.2204
  2.2357   2.2390   2.2539   2.2576   2.2823   2.2913   2.2967   2.3018
  2.3102   2.3186   2.3333   2.3377   2.3575   2.3624   2.3723   2.3812
  2.3850   2.4217   2.4298   2.4410   2.4502   2.4526   2.4585   2.4633
  2.4691   2.4878   2.4962   2.5005   2.5115   2.5178   2.5271   2.5376
  2.5624   2.5734   2.5777   2.5833   2.5941   2.6020   2.6079   2.6137
  2.6176   2.6194   2.6345   2.6400   2.6508   2.6595   2.6668   2.6694
  2.6822   2.6901   2.6928   2.7065   2.7134   2.7196   2.7244   2.7265
  2.7356   2.7481   2.7557   2.7602   2.7621   2.7716   2.7850   2.7904
  2.8037   2.8178   2.8325   2.8345   2.8390   2.8439   2.8590   2.8659
  2.8682   2.8738   2.8754   2.8835   2.8881   2.8992   2.9040   2.9143
  2.9166   2.9283   2.9338   2.9401   2.9517   2.9542   2.9656   2.9704
  2.9759   2.9793   2.9879   2.9987   3.0030   3.0075   3.0152   3.0228
  3.0264   3.0312   3.0386   3.0421   3.0527   3.0556   3.0723   3.0763
  3.0865   3.0909   3.0991   3.1002   3.1033   3.1107   3.1122   3.1211
  3.1265   3.1302   3.1405   3.1551   3.1591   3.1724   3.1742   3.1782
  3.1875   3.1937   3.2022   3.2075   3.2118   3.2128   3.2165   3.2233
  3.2269   3.2313   3.2362   3.2464   3.2514   3.2539   3.2608   3.2654
  3.2686   3.2715   3.2796   3.2849   3.2880   3.2899   3.2909   3.3002
  3.3085   3.3112   3.3175   3.3251   3.3285   3.3296   3.3359   3.3419
  3.3428   3.3473   3.3483   3.3507   3.3593   3.3642   3.3702   3.3712
  3.3770   3.3808   3.3918   3.3957   3.4015   3.4062   3.4134   3.4195
  3.4232   3.4275   3.4315   3.4347   3.4440   3.4505   3.4517   3.4552
  3.4609   3.4647   3.4658   3.4815   3.4833   3.4887   3.4901   3.4917
  3.4953   3.4978   3.5068   3.5102   3.5156   3.5211   3.5252   3.5273
  3.5399   3.5484   3.5526   3.5551   3.5616   3.5739   3.5808   3.5843
  3.5866   3.5968   3.6083   3.6107   3.6136   3.6248   3.6291   3.6334
  3.6348   3.6402   3.6422   3.6523   3.6585   3.6644   3.6678   3.6807
  3.6873   3.6915   3.6952   3.7021   3.7089   3.7139   3.7177   3.7297
  3.7318   3.7357   3.7391   3.7498   3.7552   3.7585   3.7640   3.7718
  3.7790   3.7798   3.7862   3.7888   3.7960   3.7979   3.8004   3.8070
  3.8105   3.8181   3.8224   3.8359   3.8456   3.8522   3.8555   3.8660
  3.8710   3.8794   3.8836   3.8886   3.8931   3.8986   3.9077   3.9161
  3.9322   3.9346   3.9400   3.9418   3.9535   3.9593   3.9652   3.9830
  3.9906   3.9933   4.0070   4.0085   4.0139   4.0237   4.0272   4.0396
  4.0526   4.0646   4.0733   4.0756   4.0872   4.0905   4.1011   4.1104
  4.1234   4.1289   4.1307   4.1382   4.1421   4.1542   4.1659   4.1750
  4.1788   4.1867   4.1899   4.2009   4.2054   4.2157   4.2268   4.2380
  4.2478   4.2575   4.2642   4.2736   4.2803   4.2841   4.2866   4.2960
  4.2977   4.3037   4.3089   4.3160   4.3207   4.3231   4.3343   4.3395
  4.3453   4.3546   4.3592   4.3662   4.3682   4.3717   4.3764   4.3906
  4.3926   4.4050   4.4069   4.4078   4.4141   4.4212   4.4238   4.4544
  4.4575   4.4626   4.4665   4.4722   4.4904   4.4995   4.5124   4.5164
  4.5202   4.5238   4.5311   4.5450   4.5526   4.5633   4.5638   4.5675
  4.5729   4.5748   4.5828   4.5880   4.6054   4.6119   4.6290   4.6392
  4.6500   4.6566   4.6636   4.6705   4.6782   4.6866   4.6925   4.7035
  4.7105   4.7230   4.7281   4.7459   4.7511   4.7605   4.7746   4.7914
  4.8052   4.8181   4.8256   4.8412   4.8478   4.8646   4.8715   4.8768
  4.8858   4.9023   4.9145   4.9179   4.9375   4.9459   4.9598   4.9734
  4.9896   5.0044   5.0237   5.0391   5.0413   5.0466   5.0524   5.0549
  5.0924   5.1038   5.1056   5.1144   5.1253   5.1293   5.1461   5.1500
  5.1647   5.1682   5.1813   5.1934   5.2108   5.2288   5.2455   5.2574
  5.2611   5.2795   5.2854   5.2943   5.3045   5.3236   5.3317   5.3381
  5.3601   5.3961   5.3981   5.4035   5.4094   5.4235   5.4319   5.4650
  5.4883   5.5053   5.5092   5.5102   5.5133   5.5326   5.5450   5.5496
  5.5571   5.5601   5.5609   5.5749   5.5783   5.5898   5.6028   5.6071
  5.6181   5.6374   5.6529   5.6555   5.6592   5.6772   5.6789   5.6936
  5.6996   5.7054   5.7140   5.7413   5.7536   5.7589   5.7634   5.7727
  5.7761   5.7803   5.8116   5.8232   5.8396   5.8657   5.8927   5.9149
  5.9441   5.9568   5.9930   6.0173   6.0229   6.0239   6.0330   6.0435
  6.0887   6.1001   6.1027   6.1170   6.1233   6.1663   6.1920   6.2103
  6.2180   6.2194   6.2217   6.2596   6.2684   6.2725   6.3031   6.3426
  6.3515   6.4028   6.4050   6.4475   6.4677   6.5256   6.5627   6.5709
  6.5874   6.6026   6.6399   6.6484   6.6603   6.6692   6.7053   6.8323
  6.8367   6.8827   6.8866   6.8969   6.9120   6.9288   6.9610   7.0791
  7.1106   7.1400   7.1880   7.1929   7.2316   7.3329   7.3421   7.3450
  7.3581   7.4684   7.5476   7.5587   7.5739   7.5787   7.6068   7.6344
  7.6758   7.6943   7.7294   8.3695   9.9787  10.3082  11.1125  11.2433
 11.6830  11.7480  12.0293  12.3727  12.4374  12.5939  12.8479  13.0863
 13.2586  13.5761  13.8159  13.9468  13.9934  14.1641  14.3240  14.3834
 14.4160  14.7448  15.3302  15.7173  15.9844
 --------------------------------------------------------------
 
          Ground-State Mulliken Net Atomic Charges

     Atom                 Charge (a.u.)
  ----------------------------------------
      1 C                    -0.141508
      2 C                    -0.107912
      3 C                    -0.037840
      4 C                    -0.005894
      5 H                     0.187983
      6 C                    -0.014370
      7 C                     0.081747
      8 C                     0.023279
      9 C                    -0.036663
     10 C                    -0.182120
     11 C                     0.114150
     12 H                     0.179858
     13 C                     0.361056
     14 C                     0.364855
     15 N                    -0.101201
     16 C                     0.359375
     17 C                     0.378329
     18 N                    -0.093374
     19 O                    -0.464857
     20 O                    -0.476208
     21 O                    -0.482360
     22 O                    -0.470357
     23 C                    -0.201167
     24 H                     0.140916
     25 H                     0.112240
     26 H                     0.112367
     27 C                    -0.196957
     28 H                     0.134019
     29 H                     0.113004
     30 H                     0.111543
     31 H                     0.213030
     32 C                    -0.103902
     33 S                     0.038233
     34 C                    -0.188210
     35 C                    -0.117394
     36 C                    -0.196876
     37 H                     0.188309
     38 H                     0.189753
     39 H                     0.215125
  ----------------------------------------
  Sum of atomic charges =     0.000000

 -----------------------------------------------------------------
                    Cartesian Multipole Moments
 -----------------------------------------------------------------
    Charge (ESU x 10^10)
                 0.0000
    Dipole Moment (Debye)
         X       1.3906      Y       1.9148      Z      -1.1012
       Tot       2.6102
    Quadrupole Moments (Debye-Ang)
        XX    -173.3604     XY       5.2494     YY    -170.4098
        XZ      10.7381     YZ       0.8218     ZZ    -165.9914
    Octopole Moments (Debye-Ang^2)
       XXX    -111.0834    XXY     531.0234    XYY     -15.6185
       YYY    1615.9213    XXZ      -1.2291    XYZ     -38.0183
       YYZ      -2.1919    XZZ     -32.9515    YZZ     519.1598
       ZZZ     -20.9652
    Hexadecapole Moments (Debye-Ang^3)
      XXXX   -3778.6768   XXXY    -214.6464   XXYY   -3581.1957
      XYYY    -669.0259   YYYY  -17189.5493   XXXZ    1472.2764
      XXYZ     -72.7258   XYYZ     773.1010   YYYZ     468.7123
      XXZZ   -1154.8300   XYZZ       5.9759   YYZZ   -3332.7377
      XZZZ    1446.3988   YZZZ      88.7442   ZZZZ   -2866.0073
 -----------------------------------------------------------------
 Total job time:  271.37s(wall), 8837.52s(cpu) 
 Wed Sep 20 08:29:27 2023

        *************************************************************
        *                                                           *
        *  Thank you very much for using Q-Chem.  Have a nice day.  *
        *                                                           *
        *************************************************************


0 sent ACK to 0 
now end server 0 ... 
cleanup process ... done
remove work dirs ./qchem4136536.0 -- ./qchem4136536.0
rm -rf ./qchem4136536.0
rm -rf ./qchem4136536
