You are running Q-Chem version: 5.4.0

#
# job setting
#
local host:  exp-2-22
current dir: /expanse/lustre/projects/csd626/rramji/aromodel/PNDIT/Rotation_Test
input file:  Dimethyl_Naphthalene_Dicarboximide_Phi_25_Theta_240_Thiophene.qcin
output file: 
nprocs     : 1
nthreads   : 64
#
# qchem installation setting
#
QC:          /cm/shared/apps/spack/cpu/opt/spack/linux-centos8-zen2/gcc-10.2.0/qchem-5.4-akfmr7b3t57bfs6qan3padb2wnb2i7cl
QCAUX:       /cm/shared/apps/spack/cpu/opt/spack/linux-centos8-zen2/gcc-10.2.0/qchem-5.4-akfmr7b3t57bfs6qan3padb2wnb2i7cl/qcaux
QCPROG:      /cm/shared/apps/spack/cpu/opt/spack/linux-centos8-zen2/gcc-10.2.0/qchem-5.4-akfmr7b3t57bfs6qan3padb2wnb2i7cl/exe/qcprog.exe
QCPROG_S:    /cm/shared/apps/spack/cpu/opt/spack/linux-centos8-zen2/gcc-10.2.0/qchem-5.4-akfmr7b3t57bfs6qan3padb2wnb2i7cl/exe/qcprog.exe_s
PARALLEL:    -DPARALLEL
QCMPI:       mpich
#
# qchem directory setting
#
qcrun:       qchem2405293
QCSCRATCH:   .
QCLOCALSCR:  
QCTMPDIR:    .
QCFILEPREF:  ./qchem2405293
QCSAVEDIR:   
workdirs:    ./qchem2405293
workdir0:    ./qchem2405293
partmpdirs =  
#
# parallel setting
#
QCRSH:           ssh
QCMPI:           mpich
QCMPIRUN:        /cm/shared/apps/spack/cpu/opt/spack/linux-centos8-zen2/gcc-10.2.0/qchem-5.4-akfmr7b3t57bfs6qan3padb2wnb2i7cl/bin/mpi/mpirun_qchem
QCMACHINEFILE:   ./qchem2405293/hostfile
exp-2-22

#
# env setting
#
exported envs:   QC QCAUX QCSCRATCH QCRUNNAME QCFILEPREF QCPROG QCPROG_S GUIFILE

Running Job 1 of 1 Dimethyl_Naphthalene_Dicarboximide_Phi_25_Theta_240_Thiophene.qcin
qchem Dimethyl_Naphthalene_Dicarboximide_Phi_25_Theta_240_Thiophene.qcin_2405293.0 ./qchem2405293/ 1
/cm/shared/apps/spack/cpu/opt/spack/linux-centos8-zen2/gcc-10.2.0/qchem-5.4-akfmr7b3t57bfs6qan3padb2wnb2i7cl/bin/mpi/mpirun_qchem -machinefile ./qchem2405293/hostfile -np 1 /cm/shared/apps/spack/cpu/opt/spack/linux-centos8-zen2/gcc-10.2.0/qchem-5.4-akfmr7b3t57bfs6qan3padb2wnb2i7cl/exe/qcprog.exe Dimethyl_Naphthalene_Dicarboximide_Phi_25_Theta_240_Thiophene.qcin_2405293.0 ./qchem2405293/

Process 0 of 1 is on exp-2-22 - thread support 0
initial socket setup ...start
initial socket setup ...done 
now start server 0 ... 
                  Welcome to Q-Chem
     A Quantum Leap Into The Future Of Chemistry


 Q-Chem 5.4, Q-Chem, Inc., Pleasanton, CA (2021)

 License issued to: University of California, San Diego (site)

 E. Epifanovsky,  A. T. B. Gilbert,  Xintian Feng,  Joonho Lee,  Yuezhi Mao,  
 N. Mardirossian,  P. Pokhilko,  A. White,  M. Wormit,  M. P. Coons,  
 A. L. Dempwolff,  Zhengting Gan,  D. Hait,  P. R. Horn,  L. D. Jacobson,  
 I. Kaliman,  J. Kussmann,  A. W. Lange,  Ka Un Lao,  D. S. Levine,  Jie Liu,  
 S. C. McKenzie,  A. F. Morrison,  K. Nanda,  F. Plasser,  D. R. Rehn,  
 M. L. Vidal,  Zhi-Qiang You,  Ying Zhu,  B. Alam,  B. Albrecht,  
 A. Aldossary,  E. Alguire,  J. H. Andersen,  D. Barton,  K. Begam,  A. Behn,  
 Y. A. Bernard,  E. J. Berquist,  H. Burton,  A. Carreras,  K. Carter-Fenk,  
 R. Chakraborty,  A. D. Chien,  K. D. Closser,  V. Cofer-Shabica,  
 S. Dasgupta,  Jia Deng,  M. de Wergifosse,  M. Diedenhofen,  Hainam Do,  
 S. Ehlert,  Po-Tung Fang,  S. Fatehi,  Qingguo Feng,  J. Gayvert,  
 Qinghui Ge,  G. Gidofalvi,  M. Goldey,  J. Gomes,  C. Gonzalez-Espinoza,  
 S. Gulania,  A. Gunina,  M. W. D. Hanson-Heine,  P. H. P. Harbach,  
 A. W. Hauser,  M. F. Herbst,  M. Hernandez Vera,  M. Hodecker,  
 Z. C. Holden,  S. Houck,  Xunkun Huang,  Kerwin Hui,  B. C. Huynh,  
 M. Ivanov,  Hyunjun Ji,  Hanjie Jiang,  B. Kaduk,  S. Kaehler,  
 K. Khistyaev,  Jaehoon Kim,  P. Klunzinger,  Z. Koczor-Benda,  
 Joong Hoon Koh,  D. Kosenkov,  L. Koulias,  T. Kowalczyk,  C. M. Krauter,  
 K. Kue,  A. Kunitsa,  T. Kus,  A. Landau,  K. V. Lawler,  D. Lefrancois,  
 S. Lehtola,  Rain Li,  Yi-Pei Li,  Jiashu Liang,  M. Liebenthal,  
 Hung-Hsuan Lin,  You-Sheng Lin,  Fenglai Liu,  Kuan-Yu Liu,  
 M. Loipersberger,  A. Luenser,  A. Manjanath,  P. Manohar,  E. Mansoor,  
 S. F. Manzer,  Shan-Ping Mao,  A. V. Marenich,  T. Markovich,  S. Mason,  
 S. A. Maurer,  P. F. McLaughlin,  M. F. S. J. Menger,  J.-M. Mewes,  
 S. A. Mewes,  P. Morgante,  J. W. Mullinax,  T. S. Nguyen-Beck,  
 K. J. Oosterbaan,  G. Paran,  Alexander C. Paul,  Suranjan K. Paul,  
 F. Pavosevic,  Zheng Pei,  S. Prager,  E. I. Proynov,  E. Ramos,  B. Rana,  
 A. E. Rask,  A. Rettig,  R. M. Richard,  F. Rob,  E. Rossomme,  T. Scheele,  
 M. Scheurer,  M. Schneider,  N. Sergueev,  S. M. Sharada,  W. Skomorowski,  
 D. W. Small,  C. J. Stein,  Yu-Chuan Su,  E. J. Sundstrom,  Zhen Tao,  
 J. Thirman,  T. Tsuchimochi,  N. M. Tubman,  S. P. Veccham,  O. Vydrov,  
 J. Wenzel,  J. Witte,  A. Yamada,  Kun Yao,  S. Yeganeh,  S. R. Yost,  
 A. Zech,  Igor Ying Zhang,  Xing Zhang,  Yu Zhang,  D. Zuev,  
 A. Aspuru-Guzik,  A. T. Bell,  N. A. Besley,  K. B. Bravaya,  B. R. Brooks,  
 D. Casanova,  Jeng-Da Chai,  S. Coriani,  C. J. Cramer,  
 A. E. DePrince, III,  R. A. DiStasio Jr.,  A. Dreuw,  B. D. Dunietz,  
 T. R. Furlani,  W. A. Goddard III,  S. Grimme,  S. Hammes-Schiffer,  
 T. Head-Gordon,  W. J. Hehre,  Chao-Ping Hsu,  T.-C. Jagau,  Yousung Jung,  
 A. Klamt,  Jing Kong,  D. S. Lambrecht,  WanZhen Liang,  N. J. Mayhall,  
 C. W. McCurdy,  J. B. Neaton,  C. Ochsenfeld,  J. A. Parkhill,  R. Peverati,  
 V. A. Rassolov,  Yihan Shao,  L. V. Slipchenko,  T. Stauch,  R. P. Steele,  
 J. E. Subotnik,  A. J. W. Thom,  A. Tkatchenko,  D. G. Truhlar,  
 T. Van Voorhis,  T. A. Wesolowski,  K. B. Whaley,  H. L. Woodcock III,  
 P. M. Zimmerman,  S. Faraji,  P. M. W. Gill,  M. Head-Gordon,  
 J. M. Herbert,  A. I. Krylov

 Contributors to earlier versions of Q-Chem not listed above: 
 R. D. Adamson,  B. Austin,  R. Baer,  J. Baker,  G. J. O. Beran,  
 K. Brandhorst,  S. T. Brown,  E. F. C. Byrd,  A. K. Chakraborty,  
 G. K. L. Chan,  Chun-Min Chang,  Yunqing Chen,  C.-L. Cheng,  
 Siu Hung Chien,  D. M. Chipman,  D. L. Crittenden,  H. Dachsel,  
 R. J. Doerksen,  A. D. Dutoi,  R. G. Edgar,  J. Fosso-Tande,  
 L. Fusti-Molnar,  D. Ghosh,  A. Ghysels,  A. Golubeva-Zadorozhnaya,  
 J. Gonthier,  M. S. Gordon,  S. R. Gwaltney,  G. Hawkins,  J. E. Herr,  
 A. Heyden,  S. Hirata,  E. G. Hohenstein,  G. Kedziora,  F. J. Keil,  
 C. Kelley,  Jihan Kim,  R. A. King,  R. Z. Khaliullin,  P. P. Korambath,  
 W. Kurlancheek,  A. Laurent,  A. M. Lee,  M. S. Lee,  S. V. Levchenko,  
 Ching Yeh Lin,  D. Liotard,  E. Livshits,  R. C. Lochan,  I. Lotan,  
 L. A. Martinez-Martinez,  P. E. Maslen,  N. Nair,  D. P. O'Neill,  
 D. Neuhauser,  E. Neuscamman,  C. M. Oana,  R. Olivares-Amaya,  R. Olson,  
 T. M. Perrine,  B. Peters,  P. A. Pieniazek,  A. Prociuk,  Y. M. Rhee,  
 J. Ritchie,  M. A. Rohrdanz,  E. Rosta,  N. J. Russ,  H. F. Schaefer III,  
 M. W. Schmidt,  N. E. Schultz,  S. Sharma,  N. Shenvi,  C. D. Sherrill,  
 A. C. Simmonett,  A. Sodt,  T. Stein,  D. Stuck,  K. S. Thanthiriwatte,  
 V. Vanovschi,  L. Vogt,  Tao Wang,  A. Warshel,  M. A. Watson,  
 C. F. Williams,  Q. Wu,  X. Xu,  Jun Yang,  W. Zhang,  Yan Zhao

 Please cite Q-Chem as follows:
 Y. Shao et al., Mol. Phys. 113, 184-215 (2015)
 DOI: 10.1080/00268976.2014.952696

 Q-Chem 5.4.0 for Intel X86 EM64T Linux

 Parts of Q-Chem use Armadillo 9.800.1 (Horizon Scraper).
 http://arma.sourceforge.net/

 Q-Chem begins on Sun Sep 24 16:50:59 2023  

 Host: 
0

     Scratch files written to ./qchem2405293//
 May1621 |scratch|qcdevops|jenkins|workspace|build_RNUM    
 Parallel job on  1  processors
 Processing $rem in /cm/shared/apps/spack/cpu/opt/spack/linux-centos8-zen2/gcc-10.2.0/qchem-5.4-akfmr7b3t57bfs6qan3padb2wnb2i7cl/config/preferences:
 Processing $rem in /home/rramji/.qchemrc:
 Symmetry turned off for PCM/SM12/SMD calculation
 Core orbitals will be frozen

 Checking the input file for inconsistencies... 	...done.

 Q-Chem warning in module forms1/BasisType.C, line 2236:

 You are not using the predefined 5D/6D in this basis set.


--------------------------------------------------------------
User input:
--------------------------------------------------------------
$molecule
0 1
C	-0.221766	-6.741404	0.129743
C	-1.352515	-6.155638	0.782726
C	0.717339	-5.791452	-0.411926
C	-1.593885	-4.803786	0.921816
H	-2.112819	-6.821518	1.221908
C	0.464360	-4.378638	-0.266682
C	-0.688053	-3.838032	0.398255
C	1.369108	-3.413062	-0.789694
C	-0.939002	-2.426473	0.542349
C	1.130409	-2.059348	-0.652589
C	-0.000000	-1.478216	-0.000000
H	1.891446	-1.394783	-1.092453
C	1.967519	-6.187987	-1.131595
C	2.608118	-3.798164	-1.504912
N	2.819813	-5.170003	-1.625174
C	-2.836188	-4.424987	1.639129
C	-2.189558	-2.036627	1.263477
N	-3.042237	-3.049156	1.756898
O	2.307845	-7.353131	-1.324787
O	3.407213	-2.986854	-1.967354
O	-3.625890	-5.248946	2.095892
O	-2.547850	-0.878829	1.468685
C	4.043674	-5.563799	-2.330564
H	4.083407	-6.664085	-2.352178
H	4.925490	-5.147101	-1.807263
H	4.031877	-5.148785	-3.356568
C	-4.247206	-2.587487	2.452080
H	-4.803187	-3.483329	2.774302
H	-4.860536	-1.964972	1.773301
H	-3.966607	-1.962932	3.321351
H	-0.060567	-7.822318	0.037043
C	0.000000	0.000000	0.000000
S	0.335026	0.718942	1.580530
C	1.027130	2.203226	0.904911
C	0.421617	0.904557	-0.985400
C	0.979485	2.101144	-0.493528
H	0.322049	0.690978	-2.059934
H	1.351718	2.899571	-1.152593
H	1.399246	3.001430	1.556025
$end

$rem
JOBTYPE		SP
EXCHANGE	HF
CORRELATION	pRIMP2
BASIS		cc-pvtz
METHOD		rimp2
AUX_BASIS	rimp2-cc-pvtz
SOLVENT_METHOD	PCM
PURECART	11111
SYMMETRY	false
MEM_TOTAL	110000
SCF_CONVERGENCE = 6
THRESH=10
GUI = 2
$end



$solvent
dielectric 4.90
$end
--------------------------------------------------------------
 ----------------------------------------------------------------
             Standard Nuclear Orientation (Angstroms)
    I     Atom           X                Y                Z
 ----------------------------------------------------------------
    1      C      -0.2217660000    -6.7414040000     0.1297430000
    2      C      -1.3525150000    -6.1556380000     0.7827260000
    3      C       0.7173390000    -5.7914520000    -0.4119260000
    4      C      -1.5938850000    -4.8037860000     0.9218160000
    5      H      -2.1128190000    -6.8215180000     1.2219080000
    6      C       0.4643600000    -4.3786380000    -0.2666820000
    7      C      -0.6880530000    -3.8380320000     0.3982550000
    8      C       1.3691080000    -3.4130620000    -0.7896940000
    9      C      -0.9390020000    -2.4264730000     0.5423490000
   10      C       1.1304090000    -2.0593480000    -0.6525890000
   11      C       0.0000000000    -1.4782160000     0.0000000000
   12      H       1.8914460000    -1.3947830000    -1.0924530000
   13      C       1.9675190000    -6.1879870000    -1.1315950000
   14      C       2.6081180000    -3.7981640000    -1.5049120000
   15      N       2.8198130000    -5.1700030000    -1.6251740000
   16      C      -2.8361880000    -4.4249870000     1.6391290000
   17      C      -2.1895580000    -2.0366270000     1.2634770000
   18      N      -3.0422370000    -3.0491560000     1.7568980000
   19      O       2.3078450000    -7.3531310000    -1.3247870000
   20      O       3.4072130000    -2.9868540000    -1.9673540000
   21      O      -3.6258900000    -5.2489460000     2.0958920000
   22      O      -2.5478500000    -0.8788290000     1.4686850000
   23      C       4.0436740000    -5.5637990000    -2.3305640000
   24      H       4.0834070000    -6.6640850000    -2.3521780000
   25      H       4.9254900000    -5.1471010000    -1.8072630000
   26      H       4.0318770000    -5.1487850000    -3.3565680000
   27      C      -4.2472060000    -2.5874870000     2.4520800000
   28      H      -4.8031870000    -3.4833290000     2.7743020000
   29      H      -4.8605360000    -1.9649720000     1.7733010000
   30      H      -3.9666070000    -1.9629320000     3.3213510000
   31      H      -0.0605670000    -7.8223180000     0.0370430000
   32      C       0.0000000000     0.0000000000     0.0000000000
   33      S       0.3350260000     0.7189420000     1.5805300000
   34      C       1.0271300000     2.2032260000     0.9049110000
   35      C       0.4216170000     0.9045570000    -0.9854000000
   36      C       0.9794850000     2.1011440000    -0.4935280000
   37      H       0.3220490000     0.6909780000    -2.0599340000
   38      H       1.3517180000     2.8995710000    -1.1525930000
   39      H       1.3992460000     3.0014300000     1.5560250000
 ----------------------------------------------------------------
 Nuclear Repulsion Energy =        2498.41193371 hartrees
 There are       97 alpha and       97 beta electrons
 Requested basis set is cc-pVTZ
 There are 344 shells and 982 basis functions

 Total QAlloc Memory Limit 110000 MB
 Mega-Array Size       188 MB
 MEM_STATIC part       192 MB
 Discretize the solute cavity surface with Lebedev spheres
	Using 110 Lebedev grid points for each H atom
	Using 194 Lebedev grid points for other atoms
	Atomic van der Waals radii will be scaled by 1.20
 Remove points where switching function is < 1.0e-08
 Keep 2536 surface tesserae and discard 4022 interior tesserae
 Molecular Surface Area = 368.498 Angst**2
 Requested basis set is rimp2-cc-pVTZ
 There are 750 shells and 2588 basis functions
 A cutoff of  1.0D-10 yielded  31584 shell pairs
 There are    242970 function pairs (    315657 Cartesian)
 Smallest overlap matrix eigenvalue = 9.33E-06

 Q-Chem warning in module stvman/mkSTV.C, line 323:

 Overlap eigenvalue is smaller than square root of threshold
 Use THRESH >= 12 to get rid of this warning


 Scale SEOQF with 1.000000e-01/1.000000e-02/1.000000e-01

 Standard Electronic Orientation quadrupole field applied
 Nucleus-field energy     =     0.0000000167 hartrees
 Guess from superposition of atomic densities
 Warning:  Energy on first SCF cycle will be non-variational
 SAD guess density has 194.000000 electrons

 -----------------------------------------------------------------------
  General SCF calculation program by
  Eric Jon Sundstrom, Paul Horn, Yuezhi Mao, Dmitri Zuev, Alec White,
  David Stuck, Shaama M.S., Shane Yost, Joonho Lee, David Small,
  Daniel Levine, Susi Lehtola, Hugh Burton, Evgeny Epifanovsky,
  Bang C. Huynh
 -----------------------------------------------------------------------
 Hartree-Fock
 using 64 threads for integral computing
 -------------------------------------------------------
 OpenMP Integral computing Module                
 Release: version 1.0, May 2013, Q-Chem Inc. Pittsburgh 
 -------------------------------------------------------
 A restricted SCF calculation will be
 performed using DIIS
 SCF converges when DIIS error is below 1.0e-06
 ---------------------------------------
  Cycle       Energy         DIIS error
 ---------------------------------------
    1   -1581.2967394181      1.87e-02  
    2   -1570.1134766185      2.09e-03  
    3   -1570.4397220945      1.63e-03  
    4   -1570.6698721349      2.56e-04  
    5   -1570.6818920196      7.55e-05  
    6   -1570.6829448782      2.79e-05  
    7   -1570.6831857752      1.43e-05  
    8   -1570.6832627175      5.98e-06  
    9   -1570.6832750262      2.31e-06  
   10   -1570.6832771273      7.59e-07  Convergence criterion met
 ---------------------------------------
 SCF time:   CPU 5912.98s  wall 224.00s 

************** Final PCM Free Energy Summary **************
 G_electrostatic  =      -0.02505763 hartree =     -15.72389845 kcal/mol
 G_cavitation     =       0.00000000 hartree =       0.00000000 kcal/mol
 G_dispersion     =       0.00000000 hartree =       0.00000000 kcal/mol
 G_repulsion      =       0.00000000 hartree =       0.00000000 kcal/mol
 --------------------------------------------------
 Non-electrostatic Free Energy =       0.00000000 hartree =       0.00000000 kcal/mol
 Total                         =      -0.02505763 hartree =     -15.72389845 kcal/mol
 --------------------------------------------------
 SCF Energy (H0 + V/2)                       =   -1570.68327713 
 Solute Internal Energy (H0)                 =   -1570.65821950 
 Total Free Energy (H0 + V/2 + non-elec)     =   -1570.68327713 hartree
                                             = -985618.63233868 kcal/mol
***********************************************************

 SCF   energy in the final basis set =    -1570.6832771273
 Total energy in the final basis set =    -1570.6832771273


 --------------------------------------------------------------
  Generalized many-body perturbation theory program
  by Joonho Lee, Fazle Rob, Xintian Feng, Evgeny Epifanovsky

 No regularization used 
 (reg. param. = 0.0000e+00)
  (P|Q)^-1/2 Time:  CPU 182.32 s  wall 3.26 s

 In RI-MP2 calculation: 
 # of frozen core orbitals: 31

 Components of the RIMP2 correlation energy:
        aaaa    correlation energy =        -0.6167318250 a.u.
        abab    correlation energy =        -3.3932385600 a.u.
        bbbb    correlation energy =        -0.6167318250 a.u.
        non-Brillouin singles      =        -0.0000000000 a.u.
        total same-spin energy     =        -1.2334636500 a.u.
        total opposite-spin energy =        -3.3932385600 a.u.

 Total  RIMP2   correlation energy =        -4.6267022100 a.u.
        RIMP2         total energy =     -1575.3099793373 a.u.

 RI-MP2 Energy Time:  CPU 2517.78 s  wall 41.44 s
 
 --------------------------------------------------------------
 
                    Orbital Energies (a.u.)
 --------------------------------------------------------------
 
 Alpha MOs
 -- Occupied --
-91.9915 -20.5587 -20.5565 -20.5564 -20.5548 -15.6314 -15.6306 -11.4003
-11.3965 -11.3924 -11.3909 -11.3167 -11.3040 -11.3028 -11.3006 -11.2981
-11.2977 -11.2908 -11.2862 -11.2858 -11.2857 -11.2803 -11.2779 -11.2648
-11.2643 -11.2593 -11.2511  -8.9908  -6.6716  -6.6711  -6.6705  -1.4251
 -1.4240  -1.4044  -1.4031  -1.2676  -1.2652  -1.2177  -1.1773  -1.1439
 -1.1175  -1.0631  -1.0499  -0.9930  -0.9902  -0.9853  -0.9591  -0.9479
 -0.8972  -0.8793  -0.8775  -0.8605  -0.7952  -0.7770  -0.7736  -0.7628
 -0.7344  -0.7184  -0.7058  -0.6947  -0.6819  -0.6743  -0.6664  -0.6622
 -0.6569  -0.6417  -0.6376  -0.6336  -0.6294  -0.6131  -0.5848  -0.5846
 -0.5782  -0.5737  -0.5670  -0.5644  -0.5641  -0.5553  -0.5534  -0.5484
 -0.5320  -0.5253  -0.5218  -0.5163  -0.4835  -0.4722  -0.4665  -0.4605
 -0.4589  -0.4533  -0.4282  -0.4182  -0.4088  -0.3626  -0.3514  -0.3364
 -0.3136
 -- Virtual --
 -0.0199   0.0611   0.0703   0.0933   0.1170   0.1540   0.1581   0.1589
  0.1657   0.1685   0.1782   0.1823   0.1846   0.1933   0.2065   0.2075
  0.2174   0.2233   0.2281   0.2295   0.2348   0.2401   0.2610   0.2618
  0.2652   0.3045   0.3126   0.3159   0.3179   0.3236   0.3255   0.3358
  0.3418   0.3434   0.3510   0.3567   0.3590   0.3595   0.3716   0.3762
  0.3781   0.3815   0.3888   0.3937   0.3971   0.4021   0.4076   0.4095
  0.4147   0.4258   0.4327   0.4373   0.4421   0.4437   0.4518   0.4538
  0.4570   0.4610   0.4707   0.4743   0.4759   0.4801   0.4860   0.4930
  0.4944   0.4988   0.5027   0.5121   0.5132   0.5218   0.5260   0.5284
  0.5323   0.5422   0.5472   0.5509   0.5533   0.5570   0.5632   0.5671
  0.5690   0.5724   0.5777   0.5846   0.5886   0.5946   0.5977   0.5994
  0.6026   0.6059   0.6114   0.6135   0.6203   0.6239   0.6247   0.6302
  0.6313   0.6347   0.6366   0.6378   0.6398   0.6503   0.6542   0.6653
  0.6714   0.6777   0.6901   0.6910   0.6980   0.7064   0.7128   0.7192
  0.7269   0.7353   0.7360   0.7409   0.7486   0.7564   0.7589   0.7621
  0.7649   0.7689   0.7794   0.7908   0.7973   0.8032   0.8070   0.8147
  0.8212   0.8235   0.8343   0.8387   0.8412   0.8486   0.8531   0.8554
  0.8623   0.8651   0.8661   0.8727   0.8840   0.8886   0.8977   0.9021
  0.9054   0.9143   0.9190   0.9264   0.9287   0.9355   0.9408   0.9465
  0.9489   0.9556   0.9585   0.9651   0.9696   0.9761   0.9776   0.9826
  0.9844   0.9932   0.9999   1.0034   1.0096   1.0156   1.0168   1.0245
  1.0316   1.0384   1.0433   1.0569   1.0627   1.0639   1.0706   1.0758
  1.0807   1.0818   1.0867   1.0894   1.0941   1.1002   1.1028   1.1100
  1.1216   1.1296   1.1310   1.1387   1.1430   1.1465   1.1539   1.1580
  1.1628   1.1640   1.1714   1.1775   1.1805   1.1857   1.1933   1.1985
  1.2013   1.2108   1.2148   1.2207   1.2249   1.2281   1.2361   1.2384
  1.2481   1.2490   1.2562   1.2655   1.2671   1.2693   1.2857   1.3011
  1.3061   1.3241   1.3304   1.3335   1.3394   1.3453   1.3503   1.3567
  1.3661   1.3799   1.3814   1.3840   1.3901   1.3984   1.4090   1.4166
  1.4235   1.4265   1.4347   1.4391   1.4465   1.4500   1.4588   1.4680
  1.4796   1.4829   1.4878   1.4895   1.4986   1.5069   1.5157   1.5211
  1.5222   1.5339   1.5347   1.5430   1.5490   1.5549   1.5569   1.5635
  1.5650   1.5725   1.5747   1.5873   1.5934   1.6098   1.6177   1.6293
  1.6358   1.6453   1.6508   1.6632   1.6660   1.6738   1.6785   1.6864
  1.6949   1.6981   1.7111   1.7175   1.7242   1.7353   1.7416   1.7449
  1.7515   1.7524   1.7688   1.7834   1.7887   1.7978   1.8041   1.8126
  1.8196   1.8318   1.8339   1.8371   1.8525   1.8601   1.8624   1.8668
  1.8756   1.8814   1.8947   1.9105   1.9190   1.9318   1.9417   1.9433
  1.9528   1.9664   1.9726   1.9836   1.9909   1.9946   2.0213   2.0302
  2.0402   2.0411   2.0591   2.0684   2.0803   2.1129   2.1168   2.1303
  2.1396   2.1498   2.1574   2.1742   2.1883   2.2041   2.2111   2.2210
  2.2320   2.2393   2.2463   2.2590   2.2767   2.2881   2.2950   2.2969
  2.3166   2.3202   2.3253   2.3321   2.3463   2.3585   2.3628   2.3815
  2.3982   2.4208   2.4339   2.4428   2.4506   2.4545   2.4569   2.4650
  2.4785   2.4855   2.4943   2.4991   2.5083   2.5111   2.5242   2.5478
  2.5589   2.5619   2.5771   2.5825   2.5893   2.5963   2.5972   2.6011
  2.6144   2.6207   2.6293   2.6448   2.6528   2.6553   2.6648   2.6676
  2.6727   2.6806   2.6874   2.6980   2.7106   2.7118   2.7152   2.7246
  2.7315   2.7469   2.7491   2.7559   2.7579   2.7661   2.7799   2.7884
  2.7975   2.8018   2.8167   2.8284   2.8338   2.8438   2.8519   2.8603
  2.8667   2.8731   2.8766   2.8813   2.8885   2.8915   2.8977   2.9065
  2.9115   2.9188   2.9287   2.9355   2.9470   2.9528   2.9573   2.9681
  2.9696   2.9803   2.9849   2.9887   3.0010   3.0056   3.0093   3.0161
  3.0201   3.0250   3.0337   3.0404   3.0536   3.0589   3.0671   3.0703
  3.0800   3.0897   3.0933   3.1012   3.1095   3.1101   3.1177   3.1220
  3.1230   3.1293   3.1438   3.1482   3.1604   3.1681   3.1707   3.1775
  3.1884   3.1921   3.1974   3.2044   3.2069   3.2148   3.2167   3.2223
  3.2261   3.2304   3.2358   3.2426   3.2504   3.2523   3.2564   3.2599
  3.2651   3.2692   3.2767   3.2792   3.2852   3.2881   3.2911   3.2954
  3.2977   3.3143   3.3185   3.3221   3.3253   3.3258   3.3328   3.3369
  3.3409   3.3414   3.3457   3.3491   3.3624   3.3636   3.3673   3.3700
  3.3793   3.3805   3.3872   3.3959   3.4005   3.4023   3.4063   3.4222
  3.4257   3.4276   3.4396   3.4419   3.4459   3.4495   3.4541   3.4559
  3.4586   3.4623   3.4696   3.4715   3.4751   3.4790   3.4918   3.4930
  3.4947   3.4971   3.4997   3.5068   3.5105   3.5164   3.5216   3.5319
  3.5329   3.5401   3.5461   3.5601   3.5643   3.5672   3.5740   3.5792
  3.5831   3.5887   3.6031   3.6060   3.6134   3.6207   3.6231   3.6243
  3.6315   3.6322   3.6391   3.6464   3.6562   3.6609   3.6696   3.6728
  3.6863   3.6902   3.6968   3.7012   3.7094   3.7113   3.7152   3.7195
  3.7278   3.7349   3.7391   3.7454   3.7495   3.7556   3.7594   3.7641
  3.7708   3.7798   3.7819   3.7875   3.7935   3.7961   3.7993   3.8048
  3.8091   3.8146   3.8245   3.8395   3.8412   3.8538   3.8543   3.8594
  3.8608   3.8706   3.8771   3.8846   3.8877   3.9002   3.9070   3.9192
  3.9264   3.9295   3.9408   3.9457   3.9501   3.9525   3.9594   3.9724
  3.9782   3.9910   4.0028   4.0093   4.0120   4.0202   4.0251   4.0335
  4.0533   4.0628   4.0664   4.0769   4.0814   4.0901   4.0970   4.1076
  4.1189   4.1231   4.1345   4.1353   4.1505   4.1586   4.1635   4.1661
  4.1773   4.1815   4.1866   4.1940   4.2031   4.2128   4.2250   4.2368
  4.2402   4.2582   4.2611   4.2662   4.2704   4.2764   4.2827   4.2926
  4.2940   4.2983   4.3023   4.3060   4.3157   4.3274   4.3298   4.3380
  4.3411   4.3544   4.3592   4.3635   4.3669   4.3682   4.3752   4.3830
  4.3880   4.3982   4.4016   4.4048   4.4077   4.4137   4.4253   4.4304
  4.4516   4.4612   4.4662   4.4818   4.4956   4.5082   4.5126   4.5177
  4.5207   4.5261   4.5325   4.5422   4.5448   4.5545   4.5701   4.5727
  4.5770   4.5794   4.5870   4.5910   4.6049   4.6112   4.6235   4.6292
  4.6426   4.6581   4.6617   4.6665   4.6713   4.6848   4.6895   4.6902
  4.7105   4.7250   4.7355   4.7443   4.7514   4.7655   4.7698   4.7920
  4.8118   4.8236   4.8291   4.8372   4.8453   4.8584   4.8690   4.8747
  4.8774   4.8928   4.9058   4.9170   4.9245   4.9401   4.9705   4.9717
  4.9942   5.0072   5.0233   5.0328   5.0421   5.0493   5.0510   5.0686
  5.0858   5.0991   5.1059   5.1068   5.1235   5.1273   5.1404   5.1442
  5.1583   5.1752   5.1826   5.1866   5.1991   5.2167   5.2366   5.2562
  5.2613   5.2771   5.2832   5.2934   5.3211   5.3275   5.3304   5.3343
  5.3587   5.3954   5.3962   5.4024   5.4139   5.4272   5.4306   5.4502
  5.4918   5.5041   5.5074   5.5087   5.5128   5.5316   5.5459   5.5481
  5.5550   5.5598   5.5634   5.5740   5.5774   5.5891   5.6022   5.6044
  5.6195   5.6308   5.6522   5.6542   5.6625   5.6730   5.6766   5.6876
  5.6952   5.7000   5.7320   5.7414   5.7479   5.7540   5.7588   5.7691
  5.7727   5.7778   5.8124   5.8268   5.8447   5.8621   5.8764   5.9195
  5.9374   5.9590   5.9964   6.0119   6.0214   6.0282   6.0298   6.0401
  6.0814   6.0903   6.1003   6.1135   6.1162   6.1636   6.1904   6.2062
  6.2172   6.2182   6.2207   6.2526   6.2638   6.2722   6.3005   6.3395
  6.3503   6.3790   6.4153   6.4448   6.4624   6.5224   6.5617   6.5687
  6.5773   6.5956   6.6208   6.6470   6.6591   6.6751   6.7093   6.8293
  6.8316   6.8786   6.8859   6.8939   6.9110   6.9241   6.9252   7.0776
  7.1002   7.1409   7.1842   7.1878   7.2270   7.3321   7.3408   7.3439
  7.3527   7.4660   7.5419   7.5571   7.5720   7.5736   7.5849   7.6334
  7.6701   7.6809   7.7208   8.3304   9.9537  10.2920  11.0888  11.1717
 11.6595  11.7357  12.0068  12.3593  12.4273  12.6392  12.8450  12.8960
 13.2941  13.5531  13.8061  13.9269  14.0199  14.1136  14.2288  14.3454
 14.4200  14.7192  15.3024  15.7361  15.9872
 --------------------------------------------------------------
 
          Ground-State Mulliken Net Atomic Charges

     Atom                 Charge (a.u.)
  ----------------------------------------
      1 C                    -0.134058
      2 C                    -0.108641
      3 C                    -0.040192
      4 C                    -0.000274
      5 H                     0.188839
      6 C                     0.001641
      7 C                     0.073936
      8 C                     0.002633
      9 C                    -0.033644
     10 C                    -0.114276
     11 C                     0.050289
     12 H                     0.188762
     13 C                     0.359950
     14 C                     0.363780
     15 N                    -0.101521
     16 C                     0.359007
     17 C                     0.349344
     18 N                    -0.096652
     19 O                    -0.464720
     20 O                    -0.476463
     21 O                    -0.480494
     22 O                    -0.461147
     23 C                    -0.201193
     24 H                     0.141155
     25 H                     0.112497
     26 H                     0.112281
     27 C                    -0.196306
     28 H                     0.133604
     29 H                     0.113345
     30 H                     0.113196
     31 H                     0.213984
     32 C                    -0.000063
     33 S                     0.049591
     34 C                    -0.205758
     35 C                    -0.226500
     36 C                    -0.185986
     37 H                     0.195000
     38 H                     0.193099
     39 H                     0.211955
  ----------------------------------------
  Sum of atomic charges =     0.000000

 -----------------------------------------------------------------
                    Cartesian Multipole Moments
 -----------------------------------------------------------------
    Charge (ESU x 10^10)
                 0.0000
    Dipole Moment (Debye)
         X       0.9738      Y       1.0638      Z      -0.8840
       Tot       1.6915
    Quadrupole Moments (Debye-Ang)
        XX    -177.4955     XY       5.1514     YY    -167.0051
        XZ       9.1700     YZ       0.3988     ZZ    -162.4058
    Octopole Moments (Debye-Ang^2)
       XXX     -13.9059    XXY     536.7569    XYY       2.6760
       YYY    1593.3076    XXZ     -26.7205    XYZ     -32.4777
       YYZ     -15.6099    XZZ       0.2832    YZZ     502.1653
       ZZZ     -80.0908
    Hexadecapole Moments (Debye-Ang^3)
      XXXX   -4733.1111   XXXY     -26.1971   XXYY   -3834.4629
      XYYY     635.2782   YYYY  -17086.8903   XXXZ    1311.8433
      XXYZ      65.8775   XYYZ     674.8373   YYYZ    -418.7596
      XXZZ   -1130.5959   XYZZ       6.1856   YYZZ   -3075.8186
      XZZZ    1247.0659   YZZZ    -168.8038   ZZZZ   -1899.0185
 -----------------------------------------------------------------
 Total job time:  268.94s(wall), 8548.92s(cpu) 
 Sun Sep 24 16:55:28 2023

        *************************************************************
        *                                                           *
        *  Thank you very much for using Q-Chem.  Have a nice day.  *
        *                                                           *
        *************************************************************


0 sent ACK to 0 
now end server 0 ... 
cleanup process ... done
remove work dirs ./qchem2405293.0 -- ./qchem2405293.0
rm -rf ./qchem2405293.0
rm -rf ./qchem2405293
