You are running Q-Chem version: 5.4.0

#
# job setting
#
local host:  exp-3-38
current dir: /expanse/lustre/projects/csd626/rramji/aromodel/PNDIT/Rotation_Test
input file:  Dimethyl_Naphthalene_Dicarboximide_Phi_20_Theta_180_Thiophene.qcin
output file: 
nprocs     : 1
nthreads   : 64
#
# qchem installation setting
#
QC:          /cm/shared/apps/spack/cpu/opt/spack/linux-centos8-zen2/gcc-10.2.0/qchem-5.4-akfmr7b3t57bfs6qan3padb2wnb2i7cl
QCAUX:       /cm/shared/apps/spack/cpu/opt/spack/linux-centos8-zen2/gcc-10.2.0/qchem-5.4-akfmr7b3t57bfs6qan3padb2wnb2i7cl/qcaux
QCPROG:      /cm/shared/apps/spack/cpu/opt/spack/linux-centos8-zen2/gcc-10.2.0/qchem-5.4-akfmr7b3t57bfs6qan3padb2wnb2i7cl/exe/qcprog.exe
QCPROG_S:    /cm/shared/apps/spack/cpu/opt/spack/linux-centos8-zen2/gcc-10.2.0/qchem-5.4-akfmr7b3t57bfs6qan3padb2wnb2i7cl/exe/qcprog.exe_s
PARALLEL:    -DPARALLEL
QCMPI:       mpich
#
# qchem directory setting
#
qcrun:       qchem413678
QCSCRATCH:   .
QCLOCALSCR:  
QCTMPDIR:    .
QCFILEPREF:  ./qchem413678
QCSAVEDIR:   
workdirs:    ./qchem413678
workdir0:    ./qchem413678
partmpdirs =  
#
# parallel setting
#
QCRSH:           ssh
QCMPI:           mpich
QCMPIRUN:        /cm/shared/apps/spack/cpu/opt/spack/linux-centos8-zen2/gcc-10.2.0/qchem-5.4-akfmr7b3t57bfs6qan3padb2wnb2i7cl/bin/mpi/mpirun_qchem
QCMACHINEFILE:   ./qchem413678/hostfile
exp-3-38

#
# env setting
#
exported envs:   QC QCAUX QCSCRATCH QCRUNNAME QCFILEPREF QCPROG QCPROG_S GUIFILE

Running Job 1 of 1 Dimethyl_Naphthalene_Dicarboximide_Phi_20_Theta_180_Thiophene.qcin
qchem Dimethyl_Naphthalene_Dicarboximide_Phi_20_Theta_180_Thiophene.qcin_413678.0 ./qchem413678/ 1
/cm/shared/apps/spack/cpu/opt/spack/linux-centos8-zen2/gcc-10.2.0/qchem-5.4-akfmr7b3t57bfs6qan3padb2wnb2i7cl/bin/mpi/mpirun_qchem -machinefile ./qchem413678/hostfile -np 1 /cm/shared/apps/spack/cpu/opt/spack/linux-centos8-zen2/gcc-10.2.0/qchem-5.4-akfmr7b3t57bfs6qan3padb2wnb2i7cl/exe/qcprog.exe Dimethyl_Naphthalene_Dicarboximide_Phi_20_Theta_180_Thiophene.qcin_413678.0 ./qchem413678/

Process 0 of 1 is on exp-3-38 - thread support 0
initial socket setup ...start
initial socket setup ...done 
now start server 0 ... 
                  Welcome to Q-Chem
     A Quantum Leap Into The Future Of Chemistry


 Q-Chem 5.4, Q-Chem, Inc., Pleasanton, CA (2021)

 License issued to: University of California, San Diego (site)

 E. Epifanovsky,  A. T. B. Gilbert,  Xintian Feng,  Joonho Lee,  Yuezhi Mao,  
 N. Mardirossian,  P. Pokhilko,  A. White,  M. Wormit,  M. P. Coons,  
 A. L. Dempwolff,  Zhengting Gan,  D. Hait,  P. R. Horn,  L. D. Jacobson,  
 I. Kaliman,  J. Kussmann,  A. W. Lange,  Ka Un Lao,  D. S. Levine,  Jie Liu,  
 S. C. McKenzie,  A. F. Morrison,  K. Nanda,  F. Plasser,  D. R. Rehn,  
 M. L. Vidal,  Zhi-Qiang You,  Ying Zhu,  B. Alam,  B. Albrecht,  
 A. Aldossary,  E. Alguire,  J. H. Andersen,  D. Barton,  K. Begam,  A. Behn,  
 Y. A. Bernard,  E. J. Berquist,  H. Burton,  A. Carreras,  K. Carter-Fenk,  
 R. Chakraborty,  A. D. Chien,  K. D. Closser,  V. Cofer-Shabica,  
 S. Dasgupta,  Jia Deng,  M. de Wergifosse,  M. Diedenhofen,  Hainam Do,  
 S. Ehlert,  Po-Tung Fang,  S. Fatehi,  Qingguo Feng,  J. Gayvert,  
 Qinghui Ge,  G. Gidofalvi,  M. Goldey,  J. Gomes,  C. Gonzalez-Espinoza,  
 S. Gulania,  A. Gunina,  M. W. D. Hanson-Heine,  P. H. P. Harbach,  
 A. W. Hauser,  M. F. Herbst,  M. Hernandez Vera,  M. Hodecker,  
 Z. C. Holden,  S. Houck,  Xunkun Huang,  Kerwin Hui,  B. C. Huynh,  
 M. Ivanov,  Hyunjun Ji,  Hanjie Jiang,  B. Kaduk,  S. Kaehler,  
 K. Khistyaev,  Jaehoon Kim,  P. Klunzinger,  Z. Koczor-Benda,  
 Joong Hoon Koh,  D. Kosenkov,  L. Koulias,  T. Kowalczyk,  C. M. Krauter,  
 K. Kue,  A. Kunitsa,  T. Kus,  A. Landau,  K. V. Lawler,  D. Lefrancois,  
 S. Lehtola,  Rain Li,  Yi-Pei Li,  Jiashu Liang,  M. Liebenthal,  
 Hung-Hsuan Lin,  You-Sheng Lin,  Fenglai Liu,  Kuan-Yu Liu,  
 M. Loipersberger,  A. Luenser,  A. Manjanath,  P. Manohar,  E. Mansoor,  
 S. F. Manzer,  Shan-Ping Mao,  A. V. Marenich,  T. Markovich,  S. Mason,  
 S. A. Maurer,  P. F. McLaughlin,  M. F. S. J. Menger,  J.-M. Mewes,  
 S. A. Mewes,  P. Morgante,  J. W. Mullinax,  T. S. Nguyen-Beck,  
 K. J. Oosterbaan,  G. Paran,  Alexander C. Paul,  Suranjan K. Paul,  
 F. Pavosevic,  Zheng Pei,  S. Prager,  E. I. Proynov,  E. Ramos,  B. Rana,  
 A. E. Rask,  A. Rettig,  R. M. Richard,  F. Rob,  E. Rossomme,  T. Scheele,  
 M. Scheurer,  M. Schneider,  N. Sergueev,  S. M. Sharada,  W. Skomorowski,  
 D. W. Small,  C. J. Stein,  Yu-Chuan Su,  E. J. Sundstrom,  Zhen Tao,  
 J. Thirman,  T. Tsuchimochi,  N. M. Tubman,  S. P. Veccham,  O. Vydrov,  
 J. Wenzel,  J. Witte,  A. Yamada,  Kun Yao,  S. Yeganeh,  S. R. Yost,  
 A. Zech,  Igor Ying Zhang,  Xing Zhang,  Yu Zhang,  D. Zuev,  
 A. Aspuru-Guzik,  A. T. Bell,  N. A. Besley,  K. B. Bravaya,  B. R. Brooks,  
 D. Casanova,  Jeng-Da Chai,  S. Coriani,  C. J. Cramer,  
 A. E. DePrince, III,  R. A. DiStasio Jr.,  A. Dreuw,  B. D. Dunietz,  
 T. R. Furlani,  W. A. Goddard III,  S. Grimme,  S. Hammes-Schiffer,  
 T. Head-Gordon,  W. J. Hehre,  Chao-Ping Hsu,  T.-C. Jagau,  Yousung Jung,  
 A. Klamt,  Jing Kong,  D. S. Lambrecht,  WanZhen Liang,  N. J. Mayhall,  
 C. W. McCurdy,  J. B. Neaton,  C. Ochsenfeld,  J. A. Parkhill,  R. Peverati,  
 V. A. Rassolov,  Yihan Shao,  L. V. Slipchenko,  T. Stauch,  R. P. Steele,  
 J. E. Subotnik,  A. J. W. Thom,  A. Tkatchenko,  D. G. Truhlar,  
 T. Van Voorhis,  T. A. Wesolowski,  K. B. Whaley,  H. L. Woodcock III,  
 P. M. Zimmerman,  S. Faraji,  P. M. W. Gill,  M. Head-Gordon,  
 J. M. Herbert,  A. I. Krylov

 Contributors to earlier versions of Q-Chem not listed above: 
 R. D. Adamson,  B. Austin,  R. Baer,  J. Baker,  G. J. O. Beran,  
 K. Brandhorst,  S. T. Brown,  E. F. C. Byrd,  A. K. Chakraborty,  
 G. K. L. Chan,  Chun-Min Chang,  Yunqing Chen,  C.-L. Cheng,  
 Siu Hung Chien,  D. M. Chipman,  D. L. Crittenden,  H. Dachsel,  
 R. J. Doerksen,  A. D. Dutoi,  R. G. Edgar,  J. Fosso-Tande,  
 L. Fusti-Molnar,  D. Ghosh,  A. Ghysels,  A. Golubeva-Zadorozhnaya,  
 J. Gonthier,  M. S. Gordon,  S. R. Gwaltney,  G. Hawkins,  J. E. Herr,  
 A. Heyden,  S. Hirata,  E. G. Hohenstein,  G. Kedziora,  F. J. Keil,  
 C. Kelley,  Jihan Kim,  R. A. King,  R. Z. Khaliullin,  P. P. Korambath,  
 W. Kurlancheek,  A. Laurent,  A. M. Lee,  M. S. Lee,  S. V. Levchenko,  
 Ching Yeh Lin,  D. Liotard,  E. Livshits,  R. C. Lochan,  I. Lotan,  
 L. A. Martinez-Martinez,  P. E. Maslen,  N. Nair,  D. P. O'Neill,  
 D. Neuhauser,  E. Neuscamman,  C. M. Oana,  R. Olivares-Amaya,  R. Olson,  
 T. M. Perrine,  B. Peters,  P. A. Pieniazek,  A. Prociuk,  Y. M. Rhee,  
 J. Ritchie,  M. A. Rohrdanz,  E. Rosta,  N. J. Russ,  H. F. Schaefer III,  
 M. W. Schmidt,  N. E. Schultz,  S. Sharma,  N. Shenvi,  C. D. Sherrill,  
 A. C. Simmonett,  A. Sodt,  T. Stein,  D. Stuck,  K. S. Thanthiriwatte,  
 V. Vanovschi,  L. Vogt,  Tao Wang,  A. Warshel,  M. A. Watson,  
 C. F. Williams,  Q. Wu,  X. Xu,  Jun Yang,  W. Zhang,  Yan Zhao

 Please cite Q-Chem as follows:
 Y. Shao et al., Mol. Phys. 113, 184-215 (2015)
 DOI: 10.1080/00268976.2014.952696

 Q-Chem 5.4.0 for Intel X86 EM64T Linux

 Parts of Q-Chem use Armadillo 9.800.1 (Horizon Scraper).
 http://arma.sourceforge.net/

 Q-Chem begins on Wed Sep 20 09:22:55 2023  

 Host: 
0

     Scratch files written to ./qchem413678//
 May1621 |scratch|qcdevops|jenkins|workspace|build_RNUM    
 Parallel job on  1  processors
 Processing $rem in /cm/shared/apps/spack/cpu/opt/spack/linux-centos8-zen2/gcc-10.2.0/qchem-5.4-akfmr7b3t57bfs6qan3padb2wnb2i7cl/config/preferences:
 Processing $rem in /home/rramji/.qchemrc:
 Symmetry turned off for PCM/SM12/SMD calculation
 Core orbitals will be frozen

 Checking the input file for inconsistencies... 	...done.

 Q-Chem warning in module forms1/BasisType.C, line 2236:

 You are not using the predefined 5D/6D in this basis set.


--------------------------------------------------------------
User input:
--------------------------------------------------------------
$molecule
0 1
C	0.001478	-6.741404	0.256927
C	0.001603	-6.155638	1.562675
C	0.001931	-5.791452	-0.827197
C	0.001374	-4.803786	1.841253
H	0.001794	-6.821518	2.440709
C	0.001227	-4.378638	-0.535488
C	0.000872	-3.838032	0.794999
C	0.000658	-3.413062	-1.580529
C	0.000186	-2.426473	1.084374
C	0.000046	-2.059348	-1.305258
C	-0.000000	-1.478216	-0.000000
H	-0.000369	-1.394783	-2.184267
C	0.003770	-6.187987	-2.269719
C	0.000767	-3.798164	-3.011152
N	0.002465	-5.170003	-3.254617
C	0.001433	-4.424987	3.275775
C	-0.000576	-2.036627	2.527951
N	0.000400	-3.049156	3.513104
O	0.006623	-7.353131	-2.661046
O	-0.000172	-2.986854	-3.934410
O	0.002151	-5.248946	4.188059
O	-0.002006	-0.878829	2.940845
C	0.003509	-5.563799	-4.667206
H	0.004658	-6.664085	-4.712423
H	0.897610	-5.147101	-5.169231
H	-0.890935	-5.148785	-5.169992
C	-0.000039	-2.587487	4.904229
H	0.001022	-3.483329	5.546833
H	-0.894545	-1.964972	5.095998
H	0.893071	-1.962932	5.095858
H	0.001797	-7.822318	0.070974
C	0.000000	0.000000	0.000000
S	0.271091	0.745405	1.580530
C	0.831198	2.284363	0.904911
C	0.341175	0.937861	-0.985400
C	0.792631	2.178516	-0.493528
H	0.260601	0.716417	-2.059934
H	1.093860	3.006347	-1.152593
H	1.132330	3.111961	1.556025
$end

$rem
JOBTYPE		SP
EXCHANGE	HF
CORRELATION	pRIMP2
BASIS		cc-pvtz
METHOD		rimp2
AUX_BASIS	rimp2-cc-pvtz
SOLVENT_METHOD	PCM
PURECART	11111
SYMMETRY	false
MEM_TOTAL	110000
SCF_CONVERGENCE = 6
THRESH=10
GUI = 2
$end



$solvent
dielectric 4.90
$end
--------------------------------------------------------------
 ----------------------------------------------------------------
             Standard Nuclear Orientation (Angstroms)
    I     Atom           X                Y                Z
 ----------------------------------------------------------------
    1      C       0.0014780000    -6.7414040000     0.2569270000
    2      C       0.0016030000    -6.1556380000     1.5626750000
    3      C       0.0019310000    -5.7914520000    -0.8271970000
    4      C       0.0013740000    -4.8037860000     1.8412530000
    5      H       0.0017940000    -6.8215180000     2.4407090000
    6      C       0.0012270000    -4.3786380000    -0.5354880000
    7      C       0.0008720000    -3.8380320000     0.7949990000
    8      C       0.0006580000    -3.4130620000    -1.5805290000
    9      C       0.0001860000    -2.4264730000     1.0843740000
   10      C       0.0000460000    -2.0593480000    -1.3052580000
   11      C       0.0000000000    -1.4782160000     0.0000000000
   12      H      -0.0003690000    -1.3947830000    -2.1842670000
   13      C       0.0037700000    -6.1879870000    -2.2697190000
   14      C       0.0007670000    -3.7981640000    -3.0111520000
   15      N       0.0024650000    -5.1700030000    -3.2546170000
   16      C       0.0014330000    -4.4249870000     3.2757750000
   17      C      -0.0005760000    -2.0366270000     2.5279510000
   18      N       0.0004000000    -3.0491560000     3.5131040000
   19      O       0.0066230000    -7.3531310000    -2.6610460000
   20      O      -0.0001720000    -2.9868540000    -3.9344100000
   21      O       0.0021510000    -5.2489460000     4.1880590000
   22      O      -0.0020060000    -0.8788290000     2.9408450000
   23      C       0.0035090000    -5.5637990000    -4.6672060000
   24      H       0.0046580000    -6.6640850000    -4.7124230000
   25      H       0.8976100000    -5.1471010000    -5.1692310000
   26      H      -0.8909350000    -5.1487850000    -5.1699920000
   27      C      -0.0000390000    -2.5874870000     4.9042290000
   28      H       0.0010220000    -3.4833290000     5.5468330000
   29      H      -0.8945450000    -1.9649720000     5.0959980000
   30      H       0.8930710000    -1.9629320000     5.0958580000
   31      H       0.0017970000    -7.8223180000     0.0709740000
   32      C       0.0000000000     0.0000000000     0.0000000000
   33      S       0.2710910000     0.7454050000     1.5805300000
   34      C       0.8311980000     2.2843630000     0.9049110000
   35      C       0.3411750000     0.9378610000    -0.9854000000
   36      C       0.7926310000     2.1785160000    -0.4935280000
   37      H       0.2606010000     0.7164170000    -2.0599340000
   38      H       1.0938600000     3.0063470000    -1.1525930000
   39      H       1.1323300000     3.1119610000     1.5560250000
 ----------------------------------------------------------------
 Nuclear Repulsion Energy =        2517.46745248 hartrees
 There are       97 alpha and       97 beta electrons
 Requested basis set is cc-pVTZ
 There are 344 shells and 982 basis functions

 Total QAlloc Memory Limit 110000 MB
 Mega-Array Size       188 MB
 MEM_STATIC part       192 MB
 Discretize the solute cavity surface with Lebedev spheres
	Using 110 Lebedev grid points for each H atom
	Using 194 Lebedev grid points for other atoms
	Atomic van der Waals radii will be scaled by 1.20
 Remove points where switching function is < 1.0e-08
 Keep 2488 surface tesserae and discard 4070 interior tesserae
 Molecular Surface Area = 359.601 Angst**2
 Requested basis set is rimp2-cc-pVTZ
 There are 750 shells and 2588 basis functions
 A cutoff of  1.0D-10 yielded  31820 shell pairs
 There are    244926 function pairs (    318164 Cartesian)
 Smallest overlap matrix eigenvalue = 9.57E-06

 Q-Chem warning in module stvman/mkSTV.C, line 323:

 Overlap eigenvalue is smaller than square root of threshold
 Use THRESH >= 12 to get rid of this warning


 Scale SEOQF with 1.000000e+00/1.000000e-02/1.000000e-02

 Standard Electronic Orientation quadrupole field applied
 Nucleus-field energy     =     0.0000000141 hartrees
 Guess from superposition of atomic densities
 Warning:  Energy on first SCF cycle will be non-variational
 SAD guess density has 194.000000 electrons

 -----------------------------------------------------------------------
  General SCF calculation program by
  Eric Jon Sundstrom, Paul Horn, Yuezhi Mao, Dmitri Zuev, Alec White,
  David Stuck, Shaama M.S., Shane Yost, Joonho Lee, David Small,
  Daniel Levine, Susi Lehtola, Hugh Burton, Evgeny Epifanovsky,
  Bang C. Huynh
 -----------------------------------------------------------------------
 Hartree-Fock
 using 64 threads for integral computing
 -------------------------------------------------------
 OpenMP Integral computing Module                
 Release: version 1.0, May 2013, Q-Chem Inc. Pittsburgh 
 -------------------------------------------------------
 A restricted SCF calculation will be
 performed using DIIS
 SCF converges when DIIS error is below 1.0e-06
 ---------------------------------------
  Cycle       Energy         DIIS error
 ---------------------------------------
    1   -1581.4851200981      1.88e-02  
    2   -1570.0756638744      2.07e-03  
    3   -1570.4015924226      1.60e-03  
    4   -1570.6247388660      2.61e-04  
    5   -1570.6369907526      7.67e-05  
    6   -1570.6380708513      2.86e-05  
    7   -1570.6383313799      1.47e-05  
    8   -1570.6384195170      6.09e-06  
    9   -1570.6384346649      2.39e-06  
   10   -1570.6384374357      9.54e-07  Convergence criterion met
 ---------------------------------------
 SCF time:   CPU 6019.91s  wall 229.00s 

************** Final PCM Free Energy Summary **************
 G_electrostatic  =      -0.02201504 hartree =     -13.81464349 kcal/mol
 G_cavitation     =       0.00000000 hartree =       0.00000000 kcal/mol
 G_dispersion     =       0.00000000 hartree =       0.00000000 kcal/mol
 G_repulsion      =       0.00000000 hartree =       0.00000000 kcal/mol
 --------------------------------------------------
 Non-electrostatic Free Energy =       0.00000000 hartree =       0.00000000 kcal/mol
 Total                         =      -0.02201504 hartree =     -13.81464349 kcal/mol
 --------------------------------------------------
 SCF Energy (H0 + V/2)                       =   -1570.63843744 
 Solute Internal Energy (H0)                 =   -1570.61642240 
 Total Free Energy (H0 + V/2 + non-elec)     =   -1570.63843744 hartree
                                             = -985590.49500757 kcal/mol
***********************************************************

 SCF   energy in the final basis set =    -1570.6384374357
 Total energy in the final basis set =    -1570.6384374357


 --------------------------------------------------------------
  Generalized many-body perturbation theory program
  by Joonho Lee, Fazle Rob, Xintian Feng, Evgeny Epifanovsky

 No regularization used 
 (reg. param. = 0.0000e+00)
  (P|Q)^-1/2 Time:  CPU 109.64 s  wall 2.30 s

 In RI-MP2 calculation: 
 # of frozen core orbitals: 31

 Components of the RIMP2 correlation energy:
        aaaa    correlation energy =        -0.6205389138 a.u.
        abab    correlation energy =        -3.3994612939 a.u.
        bbbb    correlation energy =        -0.6205389138 a.u.
        non-Brillouin singles      =        -0.0000000000 a.u.
        total same-spin energy     =        -1.2410778276 a.u.
        total opposite-spin energy =        -3.3994612939 a.u.

 Total  RIMP2   correlation energy =        -4.6405391215 a.u.
        RIMP2         total energy =     -1575.2789765573 a.u.

 RI-MP2 Energy Time:  CPU 1899.15 s  wall 32.70 s
 
 --------------------------------------------------------------
 
                    Orbital Energies (a.u.)
 --------------------------------------------------------------
 
 Alpha MOs
 -- Occupied --
-91.9756 -20.5606 -20.5590 -20.5571 -20.5540 -15.6326 -15.6316 -11.4009
-11.4002 -11.3919 -11.3913 -11.3221 -11.3023 -11.3012 -11.2985 -11.2949
-11.2932 -11.2880 -11.2878 -11.2831 -11.2790 -11.2784 -11.2691 -11.2658
-11.2649 -11.2623 -11.2427  -8.9753  -6.6558  -6.6541  -6.6532  -1.4359
 -1.4253  -1.4082  -1.4047  -1.2705  -1.2668  -1.2171  -1.1728  -1.1422
 -1.1167  -1.0616  -1.0497  -0.9934  -0.9903  -0.9809  -0.9596  -0.9467
 -0.8979  -0.8806  -0.8781  -0.8637  -0.7932  -0.7793  -0.7776  -0.7599
 -0.7324  -0.7290  -0.7027  -0.6932  -0.6896  -0.6746  -0.6687  -0.6636
 -0.6576  -0.6414  -0.6388  -0.6367  -0.6270  -0.6149  -0.5847  -0.5835
 -0.5813  -0.5765  -0.5715  -0.5652  -0.5624  -0.5568  -0.5563  -0.5494
 -0.5329  -0.5263  -0.5215  -0.5180  -0.4900  -0.4730  -0.4677  -0.4634
 -0.4570  -0.4329  -0.4209  -0.4101  -0.3836  -0.3754  -0.3413  -0.3373
 -0.2949
 -- Virtual --
 -0.0189   0.0551   0.0668   0.1074   0.1212   0.1558   0.1576   0.1608
  0.1664   0.1803   0.1813   0.1860   0.1891   0.1990   0.2075   0.2151
  0.2266   0.2275   0.2283   0.2367   0.2578   0.2616   0.2684   0.2724
  0.2770   0.3072   0.3120   0.3155   0.3259   0.3309   0.3337   0.3397
  0.3461   0.3504   0.3564   0.3574   0.3616   0.3662   0.3735   0.3804
  0.3822   0.3893   0.3946   0.3965   0.4051   0.4090   0.4099   0.4181
  0.4238   0.4317   0.4377   0.4415   0.4429   0.4474   0.4540   0.4574
  0.4584   0.4628   0.4710   0.4726   0.4755   0.4821   0.4890   0.4956
  0.5023   0.5036   0.5101   0.5157   0.5187   0.5245   0.5264   0.5323
  0.5388   0.5403   0.5488   0.5533   0.5556   0.5588   0.5641   0.5696
  0.5739   0.5787   0.5831   0.5875   0.5888   0.5962   0.5993   0.6022
  0.6057   0.6084   0.6118   0.6168   0.6224   0.6255   0.6277   0.6286
  0.6342   0.6373   0.6387   0.6431   0.6450   0.6550   0.6628   0.6752
  0.6857   0.6910   0.6967   0.7001   0.7059   0.7120   0.7169   0.7311
  0.7329   0.7389   0.7462   0.7543   0.7559   0.7624   0.7631   0.7699
  0.7784   0.7827   0.7932   0.7975   0.8064   0.8107   0.8134   0.8199
  0.8328   0.8371   0.8385   0.8460   0.8481   0.8524   0.8609   0.8639
  0.8656   0.8666   0.8830   0.8837   0.8901   0.8980   0.9059   0.9128
  0.9178   0.9209   0.9232   0.9286   0.9344   0.9379   0.9422   0.9473
  0.9507   0.9590   0.9634   0.9644   0.9754   0.9760   0.9834   0.9892
  0.9967   0.9991   1.0061   1.0089   1.0187   1.0215   1.0238   1.0313
  1.0387   1.0425   1.0507   1.0600   1.0646   1.0699   1.0746   1.0780
  1.0795   1.0812   1.0909   1.0925   1.0964   1.0984   1.1050   1.1098
  1.1173   1.1283   1.1344   1.1380   1.1429   1.1472   1.1556   1.1603
  1.1659   1.1713   1.1774   1.1834   1.1851   1.1906   1.1957   1.2004
  1.2048   1.2115   1.2151   1.2216   1.2286   1.2343   1.2360   1.2393
  1.2440   1.2565   1.2611   1.2644   1.2717   1.2728   1.2807   1.3033
  1.3176   1.3205   1.3282   1.3339   1.3381   1.3439   1.3621   1.3630
  1.3701   1.3788   1.3795   1.3856   1.3876   1.3945   1.4148   1.4158
  1.4207   1.4273   1.4331   1.4411   1.4524   1.4603   1.4661   1.4676
  1.4811   1.4825   1.4900   1.4920   1.4939   1.5071   1.5115   1.5254
  1.5319   1.5414   1.5443   1.5490   1.5581   1.5588   1.5663   1.5696
  1.5762   1.5775   1.5866   1.5886   1.6065   1.6098   1.6194   1.6318
  1.6366   1.6445   1.6538   1.6548   1.6682   1.6804   1.6821   1.6976
  1.6998   1.7119   1.7194   1.7268   1.7317   1.7350   1.7477   1.7558
  1.7645   1.7701   1.7713   1.7847   1.7911   1.7978   1.8077   1.8200
  1.8250   1.8298   1.8444   1.8486   1.8540   1.8610   1.8647   1.8747
  1.8828   1.8864   1.9092   1.9106   1.9213   1.9406   1.9435   1.9533
  1.9604   1.9687   1.9740   1.9980   2.0032   2.0280   2.0329   2.0452
  2.0565   2.0761   2.0871   2.1117   2.1130   2.1283   2.1361   2.1408
  2.1474   2.1632   2.1821   2.1948   2.2013   2.2215   2.2237   2.2349
  2.2466   2.2547   2.2685   2.2804   2.2859   2.2967   2.2985   2.3172
  2.3294   2.3324   2.3370   2.3543   2.3590   2.3637   2.3763   2.3981
  2.4084   2.4340   2.4405   2.4433   2.4539   2.4580   2.4746   2.4783
  2.4813   2.4972   2.5017   2.5073   2.5223   2.5240   2.5300   2.5461
  2.5611   2.5681   2.5804   2.5883   2.5915   2.5962   2.6055   2.6147
  2.6212   2.6216   2.6456   2.6540   2.6601   2.6649   2.6666   2.6745
  2.6768   2.6858   2.6959   2.7052   2.7188   2.7206   2.7226   2.7357
  2.7414   2.7481   2.7499   2.7607   2.7692   2.7739   2.7873   2.7981
  2.8042   2.8097   2.8292   2.8315   2.8444   2.8540   2.8551   2.8573
  2.8733   2.8767   2.8812   2.8859   2.8930   2.8962   2.9012   2.9037
  2.9139   2.9258   2.9314   2.9416   2.9516   2.9591   2.9666   2.9743
  2.9763   2.9774   2.9828   2.9994   3.0023   3.0093   3.0159   3.0191
  3.0278   3.0379   3.0461   3.0510   3.0572   3.0614   3.0769   3.0788
  3.0876   3.0937   3.0969   3.1009   3.1060   3.1115   3.1188   3.1231
  3.1272   3.1332   3.1355   3.1541   3.1676   3.1752   3.1794   3.1829
  3.1920   3.1962   3.2043   3.2085   3.2126   3.2178   3.2231   3.2260
  3.2276   3.2290   3.2354   3.2436   3.2517   3.2556   3.2593   3.2655
  3.2679   3.2732   3.2811   3.2877   3.2925   3.2979   3.2993   3.3019
  3.3037   3.3109   3.3182   3.3243   3.3262   3.3300   3.3351   3.3380
  3.3420   3.3427   3.3482   3.3591   3.3633   3.3685   3.3701   3.3779
  3.3863   3.3867   3.3934   3.3974   3.4019   3.4098   3.4130   3.4181
  3.4244   3.4337   3.4373   3.4410   3.4474   3.4494   3.4597   3.4629
  3.4655   3.4671   3.4750   3.4761   3.4798   3.4899   3.4921   3.4963
  3.5008   3.5062   3.5079   3.5140   3.5150   3.5198   3.5254   3.5276
  3.5351   3.5356   3.5443   3.5532   3.5583   3.5702   3.5782   3.5840
  3.5884   3.5960   3.5999   3.6059   3.6141   3.6214   3.6251   3.6320
  3.6352   3.6399   3.6426   3.6498   3.6540   3.6578   3.6737   3.6780
  3.6837   3.6847   3.6925   3.6999   3.7078   3.7095   3.7110   3.7276
  3.7343   3.7369   3.7461   3.7463   3.7542   3.7623   3.7636   3.7664
  3.7784   3.7838   3.7875   3.7889   3.7969   3.8003   3.8006   3.8088
  3.8197   3.8217   3.8305   3.8355   3.8417   3.8439   3.8536   3.8586
  3.8646   3.8702   3.8720   3.8871   3.8940   3.9016   3.9145   3.9240
  3.9330   3.9398   3.9413   3.9452   3.9470   3.9562   3.9786   3.9814
  3.9869   4.0020   4.0089   4.0110   4.0187   4.0265   4.0363   4.0498
  4.0522   4.0614   4.0708   4.0806   4.0857   4.1011   4.1030   4.1077
  4.1120   4.1323   4.1378   4.1464   4.1494   4.1585   4.1662   4.1747
  4.1785   4.1859   4.1921   4.2032   4.2085   4.2205   4.2318   4.2353
  4.2512   4.2625   4.2696   4.2748   4.2764   4.2811   4.2857   4.2916
  4.2968   4.3012   4.3071   4.3176   4.3243   4.3339   4.3382   4.3465
  4.3509   4.3573   4.3645   4.3658   4.3695   4.3724   4.3773   4.3867
  4.3948   4.4017   4.4061   4.4106   4.4183   4.4239   4.4259   4.4405
  4.4582   4.4694   4.4731   4.4823   4.5039   4.5103   4.5157   4.5168
  4.5238   4.5265   4.5415   4.5470   4.5520   4.5541   4.5741   4.5770
  4.5789   4.5839   4.5886   4.5922   4.6082   4.6163   4.6279   4.6321
  4.6400   4.6649   4.6655   4.6682   4.6749   4.6850   4.6881   4.6953
  4.7175   4.7286   4.7319   4.7399   4.7657   4.7774   4.7812   4.7889
  4.8206   4.8247   4.8317   4.8358   4.8581   4.8684   4.8696   4.8804
  4.8976   4.9148   4.9193   4.9372   4.9468   4.9740   4.9835   4.9900
  5.0073   5.0116   5.0259   5.0390   5.0438   5.0516   5.0532   5.0664
  5.0958   5.1044   5.1078   5.1147   5.1250   5.1334   5.1470   5.1586
  5.1656   5.1760   5.1888   5.1973   5.2061   5.2351   5.2473   5.2552
  5.2705   5.2765   5.2899   5.2975   5.3068   5.3232   5.3304   5.3568
  5.3584   5.3944   5.3996   5.4017   5.4283   5.4330   5.4445   5.4535
  5.4873   5.5080   5.5083   5.5111   5.5143   5.5340   5.5483   5.5531
  5.5594   5.5631   5.5714   5.5769   5.5837   5.5912   5.6075   5.6155
  5.6278   5.6386   5.6519   5.6539   5.6673   5.6758   5.6773   5.6933
  5.7012   5.7143   5.7353   5.7513   5.7534   5.7581   5.7637   5.7751
  5.7855   5.7882   5.8201   5.8305   5.8713   5.8825   5.9083   5.9315
  5.9491   5.9703   6.0094   6.0175   6.0227   6.0283   6.0336   6.0540
  6.0815   6.0991   6.1007   6.1144   6.1339   6.1801   6.2012   6.2093
  6.2172   6.2206   6.2259   6.2690   6.2755   6.2873   6.3110   6.3509
  6.3528   6.3740   6.4444   6.4581   6.4778   6.5304   6.5601   6.5645
  6.5882   6.6258   6.6375   6.6452   6.6570   6.6730   6.7131   6.8338
  6.8397   6.8834   6.8855   6.8970   6.9107   6.9320   6.9725   7.0795
  7.1339   7.1488   7.1859   7.2151   7.2957   7.3319   7.3409   7.3432
  7.3510   7.4667   7.5478   7.5578   7.5754   7.5807   7.6341   7.6470
  7.6775   7.7110   7.7656   8.4358   9.9097  10.3487  11.1717  11.2032
 11.6991  11.7900  12.0252  12.3968  12.4732  12.7594  12.8578  12.9263
 13.3801  13.5420  13.8198  13.9384  14.0510  14.1861  14.3168  14.3764
 14.4737  14.7504  15.3412  15.7540  16.0011
 --------------------------------------------------------------
 
          Ground-State Mulliken Net Atomic Charges

     Atom                 Charge (a.u.)
  ----------------------------------------
      1 C                    -0.148549
      2 C                    -0.111730
      3 C                    -0.027524
      4 C                    -0.003141
      5 H                     0.187889
      6 C                     0.003655
      7 C                     0.080613
      8 C                     0.003994
      9 C                    -0.093031
     10 C                    -0.131697
     11 C                     0.064659
     12 H                     0.182902
     13 C                     0.359104
     14 C                     0.362618
     15 N                    -0.101828
     16 C                     0.358675
     17 C                     0.379356
     18 N                    -0.091528
     19 O                    -0.463686
     20 O                    -0.476950
     21 O                    -0.482438
     22 O                    -0.439349
     23 C                    -0.201173
     24 H                     0.141285
     25 H                     0.112380
     26 H                     0.112435
     27 C                    -0.198988
     28 H                     0.135468
     29 H                     0.113623
     30 H                     0.113540
     31 H                     0.212286
     32 C                     0.007293
     33 S                     0.100817
     34 C                    -0.231759
     35 C                    -0.172387
     36 C                    -0.232915
     37 H                     0.187019
     38 H                     0.183717
     39 H                     0.205343
  ----------------------------------------
  Sum of atomic charges =     0.000000

 -----------------------------------------------------------------
                    Cartesian Multipole Moments
 -----------------------------------------------------------------
    Charge (ESU x 10^10)
                 0.0000
    Dipole Moment (Debye)
         X       0.6064      Y       1.1075      Z      -0.1425
       Tot       1.2706
    Quadrupole Moments (Debye-Ang)
        XX    -162.9615     XY       3.1327     YY    -171.9780
        XZ       0.4114     YZ       0.2534     ZZ    -175.5559
    Octopole Moments (Debye-Ang^2)
       XXX     -51.1763    XXY     470.9535    XYY      -5.1095
       YYY    1614.1292    XXZ     -32.4237    XYZ       2.2703
       YYZ     -24.9005    XZZ     -12.5718    YZZ     559.9442
       ZZZ    -101.6091
    Hexadecapole Moments (Debye-Ang^3)
      XXXX    -257.6206   XXXY     -86.5050   XXYY   -2682.5047
      XYYY     -40.1411   YYYY  -17296.2767   XXXZ     -16.0832
      XXYZ    -131.5459   XYYZ       3.8754   YYYZ    -788.7719
      XXZZ   -1068.4970   XYZZ     -16.1984   YYZZ   -4252.0815
      XZZZ     -13.2503   YZZZ     -37.1776   ZZZZ   -6427.4876
 -----------------------------------------------------------------
 Total job time:  269.77s(wall), 8232.39s(cpu) 
 Wed Sep 20 09:27:25 2023

        *************************************************************
        *                                                           *
        *  Thank you very much for using Q-Chem.  Have a nice day.  *
        *                                                           *
        *************************************************************


0 sent ACK to 0 
now end server 0 ... 
cleanup process ... done
remove work dirs ./qchem413678.0 -- ./qchem413678.0
rm -rf ./qchem413678.0
rm -rf ./qchem413678
