You are running Q-Chem version: 5.4.0

#
# job setting
#
local host:  exp-2-08
current dir: /expanse/lustre/projects/csd626/rramji/aromodel/PNDIT/Rotation_Test
input file:  Dimethyl_Naphthalene_Dicarboximide_Phi_0_Theta_130_Thiophene.qcin
output file: 
nprocs     : 1
nthreads   : 64
#
# qchem installation setting
#
QC:          /cm/shared/apps/spack/cpu/opt/spack/linux-centos8-zen2/gcc-10.2.0/qchem-5.4-akfmr7b3t57bfs6qan3padb2wnb2i7cl
QCAUX:       /cm/shared/apps/spack/cpu/opt/spack/linux-centos8-zen2/gcc-10.2.0/qchem-5.4-akfmr7b3t57bfs6qan3padb2wnb2i7cl/qcaux
QCPROG:      /cm/shared/apps/spack/cpu/opt/spack/linux-centos8-zen2/gcc-10.2.0/qchem-5.4-akfmr7b3t57bfs6qan3padb2wnb2i7cl/exe/qcprog.exe
QCPROG_S:    /cm/shared/apps/spack/cpu/opt/spack/linux-centos8-zen2/gcc-10.2.0/qchem-5.4-akfmr7b3t57bfs6qan3padb2wnb2i7cl/exe/qcprog.exe_s
PARALLEL:    -DPARALLEL
QCMPI:       mpich
#
# qchem directory setting
#
qcrun:       qchem671573
QCSCRATCH:   .
QCLOCALSCR:  
QCTMPDIR:    .
QCFILEPREF:  ./qchem671573
QCSAVEDIR:   
workdirs:    ./qchem671573
workdir0:    ./qchem671573
partmpdirs =  
#
# parallel setting
#
QCRSH:           ssh
QCMPI:           mpich
QCMPIRUN:        /cm/shared/apps/spack/cpu/opt/spack/linux-centos8-zen2/gcc-10.2.0/qchem-5.4-akfmr7b3t57bfs6qan3padb2wnb2i7cl/bin/mpi/mpirun_qchem
QCMACHINEFILE:   ./qchem671573/hostfile
exp-2-08

#
# env setting
#
exported envs:   QC QCAUX QCSCRATCH QCRUNNAME QCFILEPREF QCPROG QCPROG_S GUIFILE

Running Job 1 of 1 Dimethyl_Naphthalene_Dicarboximide_Phi_0_Theta_130_Thiophene.qcin
qchem Dimethyl_Naphthalene_Dicarboximide_Phi_0_Theta_130_Thiophene.qcin_671573.0 ./qchem671573/ 1
/cm/shared/apps/spack/cpu/opt/spack/linux-centos8-zen2/gcc-10.2.0/qchem-5.4-akfmr7b3t57bfs6qan3padb2wnb2i7cl/bin/mpi/mpirun_qchem -machinefile ./qchem671573/hostfile -np 1 /cm/shared/apps/spack/cpu/opt/spack/linux-centos8-zen2/gcc-10.2.0/qchem-5.4-akfmr7b3t57bfs6qan3padb2wnb2i7cl/exe/qcprog.exe Dimethyl_Naphthalene_Dicarboximide_Phi_0_Theta_130_Thiophene.qcin_671573.0 ./qchem671573/

Process 0 of 1 is on exp-2-08 - thread support 0
initial socket setup ...start
initial socket setup ...done 
now start server 0 ... 
                  Welcome to Q-Chem
     A Quantum Leap Into The Future Of Chemistry


 Q-Chem 5.4, Q-Chem, Inc., Pleasanton, CA (2021)

 License issued to: University of California, San Diego (site)

 E. Epifanovsky,  A. T. B. Gilbert,  Xintian Feng,  Joonho Lee,  Yuezhi Mao,  
 N. Mardirossian,  P. Pokhilko,  A. White,  M. Wormit,  M. P. Coons,  
 A. L. Dempwolff,  Zhengting Gan,  D. Hait,  P. R. Horn,  L. D. Jacobson,  
 I. Kaliman,  J. Kussmann,  A. W. Lange,  Ka Un Lao,  D. S. Levine,  Jie Liu,  
 S. C. McKenzie,  A. F. Morrison,  K. Nanda,  F. Plasser,  D. R. Rehn,  
 M. L. Vidal,  Zhi-Qiang You,  Ying Zhu,  B. Alam,  B. Albrecht,  
 A. Aldossary,  E. Alguire,  J. H. Andersen,  D. Barton,  K. Begam,  A. Behn,  
 Y. A. Bernard,  E. J. Berquist,  H. Burton,  A. Carreras,  K. Carter-Fenk,  
 R. Chakraborty,  A. D. Chien,  K. D. Closser,  V. Cofer-Shabica,  
 S. Dasgupta,  Jia Deng,  M. de Wergifosse,  M. Diedenhofen,  Hainam Do,  
 S. Ehlert,  Po-Tung Fang,  S. Fatehi,  Qingguo Feng,  J. Gayvert,  
 Qinghui Ge,  G. Gidofalvi,  M. Goldey,  J. Gomes,  C. Gonzalez-Espinoza,  
 S. Gulania,  A. Gunina,  M. W. D. Hanson-Heine,  P. H. P. Harbach,  
 A. W. Hauser,  M. F. Herbst,  M. Hernandez Vera,  M. Hodecker,  
 Z. C. Holden,  S. Houck,  Xunkun Huang,  Kerwin Hui,  B. C. Huynh,  
 M. Ivanov,  Hyunjun Ji,  Hanjie Jiang,  B. Kaduk,  S. Kaehler,  
 K. Khistyaev,  Jaehoon Kim,  P. Klunzinger,  Z. Koczor-Benda,  
 Joong Hoon Koh,  D. Kosenkov,  L. Koulias,  T. Kowalczyk,  C. M. Krauter,  
 K. Kue,  A. Kunitsa,  T. Kus,  A. Landau,  K. V. Lawler,  D. Lefrancois,  
 S. Lehtola,  Rain Li,  Yi-Pei Li,  Jiashu Liang,  M. Liebenthal,  
 Hung-Hsuan Lin,  You-Sheng Lin,  Fenglai Liu,  Kuan-Yu Liu,  
 M. Loipersberger,  A. Luenser,  A. Manjanath,  P. Manohar,  E. Mansoor,  
 S. F. Manzer,  Shan-Ping Mao,  A. V. Marenich,  T. Markovich,  S. Mason,  
 S. A. Maurer,  P. F. McLaughlin,  M. F. S. J. Menger,  J.-M. Mewes,  
 S. A. Mewes,  P. Morgante,  J. W. Mullinax,  T. S. Nguyen-Beck,  
 K. J. Oosterbaan,  G. Paran,  Alexander C. Paul,  Suranjan K. Paul,  
 F. Pavosevic,  Zheng Pei,  S. Prager,  E. I. Proynov,  E. Ramos,  B. Rana,  
 A. E. Rask,  A. Rettig,  R. M. Richard,  F. Rob,  E. Rossomme,  T. Scheele,  
 M. Scheurer,  M. Schneider,  N. Sergueev,  S. M. Sharada,  W. Skomorowski,  
 D. W. Small,  C. J. Stein,  Yu-Chuan Su,  E. J. Sundstrom,  Zhen Tao,  
 J. Thirman,  T. Tsuchimochi,  N. M. Tubman,  S. P. Veccham,  O. Vydrov,  
 J. Wenzel,  J. Witte,  A. Yamada,  Kun Yao,  S. Yeganeh,  S. R. Yost,  
 A. Zech,  Igor Ying Zhang,  Xing Zhang,  Yu Zhang,  D. Zuev,  
 A. Aspuru-Guzik,  A. T. Bell,  N. A. Besley,  K. B. Bravaya,  B. R. Brooks,  
 D. Casanova,  Jeng-Da Chai,  S. Coriani,  C. J. Cramer,  
 A. E. DePrince, III,  R. A. DiStasio Jr.,  A. Dreuw,  B. D. Dunietz,  
 T. R. Furlani,  W. A. Goddard III,  S. Grimme,  S. Hammes-Schiffer,  
 T. Head-Gordon,  W. J. Hehre,  Chao-Ping Hsu,  T.-C. Jagau,  Yousung Jung,  
 A. Klamt,  Jing Kong,  D. S. Lambrecht,  WanZhen Liang,  N. J. Mayhall,  
 C. W. McCurdy,  J. B. Neaton,  C. Ochsenfeld,  J. A. Parkhill,  R. Peverati,  
 V. A. Rassolov,  Yihan Shao,  L. V. Slipchenko,  T. Stauch,  R. P. Steele,  
 J. E. Subotnik,  A. J. W. Thom,  A. Tkatchenko,  D. G. Truhlar,  
 T. Van Voorhis,  T. A. Wesolowski,  K. B. Whaley,  H. L. Woodcock III,  
 P. M. Zimmerman,  S. Faraji,  P. M. W. Gill,  M. Head-Gordon,  
 J. M. Herbert,  A. I. Krylov

 Contributors to earlier versions of Q-Chem not listed above: 
 R. D. Adamson,  B. Austin,  R. Baer,  J. Baker,  G. J. O. Beran,  
 K. Brandhorst,  S. T. Brown,  E. F. C. Byrd,  A. K. Chakraborty,  
 G. K. L. Chan,  Chun-Min Chang,  Yunqing Chen,  C.-L. Cheng,  
 Siu Hung Chien,  D. M. Chipman,  D. L. Crittenden,  H. Dachsel,  
 R. J. Doerksen,  A. D. Dutoi,  R. G. Edgar,  J. Fosso-Tande,  
 L. Fusti-Molnar,  D. Ghosh,  A. Ghysels,  A. Golubeva-Zadorozhnaya,  
 J. Gonthier,  M. S. Gordon,  S. R. Gwaltney,  G. Hawkins,  J. E. Herr,  
 A. Heyden,  S. Hirata,  E. G. Hohenstein,  G. Kedziora,  F. J. Keil,  
 C. Kelley,  Jihan Kim,  R. A. King,  R. Z. Khaliullin,  P. P. Korambath,  
 W. Kurlancheek,  A. Laurent,  A. M. Lee,  M. S. Lee,  S. V. Levchenko,  
 Ching Yeh Lin,  D. Liotard,  E. Livshits,  R. C. Lochan,  I. Lotan,  
 L. A. Martinez-Martinez,  P. E. Maslen,  N. Nair,  D. P. O'Neill,  
 D. Neuhauser,  E. Neuscamman,  C. M. Oana,  R. Olivares-Amaya,  R. Olson,  
 T. M. Perrine,  B. Peters,  P. A. Pieniazek,  A. Prociuk,  Y. M. Rhee,  
 J. Ritchie,  M. A. Rohrdanz,  E. Rosta,  N. J. Russ,  H. F. Schaefer III,  
 M. W. Schmidt,  N. E. Schultz,  S. Sharma,  N. Shenvi,  C. D. Sherrill,  
 A. C. Simmonett,  A. Sodt,  T. Stein,  D. Stuck,  K. S. Thanthiriwatte,  
 V. Vanovschi,  L. Vogt,  Tao Wang,  A. Warshel,  M. A. Watson,  
 C. F. Williams,  Q. Wu,  X. Xu,  Jun Yang,  W. Zhang,  Yan Zhao

 Please cite Q-Chem as follows:
 Y. Shao et al., Mol. Phys. 113, 184-215 (2015)
 DOI: 10.1080/00268976.2014.952696

 Q-Chem 5.4.0 for Intel X86 EM64T Linux

 Parts of Q-Chem use Armadillo 9.800.1 (Horizon Scraper).
 http://arma.sourceforge.net/

 Q-Chem begins on Wed Sep 20 08:57:40 2023  

 Host: 
0

     Scratch files written to ./qchem671573//
 May1621 |scratch|qcdevops|jenkins|workspace|build_RNUM    
 Parallel job on  1  processors
 Processing $rem in /cm/shared/apps/spack/cpu/opt/spack/linux-centos8-zen2/gcc-10.2.0/qchem-5.4-akfmr7b3t57bfs6qan3padb2wnb2i7cl/config/preferences:
 Processing $rem in /home/rramji/.qchemrc:
 Symmetry turned off for PCM/SM12/SMD calculation
 Core orbitals will be frozen

 Checking the input file for inconsistencies... 	...done.

 Q-Chem warning in module forms1/BasisType.C, line 2236:

 You are not using the predefined 5D/6D in this basis set.


--------------------------------------------------------------
User input:
--------------------------------------------------------------
$molecule
0 1
C	0.197767	-6.741404	0.164018
C	1.198109	-6.155638	1.003240
C	-0.632428	-5.791452	-0.533192
C	1.411364	-4.803786	1.182482
H	1.870845	-6.821518	1.567483
C	-0.409419	-4.378638	-0.345145
C	0.609565	-3.838032	0.510347
C	-1.210332	-3.413062	-1.016449
C	0.830799	-2.426473	0.696879
C	-0.999856	-2.059348	-0.839039
C	-0.000000	-1.478216	-0.000000
H	-1.673483	-1.394783	-1.403737
C	-1.736282	-6.187987	-1.461835
C	-2.306183	-3.798164	-1.936119
N	-2.491597	-5.170003	-2.093916
C	2.510310	-4.424987	2.104529
C	1.936153	-2.036627	1.625377
N	2.691451	-3.049156	2.257873
O	-2.034222	-7.353131	-1.715561
O	-3.014044	-2.986854	-2.528858
O	3.209622	-5.248946	2.690385
O	2.251529	-0.878829	1.891876
C	-3.573032	-5.563799	-3.002711
H	-3.606932	-6.664085	-3.032655
H	-3.382888	-5.147101	-4.010326
H	-4.533125	-5.148785	-2.640711
C	3.756832	-2.587487	3.152408
H	4.249778	-3.483329	3.564653
H	3.328759	-1.964972	3.960905
H	4.477709	-1.962932	2.591422
H	0.055524	-7.822318	0.044245
C	0.000000	0.000000	0.000000
S	-0.000201	0.793171	1.580530
C	-0.000228	2.430885	0.904911
C	-0.000168	0.997990	-0.985400
C	-0.000267	2.318231	-0.493528
H	-0.000145	0.762343	-2.059934
H	-0.000339	3.199164	-1.152593
H	-0.000311	3.311566	1.556025
$end

$rem
JOBTYPE		SP
EXCHANGE	HF
CORRELATION	pRIMP2
BASIS		cc-pvtz
METHOD		rimp2
AUX_BASIS	rimp2-cc-pvtz
SOLVENT_METHOD	PCM
PURECART	11111
SYMMETRY	false
MEM_TOTAL	110000
SCF_CONVERGENCE = 6
THRESH=10
GUI = 2
$end



$solvent
dielectric 4.90
$end
--------------------------------------------------------------
 ----------------------------------------------------------------
             Standard Nuclear Orientation (Angstroms)
    I     Atom           X                Y                Z
 ----------------------------------------------------------------
    1      C       0.1977670000    -6.7414040000     0.1640180000
    2      C       1.1981090000    -6.1556380000     1.0032400000
    3      C      -0.6324280000    -5.7914520000    -0.5331920000
    4      C       1.4113640000    -4.8037860000     1.1824820000
    5      H       1.8708450000    -6.8215180000     1.5674830000
    6      C      -0.4094190000    -4.3786380000    -0.3451450000
    7      C       0.6095650000    -3.8380320000     0.5103470000
    8      C      -1.2103320000    -3.4130620000    -1.0164490000
    9      C       0.8307990000    -2.4264730000     0.6968790000
   10      C      -0.9998560000    -2.0593480000    -0.8390390000
   11      C       0.0000000000    -1.4782160000     0.0000000000
   12      H      -1.6734830000    -1.3947830000    -1.4037370000
   13      C      -1.7362820000    -6.1879870000    -1.4618350000
   14      C      -2.3061830000    -3.7981640000    -1.9361190000
   15      N      -2.4915970000    -5.1700030000    -2.0939160000
   16      C       2.5103100000    -4.4249870000     2.1045290000
   17      C       1.9361530000    -2.0366270000     1.6253770000
   18      N       2.6914510000    -3.0491560000     2.2578730000
   19      O      -2.0342220000    -7.3531310000    -1.7155610000
   20      O      -3.0140440000    -2.9868540000    -2.5288580000
   21      O       3.2096220000    -5.2489460000     2.6903850000
   22      O       2.2515290000    -0.8788290000     1.8918760000
   23      C      -3.5730320000    -5.5637990000    -3.0027110000
   24      H      -3.6069320000    -6.6640850000    -3.0326550000
   25      H      -3.3828880000    -5.1471010000    -4.0103260000
   26      H      -4.5331250000    -5.1487850000    -2.6407110000
   27      C       3.7568320000    -2.5874870000     3.1524080000
   28      H       4.2497780000    -3.4833290000     3.5646530000
   29      H       3.3287590000    -1.9649720000     3.9609050000
   30      H       4.4777090000    -1.9629320000     2.5914220000
   31      H       0.0555240000    -7.8223180000     0.0442450000
   32      C       0.0000000000     0.0000000000     0.0000000000
   33      S      -0.0002010000     0.7931710000     1.5805300000
   34      C      -0.0002280000     2.4308850000     0.9049110000
   35      C      -0.0001680000     0.9979900000    -0.9854000000
   36      C      -0.0002670000     2.3182310000    -0.4935280000
   37      H      -0.0001450000     0.7623430000    -2.0599340000
   38      H      -0.0003390000     3.1991640000    -1.1525930000
   39      H      -0.0003110000     3.3115660000     1.5560250000
 ----------------------------------------------------------------
 Nuclear Repulsion Energy =        2499.94354572 hartrees
 There are       97 alpha and       97 beta electrons
 Requested basis set is cc-pVTZ
 There are 344 shells and 982 basis functions

 Total QAlloc Memory Limit 110000 MB
 Mega-Array Size       188 MB
 MEM_STATIC part       192 MB
 Discretize the solute cavity surface with Lebedev spheres
	Using 110 Lebedev grid points for each H atom
	Using 194 Lebedev grid points for other atoms
	Atomic van der Waals radii will be scaled by 1.20
 Remove points where switching function is < 1.0e-08
 Keep 2524 surface tesserae and discard 4034 interior tesserae
 Molecular Surface Area = 365.806 Angst**2
 Requested basis set is rimp2-cc-pVTZ
 There are 750 shells and 2588 basis functions
 A cutoff of  1.0D-10 yielded  31604 shell pairs
 There are    243376 function pairs (    316270 Cartesian)
 Smallest overlap matrix eigenvalue = 9.89E-06

 Q-Chem warning in module stvman/mkSTV.C, line 323:

 Overlap eigenvalue is smaller than square root of threshold
 Use THRESH >= 12 to get rid of this warning


 Scale SEOQF with 1.000000e-01/1.000000e-02/1.000000e-01

 Standard Electronic Orientation quadrupole field applied
 Nucleus-field energy     =    -0.0000000133 hartrees
 Guess from superposition of atomic densities
 Warning:  Energy on first SCF cycle will be non-variational
 SAD guess density has 194.000000 electrons

 -----------------------------------------------------------------------
  General SCF calculation program by
  Eric Jon Sundstrom, Paul Horn, Yuezhi Mao, Dmitri Zuev, Alec White,
  David Stuck, Shaama M.S., Shane Yost, Joonho Lee, David Small,
  Daniel Levine, Susi Lehtola, Hugh Burton, Evgeny Epifanovsky,
  Bang C. Huynh
 -----------------------------------------------------------------------
 Hartree-Fock
 using 64 threads for integral computing
 -------------------------------------------------------
 OpenMP Integral computing Module                
 Release: version 1.0, May 2013, Q-Chem Inc. Pittsburgh 
 -------------------------------------------------------
 A restricted SCF calculation will be
 performed using DIIS
 SCF converges when DIIS error is below 1.0e-06
 ---------------------------------------
  Cycle       Energy         DIIS error
 ---------------------------------------
    1   -1581.2983600349      1.87e-02  
    2   -1570.1142166407      2.09e-03  
    3   -1570.4400747257      1.63e-03  
    4   -1570.6718005122      2.57e-04  
    5   -1570.6838028559      7.58e-05  
    6   -1570.6848502381      2.77e-05  
    7   -1570.6850877557      1.43e-05  
    8   -1570.6851630820      5.84e-06  
    9   -1570.6851749438      2.30e-06  
   10   -1570.6851769481      7.26e-07  Convergence criterion met
 ---------------------------------------
 SCF time:   CPU 5701.28s  wall 212.00s 

************** Final PCM Free Energy Summary **************
 G_electrostatic  =      -0.02411089 hartree =     -15.12980893 kcal/mol
 G_cavitation     =       0.00000000 hartree =       0.00000000 kcal/mol
 G_dispersion     =       0.00000000 hartree =       0.00000000 kcal/mol
 G_repulsion      =       0.00000000 hartree =       0.00000000 kcal/mol
 --------------------------------------------------
 Non-electrostatic Free Energy =       0.00000000 hartree =       0.00000000 kcal/mol
 Total                         =      -0.02411089 hartree =     -15.12980893 kcal/mol
 --------------------------------------------------
 SCF Energy (H0 + V/2)                       =   -1570.68517695 
 Solute Internal Energy (H0)                 =   -1570.66106606 
 Total Free Energy (H0 + V/2 + non-elec)     =   -1570.68517695 hartree
                                             = -985619.82449422 kcal/mol
***********************************************************

 SCF   energy in the final basis set =    -1570.6851769481
 Total energy in the final basis set =    -1570.6851769481


 --------------------------------------------------------------
  Generalized many-body perturbation theory program
  by Joonho Lee, Fazle Rob, Xintian Feng, Evgeny Epifanovsky

 No regularization used 
 (reg. param. = 0.0000e+00)
  (P|Q)^-1/2 Time:  CPU 383.80 s  wall 6.20 s

 In RI-MP2 calculation: 
 # of frozen core orbitals: 31

 Components of the RIMP2 correlation energy:
        aaaa    correlation energy =        -0.6170957214 a.u.
        abab    correlation energy =        -3.3932495877 a.u.
        bbbb    correlation energy =        -0.6170957214 a.u.
        non-Brillouin singles      =        -0.0000000000 a.u.
        total same-spin energy     =        -1.2341914428 a.u.
        total opposite-spin energy =        -3.3932495877 a.u.

 Total  RIMP2   correlation energy =        -4.6274410305 a.u.
        RIMP2         total energy =     -1575.3126179785 a.u.

 RI-MP2 Energy Time:  CPU 2126.81 s  wall 35.72 s
 
 --------------------------------------------------------------
 
                    Orbital Energies (a.u.)
 --------------------------------------------------------------
 
 Alpha MOs
 -- Occupied --
-91.9856 -20.5588 -20.5566 -20.5547 -20.5539 -15.6315 -15.6304 -11.4004
-11.3959 -11.3923 -11.3909 -11.3172 -11.3051 -11.3029 -11.3013 -11.2984
-11.2977 -11.2914 -11.2866 -11.2860 -11.2822 -11.2805 -11.2785 -11.2648
-11.2644 -11.2586 -11.2473  -8.9851  -6.6658  -6.6653  -6.6648  -1.4252
 -1.4239  -1.4045  -1.4030  -1.2677  -1.2651  -1.2177  -1.1735  -1.1440
 -1.1177  -1.0630  -1.0502  -0.9931  -0.9886  -0.9820  -0.9592  -0.9482
 -0.8970  -0.8798  -0.8779  -0.8616  -0.7948  -0.7772  -0.7738  -0.7606
 -0.7339  -0.7188  -0.7048  -0.6946  -0.6821  -0.6738  -0.6664  -0.6622
 -0.6570  -0.6417  -0.6375  -0.6337  -0.6295  -0.6132  -0.5846  -0.5838
 -0.5784  -0.5713  -0.5663  -0.5655  -0.5642  -0.5555  -0.5536  -0.5485
 -0.5338  -0.5250  -0.5207  -0.5167  -0.4835  -0.4717  -0.4649  -0.4595
 -0.4584  -0.4507  -0.4281  -0.4181  -0.4092  -0.3650  -0.3450  -0.3365
 -0.3089
 -- Virtual --
 -0.0211   0.0597   0.0704   0.1023   0.1240   0.1545   0.1584   0.1589
  0.1658   0.1694   0.1792   0.1809   0.1845   0.1967   0.2053   0.2073
  0.2200   0.2254   0.2280   0.2311   0.2363   0.2425   0.2600   0.2617
  0.2654   0.3064   0.3125   0.3150   0.3200   0.3252   0.3255   0.3364
  0.3425   0.3458   0.3518   0.3571   0.3592   0.3603   0.3727   0.3743
  0.3785   0.3826   0.3875   0.3922   0.4000   0.4035   0.4065   0.4116
  0.4192   0.4275   0.4333   0.4378   0.4413   0.4460   0.4526   0.4557
  0.4581   0.4595   0.4632   0.4742   0.4762   0.4859   0.4889   0.4956
  0.5038   0.5080   0.5091   0.5144   0.5174   0.5239   0.5304   0.5312
  0.5347   0.5363   0.5475   0.5488   0.5524   0.5565   0.5626   0.5633
  0.5696   0.5740   0.5749   0.5847   0.5899   0.5928   0.5953   0.6004
  0.6059   0.6106   0.6124   0.6132   0.6189   0.6232   0.6253   0.6298
  0.6313   0.6341   0.6361   0.6381   0.6438   0.6480   0.6507   0.6673
  0.6727   0.6855   0.6923   0.6950   0.6961   0.7056   0.7107   0.7142
  0.7179   0.7341   0.7396   0.7413   0.7422   0.7565   0.7591   0.7616
  0.7710   0.7792   0.7821   0.7929   0.7988   0.8101   0.8122   0.8230
  0.8244   0.8275   0.8324   0.8360   0.8409   0.8477   0.8489   0.8535
  0.8634   0.8658   0.8671   0.8728   0.8794   0.8854   0.9029   0.9056
  0.9143   0.9174   0.9193   0.9262   0.9301   0.9335   0.9421   0.9442
  0.9482   0.9575   0.9628   0.9687   0.9732   0.9772   0.9805   0.9854
  0.9905   0.9914   0.9992   1.0053   1.0106   1.0185   1.0233   1.0273
  1.0320   1.0369   1.0505   1.0545   1.0593   1.0653   1.0684   1.0724
  1.0799   1.0819   1.0836   1.0874   1.0890   1.1007   1.1067   1.1080
  1.1285   1.1295   1.1350   1.1399   1.1416   1.1523   1.1530   1.1559
  1.1609   1.1657   1.1688   1.1747   1.1814   1.1850   1.1931   1.1970
  1.1985   1.2074   1.2130   1.2187   1.2231   1.2276   1.2363   1.2423
  1.2451   1.2465   1.2582   1.2605   1.2636   1.2654   1.2834   1.2955
  1.3114   1.3221   1.3289   1.3370   1.3399   1.3434   1.3470   1.3619
  1.3638   1.3760   1.3814   1.3823   1.3887   1.4009   1.4058   1.4168
  1.4229   1.4269   1.4366   1.4423   1.4494   1.4516   1.4561   1.4661
  1.4760   1.4784   1.4846   1.4935   1.5001   1.5062   1.5105   1.5144
  1.5183   1.5318   1.5328   1.5443   1.5498   1.5563   1.5608   1.5655
  1.5689   1.5763   1.5791   1.5861   1.6025   1.6078   1.6178   1.6302
  1.6362   1.6463   1.6474   1.6597   1.6671   1.6708   1.6819   1.6884
  1.6946   1.7027   1.7127   1.7165   1.7320   1.7351   1.7446   1.7473
  1.7490   1.7589   1.7683   1.7721   1.7918   1.8034   1.8051   1.8101
  1.8117   1.8307   1.8333   1.8424   1.8514   1.8536   1.8601   1.8677
  1.8689   1.8813   1.8992   1.9059   1.9142   1.9205   1.9329   1.9446
  1.9594   1.9722   1.9748   1.9891   2.0000   2.0037   2.0236   2.0342
  2.0420   2.0450   2.0615   2.0766   2.0995   2.1066   2.1268   2.1363
  2.1418   2.1549   2.1681   2.1903   2.1923   2.2049   2.2222   2.2335
  2.2384   2.2516   2.2608   2.2667   2.2848   2.2904   2.2953   2.3007
  2.3098   2.3240   2.3322   2.3372   2.3565   2.3629   2.3718   2.3789
  2.4129   2.4207   2.4322   2.4334   2.4445   2.4521   2.4567   2.4601
  2.4788   2.4835   2.4884   2.4954   2.5059   2.5134   2.5265   2.5368
  2.5496   2.5581   2.5761   2.5869   2.5914   2.5941   2.6005   2.6048
  2.6150   2.6180   2.6221   2.6479   2.6515   2.6617   2.6638   2.6662
  2.6735   2.6827   2.6862   2.7007   2.7079   2.7147   2.7179   2.7261
  2.7299   2.7419   2.7433   2.7480   2.7555   2.7679   2.7743   2.7885
  2.8022   2.8096   2.8184   2.8256   2.8369   2.8474   2.8507   2.8554
  2.8629   2.8654   2.8730   2.8782   2.8859   2.8943   2.8985   2.9054
  2.9067   2.9182   2.9281   2.9334   2.9462   2.9506   2.9574   2.9607
  2.9731   2.9782   2.9902   2.9971   3.0013   3.0021   3.0050   3.0101
  3.0178   3.0315   3.0371   3.0393   3.0425   3.0596   3.0662   3.0735
  3.0856   3.0891   3.0998   3.1020   3.1072   3.1105   3.1131   3.1190
  3.1264   3.1314   3.1414   3.1527   3.1559   3.1660   3.1722   3.1831
  3.1846   3.1956   3.1964   3.2069   3.2077   3.2138   3.2173   3.2224
  3.2275   3.2294   3.2420   3.2461   3.2525   3.2567   3.2597   3.2647
  3.2732   3.2795   3.2802   3.2873   3.2875   3.2923   3.2950   3.3004
  3.3086   3.3174   3.3194   3.3242   3.3269   3.3307   3.3333   3.3385
  3.3411   3.3424   3.3479   3.3516   3.3573   3.3642   3.3668   3.3685
  3.3754   3.3802   3.3871   3.3953   3.3976   3.4011   3.4021   3.4187
  3.4238   3.4292   3.4325   3.4398   3.4440   3.4457   3.4528   3.4559
  3.4612   3.4651   3.4680   3.4726   3.4760   3.4806   3.4855   3.4950
  3.4965   3.4996   3.5017   3.5062   3.5104   3.5120   3.5185   3.5279
  3.5319   3.5375   3.5403   3.5490   3.5533   3.5626   3.5637   3.5740
  3.5783   3.5835   3.5890   3.6016   3.6108   3.6181   3.6275   3.6288
  3.6324   3.6375   3.6413   3.6445   3.6519   3.6635   3.6724   3.6803
  3.6882   3.6894   3.6940   3.6975   3.7027   3.7126   3.7135   3.7239
  3.7263   3.7294   3.7335   3.7396   3.7467   3.7559   3.7622   3.7644
  3.7709   3.7752   3.7823   3.7838   3.7914   3.7945   3.7981   3.8014
  3.8138   3.8210   3.8272   3.8364   3.8435   3.8500   3.8550   3.8565
  3.8595   3.8677   3.8778   3.8813   3.8901   3.8953   3.9153   3.9209
  3.9270   3.9329   3.9417   3.9434   3.9528   3.9547   3.9664   3.9822
  3.9890   3.9927   3.9961   4.0048   4.0084   4.0158   4.0336   4.0426
  4.0463   4.0601   4.0685   4.0835   4.0879   4.0951   4.1011   4.1090
  4.1239   4.1311   4.1326   4.1421   4.1510   4.1578   4.1619   4.1718
  4.1781   4.1837   4.1875   4.1962   4.2071   4.2120   4.2274   4.2358
  4.2431   4.2470   4.2562   4.2663   4.2708   4.2744   4.2756   4.2875
  4.2948   4.2956   4.2995   4.3095   4.3160   4.3243   4.3343   4.3407
  4.3446   4.3510   4.3546   4.3632   4.3672   4.3682   4.3717   4.3795
  4.3936   4.3980   4.4032   4.4078   4.4184   4.4237   4.4268   4.4297
  4.4439   4.4644   4.4669   4.4831   4.4857   4.5062   4.5123   4.5183
  4.5228   4.5242   4.5331   4.5403   4.5464   4.5512   4.5660   4.5750
  4.5767   4.5805   4.5903   4.5995   4.6048   4.6100   4.6191   4.6305
  4.6407   4.6572   4.6602   4.6676   4.6708   4.6769   4.6910   4.6924
  4.7106   4.7250   4.7321   4.7392   4.7599   4.7675   4.7774   4.7963
  4.8102   4.8242   4.8376   4.8401   4.8486   4.8647   4.8678   4.8735
  4.8776   4.8988   4.9076   4.9272   4.9343   4.9556   4.9703   4.9802
  4.9983   5.0101   5.0171   5.0366   5.0421   5.0452   5.0506   5.0518
  5.0940   5.0981   5.1049   5.1139   5.1193   5.1248   5.1441   5.1449
  5.1673   5.1763   5.1852   5.1885   5.1965   5.2292   5.2391   5.2565
  5.2636   5.2776   5.2815   5.2900   5.3214   5.3300   5.3324   5.3392
  5.3475   5.3747   5.3960   5.4027   5.4205   5.4301   5.4389   5.4437
  5.4904   5.5052   5.5084   5.5121   5.5131   5.5310   5.5480   5.5555
  5.5582   5.5598   5.5744   5.5765   5.5775   5.5909   5.6023   5.6050
  5.6253   5.6297   5.6492   5.6524   5.6549   5.6738   5.6765   5.6899
  5.6967   5.6995   5.7292   5.7369   5.7480   5.7577   5.7603   5.7700
  5.7744   5.7763   5.8148   5.8212   5.8442   5.8811   5.8908   5.9351
  5.9389   5.9632   6.0054   6.0170   6.0238   6.0268   6.0345   6.0533
  6.0783   6.1001   6.1047   6.1157   6.1198   6.1673   6.1969   6.2081
  6.2174   6.2182   6.2214   6.2575   6.2653   6.2699   6.3024   6.3412
  6.3507   6.3740   6.4417   6.4495   6.4650   6.5223   6.5617   6.5697
  6.5857   6.5986   6.6351   6.6471   6.6593   6.6730   6.7081   6.8314
  6.8322   6.8790   6.8858   6.8959   6.9110   6.9242   6.9461   7.0779
  7.1003   7.1390   7.1846   7.1875   7.2270   7.3321   7.3412   7.3439
  7.3563   7.4665   7.5429   7.5571   7.5726   7.5771   7.5933   7.6334
  7.6728   7.6861   7.7215   8.3569   9.9201  10.2901  11.1156  11.2733
 11.6561  11.7128  11.9413  12.3566  12.4362  12.7659  12.8522  12.8973
 13.2744  13.5585  13.8095  13.9275  14.0235  14.1447  14.2362  14.3437
 14.4156  14.7206  15.3213  15.7220  15.9648
 --------------------------------------------------------------
 
          Ground-State Mulliken Net Atomic Charges

     Atom                 Charge (a.u.)
  ----------------------------------------
      1 C                    -0.135130
      2 C                    -0.108359
      3 C                    -0.040732
      4 C                    -0.003716
      5 H                     0.188901
      6 C                    -0.000403
      7 C                     0.075906
      8 C                     0.002034
      9 C                    -0.048444
     10 C                    -0.139090
     11 C                     0.096898
     12 H                     0.185071
     13 C                     0.360885
     14 C                     0.367934
     15 N                    -0.101609
     16 C                     0.359820
     17 C                     0.364617
     18 N                    -0.095068
     19 O                    -0.464503
     20 O                    -0.476528
     21 O                    -0.481121
     22 O                    -0.458206
     23 C                    -0.200952
     24 H                     0.141142
     25 H                     0.112255
     26 H                     0.112509
     27 C                    -0.196152
     28 H                     0.133689
     29 H                     0.112929
     30 H                     0.113139
     31 H                     0.214041
     32 C                    -0.051620
     33 S                     0.059640
     34 C                    -0.204584
     35 C                    -0.175833
     36 C                    -0.214309
     37 H                     0.193786
     38 H                     0.190085
     39 H                     0.211081
  ----------------------------------------
  Sum of atomic charges =     0.000000

 -----------------------------------------------------------------
                    Cartesian Multipole Moments
 -----------------------------------------------------------------
    Charge (ESU x 10^10)
                 0.0000
    Dipole Moment (Debye)
         X       0.1735      Y       1.0580      Z      -0.6929
       Tot       1.2766
    Quadrupole Moments (Debye-Ang)
        XX    -176.1229     XY      -0.2816     YY    -165.5995
        XZ      -9.6764     YZ       0.3889     ZZ    -165.6064
    Octopole Moments (Debye-Ang^2)
       XXX     -41.2425    XXY     510.9446    XYY      -8.0879
       YYY    1589.3312    XXZ     -30.1203    XYZ      40.8909
       YYZ     -14.9921    XZZ     -13.9812    YZZ     512.0719
       ZZZ     -86.3569
    Hexadecapole Moments (Debye-Ang^3)
      XXXX   -3635.8446   XXXY    -104.8354   XXYY   -3607.5577
      XYYY    -600.0371   YYYY  -17134.8849   XXXZ   -1490.5475
      XXYZ      43.3940   XYYZ    -765.8641   YYYZ    -539.0469
      XXZZ   -1138.6511   XYZZ      25.3375   YYZZ   -3341.8554
      XZZZ   -1462.2293   YZZZ    -177.4751   ZZZZ   -2862.5183
 -----------------------------------------------------------------
 Total job time:  250.58s(wall), 7923.50s(cpu) 
 Wed Sep 20 09:01:50 2023

        *************************************************************
        *                                                           *
        *  Thank you very much for using Q-Chem.  Have a nice day.  *
        *                                                           *
        *************************************************************


0 sent ACK to 0 
now end server 0 ... 
cleanup process ... done
remove work dirs ./qchem671573.0 -- ./qchem671573.0
rm -rf ./qchem671573.0
rm -rf ./qchem671573
