You are running Q-Chem version: 5.4.0

#
# job setting
#
local host:  exp-2-14
current dir: /expanse/lustre/projects/csd626/rramji/aromodel/PNDIT/Rotation_Test
input file:  Dimethyl_Naphthalene_Dicarboximide_Phi_5_Theta_110_Thiophene.qcin
output file: 
nprocs     : 1
nthreads   : 64
#
# qchem installation setting
#
QC:          /cm/shared/apps/spack/cpu/opt/spack/linux-centos8-zen2/gcc-10.2.0/qchem-5.4-akfmr7b3t57bfs6qan3padb2wnb2i7cl
QCAUX:       /cm/shared/apps/spack/cpu/opt/spack/linux-centos8-zen2/gcc-10.2.0/qchem-5.4-akfmr7b3t57bfs6qan3padb2wnb2i7cl/qcaux
QCPROG:      /cm/shared/apps/spack/cpu/opt/spack/linux-centos8-zen2/gcc-10.2.0/qchem-5.4-akfmr7b3t57bfs6qan3padb2wnb2i7cl/exe/qcprog.exe
QCPROG_S:    /cm/shared/apps/spack/cpu/opt/spack/linux-centos8-zen2/gcc-10.2.0/qchem-5.4-akfmr7b3t57bfs6qan3padb2wnb2i7cl/exe/qcprog.exe_s
PARALLEL:    -DPARALLEL
QCMPI:       mpich
#
# qchem directory setting
#
qcrun:       qchem2992360
QCSCRATCH:   .
QCLOCALSCR:  
QCTMPDIR:    .
QCFILEPREF:  ./qchem2992360
QCSAVEDIR:   
workdirs:    ./qchem2992360
workdir0:    ./qchem2992360
partmpdirs =  
#
# parallel setting
#
QCRSH:           ssh
QCMPI:           mpich
QCMPIRUN:        /cm/shared/apps/spack/cpu/opt/spack/linux-centos8-zen2/gcc-10.2.0/qchem-5.4-akfmr7b3t57bfs6qan3padb2wnb2i7cl/bin/mpi/mpirun_qchem
QCMACHINEFILE:   ./qchem2992360/hostfile
exp-2-14

#
# env setting
#
exported envs:   QC QCAUX QCSCRATCH QCRUNNAME QCFILEPREF QCPROG QCPROG_S GUIFILE

Running Job 1 of 1 Dimethyl_Naphthalene_Dicarboximide_Phi_5_Theta_110_Thiophene.qcin
qchem Dimethyl_Naphthalene_Dicarboximide_Phi_5_Theta_110_Thiophene.qcin_2992360.0 ./qchem2992360/ 1
/cm/shared/apps/spack/cpu/opt/spack/linux-centos8-zen2/gcc-10.2.0/qchem-5.4-akfmr7b3t57bfs6qan3padb2wnb2i7cl/bin/mpi/mpirun_qchem -machinefile ./qchem2992360/hostfile -np 1 /cm/shared/apps/spack/cpu/opt/spack/linux-centos8-zen2/gcc-10.2.0/qchem-5.4-akfmr7b3t57bfs6qan3padb2wnb2i7cl/exe/qcprog.exe Dimethyl_Naphthalene_Dicarboximide_Phi_5_Theta_110_Thiophene.qcin_2992360.0 ./qchem2992360/

Process 0 of 1 is on exp-2-14 - thread support 0
initial socket setup ...start
initial socket setup ...done 
now start server 0 ... 
                  Welcome to Q-Chem
     A Quantum Leap Into The Future Of Chemistry


 Q-Chem 5.4, Q-Chem, Inc., Pleasanton, CA (2021)

 License issued to: University of California, San Diego (site)

 E. Epifanovsky,  A. T. B. Gilbert,  Xintian Feng,  Joonho Lee,  Yuezhi Mao,  
 N. Mardirossian,  P. Pokhilko,  A. White,  M. Wormit,  M. P. Coons,  
 A. L. Dempwolff,  Zhengting Gan,  D. Hait,  P. R. Horn,  L. D. Jacobson,  
 I. Kaliman,  J. Kussmann,  A. W. Lange,  Ka Un Lao,  D. S. Levine,  Jie Liu,  
 S. C. McKenzie,  A. F. Morrison,  K. Nanda,  F. Plasser,  D. R. Rehn,  
 M. L. Vidal,  Zhi-Qiang You,  Ying Zhu,  B. Alam,  B. Albrecht,  
 A. Aldossary,  E. Alguire,  J. H. Andersen,  D. Barton,  K. Begam,  A. Behn,  
 Y. A. Bernard,  E. J. Berquist,  H. Burton,  A. Carreras,  K. Carter-Fenk,  
 R. Chakraborty,  A. D. Chien,  K. D. Closser,  V. Cofer-Shabica,  
 S. Dasgupta,  Jia Deng,  M. de Wergifosse,  M. Diedenhofen,  Hainam Do,  
 S. Ehlert,  Po-Tung Fang,  S. Fatehi,  Qingguo Feng,  J. Gayvert,  
 Qinghui Ge,  G. Gidofalvi,  M. Goldey,  J. Gomes,  C. Gonzalez-Espinoza,  
 S. Gulania,  A. Gunina,  M. W. D. Hanson-Heine,  P. H. P. Harbach,  
 A. W. Hauser,  M. F. Herbst,  M. Hernandez Vera,  M. Hodecker,  
 Z. C. Holden,  S. Houck,  Xunkun Huang,  Kerwin Hui,  B. C. Huynh,  
 M. Ivanov,  Hyunjun Ji,  Hanjie Jiang,  B. Kaduk,  S. Kaehler,  
 K. Khistyaev,  Jaehoon Kim,  P. Klunzinger,  Z. Koczor-Benda,  
 Joong Hoon Koh,  D. Kosenkov,  L. Koulias,  T. Kowalczyk,  C. M. Krauter,  
 K. Kue,  A. Kunitsa,  T. Kus,  A. Landau,  K. V. Lawler,  D. Lefrancois,  
 S. Lehtola,  Rain Li,  Yi-Pei Li,  Jiashu Liang,  M. Liebenthal,  
 Hung-Hsuan Lin,  You-Sheng Lin,  Fenglai Liu,  Kuan-Yu Liu,  
 M. Loipersberger,  A. Luenser,  A. Manjanath,  P. Manohar,  E. Mansoor,  
 S. F. Manzer,  Shan-Ping Mao,  A. V. Marenich,  T. Markovich,  S. Mason,  
 S. A. Maurer,  P. F. McLaughlin,  M. F. S. J. Menger,  J.-M. Mewes,  
 S. A. Mewes,  P. Morgante,  J. W. Mullinax,  T. S. Nguyen-Beck,  
 K. J. Oosterbaan,  G. Paran,  Alexander C. Paul,  Suranjan K. Paul,  
 F. Pavosevic,  Zheng Pei,  S. Prager,  E. I. Proynov,  E. Ramos,  B. Rana,  
 A. E. Rask,  A. Rettig,  R. M. Richard,  F. Rob,  E. Rossomme,  T. Scheele,  
 M. Scheurer,  M. Schneider,  N. Sergueev,  S. M. Sharada,  W. Skomorowski,  
 D. W. Small,  C. J. Stein,  Yu-Chuan Su,  E. J. Sundstrom,  Zhen Tao,  
 J. Thirman,  T. Tsuchimochi,  N. M. Tubman,  S. P. Veccham,  O. Vydrov,  
 J. Wenzel,  J. Witte,  A. Yamada,  Kun Yao,  S. Yeganeh,  S. R. Yost,  
 A. Zech,  Igor Ying Zhang,  Xing Zhang,  Yu Zhang,  D. Zuev,  
 A. Aspuru-Guzik,  A. T. Bell,  N. A. Besley,  K. B. Bravaya,  B. R. Brooks,  
 D. Casanova,  Jeng-Da Chai,  S. Coriani,  C. J. Cramer,  
 A. E. DePrince, III,  R. A. DiStasio Jr.,  A. Dreuw,  B. D. Dunietz,  
 T. R. Furlani,  W. A. Goddard III,  S. Grimme,  S. Hammes-Schiffer,  
 T. Head-Gordon,  W. J. Hehre,  Chao-Ping Hsu,  T.-C. Jagau,  Yousung Jung,  
 A. Klamt,  Jing Kong,  D. S. Lambrecht,  WanZhen Liang,  N. J. Mayhall,  
 C. W. McCurdy,  J. B. Neaton,  C. Ochsenfeld,  J. A. Parkhill,  R. Peverati,  
 V. A. Rassolov,  Yihan Shao,  L. V. Slipchenko,  T. Stauch,  R. P. Steele,  
 J. E. Subotnik,  A. J. W. Thom,  A. Tkatchenko,  D. G. Truhlar,  
 T. Van Voorhis,  T. A. Wesolowski,  K. B. Whaley,  H. L. Woodcock III,  
 P. M. Zimmerman,  S. Faraji,  P. M. W. Gill,  M. Head-Gordon,  
 J. M. Herbert,  A. I. Krylov

 Contributors to earlier versions of Q-Chem not listed above: 
 R. D. Adamson,  B. Austin,  R. Baer,  J. Baker,  G. J. O. Beran,  
 K. Brandhorst,  S. T. Brown,  E. F. C. Byrd,  A. K. Chakraborty,  
 G. K. L. Chan,  Chun-Min Chang,  Yunqing Chen,  C.-L. Cheng,  
 Siu Hung Chien,  D. M. Chipman,  D. L. Crittenden,  H. Dachsel,  
 R. J. Doerksen,  A. D. Dutoi,  R. G. Edgar,  J. Fosso-Tande,  
 L. Fusti-Molnar,  D. Ghosh,  A. Ghysels,  A. Golubeva-Zadorozhnaya,  
 J. Gonthier,  M. S. Gordon,  S. R. Gwaltney,  G. Hawkins,  J. E. Herr,  
 A. Heyden,  S. Hirata,  E. G. Hohenstein,  G. Kedziora,  F. J. Keil,  
 C. Kelley,  Jihan Kim,  R. A. King,  R. Z. Khaliullin,  P. P. Korambath,  
 W. Kurlancheek,  A. Laurent,  A. M. Lee,  M. S. Lee,  S. V. Levchenko,  
 Ching Yeh Lin,  D. Liotard,  E. Livshits,  R. C. Lochan,  I. Lotan,  
 L. A. Martinez-Martinez,  P. E. Maslen,  N. Nair,  D. P. O'Neill,  
 D. Neuhauser,  E. Neuscamman,  C. M. Oana,  R. Olivares-Amaya,  R. Olson,  
 T. M. Perrine,  B. Peters,  P. A. Pieniazek,  A. Prociuk,  Y. M. Rhee,  
 J. Ritchie,  M. A. Rohrdanz,  E. Rosta,  N. J. Russ,  H. F. Schaefer III,  
 M. W. Schmidt,  N. E. Schultz,  S. Sharma,  N. Shenvi,  C. D. Sherrill,  
 A. C. Simmonett,  A. Sodt,  T. Stein,  D. Stuck,  K. S. Thanthiriwatte,  
 V. Vanovschi,  L. Vogt,  Tao Wang,  A. Warshel,  M. A. Watson,  
 C. F. Williams,  Q. Wu,  X. Xu,  Jun Yang,  W. Zhang,  Yan Zhao

 Please cite Q-Chem as follows:
 Y. Shao et al., Mol. Phys. 113, 184-215 (2015)
 DOI: 10.1080/00268976.2014.952696

 Q-Chem 5.4.0 for Intel X86 EM64T Linux

 Parts of Q-Chem use Armadillo 9.800.1 (Horizon Scraper).
 http://arma.sourceforge.net/

 Q-Chem begins on Sun Sep 24 15:37:25 2023  

 Host: 
0

     Scratch files written to ./qchem2992360//
 May1621 |scratch|qcdevops|jenkins|workspace|build_RNUM    
 Parallel job on  1  processors
 Processing $rem in /cm/shared/apps/spack/cpu/opt/spack/linux-centos8-zen2/gcc-10.2.0/qchem-5.4-akfmr7b3t57bfs6qan3padb2wnb2i7cl/config/preferences:
 Processing $rem in /home/rramji/.qchemrc:
 Symmetry turned off for PCM/SM12/SMD calculation
 Core orbitals will be frozen

 Checking the input file for inconsistencies... 	...done.

 Q-Chem warning in module forms1/BasisType.C, line 2236:

 You are not using the predefined 5D/6D in this basis set.


--------------------------------------------------------------
User input:
--------------------------------------------------------------
$molecule
0 1
C	0.241938	-6.741404	0.086486
C	1.468983	-6.155638	0.532960
C	-0.776651	-5.791452	-0.284733
C	1.730681	-4.803786	0.628455
H	2.294130	-6.821518	0.833086
C	-0.502775	-4.378638	-0.184300
C	0.747353	-3.838032	0.271086
C	-1.484986	-3.413062	-0.541191
C	1.019042	-2.426473	0.370703
C	-1.226525	-2.059348	-0.446468
C	0.000000	-1.478216	0.000000
H	-2.052666	-1.394783	-0.746717
C	-2.131549	-6.187987	-0.779832
C	-2.829295	-3.798164	-1.030596
N	-3.057496	-5.170003	-1.115461
C	3.078712	-4.424987	1.119034
C	2.375300	-2.036627	0.865151
N	3.301374	-3.049156	1.201176
O	-2.498300	-7.353131	-0.916355
O	-3.697195	-2.986854	-1.345486
O	3.936224	-5.248946	1.430379
O	2.762805	-0.878829	1.007714
C	-4.384539	-5.563799	-1.599576
H	-4.426636	-6.664085	-1.616121
H	-4.550487	-5.147101	-2.611458
H	-5.162921	-5.148785	-0.931037
C	4.608454	-2.587487	1.677382
H	5.212668	-3.483329	1.896168
H	4.482719	-1.964972	2.583531
H	5.093988	-1.962932	0.903674
H	0.067309	-7.822318	0.022586
C	0.000000	0.000000	0.000000
S	0.068929	0.790170	1.580530
C	0.211639	2.421655	0.904911
C	0.086813	0.994207	-0.985400
C	0.201782	2.309433	-0.493528
H	0.066299	0.759454	-2.059934
H	0.278488	3.187020	-1.152593
H	0.288312	3.298992	1.556025
$end

$rem
JOBTYPE		SP
EXCHANGE	HF
CORRELATION	pRIMP2
BASIS		cc-pvtz
METHOD		rimp2
AUX_BASIS	rimp2-cc-pvtz
SOLVENT_METHOD	PCM
PURECART	11111
SYMMETRY	false
MEM_TOTAL	110000
SCF_CONVERGENCE = 6
THRESH=10
GUI = 2
$end



$solvent
dielectric 4.90
$end
--------------------------------------------------------------
 ----------------------------------------------------------------
             Standard Nuclear Orientation (Angstroms)
    I     Atom           X                Y                Z
 ----------------------------------------------------------------
    1      C       0.2419380000    -6.7414040000     0.0864860000
    2      C       1.4689830000    -6.1556380000     0.5329600000
    3      C      -0.7766510000    -5.7914520000    -0.2847330000
    4      C       1.7306810000    -4.8037860000     0.6284550000
    5      H       2.2941300000    -6.8215180000     0.8330860000
    6      C      -0.5027750000    -4.3786380000    -0.1843000000
    7      C       0.7473530000    -3.8380320000     0.2710860000
    8      C      -1.4849860000    -3.4130620000    -0.5411910000
    9      C       1.0190420000    -2.4264730000     0.3707030000
   10      C      -1.2265250000    -2.0593480000    -0.4464680000
   11      C       0.0000000000    -1.4782160000     0.0000000000
   12      H      -2.0526660000    -1.3947830000    -0.7467170000
   13      C      -2.1315490000    -6.1879870000    -0.7798320000
   14      C      -2.8292950000    -3.7981640000    -1.0305960000
   15      N      -3.0574960000    -5.1700030000    -1.1154610000
   16      C       3.0787120000    -4.4249870000     1.1190340000
   17      C       2.3753000000    -2.0366270000     0.8651510000
   18      N       3.3013740000    -3.0491560000     1.2011760000
   19      O      -2.4983000000    -7.3531310000    -0.9163550000
   20      O      -3.6971950000    -2.9868540000    -1.3454860000
   21      O       3.9362240000    -5.2489460000     1.4303790000
   22      O       2.7628050000    -0.8788290000     1.0077140000
   23      C      -4.3845390000    -5.5637990000    -1.5995760000
   24      H      -4.4266360000    -6.6640850000    -1.6161210000
   25      H      -4.5504870000    -5.1471010000    -2.6114580000
   26      H      -5.1629210000    -5.1487850000    -0.9310370000
   27      C       4.6084540000    -2.5874870000     1.6773820000
   28      H       5.2126680000    -3.4833290000     1.8961680000
   29      H       4.4827190000    -1.9649720000     2.5835310000
   30      H       5.0939880000    -1.9629320000     0.9036740000
   31      H       0.0673090000    -7.8223180000     0.0225860000
   32      C       0.0000000000     0.0000000000     0.0000000000
   33      S       0.0689290000     0.7901700000     1.5805300000
   34      C       0.2116390000     2.4216550000     0.9049110000
   35      C       0.0868130000     0.9942070000    -0.9854000000
   36      C       0.2017820000     2.3094330000    -0.4935280000
   37      H       0.0662990000     0.7594540000    -2.0599340000
   38      H       0.2784880000     3.1870200000    -1.1525930000
   39      H       0.2883120000     3.2989920000     1.5560250000
 ----------------------------------------------------------------
 Nuclear Repulsion Energy =        2495.63293216 hartrees
 There are       97 alpha and       97 beta electrons
 Requested basis set is cc-pVTZ
 There are 344 shells and 982 basis functions

 Total QAlloc Memory Limit 110000 MB
 Mega-Array Size       188 MB
 MEM_STATIC part       192 MB
 Discretize the solute cavity surface with Lebedev spheres
	Using 110 Lebedev grid points for each H atom
	Using 194 Lebedev grid points for other atoms
	Atomic van der Waals radii will be scaled by 1.20
 Remove points where switching function is < 1.0e-08
 Keep 2562 surface tesserae and discard 3996 interior tesserae
 Molecular Surface Area = 369.261 Angst**2
 Requested basis set is rimp2-cc-pVTZ
 There are 750 shells and 2588 basis functions
 A cutoff of  1.0D-10 yielded  31593 shell pairs
 There are    243305 function pairs (    316267 Cartesian)
 Smallest overlap matrix eigenvalue = 9.54E-06

 Q-Chem warning in module stvman/mkSTV.C, line 323:

 Overlap eigenvalue is smaller than square root of threshold
 Use THRESH >= 12 to get rid of this warning


 Scale SEOQF with 1.000000e-01/1.000000e-02/1.000000e-01

 Standard Electronic Orientation quadrupole field applied
 Nucleus-field energy     =     0.0000000400 hartrees
 Guess from superposition of atomic densities
 Warning:  Energy on first SCF cycle will be non-variational
 SAD guess density has 194.000000 electrons

 -----------------------------------------------------------------------
  General SCF calculation program by
  Eric Jon Sundstrom, Paul Horn, Yuezhi Mao, Dmitri Zuev, Alec White,
  David Stuck, Shaama M.S., Shane Yost, Joonho Lee, David Small,
  Daniel Levine, Susi Lehtola, Hugh Burton, Evgeny Epifanovsky,
  Bang C. Huynh
 -----------------------------------------------------------------------
 Hartree-Fock
 using 64 threads for integral computing
 -------------------------------------------------------
 OpenMP Integral computing Module                
 Release: version 1.0, May 2013, Q-Chem Inc. Pittsburgh 
 -------------------------------------------------------
 A restricted SCF calculation will be
 performed using DIIS
 SCF converges when DIIS error is below 1.0e-06
 ---------------------------------------
  Cycle       Energy         DIIS error
 ---------------------------------------
    1   -1581.2759927872      1.87e-02  
    2   -1570.1166969124      2.10e-03  
    3   -1570.4428707745      1.64e-03  
    4   -1570.6753520143      2.56e-04  
    5   -1570.6873030881      7.51e-05  
    6   -1570.6883334356      2.77e-05  
    7   -1570.6885642154      1.42e-05  
    8   -1570.6886373420      5.83e-06  
    9   -1570.6886486735      2.28e-06  
   10   -1570.6886505612      7.05e-07  Convergence criterion met
 ---------------------------------------
 SCF time:   CPU 5647.40s  wall 229.00s 

************** Final PCM Free Energy Summary **************
 G_electrostatic  =      -0.02507378 hartree =     -15.73403655 kcal/mol
 G_cavitation     =       0.00000000 hartree =       0.00000000 kcal/mol
 G_dispersion     =       0.00000000 hartree =       0.00000000 kcal/mol
 G_repulsion      =       0.00000000 hartree =       0.00000000 kcal/mol
 --------------------------------------------------
 Non-electrostatic Free Energy =       0.00000000 hartree =       0.00000000 kcal/mol
 Total                         =      -0.02507378 hartree =     -15.73403655 kcal/mol
 --------------------------------------------------
 SCF Energy (H0 + V/2)                       =   -1570.68865056 
 Solute Internal Energy (H0)                 =   -1570.66357678 
 Total Free Energy (H0 + V/2 + non-elec)     =   -1570.68865056 hartree
                                             = -985622.00421938 kcal/mol
***********************************************************

 SCF   energy in the final basis set =    -1570.6886505612
 Total energy in the final basis set =    -1570.6886505612


 --------------------------------------------------------------
  Generalized many-body perturbation theory program
  by Joonho Lee, Fazle Rob, Xintian Feng, Evgeny Epifanovsky

 No regularization used 
 (reg. param. = 0.0000e+00)
  (P|Q)^-1/2 Time:  CPU 117.76 s  wall 2.52 s

 In RI-MP2 calculation: 
 # of frozen core orbitals: 31

 Components of the RIMP2 correlation energy:
        aaaa    correlation energy =        -0.6162674899 a.u.
        abab    correlation energy =        -3.3921074374 a.u.
        bbbb    correlation energy =        -0.6162674899 a.u.
        non-Brillouin singles      =        -0.0000000000 a.u.
        total same-spin energy     =        -1.2325349799 a.u.
        total opposite-spin energy =        -3.3921074374 a.u.

 Total  RIMP2   correlation energy =        -4.6246424173 a.u.
        RIMP2         total energy =     -1575.3132929785 a.u.

 RI-MP2 Energy Time:  CPU 2005.66 s  wall 34.14 s
 
 --------------------------------------------------------------
 
                    Orbital Energies (a.u.)
 --------------------------------------------------------------
 
 Alpha MOs
 -- Occupied --
-91.9886 -20.5589 -20.5565 -20.5563 -20.5554 -15.6315 -15.6310 -11.4005
-11.3967 -11.3930 -11.3908 -11.3161 -11.3080 -11.3033 -11.3017 -11.2998
-11.2992 -11.2924 -11.2873 -11.2864 -11.2811 -11.2809 -11.2786 -11.2648
-11.2646 -11.2565 -11.2489  -8.9879  -6.6687  -6.6682  -6.6676  -1.4252
 -1.4242  -1.4045  -1.4033  -1.2679  -1.2655  -1.2183  -1.1738  -1.1445
 -1.1184  -1.0634  -1.0507  -0.9934  -0.9890  -0.9820  -0.9595  -0.9488
 -0.8975  -0.8801  -0.8781  -0.8618  -0.7954  -0.7776  -0.7736  -0.7598
 -0.7358  -0.7193  -0.7053  -0.6953  -0.6812  -0.6735  -0.6666  -0.6625
 -0.6574  -0.6425  -0.6380  -0.6342  -0.6305  -0.6130  -0.5853  -0.5846
 -0.5782  -0.5723  -0.5663  -0.5644  -0.5634  -0.5555  -0.5533  -0.5487
 -0.5346  -0.5264  -0.5202  -0.5154  -0.4834  -0.4710  -0.4662  -0.4605
 -0.4585  -0.4534  -0.4285  -0.4184  -0.4093  -0.3561  -0.3505  -0.3354
 -0.3190
 -- Virtual --
 -0.0203   0.0632   0.0717   0.0984   0.1169   0.1555   0.1579   0.1588
  0.1653   0.1669   0.1771   0.1823   0.1848   0.1952   0.1992   0.2068
  0.2154   0.2218   0.2275   0.2296   0.2325   0.2388   0.2575   0.2611
  0.2642   0.3016   0.3062   0.3136   0.3169   0.3219   0.3222   0.3332
  0.3417   0.3432   0.3519   0.3571   0.3585   0.3622   0.3701   0.3730
  0.3792   0.3804   0.3849   0.3944   0.3994   0.4030   0.4037   0.4101
  0.4148   0.4245   0.4299   0.4345   0.4417   0.4448   0.4503   0.4527
  0.4568   0.4589   0.4618   0.4702   0.4716   0.4838   0.4885   0.4932
  0.5020   0.5031   0.5074   0.5139   0.5176   0.5268   0.5284   0.5307
  0.5332   0.5361   0.5464   0.5490   0.5524   0.5593   0.5604   0.5624
  0.5667   0.5723   0.5798   0.5810   0.5892   0.5909   0.5969   0.5998
  0.6036   0.6076   0.6112   0.6184   0.6207   0.6237   0.6251   0.6282
  0.6331   0.6336   0.6352   0.6383   0.6413   0.6464   0.6518   0.6629
  0.6717   0.6768   0.6910   0.6944   0.6997   0.7025   0.7064   0.7131
  0.7211   0.7315   0.7327   0.7372   0.7451   0.7562   0.7581   0.7622
  0.7678   0.7751   0.7777   0.7891   0.7976   0.8026   0.8073   0.8127
  0.8145   0.8259   0.8324   0.8343   0.8393   0.8431   0.8481   0.8514
  0.8637   0.8644   0.8672   0.8725   0.8837   0.8868   0.9001   0.9071
  0.9087   0.9170   0.9220   0.9222   0.9330   0.9352   0.9373   0.9394
  0.9472   0.9519   0.9611   0.9637   0.9726   0.9782   0.9795   0.9869
  0.9898   0.9936   0.9983   1.0026   1.0103   1.0169   1.0200   1.0288
  1.0312   1.0353   1.0413   1.0539   1.0580   1.0626   1.0699   1.0720
  1.0757   1.0787   1.0834   1.0853   1.0905   1.0965   1.1057   1.1077
  1.1264   1.1285   1.1327   1.1405   1.1468   1.1481   1.1516   1.1572
  1.1596   1.1629   1.1686   1.1717   1.1799   1.1821   1.1881   1.1968
  1.2003   1.2092   1.2125   1.2203   1.2248   1.2292   1.2333   1.2360
  1.2439   1.2495   1.2521   1.2547   1.2629   1.2700   1.2872   1.2942
  1.3073   1.3244   1.3252   1.3355   1.3402   1.3426   1.3444   1.3569
  1.3661   1.3724   1.3826   1.3837   1.3848   1.3973   1.4133   1.4190
  1.4226   1.4251   1.4387   1.4425   1.4495   1.4503   1.4584   1.4603
  1.4764   1.4833   1.4884   1.4900   1.4996   1.5032   1.5118   1.5146
  1.5221   1.5310   1.5336   1.5463   1.5483   1.5537   1.5598   1.5633
  1.5691   1.5786   1.5817   1.5898   1.5995   1.6077   1.6159   1.6318
  1.6350   1.6435   1.6515   1.6553   1.6699   1.6717   1.6756   1.6910
  1.6941   1.7019   1.7093   1.7137   1.7321   1.7376   1.7468   1.7478
  1.7530   1.7604   1.7662   1.7704   1.7883   1.7939   1.8017   1.8087
  1.8103   1.8274   1.8345   1.8451   1.8488   1.8556   1.8593   1.8624
  1.8656   1.8795   1.8930   1.9080   1.9152   1.9240   1.9305   1.9471
  1.9606   1.9709   1.9752   1.9793   1.9951   2.0034   2.0117   2.0326
  2.0370   2.0471   2.0573   2.0628   2.0909   2.1114   2.1161   2.1294
  2.1435   2.1530   2.1584   2.1728   2.1950   2.2055   2.2153   2.2186
  2.2328   2.2395   2.2567   2.2627   2.2852   2.2915   2.2929   2.2986
  2.3131   2.3184   2.3232   2.3358   2.3550   2.3596   2.3709   2.3847
  2.4108   2.4160   2.4305   2.4374   2.4430   2.4502   2.4561   2.4615
  2.4717   2.4835   2.4896   2.4962   2.5108   2.5172   2.5244   2.5306
  2.5413   2.5600   2.5710   2.5841   2.5864   2.5871   2.6009   2.6036
  2.6116   2.6163   2.6195   2.6417   2.6500   2.6580   2.6635   2.6662
  2.6745   2.6834   2.6921   2.6979   2.7029   2.7138   2.7159   2.7226
  2.7339   2.7433   2.7446   2.7488   2.7556   2.7675   2.7771   2.7881
  2.7993   2.8174   2.8236   2.8254   2.8356   2.8427   2.8446   2.8533
  2.8630   2.8666   2.8698   2.8786   2.8882   2.8941   2.8991   2.9056
  2.9117   2.9245   2.9301   2.9357   2.9478   2.9536   2.9583   2.9628
  2.9746   2.9775   2.9836   2.9924   3.0006   3.0015   3.0085   3.0107
  3.0242   3.0288   3.0345   3.0422   3.0497   3.0597   3.0637   3.0740
  3.0891   3.0893   3.0962   3.1010   3.1059   3.1104   3.1178   3.1266
  3.1283   3.1420   3.1468   3.1546   3.1605   3.1664   3.1745   3.1779
  3.1874   3.1947   3.2030   3.2038   3.2080   3.2144   3.2167   3.2197
  3.2248   3.2311   3.2361   3.2444   3.2521   3.2529   3.2587   3.2651
  3.2725   3.2770   3.2798   3.2843   3.2858   3.2930   3.2957   3.2977
  3.3029   3.3080   3.3193   3.3205   3.3253   3.3283   3.3339   3.3363
  3.3412   3.3435   3.3489   3.3556   3.3604   3.3608   3.3636   3.3686
  3.3764   3.3810   3.3841   3.3882   3.3986   3.3995   3.4103   3.4157
  3.4195   3.4277   3.4312   3.4337   3.4427   3.4492   3.4528   3.4555
  3.4565   3.4649   3.4689   3.4748   3.4764   3.4775   3.4858   3.4918
  3.4997   3.5028   3.5039   3.5050   3.5115   3.5164   3.5202   3.5251
  3.5277   3.5357   3.5422   3.5484   3.5600   3.5653   3.5683   3.5777
  3.5826   3.5859   3.5930   3.5990   3.6092   3.6129   3.6277   3.6305
  3.6345   3.6379   3.6421   3.6437   3.6554   3.6601   3.6690   3.6770
  3.6864   3.6866   3.6933   3.7030   3.7086   3.7119   3.7147   3.7246
  3.7258   3.7304   3.7341   3.7379   3.7498   3.7523   3.7568   3.7619
  3.7724   3.7737   3.7806   3.7843   3.7861   3.7924   3.7979   3.7994
  3.8047   3.8092   3.8282   3.8326   3.8359   3.8452   3.8530   3.8557
  3.8583   3.8670   3.8740   3.8803   3.8859   3.8981   3.9113   3.9200
  3.9322   3.9347   3.9401   3.9464   3.9506   3.9533   3.9613   3.9759
  3.9849   3.9941   4.0002   4.0017   4.0071   4.0180   4.0288   4.0461
  4.0496   4.0596   4.0664   4.0786   4.0874   4.0916   4.0953   4.1093
  4.1206   4.1264   4.1346   4.1451   4.1459   4.1537   4.1565   4.1777
  4.1836   4.1854   4.1874   4.1944   4.2016   4.2083   4.2205   4.2370
  4.2446   4.2499   4.2587   4.2634   4.2676   4.2781   4.2803   4.2852
  4.2934   4.2951   4.3015   4.3042   4.3147   4.3258   4.3310   4.3357
  4.3407   4.3503   4.3613   4.3636   4.3669   4.3685   4.3701   4.3791
  4.3906   4.3948   4.4009   4.4038   4.4147   4.4204   4.4259   4.4346
  4.4392   4.4649   4.4690   4.4832   4.4882   4.5063   4.5161   4.5178
  4.5217   4.5280   4.5307   4.5352   4.5409   4.5519   4.5683   4.5692
  4.5743   4.5810   4.5839   4.5872   4.6047   4.6097   4.6285   4.6325
  4.6411   4.6547   4.6632   4.6654   4.6707   4.6740   4.6890   4.6978
  4.7098   4.7163   4.7321   4.7365   4.7509   4.7618   4.7810   4.7899
  4.8182   4.8244   4.8357   4.8433   4.8472   4.8523   4.8692   4.8769
  4.8891   4.8935   4.9045   4.9268   4.9347   4.9647   4.9677   4.9780
  4.9875   5.0020   5.0173   5.0374   5.0429   5.0476   5.0505   5.0545
  5.0936   5.1013   5.1053   5.1093   5.1240   5.1266   5.1426   5.1467
  5.1662   5.1780   5.1845   5.1910   5.1937   5.2242   5.2362   5.2559
  5.2591   5.2748   5.2782   5.2911   5.3214   5.3289   5.3351   5.3423
  5.3487   5.3797   5.3954   5.4019   5.4194   5.4294   5.4387   5.4508
  5.4912   5.5058   5.5083   5.5091   5.5128   5.5222   5.5474   5.5551
  5.5582   5.5599   5.5734   5.5772   5.5833   5.5900   5.6035   5.6097
  5.6242   5.6314   5.6458   5.6521   5.6539   5.6749   5.6763   5.6856
  5.6949   5.7022   5.7247   5.7356   5.7524   5.7550   5.7599   5.7690
  5.7730   5.7760   5.8109   5.8184   5.8415   5.8674   5.8830   5.9247
  5.9393   5.9566   5.9984   6.0144   6.0217   6.0227   6.0287   6.0480
  6.0812   6.1001   6.1054   6.1113   6.1160   6.1598   6.1932   6.2070
  6.2172   6.2177   6.2206   6.2526   6.2634   6.2675   6.2994   6.3399
  6.3506   6.3845   6.4382   6.4434   6.4653   6.5215   6.5616   6.5688
  6.5868   6.5968   6.6414   6.6468   6.6587   6.6634   6.7032   6.8291
  6.8311   6.8778   6.8856   6.8936   6.9108   6.9218   6.9269   7.0770
  7.0978   7.1375   7.1823   7.1870   7.2264   7.3320   7.3404   7.3439
  7.3532   7.4657   7.5424   7.5565   7.5720   7.5736   7.5853   7.6329
  7.6660   7.6806   7.7207   8.3272   9.8889  10.2818  11.1104  11.2770
 11.6411  11.7141  11.9368  12.3545  12.4454  12.7650  12.8522  12.8944
 13.2490  13.5557  13.8045  13.9286  14.0166  14.1107  14.1922  14.3396
 14.4064  14.7162  15.3138  15.7141  15.9805
 --------------------------------------------------------------
 
          Ground-State Mulliken Net Atomic Charges

     Atom                 Charge (a.u.)
  ----------------------------------------
      1 C                    -0.130219
      2 C                    -0.107992
      3 C                    -0.043411
      4 C                    -0.001166
      5 H                     0.189073
      6 C                    -0.002482
      7 C                     0.073137
      8 C                     0.005085
      9 C                    -0.017649
     10 C                    -0.127446
     11 C                     0.066469
     12 H                     0.181752
     13 C                     0.361072
     14 C                     0.369462
     15 N                    -0.101949
     16 C                     0.359549
     17 C                     0.363443
     18 N                    -0.096243
     19 O                    -0.464715
     20 O                    -0.476429
     21 O                    -0.479936
     22 O                    -0.455696
     23 C                    -0.200933
     24 H                     0.141069
     25 H                     0.112327
     26 H                     0.112677
     27 C                    -0.196038
     28 H                     0.133644
     29 H                     0.113302
     30 H                     0.113278
     31 H                     0.214694
     32 C                    -0.048841
     33 S                     0.040093
     34 C                    -0.207823
     35 C                    -0.179972
     36 C                    -0.203541
     37 H                     0.190721
     38 H                     0.191029
     39 H                     0.210608
  ----------------------------------------
  Sum of atomic charges =     0.000000

 -----------------------------------------------------------------
                    Cartesian Multipole Moments
 -----------------------------------------------------------------
    Charge (ESU x 10^10)
                 0.0000
    Dipole Moment (Debye)
         X       0.3231      Y       0.7278      Z      -0.8452
       Tot       1.1612
    Quadrupole Moments (Debye-Ang)
        XX    -181.9180     XY       0.0702     YY    -163.9726
        XZ      -6.2324     YZ       0.2778     ZZ    -159.8595
    Octopole Moments (Debye-Ang^2)
       XXX     -64.9778    XXY     534.6131    XYY      -8.0514
       YYY    1579.4343    XXZ     -24.3346    XYZ      27.0545
       YYZ     -11.4721    XZZ     -18.7195    YZZ     487.3454
       ZZZ     -70.8752
    Hexadecapole Moments (Debye-Ang^3)
      XXXX   -5456.6957   XXXY     -58.8123   XXYY   -4062.0971
      XYYY    -759.9527   YYYY  -17067.4529   XXXZ   -1005.6990
      XXYZ      49.4169   XYYZ    -498.8136   YYYZ    -308.4517
      XXZZ   -1095.2061   XYZZ     -76.1634   YYZZ   -2877.9397
      XZZZ    -928.9489   YZZZ    -153.3708   ZZZZ   -1130.3681
 -----------------------------------------------------------------
 Total job time:  268.07s(wall), 7766.08s(cpu) 
 Sun Sep 24 15:41:53 2023

        *************************************************************
        *                                                           *
        *  Thank you very much for using Q-Chem.  Have a nice day.  *
        *                                                           *
        *************************************************************


0 sent ACK to 0 
now end server 0 ... 
cleanup process ... done
remove work dirs ./qchem2992360.0 -- ./qchem2992360.0
rm -rf ./qchem2992360.0
rm -rf ./qchem2992360
