You are running Q-Chem version: 5.4.0

#
# job setting
#
local host:  exp-3-38
current dir: /expanse/lustre/projects/csd626/rramji/aromodel/PNDIT/Rotation_Test
input file:  Dimethyl_Naphthalene_Dicarboximide_Phi_20_Theta_340_Thiophene.qcin
output file: 
nprocs     : 1
nthreads   : 64
#
# qchem installation setting
#
QC:          /cm/shared/apps/spack/cpu/opt/spack/linux-centos8-zen2/gcc-10.2.0/qchem-5.4-akfmr7b3t57bfs6qan3padb2wnb2i7cl
QCAUX:       /cm/shared/apps/spack/cpu/opt/spack/linux-centos8-zen2/gcc-10.2.0/qchem-5.4-akfmr7b3t57bfs6qan3padb2wnb2i7cl/qcaux
QCPROG:      /cm/shared/apps/spack/cpu/opt/spack/linux-centos8-zen2/gcc-10.2.0/qchem-5.4-akfmr7b3t57bfs6qan3padb2wnb2i7cl/exe/qcprog.exe
QCPROG_S:    /cm/shared/apps/spack/cpu/opt/spack/linux-centos8-zen2/gcc-10.2.0/qchem-5.4-akfmr7b3t57bfs6qan3padb2wnb2i7cl/exe/qcprog.exe_s
PARALLEL:    -DPARALLEL
QCMPI:       mpich
#
# qchem directory setting
#
qcrun:       qchem425163
QCSCRATCH:   .
QCLOCALSCR:  
QCTMPDIR:    .
QCFILEPREF:  ./qchem425163
QCSAVEDIR:   
workdirs:    ./qchem425163
workdir0:    ./qchem425163
partmpdirs =  
#
# parallel setting
#
QCRSH:           ssh
QCMPI:           mpich
QCMPIRUN:        /cm/shared/apps/spack/cpu/opt/spack/linux-centos8-zen2/gcc-10.2.0/qchem-5.4-akfmr7b3t57bfs6qan3padb2wnb2i7cl/bin/mpi/mpirun_qchem
QCMACHINEFILE:   ./qchem425163/hostfile
exp-3-38

#
# env setting
#
exported envs:   QC QCAUX QCSCRATCH QCRUNNAME QCFILEPREF QCPROG QCPROG_S GUIFILE

Running Job 1 of 1 Dimethyl_Naphthalene_Dicarboximide_Phi_20_Theta_340_Thiophene.qcin
qchem Dimethyl_Naphthalene_Dicarboximide_Phi_20_Theta_340_Thiophene.qcin_425163.0 ./qchem425163/ 1
/cm/shared/apps/spack/cpu/opt/spack/linux-centos8-zen2/gcc-10.2.0/qchem-5.4-akfmr7b3t57bfs6qan3padb2wnb2i7cl/bin/mpi/mpirun_qchem -machinefile ./qchem425163/hostfile -np 1 /cm/shared/apps/spack/cpu/opt/spack/linux-centos8-zen2/gcc-10.2.0/qchem-5.4-akfmr7b3t57bfs6qan3padb2wnb2i7cl/exe/qcprog.exe Dimethyl_Naphthalene_Dicarboximide_Phi_20_Theta_340_Thiophene.qcin_425163.0 ./qchem425163/

Process 0 of 1 is on exp-3-38 - thread support 0
initial socket setup ...start
initial socket setup ...done 
now start server 0 ... 
                  Welcome to Q-Chem
     A Quantum Leap Into The Future Of Chemistry


 Q-Chem 5.4, Q-Chem, Inc., Pleasanton, CA (2021)

 License issued to: University of California, San Diego (site)

 E. Epifanovsky,  A. T. B. Gilbert,  Xintian Feng,  Joonho Lee,  Yuezhi Mao,  
 N. Mardirossian,  P. Pokhilko,  A. White,  M. Wormit,  M. P. Coons,  
 A. L. Dempwolff,  Zhengting Gan,  D. Hait,  P. R. Horn,  L. D. Jacobson,  
 I. Kaliman,  J. Kussmann,  A. W. Lange,  Ka Un Lao,  D. S. Levine,  Jie Liu,  
 S. C. McKenzie,  A. F. Morrison,  K. Nanda,  F. Plasser,  D. R. Rehn,  
 M. L. Vidal,  Zhi-Qiang You,  Ying Zhu,  B. Alam,  B. Albrecht,  
 A. Aldossary,  E. Alguire,  J. H. Andersen,  D. Barton,  K. Begam,  A. Behn,  
 Y. A. Bernard,  E. J. Berquist,  H. Burton,  A. Carreras,  K. Carter-Fenk,  
 R. Chakraborty,  A. D. Chien,  K. D. Closser,  V. Cofer-Shabica,  
 S. Dasgupta,  Jia Deng,  M. de Wergifosse,  M. Diedenhofen,  Hainam Do,  
 S. Ehlert,  Po-Tung Fang,  S. Fatehi,  Qingguo Feng,  J. Gayvert,  
 Qinghui Ge,  G. Gidofalvi,  M. Goldey,  J. Gomes,  C. Gonzalez-Espinoza,  
 S. Gulania,  A. Gunina,  M. W. D. Hanson-Heine,  P. H. P. Harbach,  
 A. W. Hauser,  M. F. Herbst,  M. Hernandez Vera,  M. Hodecker,  
 Z. C. Holden,  S. Houck,  Xunkun Huang,  Kerwin Hui,  B. C. Huynh,  
 M. Ivanov,  Hyunjun Ji,  Hanjie Jiang,  B. Kaduk,  S. Kaehler,  
 K. Khistyaev,  Jaehoon Kim,  P. Klunzinger,  Z. Koczor-Benda,  
 Joong Hoon Koh,  D. Kosenkov,  L. Koulias,  T. Kowalczyk,  C. M. Krauter,  
 K. Kue,  A. Kunitsa,  T. Kus,  A. Landau,  K. V. Lawler,  D. Lefrancois,  
 S. Lehtola,  Rain Li,  Yi-Pei Li,  Jiashu Liang,  M. Liebenthal,  
 Hung-Hsuan Lin,  You-Sheng Lin,  Fenglai Liu,  Kuan-Yu Liu,  
 M. Loipersberger,  A. Luenser,  A. Manjanath,  P. Manohar,  E. Mansoor,  
 S. F. Manzer,  Shan-Ping Mao,  A. V. Marenich,  T. Markovich,  S. Mason,  
 S. A. Maurer,  P. F. McLaughlin,  M. F. S. J. Menger,  J.-M. Mewes,  
 S. A. Mewes,  P. Morgante,  J. W. Mullinax,  T. S. Nguyen-Beck,  
 K. J. Oosterbaan,  G. Paran,  Alexander C. Paul,  Suranjan K. Paul,  
 F. Pavosevic,  Zheng Pei,  S. Prager,  E. I. Proynov,  E. Ramos,  B. Rana,  
 A. E. Rask,  A. Rettig,  R. M. Richard,  F. Rob,  E. Rossomme,  T. Scheele,  
 M. Scheurer,  M. Schneider,  N. Sergueev,  S. M. Sharada,  W. Skomorowski,  
 D. W. Small,  C. J. Stein,  Yu-Chuan Su,  E. J. Sundstrom,  Zhen Tao,  
 J. Thirman,  T. Tsuchimochi,  N. M. Tubman,  S. P. Veccham,  O. Vydrov,  
 J. Wenzel,  J. Witte,  A. Yamada,  Kun Yao,  S. Yeganeh,  S. R. Yost,  
 A. Zech,  Igor Ying Zhang,  Xing Zhang,  Yu Zhang,  D. Zuev,  
 A. Aspuru-Guzik,  A. T. Bell,  N. A. Besley,  K. B. Bravaya,  B. R. Brooks,  
 D. Casanova,  Jeng-Da Chai,  S. Coriani,  C. J. Cramer,  
 A. E. DePrince, III,  R. A. DiStasio Jr.,  A. Dreuw,  B. D. Dunietz,  
 T. R. Furlani,  W. A. Goddard III,  S. Grimme,  S. Hammes-Schiffer,  
 T. Head-Gordon,  W. J. Hehre,  Chao-Ping Hsu,  T.-C. Jagau,  Yousung Jung,  
 A. Klamt,  Jing Kong,  D. S. Lambrecht,  WanZhen Liang,  N. J. Mayhall,  
 C. W. McCurdy,  J. B. Neaton,  C. Ochsenfeld,  J. A. Parkhill,  R. Peverati,  
 V. A. Rassolov,  Yihan Shao,  L. V. Slipchenko,  T. Stauch,  R. P. Steele,  
 J. E. Subotnik,  A. J. W. Thom,  A. Tkatchenko,  D. G. Truhlar,  
 T. Van Voorhis,  T. A. Wesolowski,  K. B. Whaley,  H. L. Woodcock III,  
 P. M. Zimmerman,  S. Faraji,  P. M. W. Gill,  M. Head-Gordon,  
 J. M. Herbert,  A. I. Krylov

 Contributors to earlier versions of Q-Chem not listed above: 
 R. D. Adamson,  B. Austin,  R. Baer,  J. Baker,  G. J. O. Beran,  
 K. Brandhorst,  S. T. Brown,  E. F. C. Byrd,  A. K. Chakraborty,  
 G. K. L. Chan,  Chun-Min Chang,  Yunqing Chen,  C.-L. Cheng,  
 Siu Hung Chien,  D. M. Chipman,  D. L. Crittenden,  H. Dachsel,  
 R. J. Doerksen,  A. D. Dutoi,  R. G. Edgar,  J. Fosso-Tande,  
 L. Fusti-Molnar,  D. Ghosh,  A. Ghysels,  A. Golubeva-Zadorozhnaya,  
 J. Gonthier,  M. S. Gordon,  S. R. Gwaltney,  G. Hawkins,  J. E. Herr,  
 A. Heyden,  S. Hirata,  E. G. Hohenstein,  G. Kedziora,  F. J. Keil,  
 C. Kelley,  Jihan Kim,  R. A. King,  R. Z. Khaliullin,  P. P. Korambath,  
 W. Kurlancheek,  A. Laurent,  A. M. Lee,  M. S. Lee,  S. V. Levchenko,  
 Ching Yeh Lin,  D. Liotard,  E. Livshits,  R. C. Lochan,  I. Lotan,  
 L. A. Martinez-Martinez,  P. E. Maslen,  N. Nair,  D. P. O'Neill,  
 D. Neuhauser,  E. Neuscamman,  C. M. Oana,  R. Olivares-Amaya,  R. Olson,  
 T. M. Perrine,  B. Peters,  P. A. Pieniazek,  A. Prociuk,  Y. M. Rhee,  
 J. Ritchie,  M. A. Rohrdanz,  E. Rosta,  N. J. Russ,  H. F. Schaefer III,  
 M. W. Schmidt,  N. E. Schultz,  S. Sharma,  N. Shenvi,  C. D. Sherrill,  
 A. C. Simmonett,  A. Sodt,  T. Stein,  D. Stuck,  K. S. Thanthiriwatte,  
 V. Vanovschi,  L. Vogt,  Tao Wang,  A. Warshel,  M. A. Watson,  
 C. F. Williams,  Q. Wu,  X. Xu,  Jun Yang,  W. Zhang,  Yan Zhao

 Please cite Q-Chem as follows:
 Y. Shao et al., Mol. Phys. 113, 184-215 (2015)
 DOI: 10.1080/00268976.2014.952696

 Q-Chem 5.4.0 for Intel X86 EM64T Linux

 Parts of Q-Chem use Armadillo 9.800.1 (Horizon Scraper).
 http://arma.sourceforge.net/

 Q-Chem begins on Wed Sep 20 10:35:11 2023  

 Host: 
0

     Scratch files written to ./qchem425163//
 May1621 |scratch|qcdevops|jenkins|workspace|build_RNUM    
 Parallel job on  1  processors
 Processing $rem in /cm/shared/apps/spack/cpu/opt/spack/linux-centos8-zen2/gcc-10.2.0/qchem-5.4-akfmr7b3t57bfs6qan3padb2wnb2i7cl/config/preferences:
 Processing $rem in /home/rramji/.qchemrc:
 Symmetry turned off for PCM/SM12/SMD calculation
 Core orbitals will be frozen

 Checking the input file for inconsistencies... 	...done.

 Q-Chem warning in module forms1/BasisType.C, line 2236:

 You are not using the predefined 5D/6D in this basis set.


--------------------------------------------------------------
User input:
--------------------------------------------------------------
$molecule
0 1
C	-0.089263	-6.741404	-0.240927
C	-0.535973	-6.155638	-1.467886
C	0.281103	-5.791452	0.777972
C	-0.631036	-4.803786	-1.729742
H	-0.836458	-6.821518	-2.292903
C	0.181995	-4.378638	0.503614
C	-0.272725	-3.838032	-0.746756
C	0.539954	-3.413062	1.485437
C	-0.371053	-2.426473	-1.018915
C	0.446381	-2.059348	1.226557
C	-0.000000	-1.478216	-0.000000
H	0.747410	-1.394783	2.052413
C	0.772747	-6.187987	2.134128
C	1.029154	-3.798164	2.829820
N	1.110828	-5.170003	3.059182
C	-1.121728	-4.424987	-3.077731
C	-0.864069	-2.036627	-2.375694
N	-1.201928	-3.049156	-3.301101
O	0.903908	-7.353131	2.502830
O	1.345809	-2.986854	3.697078
O	-1.434422	-5.248946	-3.934752
O	-1.003943	-0.878829	-2.764177
C	1.592981	-5.563799	4.386939
H	1.607367	-6.664085	4.429822
H	0.924504	-5.147101	5.164489
H	2.605446	-5.148785	4.553486
C	-1.677308	-2.587487	-4.608481
H	-1.898089	-3.483329	-5.211969
H	-0.902337	-1.964972	-5.094624
H	-2.582098	-1.962932	-4.483092
H	-0.025963	-7.822318	-0.066080
C	0.000000	0.000000	0.000000
S	0.271091	0.745405	1.580530
C	0.831198	2.284363	0.904911
C	0.341175	0.937861	-0.985400
C	0.792631	2.178516	-0.493528
H	0.260601	0.716417	-2.059934
H	1.093860	3.006347	-1.152593
H	1.132330	3.111961	1.556025
$end

$rem
JOBTYPE		SP
EXCHANGE	HF
CORRELATION	pRIMP2
BASIS		cc-pvtz
METHOD		rimp2
AUX_BASIS	rimp2-cc-pvtz
SOLVENT_METHOD	PCM
PURECART	11111
SYMMETRY	false
MEM_TOTAL	110000
SCF_CONVERGENCE = 6
THRESH=10
GUI = 2
$end



$solvent
dielectric 4.90
$end
--------------------------------------------------------------
 ----------------------------------------------------------------
             Standard Nuclear Orientation (Angstroms)
    I     Atom           X                Y                Z
 ----------------------------------------------------------------
    1      C      -0.0892630000    -6.7414040000    -0.2409270000
    2      C      -0.5359730000    -6.1556380000    -1.4678860000
    3      C       0.2811030000    -5.7914520000     0.7779720000
    4      C      -0.6310360000    -4.8037860000    -1.7297420000
    5      H      -0.8364580000    -6.8215180000    -2.2929030000
    6      C       0.1819950000    -4.3786380000     0.5036140000
    7      C      -0.2727250000    -3.8380320000    -0.7467560000
    8      C       0.5399540000    -3.4130620000     1.4854370000
    9      C      -0.3710530000    -2.4264730000    -1.0189150000
   10      C       0.4463810000    -2.0593480000     1.2265570000
   11      C       0.0000000000    -1.4782160000     0.0000000000
   12      H       0.7474100000    -1.3947830000     2.0524130000
   13      C       0.7727470000    -6.1879870000     2.1341280000
   14      C       1.0291540000    -3.7981640000     2.8298200000
   15      N       1.1108280000    -5.1700030000     3.0591820000
   16      C      -1.1217280000    -4.4249870000    -3.0777310000
   17      C      -0.8640690000    -2.0366270000    -2.3756940000
   18      N      -1.2019280000    -3.0491560000    -3.3011010000
   19      O       0.9039080000    -7.3531310000     2.5028300000
   20      O       1.3458090000    -2.9868540000     3.6970780000
   21      O      -1.4344220000    -5.2489460000    -3.9347520000
   22      O      -1.0039430000    -0.8788290000    -2.7641770000
   23      C       1.5929810000    -5.5637990000     4.3869390000
   24      H       1.6073670000    -6.6640850000     4.4298220000
   25      H       0.9245040000    -5.1471010000     5.1644890000
   26      H       2.6054460000    -5.1487850000     4.5534860000
   27      C      -1.6773080000    -2.5874870000    -4.6084810000
   28      H      -1.8980890000    -3.4833290000    -5.2119690000
   29      H      -0.9023370000    -1.9649720000    -5.0946240000
   30      H      -2.5820980000    -1.9629320000    -4.4830920000
   31      H      -0.0259630000    -7.8223180000    -0.0660800000
   32      C       0.0000000000     0.0000000000     0.0000000000
   33      S       0.2710910000     0.7454050000     1.5805300000
   34      C       0.8311980000     2.2843630000     0.9049110000
   35      C       0.3411750000     0.9378610000    -0.9854000000
   36      C       0.7926310000     2.1785160000    -0.4935280000
   37      H       0.2606010000     0.7164170000    -2.0599340000
   38      H       1.0938600000     3.0063470000    -1.1525930000
   39      H       1.1323300000     3.1119610000     1.5560250000
 ----------------------------------------------------------------
 Nuclear Repulsion Energy =        2499.02840614 hartrees
 There are       97 alpha and       97 beta electrons
 Requested basis set is cc-pVTZ
 There are 344 shells and 982 basis functions

 Total QAlloc Memory Limit 110000 MB
 Mega-Array Size       188 MB
 MEM_STATIC part       192 MB
 Discretize the solute cavity surface with Lebedev spheres
	Using 110 Lebedev grid points for each H atom
	Using 194 Lebedev grid points for other atoms
	Atomic van der Waals radii will be scaled by 1.20
 Remove points where switching function is < 1.0e-08
 Keep 2519 surface tesserae and discard 4039 interior tesserae
 Molecular Surface Area = 361.987 Angst**2
 Requested basis set is rimp2-cc-pVTZ
 There are 750 shells and 2588 basis functions
 A cutoff of  1.0D-10 yielded  31728 shell pairs
 There are    244494 function pairs (    317755 Cartesian)
 Smallest overlap matrix eigenvalue = 9.47E-06

 Q-Chem warning in module stvman/mkSTV.C, line 323:

 Overlap eigenvalue is smaller than square root of threshold
 Use THRESH >= 12 to get rid of this warning


 Scale SEOQF with 1.000000e-01/1.000000e-02/1.000000e-01

 Standard Electronic Orientation quadrupole field applied
 Nucleus-field energy     =    -0.0000000972 hartrees
 Guess from superposition of atomic densities
 Warning:  Energy on first SCF cycle will be non-variational
 SAD guess density has 194.000000 electrons

 -----------------------------------------------------------------------
  General SCF calculation program by
  Eric Jon Sundstrom, Paul Horn, Yuezhi Mao, Dmitri Zuev, Alec White,
  David Stuck, Shaama M.S., Shane Yost, Joonho Lee, David Small,
  Daniel Levine, Susi Lehtola, Hugh Burton, Evgeny Epifanovsky,
  Bang C. Huynh
 -----------------------------------------------------------------------
 Hartree-Fock
 using 64 threads for integral computing
 -------------------------------------------------------
 OpenMP Integral computing Module                
 Release: version 1.0, May 2013, Q-Chem Inc. Pittsburgh 
 -------------------------------------------------------
 A restricted SCF calculation will be
 performed using DIIS
 SCF converges when DIIS error is below 1.0e-06
 ---------------------------------------
  Cycle       Energy         DIIS error
 ---------------------------------------
    1   -1581.3778483135      1.87e-02  
    2   -1570.1122927058      2.08e-03  
    3   -1570.4410551496      1.61e-03  
    4   -1570.6675063258      2.58e-04  
    5   -1570.6797223317      7.72e-05  
    6   -1570.6808280718      2.85e-05  
    7   -1570.6810850868      1.43e-05  
    8   -1570.6811653945      5.98e-06  
    9   -1570.6811779791      2.27e-06  
   10   -1570.6811801169      7.87e-07  Convergence criterion met
 ---------------------------------------
 SCF time:   CPU 5868.76s  wall 221.00s 

************** Final PCM Free Energy Summary **************
 G_electrostatic  =      -0.02179631 hartree =     -13.67738823 kcal/mol
 G_cavitation     =       0.00000000 hartree =       0.00000000 kcal/mol
 G_dispersion     =       0.00000000 hartree =       0.00000000 kcal/mol
 G_repulsion      =       0.00000000 hartree =       0.00000000 kcal/mol
 --------------------------------------------------
 Non-electrostatic Free Energy =       0.00000000 hartree =       0.00000000 kcal/mol
 Total                         =      -0.02179631 hartree =     -13.67738823 kcal/mol
 --------------------------------------------------
 SCF Energy (H0 + V/2)                       =   -1570.68118012 
 Solute Internal Energy (H0)                 =   -1570.65938381 
 Total Free Energy (H0 + V/2 + non-elec)     =   -1570.68118012 hartree
                                             = -985617.31644483 kcal/mol
***********************************************************

 SCF   energy in the final basis set =    -1570.6811801169
 Total energy in the final basis set =    -1570.6811801169


 --------------------------------------------------------------
  Generalized many-body perturbation theory program
  by Joonho Lee, Fazle Rob, Xintian Feng, Evgeny Epifanovsky

 No regularization used 
 (reg. param. = 0.0000e+00)
  (P|Q)^-1/2 Time:  CPU 145.65 s  wall 2.78 s

 In RI-MP2 calculation: 
 # of frozen core orbitals: 31

 Components of the RIMP2 correlation energy:
        aaaa    correlation energy =        -0.6176676416 a.u.
        abab    correlation energy =        -3.3934370737 a.u.
        bbbb    correlation energy =        -0.6176676416 a.u.
        non-Brillouin singles      =        -0.0000000000 a.u.
        total same-spin energy     =        -1.2353352831 a.u.
        total opposite-spin energy =        -3.3934370737 a.u.

 Total  RIMP2   correlation energy =        -4.6287723568 a.u.
        RIMP2         total energy =     -1575.3099524737 a.u.

 RI-MP2 Energy Time:  CPU 2276.48 s  wall 38.84 s
 
 --------------------------------------------------------------
 
                    Orbital Energies (a.u.)
 --------------------------------------------------------------
 
 Alpha MOs
 -- Occupied --
-91.9930 -20.5584 -20.5563 -20.5551 -20.5534 -15.6310 -15.6299 -11.3997
-11.3956 -11.3911 -11.3905 -11.3191 -11.3018 -11.2997 -11.2979 -11.2949
-11.2942 -11.2920 -11.2910 -11.2866 -11.2831 -11.2789 -11.2758 -11.2645
-11.2644 -11.2600 -11.2514  -8.9931  -6.6739  -6.6733  -6.6727  -1.4247
 -1.4239  -1.4040  -1.4028  -1.2671  -1.2647  -1.2167  -1.1793  -1.1437
 -1.1159  -1.0636  -1.0490  -0.9923  -0.9909  -0.9884  -0.9585  -0.9470
 -0.8968  -0.8785  -0.8782  -0.8605  -0.7967  -0.7798  -0.7725  -0.7624
 -0.7357  -0.7192  -0.7041  -0.6946  -0.6812  -0.6738  -0.6661  -0.6619
 -0.6558  -0.6415  -0.6365  -0.6329  -0.6279  -0.6128  -0.5898  -0.5839
 -0.5801  -0.5728  -0.5665  -0.5630  -0.5622  -0.5559  -0.5529  -0.5474
 -0.5388  -0.5258  -0.5236  -0.5126  -0.4825  -0.4683  -0.4664  -0.4617
 -0.4593  -0.4522  -0.4283  -0.4185  -0.4093  -0.3754  -0.3552  -0.3362
 -0.3011
 -- Virtual --
 -0.0199   0.0524   0.0682   0.1022   0.1292   0.1537   0.1584   0.1589
  0.1665   0.1712   0.1788   0.1856   0.1956   0.1964   0.2068   0.2117
  0.2204   0.2275   0.2294   0.2339   0.2478   0.2497   0.2639   0.2644
  0.2671   0.3063   0.3104   0.3156   0.3202   0.3319   0.3388   0.3411
  0.3446   0.3465   0.3525   0.3556   0.3575   0.3627   0.3640   0.3778
  0.3804   0.3883   0.3945   0.3981   0.4029   0.4068   0.4109   0.4150
  0.4242   0.4254   0.4333   0.4375   0.4403   0.4485   0.4544   0.4563
  0.4604   0.4659   0.4698   0.4723   0.4774   0.4834   0.4883   0.4930
  0.4988   0.5054   0.5113   0.5128   0.5188   0.5230   0.5248   0.5290
  0.5350   0.5384   0.5498   0.5517   0.5552   0.5588   0.5651   0.5679
  0.5709   0.5747   0.5823   0.5854   0.5917   0.5930   0.5957   0.5969
  0.6047   0.6073   0.6132   0.6194   0.6205   0.6232   0.6285   0.6329
  0.6335   0.6352   0.6362   0.6470   0.6545   0.6624   0.6695   0.6719
  0.6767   0.6825   0.6926   0.6972   0.7054   0.7111   0.7121   0.7196
  0.7243   0.7306   0.7377   0.7404   0.7581   0.7596   0.7615   0.7659
  0.7670   0.7733   0.7821   0.7908   0.7999   0.8038   0.8070   0.8197
  0.8235   0.8351   0.8398   0.8444   0.8452   0.8556   0.8594   0.8620
  0.8651   0.8671   0.8720   0.8774   0.8782   0.8878   0.8988   0.9043
  0.9097   0.9170   0.9230   0.9266   0.9303   0.9361   0.9447   0.9457
  0.9521   0.9566   0.9621   0.9661   0.9700   0.9772   0.9812   0.9882
  0.9911   0.9984   1.0015   1.0084   1.0138   1.0162   1.0271   1.0315
  1.0338   1.0429   1.0493   1.0558   1.0566   1.0627   1.0713   1.0735
  1.0756   1.0816   1.0842   1.0853   1.0924   1.1038   1.1071   1.1165
  1.1269   1.1310   1.1349   1.1353   1.1418   1.1504   1.1543   1.1567
  1.1581   1.1644   1.1674   1.1763   1.1784   1.1836   1.1911   1.2015
  1.2027   1.2068   1.2132   1.2207   1.2270   1.2276   1.2317   1.2402
  1.2416   1.2442   1.2555   1.2637   1.2658   1.2682   1.2770   1.3018
  1.3086   1.3253   1.3286   1.3338   1.3387   1.3434   1.3491   1.3593
  1.3660   1.3775   1.3823   1.3830   1.3947   1.3963   1.3998   1.4181
  1.4196   1.4249   1.4264   1.4413   1.4477   1.4523   1.4560   1.4651
  1.4703   1.4819   1.4840   1.4897   1.4937   1.4996   1.5086   1.5210
  1.5296   1.5326   1.5356   1.5469   1.5524   1.5594   1.5609   1.5688
  1.5726   1.5795   1.5889   1.5914   1.6022   1.6122   1.6271   1.6371
  1.6446   1.6485   1.6538   1.6565   1.6616   1.6832   1.6901   1.6931
  1.6959   1.7111   1.7231   1.7285   1.7329   1.7370   1.7465   1.7487
  1.7534   1.7690   1.7709   1.7807   1.7907   1.8039   1.8104   1.8124
  1.8292   1.8294   1.8412   1.8476   1.8533   1.8568   1.8629   1.8676
  1.8736   1.8900   1.8943   1.9111   1.9161   1.9302   1.9372   1.9476
  1.9517   1.9679   1.9720   1.9799   2.0026   2.0117   2.0259   2.0377
  2.0508   2.0600   2.0611   2.0772   2.0877   2.1126   2.1237   2.1380
  2.1504   2.1553   2.1668   2.1708   2.1900   2.2024   2.2120   2.2314
  2.2390   2.2410   2.2603   2.2677   2.2806   2.2881   2.2946   2.3015
  2.3140   2.3263   2.3310   2.3524   2.3561   2.3596   2.3727   2.3781
  2.4141   2.4195   2.4282   2.4428   2.4511   2.4577   2.4604   2.4813
  2.4861   2.4923   2.4992   2.5033   2.5108   2.5257   2.5304   2.5469
  2.5505   2.5657   2.5841   2.5861   2.5907   2.5981   2.6052   2.6116
  2.6152   2.6199   2.6272   2.6482   2.6563   2.6621   2.6662   2.6688
  2.6773   2.6851   2.6945   2.7054   2.7102   2.7176   2.7242   2.7284
  2.7428   2.7439   2.7480   2.7530   2.7656   2.7709   2.7774   2.7930
  2.8038   2.8056   2.8274   2.8365   2.8402   2.8478   2.8541   2.8572
  2.8639   2.8722   2.8782   2.8795   2.8864   2.8955   2.9037   2.9095
  2.9229   2.9261   2.9333   2.9400   2.9439   2.9534   2.9631   2.9701
  2.9740   2.9766   2.9957   2.9975   3.0045   3.0078   3.0106   3.0176
  3.0185   3.0355   3.0406   3.0424   3.0502   3.0622   3.0732   3.0830
  3.0881   3.0886   3.0980   3.1018   3.1044   3.1085   3.1176   3.1212
  3.1284   3.1324   3.1375   3.1431   3.1612   3.1655   3.1716   3.1786
  3.1937   3.1959   3.1986   3.2086   3.2151   3.2181   3.2219   3.2273
  3.2297   3.2321   3.2329   3.2424   3.2509   3.2543   3.2612   3.2642
  3.2718   3.2722   3.2763   3.2838   3.2871   3.2909   3.2985   3.3089
  3.3131   3.3168   3.3208   3.3255   3.3273   3.3335   3.3337   3.3404
  3.3451   3.3472   3.3524   3.3570   3.3626   3.3650   3.3700   3.3707
  3.3789   3.3840   3.3905   3.3975   3.4002   3.4080   3.4095   3.4156
  3.4191   3.4271   3.4363   3.4400   3.4437   3.4543   3.4560   3.4591
  3.4608   3.4659   3.4715   3.4741   3.4764   3.4812   3.4893   3.4970
  3.4980   3.5009   3.5040   3.5097   3.5150   3.5189   3.5214   3.5290
  3.5336   3.5412   3.5498   3.5523   3.5624   3.5702   3.5705   3.5784
  3.5846   3.5961   3.6001   3.6069   3.6158   3.6194   3.6248   3.6326
  3.6337   3.6362   3.6372   3.6443   3.6459   3.6561   3.6680   3.6779
  3.6854   3.6895   3.6942   3.6982   3.7039   3.7090   3.7124   3.7278
  3.7306   3.7354   3.7369   3.7449   3.7483   3.7585   3.7605   3.7643
  3.7757   3.7832   3.7852   3.7932   3.7971   3.8000   3.8037   3.8095
  3.8126   3.8141   3.8284   3.8413   3.8423   3.8523   3.8577   3.8628
  3.8704   3.8761   3.8799   3.8843   3.8974   3.9116   3.9178   3.9210
  3.9263   3.9343   3.9357   3.9421   3.9520   3.9593   3.9691   3.9725
  3.9895   3.9933   4.0022   4.0124   4.0142   4.0216   4.0404   4.0481
  4.0541   4.0671   4.0734   4.0786   4.0846   4.0927   4.1009   4.1119
  4.1249   4.1302   4.1339   4.1397   4.1466   4.1548   4.1643   4.1716
  4.1796   4.1857   4.1907   4.1930   4.2086   4.2204   4.2311   4.2368
  4.2494   4.2581   4.2735   4.2762   4.2766   4.2827   4.2905   4.2938
  4.2965   4.2994   4.3084   4.3126   4.3220   4.3274   4.3324   4.3414
  4.3460   4.3548   4.3608   4.3665   4.3686   4.3758   4.3794   4.3856
  4.3929   4.3982   4.4053   4.4055   4.4136   4.4223   4.4342   4.4366
  4.4578   4.4615   4.4691   4.4872   4.4950   4.5043   4.5164   4.5182
  4.5237   4.5256   4.5390   4.5460   4.5529   4.5590   4.5713   4.5721
  4.5776   4.5832   4.5858   4.5982   4.6051   4.6182   4.6327   4.6386
  4.6418   4.6572   4.6623   4.6688   4.6750   4.6836   4.6912   4.6994
  4.7154   4.7254   4.7348   4.7450   4.7777   4.7792   4.7849   4.7940
  4.8090   4.8283   4.8371   4.8441   4.8463   4.8665   4.8768   4.8797
  4.8875   4.8970   4.9260   4.9402   4.9446   4.9547   4.9643   4.9971
  4.9973   5.0016   5.0202   5.0387   5.0413   5.0491   5.0532   5.0682
  5.1004   5.1038   5.1075   5.1156   5.1244   5.1260   5.1436   5.1547
  5.1609   5.1695   5.1848   5.1976   5.2120   5.2358   5.2566   5.2572
  5.2635   5.2799   5.2937   5.2965   5.3107   5.3239   5.3341   5.3397
  5.3551   5.3960   5.4011   5.4027   5.4260   5.4288   5.4324   5.4644
  5.4805   5.5070   5.5089   5.5130   5.5143   5.5335   5.5464   5.5581
  5.5591   5.5608   5.5720   5.5746   5.5778   5.5934   5.6075   5.6088
  5.6284   5.6373   5.6528   5.6556   5.6624   5.6769   5.6781   5.6971
  5.7064   5.7163   5.7272   5.7386   5.7531   5.7598   5.7613   5.7726
  5.7791   5.7906   5.8100   5.8269   5.8461   5.8828   5.9069   5.9320
  5.9515   5.9585   5.9929   6.0135   6.0237   6.0292   6.0464   6.0601
  6.0952   6.0995   6.1029   6.1202   6.1271   6.1828   6.1955   6.2101
  6.2179   6.2209   6.2247   6.2578   6.2700   6.2743   6.3047   6.3436
  6.3533   6.3987   6.4261   6.4463   6.4673   6.5276   6.5623   6.5718
  6.5879   6.6061   6.6443   6.6478   6.6598   6.6664   6.7071   6.8322
  6.8367   6.8820   6.8863   6.8978   6.9115   6.9308   6.9872   7.0793
  7.1074   7.1433   7.1867   7.1912   7.2300   7.3326   7.3425   7.3445
  7.3615   7.4682   7.5466   7.5579   7.5742   7.5803   7.6042   7.6345
  7.6804   7.6878   7.7274   8.4224   9.8672  10.3553  11.1120  11.1933
 11.7036  11.7656  12.0139  12.3748  12.4771  12.6492  12.8498  13.0545
 13.3616  13.5570  13.8146  13.9449  14.0098  14.1358  14.2671  14.3673
 14.4277  14.7454  15.3387  15.7424  16.0195
 --------------------------------------------------------------
 
          Ground-State Mulliken Net Atomic Charges

     Atom                 Charge (a.u.)
  ----------------------------------------
      1 C                    -0.143876
      2 C                    -0.109996
      3 C                    -0.030228
      4 C                    -0.005488
      5 H                     0.188152
      6 C                     0.000189
      7 C                     0.073953
      8 C                     0.046095
      9 C                    -0.069799
     10 C                    -0.172017
     11 C                     0.051146
     12 H                     0.174565
     13 C                     0.358244
     14 C                     0.362650
     15 N                    -0.101616
     16 C                     0.358894
     17 C                     0.371364
     18 N                    -0.094233
     19 O                    -0.464428
     20 O                    -0.476799
     21 O                    -0.483260
     22 O                    -0.478399
     23 C                    -0.201237
     24 H                     0.141037
     25 H                     0.112546
     26 H                     0.112370
     27 C                    -0.197478
     28 H                     0.134090
     29 H                     0.111999
     30 H                     0.112920
     31 H                     0.212738
     32 C                    -0.014481
     33 S                     0.008311
     34 C                    -0.164408
     35 C                    -0.100926
     36 C                    -0.245342
     37 H                     0.213015
     38 H                     0.192071
     39 H                     0.217662
  ----------------------------------------
  Sum of atomic charges =     0.000000

 -----------------------------------------------------------------
                    Cartesian Multipole Moments
 -----------------------------------------------------------------
    Charge (ESU x 10^10)
                 0.0000
    Dipole Moment (Debye)
         X       1.0172      Y       2.1421      Z      -0.6945
       Tot       2.4709
    Quadrupole Moments (Debye-Ang)
        XX    -165.0413     XY       3.7117     YY    -169.1851
        XZ      -6.4910     YZ       0.6196     ZZ    -175.8512
    Octopole Moments (Debye-Ang^2)
       XXX     -31.7856    XXY     481.8858    XYY       2.7099
       YYY    1616.7537    XXZ       0.5666    XYZ      29.7524
       YYZ       3.4231    XZZ      -3.0271    YZZ     555.8682
       ZZZ       0.6984
    Hexadecapole Moments (Debye-Ang^3)
      XXXX    -925.4107   XXXY      15.3616   XXYY   -2860.5998
      XYYY     215.6456   YYYY  -17246.6378   XXXZ    -943.1268
      XXYZ      56.6559   XYYZ    -497.8653   YYYZ     700.0860
      XXZZ   -1102.5647   XYZZ     -88.3914   YYZZ   -4073.3374
      XZZZ   -1019.8480   YZZZ     -16.7126   ZZZZ   -5735.4221
 -----------------------------------------------------------------
 Total job time:  263.98s(wall), 8263.03s(cpu) 
 Wed Sep 20 10:39:35 2023

        *************************************************************
        *                                                           *
        *  Thank you very much for using Q-Chem.  Have a nice day.  *
        *                                                           *
        *************************************************************


0 sent ACK to 0 
now end server 0 ... 
cleanup process ... done
remove work dirs ./qchem425163.0 -- ./qchem425163.0
rm -rf ./qchem425163.0
rm -rf ./qchem425163
