You are running Q-Chem version: 5.4.0

#
# job setting
#
local host:  exp-2-14
current dir: /expanse/lustre/projects/csd626/rramji/aromodel/PNDIT/Rotation_Test
input file:  Dimethyl_Naphthalene_Dicarboximide_Phi_5_Theta_340_Thiophene.qcin
output file: 
nprocs     : 1
nthreads   : 64
#
# qchem installation setting
#
QC:          /cm/shared/apps/spack/cpu/opt/spack/linux-centos8-zen2/gcc-10.2.0/qchem-5.4-akfmr7b3t57bfs6qan3padb2wnb2i7cl
QCAUX:       /cm/shared/apps/spack/cpu/opt/spack/linux-centos8-zen2/gcc-10.2.0/qchem-5.4-akfmr7b3t57bfs6qan3padb2wnb2i7cl/qcaux
QCPROG:      /cm/shared/apps/spack/cpu/opt/spack/linux-centos8-zen2/gcc-10.2.0/qchem-5.4-akfmr7b3t57bfs6qan3padb2wnb2i7cl/exe/qcprog.exe
QCPROG_S:    /cm/shared/apps/spack/cpu/opt/spack/linux-centos8-zen2/gcc-10.2.0/qchem-5.4-akfmr7b3t57bfs6qan3padb2wnb2i7cl/exe/qcprog.exe_s
PARALLEL:    -DPARALLEL
QCMPI:       mpich
#
# qchem directory setting
#
qcrun:       qchem3012136
QCSCRATCH:   .
QCLOCALSCR:  
QCTMPDIR:    .
QCFILEPREF:  ./qchem3012136
QCSAVEDIR:   
workdirs:    ./qchem3012136
workdir0:    ./qchem3012136
partmpdirs =  
#
# parallel setting
#
QCRSH:           ssh
QCMPI:           mpich
QCMPIRUN:        /cm/shared/apps/spack/cpu/opt/spack/linux-centos8-zen2/gcc-10.2.0/qchem-5.4-akfmr7b3t57bfs6qan3padb2wnb2i7cl/bin/mpi/mpirun_qchem
QCMACHINEFILE:   ./qchem3012136/hostfile
exp-2-14

#
# env setting
#
exported envs:   QC QCAUX QCSCRATCH QCRUNNAME QCFILEPREF QCPROG QCPROG_S GUIFILE

Running Job 1 of 1 Dimethyl_Naphthalene_Dicarboximide_Phi_5_Theta_340_Thiophene.qcin
qchem Dimethyl_Naphthalene_Dicarboximide_Phi_5_Theta_340_Thiophene.qcin_3012136.0 ./qchem3012136/ 1
/cm/shared/apps/spack/cpu/opt/spack/linux-centos8-zen2/gcc-10.2.0/qchem-5.4-akfmr7b3t57bfs6qan3padb2wnb2i7cl/bin/mpi/mpirun_qchem -machinefile ./qchem3012136/hostfile -np 1 /cm/shared/apps/spack/cpu/opt/spack/linux-centos8-zen2/gcc-10.2.0/qchem-5.4-akfmr7b3t57bfs6qan3padb2wnb2i7cl/exe/qcprog.exe Dimethyl_Naphthalene_Dicarboximide_Phi_5_Theta_340_Thiophene.qcin_3012136.0 ./qchem3012136/

Process 0 of 1 is on exp-2-14 - thread support 0
initial socket setup ...start
initial socket setup ...done 
now start server 0 ... 
                  Welcome to Q-Chem
     A Quantum Leap Into The Future Of Chemistry


 Q-Chem 5.4, Q-Chem, Inc., Pleasanton, CA (2021)

 License issued to: University of California, San Diego (site)

 E. Epifanovsky,  A. T. B. Gilbert,  Xintian Feng,  Joonho Lee,  Yuezhi Mao,  
 N. Mardirossian,  P. Pokhilko,  A. White,  M. Wormit,  M. P. Coons,  
 A. L. Dempwolff,  Zhengting Gan,  D. Hait,  P. R. Horn,  L. D. Jacobson,  
 I. Kaliman,  J. Kussmann,  A. W. Lange,  Ka Un Lao,  D. S. Levine,  Jie Liu,  
 S. C. McKenzie,  A. F. Morrison,  K. Nanda,  F. Plasser,  D. R. Rehn,  
 M. L. Vidal,  Zhi-Qiang You,  Ying Zhu,  B. Alam,  B. Albrecht,  
 A. Aldossary,  E. Alguire,  J. H. Andersen,  D. Barton,  K. Begam,  A. Behn,  
 Y. A. Bernard,  E. J. Berquist,  H. Burton,  A. Carreras,  K. Carter-Fenk,  
 R. Chakraborty,  A. D. Chien,  K. D. Closser,  V. Cofer-Shabica,  
 S. Dasgupta,  Jia Deng,  M. de Wergifosse,  M. Diedenhofen,  Hainam Do,  
 S. Ehlert,  Po-Tung Fang,  S. Fatehi,  Qingguo Feng,  J. Gayvert,  
 Qinghui Ge,  G. Gidofalvi,  M. Goldey,  J. Gomes,  C. Gonzalez-Espinoza,  
 S. Gulania,  A. Gunina,  M. W. D. Hanson-Heine,  P. H. P. Harbach,  
 A. W. Hauser,  M. F. Herbst,  M. Hernandez Vera,  M. Hodecker,  
 Z. C. Holden,  S. Houck,  Xunkun Huang,  Kerwin Hui,  B. C. Huynh,  
 M. Ivanov,  Hyunjun Ji,  Hanjie Jiang,  B. Kaduk,  S. Kaehler,  
 K. Khistyaev,  Jaehoon Kim,  P. Klunzinger,  Z. Koczor-Benda,  
 Joong Hoon Koh,  D. Kosenkov,  L. Koulias,  T. Kowalczyk,  C. M. Krauter,  
 K. Kue,  A. Kunitsa,  T. Kus,  A. Landau,  K. V. Lawler,  D. Lefrancois,  
 S. Lehtola,  Rain Li,  Yi-Pei Li,  Jiashu Liang,  M. Liebenthal,  
 Hung-Hsuan Lin,  You-Sheng Lin,  Fenglai Liu,  Kuan-Yu Liu,  
 M. Loipersberger,  A. Luenser,  A. Manjanath,  P. Manohar,  E. Mansoor,  
 S. F. Manzer,  Shan-Ping Mao,  A. V. Marenich,  T. Markovich,  S. Mason,  
 S. A. Maurer,  P. F. McLaughlin,  M. F. S. J. Menger,  J.-M. Mewes,  
 S. A. Mewes,  P. Morgante,  J. W. Mullinax,  T. S. Nguyen-Beck,  
 K. J. Oosterbaan,  G. Paran,  Alexander C. Paul,  Suranjan K. Paul,  
 F. Pavosevic,  Zheng Pei,  S. Prager,  E. I. Proynov,  E. Ramos,  B. Rana,  
 A. E. Rask,  A. Rettig,  R. M. Richard,  F. Rob,  E. Rossomme,  T. Scheele,  
 M. Scheurer,  M. Schneider,  N. Sergueev,  S. M. Sharada,  W. Skomorowski,  
 D. W. Small,  C. J. Stein,  Yu-Chuan Su,  E. J. Sundstrom,  Zhen Tao,  
 J. Thirman,  T. Tsuchimochi,  N. M. Tubman,  S. P. Veccham,  O. Vydrov,  
 J. Wenzel,  J. Witte,  A. Yamada,  Kun Yao,  S. Yeganeh,  S. R. Yost,  
 A. Zech,  Igor Ying Zhang,  Xing Zhang,  Yu Zhang,  D. Zuev,  
 A. Aspuru-Guzik,  A. T. Bell,  N. A. Besley,  K. B. Bravaya,  B. R. Brooks,  
 D. Casanova,  Jeng-Da Chai,  S. Coriani,  C. J. Cramer,  
 A. E. DePrince, III,  R. A. DiStasio Jr.,  A. Dreuw,  B. D. Dunietz,  
 T. R. Furlani,  W. A. Goddard III,  S. Grimme,  S. Hammes-Schiffer,  
 T. Head-Gordon,  W. J. Hehre,  Chao-Ping Hsu,  T.-C. Jagau,  Yousung Jung,  
 A. Klamt,  Jing Kong,  D. S. Lambrecht,  WanZhen Liang,  N. J. Mayhall,  
 C. W. McCurdy,  J. B. Neaton,  C. Ochsenfeld,  J. A. Parkhill,  R. Peverati,  
 V. A. Rassolov,  Yihan Shao,  L. V. Slipchenko,  T. Stauch,  R. P. Steele,  
 J. E. Subotnik,  A. J. W. Thom,  A. Tkatchenko,  D. G. Truhlar,  
 T. Van Voorhis,  T. A. Wesolowski,  K. B. Whaley,  H. L. Woodcock III,  
 P. M. Zimmerman,  S. Faraji,  P. M. W. Gill,  M. Head-Gordon,  
 J. M. Herbert,  A. I. Krylov

 Contributors to earlier versions of Q-Chem not listed above: 
 R. D. Adamson,  B. Austin,  R. Baer,  J. Baker,  G. J. O. Beran,  
 K. Brandhorst,  S. T. Brown,  E. F. C. Byrd,  A. K. Chakraborty,  
 G. K. L. Chan,  Chun-Min Chang,  Yunqing Chen,  C.-L. Cheng,  
 Siu Hung Chien,  D. M. Chipman,  D. L. Crittenden,  H. Dachsel,  
 R. J. Doerksen,  A. D. Dutoi,  R. G. Edgar,  J. Fosso-Tande,  
 L. Fusti-Molnar,  D. Ghosh,  A. Ghysels,  A. Golubeva-Zadorozhnaya,  
 J. Gonthier,  M. S. Gordon,  S. R. Gwaltney,  G. Hawkins,  J. E. Herr,  
 A. Heyden,  S. Hirata,  E. G. Hohenstein,  G. Kedziora,  F. J. Keil,  
 C. Kelley,  Jihan Kim,  R. A. King,  R. Z. Khaliullin,  P. P. Korambath,  
 W. Kurlancheek,  A. Laurent,  A. M. Lee,  M. S. Lee,  S. V. Levchenko,  
 Ching Yeh Lin,  D. Liotard,  E. Livshits,  R. C. Lochan,  I. Lotan,  
 L. A. Martinez-Martinez,  P. E. Maslen,  N. Nair,  D. P. O'Neill,  
 D. Neuhauser,  E. Neuscamman,  C. M. Oana,  R. Olivares-Amaya,  R. Olson,  
 T. M. Perrine,  B. Peters,  P. A. Pieniazek,  A. Prociuk,  Y. M. Rhee,  
 J. Ritchie,  M. A. Rohrdanz,  E. Rosta,  N. J. Russ,  H. F. Schaefer III,  
 M. W. Schmidt,  N. E. Schultz,  S. Sharma,  N. Shenvi,  C. D. Sherrill,  
 A. C. Simmonett,  A. Sodt,  T. Stein,  D. Stuck,  K. S. Thanthiriwatte,  
 V. Vanovschi,  L. Vogt,  Tao Wang,  A. Warshel,  M. A. Watson,  
 C. F. Williams,  Q. Wu,  X. Xu,  Jun Yang,  W. Zhang,  Yan Zhao

 Please cite Q-Chem as follows:
 Y. Shao et al., Mol. Phys. 113, 184-215 (2015)
 DOI: 10.1080/00268976.2014.952696

 Q-Chem 5.4.0 for Intel X86 EM64T Linux

 Parts of Q-Chem use Armadillo 9.800.1 (Horizon Scraper).
 http://arma.sourceforge.net/

 Q-Chem begins on Sun Sep 24 17:27:59 2023  

 Host: 
0

     Scratch files written to ./qchem3012136//
 May1621 |scratch|qcdevops|jenkins|workspace|build_RNUM    
 Parallel job on  1  processors
 Processing $rem in /cm/shared/apps/spack/cpu/opt/spack/linux-centos8-zen2/gcc-10.2.0/qchem-5.4-akfmr7b3t57bfs6qan3padb2wnb2i7cl/config/preferences:
 Processing $rem in /home/rramji/.qchemrc:
 Symmetry turned off for PCM/SM12/SMD calculation
 Core orbitals will be frozen

 Checking the input file for inconsistencies... 	...done.

 Q-Chem warning in module forms1/BasisType.C, line 2236:

 You are not using the predefined 5D/6D in this basis set.


--------------------------------------------------------------
User input:
--------------------------------------------------------------
$molecule
0 1
C	-0.089263	-6.741404	-0.240927
C	-0.535973	-6.155638	-1.467886
C	0.281103	-5.791452	0.777972
C	-0.631036	-4.803786	-1.729742
H	-0.836458	-6.821518	-2.292903
C	0.181995	-4.378638	0.503614
C	-0.272725	-3.838032	-0.746756
C	0.539954	-3.413062	1.485437
C	-0.371053	-2.426473	-1.018915
C	0.446381	-2.059348	1.226557
C	0.000000	-1.478216	0.000000
H	0.747410	-1.394783	2.052413
C	0.772747	-6.187987	2.134128
C	1.029154	-3.798164	2.829820
N	1.110828	-5.170003	3.059182
C	-1.121728	-4.424987	-3.077731
C	-0.864069	-2.036627	-2.375694
N	-1.201928	-3.049156	-3.301101
O	0.903908	-7.353131	2.502830
O	1.345809	-2.986854	3.697078
O	-1.434422	-5.248946	-3.934752
O	-1.003943	-0.878829	-2.764177
C	1.592981	-5.563799	4.386939
H	1.607367	-6.664085	4.429822
H	0.924504	-5.147101	5.164489
H	2.605446	-5.148785	4.553486
C	-1.677308	-2.587487	-4.608481
H	-1.898089	-3.483329	-5.211969
H	-0.902337	-1.964972	-5.094624
H	-2.582098	-1.962932	-4.483092
H	-0.025963	-7.822318	-0.066080
C	0.000000	0.000000	0.000000
S	0.068929	0.790170	1.580530
C	0.211639	2.421655	0.904911
C	0.086813	0.994207	-0.985400
C	0.201782	2.309433	-0.493528
H	0.066299	0.759454	-2.059934
H	0.278488	3.187020	-1.152593
H	0.288312	3.298992	1.556025
$end

$rem
JOBTYPE		SP
EXCHANGE	HF
CORRELATION	pRIMP2
BASIS		cc-pvtz
METHOD		rimp2
AUX_BASIS	rimp2-cc-pvtz
SOLVENT_METHOD	PCM
PURECART	11111
SYMMETRY	false
MEM_TOTAL	110000
SCF_CONVERGENCE = 6
THRESH=10
GUI = 2
$end



$solvent
dielectric 4.90
$end
--------------------------------------------------------------
 ----------------------------------------------------------------
             Standard Nuclear Orientation (Angstroms)
    I     Atom           X                Y                Z
 ----------------------------------------------------------------
    1      C      -0.0892630000    -6.7414040000    -0.2409270000
    2      C      -0.5359730000    -6.1556380000    -1.4678860000
    3      C       0.2811030000    -5.7914520000     0.7779720000
    4      C      -0.6310360000    -4.8037860000    -1.7297420000
    5      H      -0.8364580000    -6.8215180000    -2.2929030000
    6      C       0.1819950000    -4.3786380000     0.5036140000
    7      C      -0.2727250000    -3.8380320000    -0.7467560000
    8      C       0.5399540000    -3.4130620000     1.4854370000
    9      C      -0.3710530000    -2.4264730000    -1.0189150000
   10      C       0.4463810000    -2.0593480000     1.2265570000
   11      C       0.0000000000    -1.4782160000     0.0000000000
   12      H       0.7474100000    -1.3947830000     2.0524130000
   13      C       0.7727470000    -6.1879870000     2.1341280000
   14      C       1.0291540000    -3.7981640000     2.8298200000
   15      N       1.1108280000    -5.1700030000     3.0591820000
   16      C      -1.1217280000    -4.4249870000    -3.0777310000
   17      C      -0.8640690000    -2.0366270000    -2.3756940000
   18      N      -1.2019280000    -3.0491560000    -3.3011010000
   19      O       0.9039080000    -7.3531310000     2.5028300000
   20      O       1.3458090000    -2.9868540000     3.6970780000
   21      O      -1.4344220000    -5.2489460000    -3.9347520000
   22      O      -1.0039430000    -0.8788290000    -2.7641770000
   23      C       1.5929810000    -5.5637990000     4.3869390000
   24      H       1.6073670000    -6.6640850000     4.4298220000
   25      H       0.9245040000    -5.1471010000     5.1644890000
   26      H       2.6054460000    -5.1487850000     4.5534860000
   27      C      -1.6773080000    -2.5874870000    -4.6084810000
   28      H      -1.8980890000    -3.4833290000    -5.2119690000
   29      H      -0.9023370000    -1.9649720000    -5.0946240000
   30      H      -2.5820980000    -1.9629320000    -4.4830920000
   31      H      -0.0259630000    -7.8223180000    -0.0660800000
   32      C       0.0000000000     0.0000000000     0.0000000000
   33      S       0.0689290000     0.7901700000     1.5805300000
   34      C       0.2116390000     2.4216550000     0.9049110000
   35      C       0.0868130000     0.9942070000    -0.9854000000
   36      C       0.2017820000     2.3094330000    -0.4935280000
   37      H       0.0662990000     0.7594540000    -2.0599340000
   38      H       0.2784880000     3.1870200000    -1.1525930000
   39      H       0.2883120000     3.2989920000     1.5560250000
 ----------------------------------------------------------------
 Nuclear Repulsion Energy =        2495.71339137 hartrees
 There are       97 alpha and       97 beta electrons
 Requested basis set is cc-pVTZ
 There are 344 shells and 982 basis functions

 Total QAlloc Memory Limit 110000 MB
 Mega-Array Size       188 MB
 MEM_STATIC part       192 MB
 Discretize the solute cavity surface with Lebedev spheres
	Using 110 Lebedev grid points for each H atom
	Using 194 Lebedev grid points for other atoms
	Atomic van der Waals radii will be scaled by 1.20
 Remove points where switching function is < 1.0e-08
 Keep 2524 surface tesserae and discard 4034 interior tesserae
 Molecular Surface Area = 362.350 Angst**2
 Requested basis set is rimp2-cc-pVTZ
 There are 750 shells and 2588 basis functions
 A cutoff of  1.0D-10 yielded  31670 shell pairs
 There are    243992 function pairs (    317085 Cartesian)
 Smallest overlap matrix eigenvalue = 9.86E-06

 Q-Chem warning in module stvman/mkSTV.C, line 323:

 Overlap eigenvalue is smaller than square root of threshold
 Use THRESH >= 12 to get rid of this warning


 Scale SEOQF with 1.000000e-01/1.000000e-02/1.000000e-01

 Standard Electronic Orientation quadrupole field applied
 Nucleus-field energy     =    -0.0000000976 hartrees
 Guess from superposition of atomic densities
 Warning:  Energy on first SCF cycle will be non-variational
 SAD guess density has 194.000000 electrons

 -----------------------------------------------------------------------
  General SCF calculation program by
  Eric Jon Sundstrom, Paul Horn, Yuezhi Mao, Dmitri Zuev, Alec White,
  David Stuck, Shaama M.S., Shane Yost, Joonho Lee, David Small,
  Daniel Levine, Susi Lehtola, Hugh Burton, Evgeny Epifanovsky,
  Bang C. Huynh
 -----------------------------------------------------------------------
 Hartree-Fock
 using 64 threads for integral computing
 -------------------------------------------------------
 OpenMP Integral computing Module                
 Release: version 1.0, May 2013, Q-Chem Inc. Pittsburgh 
 -------------------------------------------------------
 A restricted SCF calculation will be
 performed using DIIS
 SCF converges when DIIS error is below 1.0e-06
 ---------------------------------------
  Cycle       Energy         DIIS error
 ---------------------------------------
    1   -1581.3623762321      1.87e-02  
    2   -1570.1188806747      2.09e-03  
    3   -1570.4475749736      1.62e-03  
    4   -1570.6749874679      2.58e-04  
    5   -1570.6871755967      7.72e-05  
    6   -1570.6882766054      2.84e-05  
    7   -1570.6885310019      1.42e-05  
    8   -1570.6886102207      5.90e-06  
    9   -1570.6886224408      2.26e-06  
   10   -1570.6886244806      7.55e-07  Convergence criterion met
 ---------------------------------------
 SCF time:   CPU 5653.44s  wall 225.00s 

************** Final PCM Free Energy Summary **************
 G_electrostatic  =      -0.02159933 hartree =     -13.55378398 kcal/mol
 G_cavitation     =       0.00000000 hartree =       0.00000000 kcal/mol
 G_dispersion     =       0.00000000 hartree =       0.00000000 kcal/mol
 G_repulsion      =       0.00000000 hartree =       0.00000000 kcal/mol
 --------------------------------------------------
 Non-electrostatic Free Energy =       0.00000000 hartree =       0.00000000 kcal/mol
 Total                         =      -0.02159933 hartree =     -13.55378398 kcal/mol
 --------------------------------------------------
 SCF Energy (H0 + V/2)                       =   -1570.68862448 
 Solute Internal Energy (H0)                 =   -1570.66702515 
 Total Free Energy (H0 + V/2 + non-elec)     =   -1570.68862448 hartree
                                             = -985621.98785352 kcal/mol
***********************************************************

 SCF   energy in the final basis set =    -1570.6886244806
 Total energy in the final basis set =    -1570.6886244806


 --------------------------------------------------------------
  Generalized many-body perturbation theory program
  by Joonho Lee, Fazle Rob, Xintian Feng, Evgeny Epifanovsky

 No regularization used 
 (reg. param. = 0.0000e+00)
  (P|Q)^-1/2 Time:  CPU 163.81 s  wall 3.39 s

 In RI-MP2 calculation: 
 # of frozen core orbitals: 31

 Components of the RIMP2 correlation energy:
        aaaa    correlation energy =        -0.6173623566 a.u.
        abab    correlation energy =        -3.3924021771 a.u.
        bbbb    correlation energy =        -0.6173623566 a.u.
        non-Brillouin singles      =        -0.0000000000 a.u.
        total same-spin energy     =        -1.2347247132 a.u.
        total opposite-spin energy =        -3.3924021771 a.u.

 Total  RIMP2   correlation energy =        -4.6271268903 a.u.
        RIMP2         total energy =     -1575.3157513708 a.u.

 RI-MP2 Energy Time:  CPU 1800.08 s  wall 31.04 s
 
 --------------------------------------------------------------
 
                    Orbital Energies (a.u.)
 --------------------------------------------------------------
 
 Alpha MOs
 -- Occupied --
-91.9937 -20.5586 -20.5565 -20.5553 -20.5538 -15.6312 -15.6304 -11.3999
-11.3964 -11.3915 -11.3908 -11.3193 -11.3023 -11.3006 -11.2996 -11.2960
-11.2950 -11.2921 -11.2894 -11.2873 -11.2839 -11.2793 -11.2781 -11.2648
-11.2644 -11.2560 -11.2507  -8.9934  -6.6742  -6.6737  -6.6731  -1.4249
 -1.4245  -1.4042  -1.4034  -1.2674  -1.2651  -1.2171  -1.1775  -1.1443
 -1.1166  -1.0638  -1.0496  -0.9926  -0.9904  -0.9868  -0.9588  -0.9476
 -0.8972  -0.8792  -0.8787  -0.8613  -0.7967  -0.7795  -0.7729  -0.7621
 -0.7362  -0.7200  -0.7040  -0.6944  -0.6818  -0.6738  -0.6664  -0.6622
 -0.6562  -0.6417  -0.6370  -0.6335  -0.6284  -0.6129  -0.5900  -0.5839
 -0.5793  -0.5724  -0.5658  -0.5630  -0.5620  -0.5559  -0.5532  -0.5474
 -0.5373  -0.5259  -0.5237  -0.5162  -0.4826  -0.4691  -0.4663  -0.4629
 -0.4593  -0.4523  -0.4288  -0.4188  -0.4097  -0.3757  -0.3549  -0.3367
 -0.3009
 -- Virtual --
 -0.0206   0.0529   0.0678   0.1037   0.1311   0.1534   0.1586   0.1591
  0.1663   0.1716   0.1776   0.1854   0.1969   0.2029   0.2043   0.2085
  0.2209   0.2275   0.2295   0.2340   0.2486   0.2523   0.2635   0.2648
  0.2684   0.3073   0.3108   0.3154   0.3204   0.3326   0.3371   0.3407
  0.3443   0.3476   0.3536   0.3567   0.3572   0.3628   0.3652   0.3795
  0.3801   0.3876   0.3956   0.3983   0.4012   0.4065   0.4107   0.4151
  0.4246   0.4259   0.4336   0.4392   0.4428   0.4475   0.4546   0.4558
  0.4617   0.4675   0.4688   0.4723   0.4783   0.4842   0.4881   0.4934
  0.5026   0.5082   0.5134   0.5146   0.5190   0.5216   0.5238   0.5303
  0.5350   0.5377   0.5484   0.5516   0.5557   0.5602   0.5614   0.5670
  0.5708   0.5727   0.5839   0.5892   0.5915   0.5936   0.5959   0.6002
  0.6012   0.6060   0.6155   0.6168   0.6207   0.6240   0.6280   0.6313
  0.6340   0.6355   0.6363   0.6432   0.6540   0.6604   0.6689   0.6782
  0.6822   0.6835   0.6922   0.7001   0.7069   0.7086   0.7119   0.7195
  0.7224   0.7324   0.7393   0.7411   0.7569   0.7582   0.7638   0.7666
  0.7780   0.7804   0.7847   0.7888   0.8008   0.8065   0.8123   0.8214
  0.8262   0.8310   0.8403   0.8423   0.8465   0.8541   0.8589   0.8603
  0.8648   0.8653   0.8749   0.8780   0.8813   0.8897   0.8940   0.9052
  0.9108   0.9168   0.9209   0.9272   0.9343   0.9390   0.9439   0.9481
  0.9533   0.9590   0.9642   0.9675   0.9701   0.9777   0.9803   0.9889
  0.9943   0.9968   1.0048   1.0117   1.0139   1.0169   1.0285   1.0322
  1.0352   1.0421   1.0504   1.0520   1.0587   1.0669   1.0684   1.0740
  1.0746   1.0783   1.0829   1.0853   1.0936   1.1003   1.1094   1.1164
  1.1269   1.1316   1.1370   1.1382   1.1432   1.1523   1.1541   1.1582
  1.1611   1.1645   1.1692   1.1760   1.1819   1.1863   1.1924   1.2010
  1.2099   1.2118   1.2130   1.2239   1.2255   1.2286   1.2317   1.2390
  1.2474   1.2478   1.2527   1.2595   1.2650   1.2710   1.2776   1.3022
  1.3148   1.3242   1.3263   1.3341   1.3386   1.3442   1.3468   1.3573
  1.3638   1.3778   1.3807   1.3842   1.3875   1.3957   1.4029   1.4178
  1.4202   1.4211   1.4288   1.4439   1.4483   1.4520   1.4610   1.4633
  1.4728   1.4778   1.4832   1.4908   1.4934   1.4990   1.5137   1.5158
  1.5273   1.5324   1.5369   1.5473   1.5543   1.5582   1.5599   1.5679
  1.5723   1.5782   1.5859   1.5909   1.6000   1.6101   1.6286   1.6391
  1.6424   1.6495   1.6521   1.6587   1.6652   1.6796   1.6834   1.6911
  1.6983   1.7090   1.7265   1.7285   1.7357   1.7411   1.7467   1.7506
  1.7626   1.7686   1.7751   1.7861   1.7942   1.8031   1.8091   1.8187
  1.8335   1.8361   1.8385   1.8506   1.8554   1.8568   1.8663   1.8680
  1.8727   1.8888   1.8955   1.9075   1.9175   1.9242   1.9387   1.9512
  1.9631   1.9662   1.9731   1.9754   1.9966   2.0074   2.0180   2.0365
  2.0504   2.0559   2.0734   2.0776   2.0867   2.1067   2.1259   2.1351
  2.1503   2.1544   2.1636   2.1717   2.1933   2.2057   2.2203   2.2319
  2.2387   2.2432   2.2625   2.2751   2.2853   2.2862   2.2916   2.3011
  2.3223   2.3239   2.3434   2.3522   2.3620   2.3666   2.3758   2.3828
  2.3981   2.4191   2.4307   2.4380   2.4492   2.4532   2.4575   2.4747
  2.4855   2.4917   2.4997   2.5063   2.5147   2.5194   2.5305   2.5507
  2.5553   2.5690   2.5776   2.5863   2.5898   2.5961   2.6087   2.6138
  2.6156   2.6217   2.6267   2.6441   2.6496   2.6618   2.6664   2.6707
  2.6736   2.6814   2.6875   2.6972   2.7119   2.7131   2.7207   2.7259
  2.7350   2.7462   2.7488   2.7550   2.7597   2.7715   2.7804   2.7928
  2.8007   2.8026   2.8246   2.8357   2.8383   2.8477   2.8532   2.8594
  2.8626   2.8674   2.8743   2.8805   2.8866   2.8975   2.9033   2.9095
  2.9200   2.9244   2.9271   2.9402   2.9505   2.9553   2.9649   2.9688
  2.9747   2.9775   2.9930   2.9978   3.0040   3.0064   3.0085   3.0177
  3.0207   3.0346   3.0405   3.0412   3.0456   3.0571   3.0612   3.0750
  3.0845   3.0863   3.0959   3.0984   3.1037   3.1079   3.1127   3.1212
  3.1296   3.1327   3.1352   3.1444   3.1621   3.1704   3.1733   3.1811
  3.1912   3.1941   3.2000   3.2058   3.2156   3.2172   3.2236   3.2264
  3.2304   3.2346   3.2386   3.2432   3.2496   3.2564   3.2617   3.2665
  3.2682   3.2728   3.2797   3.2859   3.2905   3.2929   3.3019   3.3054
  3.3107   3.3133   3.3155   3.3204   3.3281   3.3308   3.3323   3.3376
  3.3419   3.3495   3.3502   3.3581   3.3594   3.3650   3.3694   3.3707
  3.3712   3.3823   3.3890   3.3977   3.4008   3.4055   3.4140   3.4192
  3.4224   3.4257   3.4319   3.4353   3.4388   3.4505   3.4526   3.4592
  3.4617   3.4638   3.4702   3.4741   3.4797   3.4861   3.4896   3.4919
  3.4970   3.5014   3.5047   3.5112   3.5117   3.5137   3.5219   3.5265
  3.5326   3.5331   3.5459   3.5507   3.5610   3.5639   3.5743   3.5825
  3.5913   3.5956   3.5980   3.6041   3.6085   3.6157   3.6214   3.6314
  3.6324   3.6367   3.6380   3.6443   3.6520   3.6613   3.6698   3.6793
  3.6853   3.6897   3.6939   3.6992   3.7058   3.7084   3.7109   3.7164
  3.7302   3.7328   3.7402   3.7429   3.7506   3.7556   3.7570   3.7621
  3.7713   3.7828   3.7848   3.7883   3.7958   3.7990   3.8052   3.8068
  3.8135   3.8235   3.8313   3.8387   3.8417   3.8526   3.8580   3.8629
  3.8688   3.8787   3.8816   3.8864   3.8934   3.9056   3.9095   3.9213
  3.9271   3.9349   3.9386   3.9475   3.9578   3.9627   3.9665   3.9791
  3.9880   3.9981   4.0043   4.0100   4.0124   4.0235   4.0412   4.0477
  4.0597   4.0697   4.0752   4.0783   4.0913   4.0952   4.1009   4.1069
  4.1273   4.1318   4.1356   4.1370   4.1471   4.1566   4.1627   4.1716
  4.1756   4.1872   4.1931   4.1951   4.2060   4.2164   4.2288   4.2389
  4.2443   4.2604   4.2728   4.2753   4.2785   4.2820   4.2861   4.2930
  4.2968   4.3011   4.3066   4.3129   4.3218   4.3251   4.3307   4.3463
  4.3474   4.3559   4.3660   4.3679   4.3705   4.3758   4.3816   4.3879
  4.3911   4.4005   4.4043   4.4080   4.4123   4.4243   4.4328   4.4453
  4.4564   4.4594   4.4723   4.4931   4.5015   4.5042   4.5140   4.5193
  4.5213   4.5229   4.5406   4.5447   4.5539   4.5624   4.5706   4.5726
  4.5805   4.5849   4.5852   4.5942   4.6017   4.6170   4.6272   4.6403
  4.6457   4.6532   4.6637   4.6694   4.6731   4.6869   4.6886   4.6927
  4.7143   4.7257   4.7358   4.7459   4.7738   4.7771   4.7828   4.7915
  4.8134   4.8298   4.8340   4.8420   4.8455   4.8625   4.8779   4.8806
  4.8849   4.8940   4.9258   4.9383   4.9483   4.9630   4.9755   4.9876
  5.0017   5.0062   5.0153   5.0343   5.0455   5.0492   5.0522   5.0630
  5.1042   5.1060   5.1134   5.1199   5.1254   5.1319   5.1426   5.1610
  5.1623   5.1762   5.1865   5.1942   5.2096   5.2387   5.2564   5.2607
  5.2704   5.2802   5.2863   5.2998   5.3091   5.3237   5.3334   5.3372
  5.3647   5.3949   5.3957   5.4024   5.4223   5.4310   5.4324   5.4692
  5.4811   5.5071   5.5087   5.5127   5.5150   5.5438   5.5462   5.5582
  5.5603   5.5621   5.5737   5.5743   5.5776   5.5927   5.6047   5.6099
  5.6267   5.6377   5.6524   5.6544   5.6551   5.6768   5.6789   5.6957
  5.7027   5.7163   5.7210   5.7417   5.7503   5.7601   5.7618   5.7725
  5.7786   5.7879   5.8110   5.8266   5.8493   5.8878   5.9148   5.9229
  5.9477   5.9590   5.9992   6.0165   6.0237   6.0336   6.0505   6.0670
  6.0981   6.1027   6.1061   6.1200   6.1294   6.1862   6.2027   6.2140
  6.2178   6.2208   6.2276   6.2606   6.2693   6.2767   6.3060   6.3433
  6.3537   6.4027   6.4444   6.4462   6.4672   6.5266   6.5622   6.5724
  6.5883   6.6091   6.6462   6.6477   6.6601   6.7062   6.7315   6.8328
  6.8368   6.8815   6.8861   6.8972   6.9114   6.9321   6.9842   7.0792
  7.1124   7.1442   7.1881   7.1940   7.2325   7.3324   7.3423   7.3444
  7.3631   7.4687   7.5474   7.5577   7.5741   7.5803   7.6075   7.6344
  7.6799   7.6947   7.7335   8.4342   9.9142  10.3564  11.1679  11.2441
 11.7205  11.7584  11.9939  12.3793  12.4754  12.6035  12.8470  13.1051
 13.3952  13.5564  13.8162  13.9464  14.0172  14.1541  14.3117  14.4016
 14.4780  14.7542  15.3619  15.7408  16.0022
 --------------------------------------------------------------
 
          Ground-State Mulliken Net Atomic Charges

     Atom                 Charge (a.u.)
  ----------------------------------------
      1 C                    -0.142218
      2 C                    -0.109982
      3 C                    -0.032900
      4 C                    -0.004882
      5 H                     0.188349
      6 C                     0.001636
      7 C                     0.071411
      8 C                     0.040461
      9 C                    -0.065452
     10 C                    -0.175219
     11 C                     0.079844
     12 H                     0.168864
     13 C                     0.358855
     14 C                     0.365622
     15 N                    -0.101733
     16 C                     0.359770
     17 C                     0.373826
     18 N                    -0.093335
     19 O                    -0.464288
     20 O                    -0.476439
     21 O                    -0.482774
     22 O                    -0.476919
     23 C                    -0.201087
     24 H                     0.141052
     25 H                     0.112610
     26 H                     0.112463
     27 C                    -0.197370
     28 H                     0.134254
     29 H                     0.112229
     30 H                     0.112979
     31 H                     0.213021
     32 C                    -0.032633
     33 S                     0.013550
     34 C                    -0.181379
     35 C                    -0.104858
     36 C                    -0.238017
     37 H                     0.211842
     38 H                     0.191272
     39 H                     0.217578
  ----------------------------------------
  Sum of atomic charges =     0.000000

 -----------------------------------------------------------------
                    Cartesian Multipole Moments
 -----------------------------------------------------------------
    Charge (ESU x 10^10)
                -0.0000
    Dipole Moment (Debye)
         X       0.2955      Y       1.9981      Z      -0.8088
       Tot       2.1758
    Quadrupole Moments (Debye-Ang)
        XX    -166.3720     XY       0.8872     YY    -167.0964
        XZ      -6.6203     YZ       0.7372     ZZ    -175.7220
    Octopole Moments (Debye-Ang^2)
       XXX       4.7621    XXY     473.6674    XYY       4.8538
       YYY    1609.1127    XXZ      -0.6110    XYZ      27.4429
       YYZ       3.6469    XZZ       5.6137    YZZ     552.8864
       ZZZ      -0.1886
    Hexadecapole Moments (Debye-Ang^3)
      XXXX    -863.5417   XXXY      77.5430   XXYY   -2877.7827
      XYYY     248.1423   YYYY  -17234.5981   XXXZ    -930.5478
      XXYZ      52.6349   XYYZ    -498.6325   YYYZ     703.1868
      XXZZ   -1096.9152   XYZZ     -77.0219   YYZZ   -4074.3208
      XZZZ   -1007.5914   YZZZ     -17.7928   ZZZZ   -5731.5413
 -----------------------------------------------------------------
 Total job time:  260.31s(wall), 7579.16s(cpu) 
 Sun Sep 24 17:32:19 2023

        *************************************************************
        *                                                           *
        *  Thank you very much for using Q-Chem.  Have a nice day.  *
        *                                                           *
        *************************************************************


0 sent ACK to 0 
now end server 0 ... 
cleanup process ... done
remove work dirs ./qchem3012136.0 -- ./qchem3012136.0
rm -rf ./qchem3012136.0
rm -rf ./qchem3012136
