You are running Q-Chem version: 5.4.0

#
# job setting
#
local host:  exp-6-03
current dir: /expanse/lustre/projects/csd626/rramji/aromodel/PNDIT/Rotation_Test
input file:  Dimethyl_Naphthalene_Dicarboximide_Phi_50_Theta_160_Thiophene.qcin
output file: 
nprocs     : 1
nthreads   : 64
#
# qchem installation setting
#
QC:          /cm/shared/apps/spack/cpu/opt/spack/linux-centos8-zen2/gcc-10.2.0/qchem-5.4-akfmr7b3t57bfs6qan3padb2wnb2i7cl
QCAUX:       /cm/shared/apps/spack/cpu/opt/spack/linux-centos8-zen2/gcc-10.2.0/qchem-5.4-akfmr7b3t57bfs6qan3padb2wnb2i7cl/qcaux
QCPROG:      /cm/shared/apps/spack/cpu/opt/spack/linux-centos8-zen2/gcc-10.2.0/qchem-5.4-akfmr7b3t57bfs6qan3padb2wnb2i7cl/exe/qcprog.exe
QCPROG_S:    /cm/shared/apps/spack/cpu/opt/spack/linux-centos8-zen2/gcc-10.2.0/qchem-5.4-akfmr7b3t57bfs6qan3padb2wnb2i7cl/exe/qcprog.exe_s
PARALLEL:    -DPARALLEL
QCMPI:       mpich
#
# qchem directory setting
#
qcrun:       qchem2516037
QCSCRATCH:   .
QCLOCALSCR:  
QCTMPDIR:    .
QCFILEPREF:  ./qchem2516037
QCSAVEDIR:   
workdirs:    ./qchem2516037
workdir0:    ./qchem2516037
partmpdirs =  
#
# parallel setting
#
QCRSH:           ssh
QCMPI:           mpich
QCMPIRUN:        /cm/shared/apps/spack/cpu/opt/spack/linux-centos8-zen2/gcc-10.2.0/qchem-5.4-akfmr7b3t57bfs6qan3padb2wnb2i7cl/bin/mpi/mpirun_qchem
QCMACHINEFILE:   ./qchem2516037/hostfile
exp-6-03

#
# env setting
#
exported envs:   QC QCAUX QCSCRATCH QCRUNNAME QCFILEPREF QCPROG QCPROG_S GUIFILE

Running Job 1 of 1 Dimethyl_Naphthalene_Dicarboximide_Phi_50_Theta_160_Thiophene.qcin
qchem Dimethyl_Naphthalene_Dicarboximide_Phi_50_Theta_160_Thiophene.qcin_2516037.0 ./qchem2516037/ 1
/cm/shared/apps/spack/cpu/opt/spack/linux-centos8-zen2/gcc-10.2.0/qchem-5.4-akfmr7b3t57bfs6qan3padb2wnb2i7cl/bin/mpi/mpirun_qchem -machinefile ./qchem2516037/hostfile -np 1 /cm/shared/apps/spack/cpu/opt/spack/linux-centos8-zen2/gcc-10.2.0/qchem-5.4-akfmr7b3t57bfs6qan3padb2wnb2i7cl/exe/qcprog.exe Dimethyl_Naphthalene_Dicarboximide_Phi_50_Theta_160_Thiophene.qcin_2516037.0 ./qchem2516037/

Process 0 of 1 is on exp-6-03 - thread support 0
initial socket setup ...start
initial socket setup ...done 
now start server 0 ... 
                  Welcome to Q-Chem
     A Quantum Leap Into The Future Of Chemistry


 Q-Chem 5.4, Q-Chem, Inc., Pleasanton, CA (2021)

 License issued to: University of California, San Diego (site)

 E. Epifanovsky,  A. T. B. Gilbert,  Xintian Feng,  Joonho Lee,  Yuezhi Mao,  
 N. Mardirossian,  P. Pokhilko,  A. White,  M. Wormit,  M. P. Coons,  
 A. L. Dempwolff,  Zhengting Gan,  D. Hait,  P. R. Horn,  L. D. Jacobson,  
 I. Kaliman,  J. Kussmann,  A. W. Lange,  Ka Un Lao,  D. S. Levine,  Jie Liu,  
 S. C. McKenzie,  A. F. Morrison,  K. Nanda,  F. Plasser,  D. R. Rehn,  
 M. L. Vidal,  Zhi-Qiang You,  Ying Zhu,  B. Alam,  B. Albrecht,  
 A. Aldossary,  E. Alguire,  J. H. Andersen,  D. Barton,  K. Begam,  A. Behn,  
 Y. A. Bernard,  E. J. Berquist,  H. Burton,  A. Carreras,  K. Carter-Fenk,  
 R. Chakraborty,  A. D. Chien,  K. D. Closser,  V. Cofer-Shabica,  
 S. Dasgupta,  Jia Deng,  M. de Wergifosse,  M. Diedenhofen,  Hainam Do,  
 S. Ehlert,  Po-Tung Fang,  S. Fatehi,  Qingguo Feng,  J. Gayvert,  
 Qinghui Ge,  G. Gidofalvi,  M. Goldey,  J. Gomes,  C. Gonzalez-Espinoza,  
 S. Gulania,  A. Gunina,  M. W. D. Hanson-Heine,  P. H. P. Harbach,  
 A. W. Hauser,  M. F. Herbst,  M. Hernandez Vera,  M. Hodecker,  
 Z. C. Holden,  S. Houck,  Xunkun Huang,  Kerwin Hui,  B. C. Huynh,  
 M. Ivanov,  Hyunjun Ji,  Hanjie Jiang,  B. Kaduk,  S. Kaehler,  
 K. Khistyaev,  Jaehoon Kim,  P. Klunzinger,  Z. Koczor-Benda,  
 Joong Hoon Koh,  D. Kosenkov,  L. Koulias,  T. Kowalczyk,  C. M. Krauter,  
 K. Kue,  A. Kunitsa,  T. Kus,  A. Landau,  K. V. Lawler,  D. Lefrancois,  
 S. Lehtola,  Rain Li,  Yi-Pei Li,  Jiashu Liang,  M. Liebenthal,  
 Hung-Hsuan Lin,  You-Sheng Lin,  Fenglai Liu,  Kuan-Yu Liu,  
 M. Loipersberger,  A. Luenser,  A. Manjanath,  P. Manohar,  E. Mansoor,  
 S. F. Manzer,  Shan-Ping Mao,  A. V. Marenich,  T. Markovich,  S. Mason,  
 S. A. Maurer,  P. F. McLaughlin,  M. F. S. J. Menger,  J.-M. Mewes,  
 S. A. Mewes,  P. Morgante,  J. W. Mullinax,  T. S. Nguyen-Beck,  
 K. J. Oosterbaan,  G. Paran,  Alexander C. Paul,  Suranjan K. Paul,  
 F. Pavosevic,  Zheng Pei,  S. Prager,  E. I. Proynov,  E. Ramos,  B. Rana,  
 A. E. Rask,  A. Rettig,  R. M. Richard,  F. Rob,  E. Rossomme,  T. Scheele,  
 M. Scheurer,  M. Schneider,  N. Sergueev,  S. M. Sharada,  W. Skomorowski,  
 D. W. Small,  C. J. Stein,  Yu-Chuan Su,  E. J. Sundstrom,  Zhen Tao,  
 J. Thirman,  T. Tsuchimochi,  N. M. Tubman,  S. P. Veccham,  O. Vydrov,  
 J. Wenzel,  J. Witte,  A. Yamada,  Kun Yao,  S. Yeganeh,  S. R. Yost,  
 A. Zech,  Igor Ying Zhang,  Xing Zhang,  Yu Zhang,  D. Zuev,  
 A. Aspuru-Guzik,  A. T. Bell,  N. A. Besley,  K. B. Bravaya,  B. R. Brooks,  
 D. Casanova,  Jeng-Da Chai,  S. Coriani,  C. J. Cramer,  
 A. E. DePrince, III,  R. A. DiStasio Jr.,  A. Dreuw,  B. D. Dunietz,  
 T. R. Furlani,  W. A. Goddard III,  S. Grimme,  S. Hammes-Schiffer,  
 T. Head-Gordon,  W. J. Hehre,  Chao-Ping Hsu,  T.-C. Jagau,  Yousung Jung,  
 A. Klamt,  Jing Kong,  D. S. Lambrecht,  WanZhen Liang,  N. J. Mayhall,  
 C. W. McCurdy,  J. B. Neaton,  C. Ochsenfeld,  J. A. Parkhill,  R. Peverati,  
 V. A. Rassolov,  Yihan Shao,  L. V. Slipchenko,  T. Stauch,  R. P. Steele,  
 J. E. Subotnik,  A. J. W. Thom,  A. Tkatchenko,  D. G. Truhlar,  
 T. Van Voorhis,  T. A. Wesolowski,  K. B. Whaley,  H. L. Woodcock III,  
 P. M. Zimmerman,  S. Faraji,  P. M. W. Gill,  M. Head-Gordon,  
 J. M. Herbert,  A. I. Krylov

 Contributors to earlier versions of Q-Chem not listed above: 
 R. D. Adamson,  B. Austin,  R. Baer,  J. Baker,  G. J. O. Beran,  
 K. Brandhorst,  S. T. Brown,  E. F. C. Byrd,  A. K. Chakraborty,  
 G. K. L. Chan,  Chun-Min Chang,  Yunqing Chen,  C.-L. Cheng,  
 Siu Hung Chien,  D. M. Chipman,  D. L. Crittenden,  H. Dachsel,  
 R. J. Doerksen,  A. D. Dutoi,  R. G. Edgar,  J. Fosso-Tande,  
 L. Fusti-Molnar,  D. Ghosh,  A. Ghysels,  A. Golubeva-Zadorozhnaya,  
 J. Gonthier,  M. S. Gordon,  S. R. Gwaltney,  G. Hawkins,  J. E. Herr,  
 A. Heyden,  S. Hirata,  E. G. Hohenstein,  G. Kedziora,  F. J. Keil,  
 C. Kelley,  Jihan Kim,  R. A. King,  R. Z. Khaliullin,  P. P. Korambath,  
 W. Kurlancheek,  A. Laurent,  A. M. Lee,  M. S. Lee,  S. V. Levchenko,  
 Ching Yeh Lin,  D. Liotard,  E. Livshits,  R. C. Lochan,  I. Lotan,  
 L. A. Martinez-Martinez,  P. E. Maslen,  N. Nair,  D. P. O'Neill,  
 D. Neuhauser,  E. Neuscamman,  C. M. Oana,  R. Olivares-Amaya,  R. Olson,  
 T. M. Perrine,  B. Peters,  P. A. Pieniazek,  A. Prociuk,  Y. M. Rhee,  
 J. Ritchie,  M. A. Rohrdanz,  E. Rosta,  N. J. Russ,  H. F. Schaefer III,  
 M. W. Schmidt,  N. E. Schultz,  S. Sharma,  N. Shenvi,  C. D. Sherrill,  
 A. C. Simmonett,  A. Sodt,  T. Stein,  D. Stuck,  K. S. Thanthiriwatte,  
 V. Vanovschi,  L. Vogt,  Tao Wang,  A. Warshel,  M. A. Watson,  
 C. F. Williams,  Q. Wu,  X. Xu,  Jun Yang,  W. Zhang,  Yan Zhao

 Please cite Q-Chem as follows:
 Y. Shao et al., Mol. Phys. 113, 184-215 (2015)
 DOI: 10.1080/00268976.2014.952696

 Q-Chem 5.4.0 for Intel X86 EM64T Linux

 Parts of Q-Chem use Armadillo 9.800.1 (Horizon Scraper).
 http://arma.sourceforge.net/

 Q-Chem begins on Wed Sep 20 09:18:33 2023  

 Host: 
0

     Scratch files written to ./qchem2516037//
 May1621 |scratch|qcdevops|jenkins|workspace|build_RNUM    
 Parallel job on  1  processors
 Processing $rem in /cm/shared/apps/spack/cpu/opt/spack/linux-centos8-zen2/gcc-10.2.0/qchem-5.4-akfmr7b3t57bfs6qan3padb2wnb2i7cl/config/preferences:
 Processing $rem in /home/rramji/.qchemrc:
 Symmetry turned off for PCM/SM12/SMD calculation
 Core orbitals will be frozen

 Checking the input file for inconsistencies... 	...done.

 Q-Chem warning in module forms1/BasisType.C, line 2236:

 You are not using the predefined 5D/6D in this basis set.


--------------------------------------------------------------
User input:
--------------------------------------------------------------
$molecule
0 1
C	0.089263	-6.741404	0.240927
C	0.535973	-6.155638	1.467886
C	-0.281103	-5.791452	-0.777972
C	0.631036	-4.803786	1.729742
H	0.836458	-6.821518	2.292903
C	-0.181995	-4.378638	-0.503614
C	0.272725	-3.838032	0.746756
C	-0.539954	-3.413062	-1.485437
C	0.371053	-2.426473	1.018915
C	-0.446381	-2.059348	-1.226557
C	-0.000000	-1.478216	-0.000000
H	-0.747410	-1.394783	-2.052413
C	-0.772747	-6.187987	-2.134128
C	-1.029154	-3.798164	-2.829820
N	-1.110828	-5.170003	-3.059182
C	1.121728	-4.424987	3.077731
C	0.864069	-2.036627	2.375694
N	1.201928	-3.049156	3.301101
O	-0.903908	-7.353131	-2.502830
O	-1.345809	-2.986854	-3.697078
O	1.434422	-5.248946	3.934752
O	1.003943	-0.878829	2.764177
C	-1.592981	-5.563799	-4.386939
H	-1.607367	-6.664085	-4.429822
H	-0.924504	-5.147101	-5.164489
H	-2.605446	-5.148785	-4.553486
C	1.677308	-2.587487	4.608481
H	1.898089	-3.483329	5.211969
H	0.902337	-1.964972	5.094624
H	2.582098	-1.962932	4.483092
H	0.025963	-7.822318	0.066080
C	0.000000	0.000000	0.000000
S	0.607475	0.509994	1.580530
C	1.862020	1.562717	0.904911
C	0.764397	0.641624	-0.985400
C	1.775697	1.490335	-0.493528
H	0.583895	0.490135	-2.059934
H	2.450484	2.056643	-1.152593
H	2.536607	2.128872	1.556025
$end

$rem
JOBTYPE		SP
EXCHANGE	HF
CORRELATION	pRIMP2
BASIS		cc-pvtz
METHOD		rimp2
AUX_BASIS	rimp2-cc-pvtz
SOLVENT_METHOD	PCM
PURECART	11111
SYMMETRY	false
MEM_TOTAL	110000
SCF_CONVERGENCE = 6
THRESH=10
GUI = 2
$end



$solvent
dielectric 4.90
$end
--------------------------------------------------------------
 ----------------------------------------------------------------
             Standard Nuclear Orientation (Angstroms)
    I     Atom           X                Y                Z
 ----------------------------------------------------------------
    1      C       0.0892630000    -6.7414040000     0.2409270000
    2      C       0.5359730000    -6.1556380000     1.4678860000
    3      C      -0.2811030000    -5.7914520000    -0.7779720000
    4      C       0.6310360000    -4.8037860000     1.7297420000
    5      H       0.8364580000    -6.8215180000     2.2929030000
    6      C      -0.1819950000    -4.3786380000    -0.5036140000
    7      C       0.2727250000    -3.8380320000     0.7467560000
    8      C      -0.5399540000    -3.4130620000    -1.4854370000
    9      C       0.3710530000    -2.4264730000     1.0189150000
   10      C      -0.4463810000    -2.0593480000    -1.2265570000
   11      C       0.0000000000    -1.4782160000     0.0000000000
   12      H      -0.7474100000    -1.3947830000    -2.0524130000
   13      C      -0.7727470000    -6.1879870000    -2.1341280000
   14      C      -1.0291540000    -3.7981640000    -2.8298200000
   15      N      -1.1108280000    -5.1700030000    -3.0591820000
   16      C       1.1217280000    -4.4249870000     3.0777310000
   17      C       0.8640690000    -2.0366270000     2.3756940000
   18      N       1.2019280000    -3.0491560000     3.3011010000
   19      O      -0.9039080000    -7.3531310000    -2.5028300000
   20      O      -1.3458090000    -2.9868540000    -3.6970780000
   21      O       1.4344220000    -5.2489460000     3.9347520000
   22      O       1.0039430000    -0.8788290000     2.7641770000
   23      C      -1.5929810000    -5.5637990000    -4.3869390000
   24      H      -1.6073670000    -6.6640850000    -4.4298220000
   25      H      -0.9245040000    -5.1471010000    -5.1644890000
   26      H      -2.6054460000    -5.1487850000    -4.5534860000
   27      C       1.6773080000    -2.5874870000     4.6084810000
   28      H       1.8980890000    -3.4833290000     5.2119690000
   29      H       0.9023370000    -1.9649720000     5.0946240000
   30      H       2.5820980000    -1.9629320000     4.4830920000
   31      H       0.0259630000    -7.8223180000     0.0660800000
   32      C       0.0000000000     0.0000000000     0.0000000000
   33      S       0.6074750000     0.5099940000     1.5805300000
   34      C       1.8620200000     1.5627170000     0.9049110000
   35      C       0.7643970000     0.6416240000    -0.9854000000
   36      C       1.7756970000     1.4903350000    -0.4935280000
   37      H       0.5838950000     0.4901350000    -2.0599340000
   38      H       2.4504840000     2.0566430000    -1.1525930000
   39      H       2.5366070000     2.1288720000     1.5560250000
 ----------------------------------------------------------------
 Nuclear Repulsion Energy =        2549.01867508 hartrees
 There are       97 alpha and       97 beta electrons
 Requested basis set is cc-pVTZ
 There are 344 shells and 982 basis functions

 Total QAlloc Memory Limit 110000 MB
 Mega-Array Size       188 MB
 MEM_STATIC part       192 MB
 Discretize the solute cavity surface with Lebedev spheres
	Using 110 Lebedev grid points for each H atom
	Using 194 Lebedev grid points for other atoms
	Atomic van der Waals radii will be scaled by 1.20
 Remove points where switching function is < 1.0e-08
 Keep 2490 surface tesserae and discard 4068 interior tesserae
 Molecular Surface Area = 355.308 Angst**2
 Requested basis set is rimp2-cc-pVTZ
 There are 750 shells and 2588 basis functions
 A cutoff of  1.0D-10 yielded  32411 shell pairs
 There are    249255 function pairs (    323860 Cartesian)
 Smallest overlap matrix eigenvalue = 9.27E-06

 Q-Chem warning in module stvman/mkSTV.C, line 323:

 Overlap eigenvalue is smaller than square root of threshold
 Use THRESH >= 12 to get rid of this warning


 Scale SEOQF with 1.000000e-01/1.000000e-02/1.000000e-01

 Standard Electronic Orientation quadrupole field applied
 Nucleus-field energy     =    -0.0000000958 hartrees
 Guess from superposition of atomic densities
 Warning:  Energy on first SCF cycle will be non-variational
 SAD guess density has 194.000000 electrons

 -----------------------------------------------------------------------
  General SCF calculation program by
  Eric Jon Sundstrom, Paul Horn, Yuezhi Mao, Dmitri Zuev, Alec White,
  David Stuck, Shaama M.S., Shane Yost, Joonho Lee, David Small,
  Daniel Levine, Susi Lehtola, Hugh Burton, Evgeny Epifanovsky,
  Bang C. Huynh
 -----------------------------------------------------------------------
 Hartree-Fock
 using 64 threads for integral computing
 -------------------------------------------------------
 OpenMP Integral computing Module                
 Release: version 1.0, May 2013, Q-Chem Inc. Pittsburgh 
 -------------------------------------------------------
 A restricted SCF calculation will be
 performed using DIIS
 SCF converges when DIIS error is below 1.0e-06
 ---------------------------------------
  Cycle       Energy         DIIS error
 ---------------------------------------
    1   -1581.7533351627      1.89e-02  
    2   -1569.9708445598      2.03e-03  
    3   -1570.3017958238      1.52e-03  
    4   -1570.5064235373      2.67e-04  
    5   -1570.5189083638      8.19e-05  
    6   -1570.5201180704      2.98e-05  
    7   -1570.5204068664      1.54e-05  
    8   -1570.5205107213      6.95e-06  
    9   -1570.5205331045      3.06e-06  
   10   -1570.5205393575      1.53e-06  
   11   -1570.5205412503      7.74e-07  Convergence criterion met
 ---------------------------------------
 SCF time:   CPU 6638.28s  wall 242.00s 

************** Final PCM Free Energy Summary **************
 G_electrostatic  =      -0.02168633 hartree =     -13.60837539 kcal/mol
 G_cavitation     =       0.00000000 hartree =       0.00000000 kcal/mol
 G_dispersion     =       0.00000000 hartree =       0.00000000 kcal/mol
 G_repulsion      =       0.00000000 hartree =       0.00000000 kcal/mol
 --------------------------------------------------
 Non-electrostatic Free Energy =       0.00000000 hartree =       0.00000000 kcal/mol
 Total                         =      -0.02168633 hartree =     -13.60837539 kcal/mol
 --------------------------------------------------
 SCF Energy (H0 + V/2)                       =   -1570.52054125 
 Solute Internal Energy (H0)                 =   -1570.49885492 
 Total Free Energy (H0 + V/2 + non-elec)     =   -1570.52054125 hartree
                                             = -985516.51403460 kcal/mol
***********************************************************

 SCF   energy in the final basis set =    -1570.5205412503
 Total energy in the final basis set =    -1570.5205412503


 --------------------------------------------------------------
  Generalized many-body perturbation theory program
  by Joonho Lee, Fazle Rob, Xintian Feng, Evgeny Epifanovsky

 No regularization used 
 (reg. param. = 0.0000e+00)
  (P|Q)^-1/2 Time:  CPU 103.09 s  wall 2.34 s

 In RI-MP2 calculation: 
 # of frozen core orbitals: 31

 Components of the RIMP2 correlation energy:
        aaaa    correlation energy =        -0.6268313447 a.u.
        abab    correlation energy =        -3.4160742808 a.u.
        bbbb    correlation energy =        -0.6268313447 a.u.
        non-Brillouin singles      =        -0.0000000000 a.u.
        total same-spin energy     =        -1.2536626894 a.u.
        total opposite-spin energy =        -3.4160742808 a.u.

 Total  RIMP2   correlation energy =        -4.6697369702 a.u.
        RIMP2         total energy =     -1575.1902782205 a.u.

 RI-MP2 Energy Time:  CPU 1847.66 s  wall 30.58 s
 
 --------------------------------------------------------------
 
                    Orbital Energies (a.u.)
 --------------------------------------------------------------
 
 Alpha MOs
 -- Occupied --
-92.0130 -20.5878 -20.5594 -20.5573 -20.5570 -15.6432 -15.6315 -11.4204
-11.4002 -11.3955 -11.3910 -11.3246 -11.3028 -11.3019 -11.2914 -11.2913
-11.2887 -11.2884 -11.2809 -11.2787 -11.2741 -11.2711 -11.2656 -11.2646
-11.2634 -11.2425 -11.2326  -9.0099  -6.6908  -6.6884  -6.6866  -1.4742
 -1.4253  -1.4147  -1.4047  -1.2828  -1.2669  -1.2173  -1.1753  -1.1400
 -1.1162  -1.0592  -1.0500  -1.0008  -0.9957  -0.9823  -0.9621  -0.9464
 -0.9040  -0.8825  -0.8756  -0.8654  -0.7972  -0.7867  -0.7808  -0.7562
 -0.7482  -0.7300  -0.7029  -0.6937  -0.6884  -0.6810  -0.6744  -0.6643
 -0.6594  -0.6452  -0.6395  -0.6391  -0.6282  -0.6166  -0.6013  -0.5902
 -0.5835  -0.5777  -0.5689  -0.5655  -0.5602  -0.5596  -0.5542  -0.5508
 -0.5383  -0.5342  -0.5213  -0.5157  -0.4857  -0.4749  -0.4680  -0.4626
 -0.4565  -0.4413  -0.4219  -0.4102  -0.4054  -0.3717  -0.3397  -0.2957
 -0.2624
 -- Virtual --
 -0.0151   0.0616   0.0713   0.1036   0.1089   0.1514   0.1576   0.1624
  0.1668   0.1719   0.1799   0.1863   0.1869   0.1889   0.2067   0.2079
  0.2226   0.2248   0.2284   0.2343   0.2426   0.2567   0.2576   0.2585
  0.2683   0.2867   0.3071   0.3109   0.3157   0.3256   0.3285   0.3377
  0.3408   0.3490   0.3523   0.3562   0.3587   0.3656   0.3688   0.3744
  0.3802   0.3899   0.3931   0.3957   0.4014   0.4059   0.4090   0.4105
  0.4136   0.4240   0.4264   0.4358   0.4407   0.4440   0.4528   0.4548
  0.4577   0.4608   0.4651   0.4714   0.4778   0.4833   0.4869   0.4959
  0.4984   0.5026   0.5112   0.5168   0.5191   0.5210   0.5310   0.5340
  0.5356   0.5425   0.5451   0.5502   0.5531   0.5584   0.5606   0.5678
  0.5719   0.5763   0.5783   0.5847   0.5915   0.5973   0.5980   0.6079
  0.6087   0.6101   0.6164   0.6182   0.6217   0.6250   0.6287   0.6303
  0.6345   0.6374   0.6424   0.6465   0.6489   0.6537   0.6562   0.6751
  0.6804   0.6863   0.6891   0.6993   0.7020   0.7080   0.7098   0.7195
  0.7301   0.7338   0.7411   0.7479   0.7577   0.7626   0.7670   0.7685
  0.7779   0.7830   0.7835   0.7989   0.8034   0.8079   0.8145   0.8174
  0.8255   0.8293   0.8398   0.8430   0.8458   0.8539   0.8541   0.8614
  0.8654   0.8665   0.8761   0.8830   0.8902   0.8952   0.9054   0.9078
  0.9137   0.9182   0.9228   0.9248   0.9301   0.9336   0.9391   0.9436
  0.9550   0.9580   0.9641   0.9694   0.9760   0.9782   0.9793   0.9883
  0.9918   0.9941   1.0025   1.0090   1.0118   1.0170   1.0232   1.0311
  1.0390   1.0404   1.0505   1.0566   1.0646   1.0682   1.0711   1.0782
  1.0820   1.0864   1.0905   1.0954   1.1012   1.1083   1.1132   1.1200
  1.1276   1.1304   1.1320   1.1437   1.1458   1.1491   1.1520   1.1564
  1.1626   1.1701   1.1737   1.1799   1.1906   1.1915   1.1988   1.2010
  1.2067   1.2084   1.2111   1.2199   1.2251   1.2309   1.2338   1.2385
  1.2564   1.2628   1.2648   1.2730   1.2805   1.2898   1.2941   1.3013
  1.3133   1.3215   1.3296   1.3384   1.3444   1.3502   1.3550   1.3692
  1.3727   1.3765   1.3777   1.3867   1.3903   1.4045   1.4112   1.4180
  1.4216   1.4252   1.4372   1.4429   1.4532   1.4558   1.4666   1.4699
  1.4775   1.4872   1.4886   1.4965   1.5027   1.5042   1.5144   1.5180
  1.5299   1.5365   1.5469   1.5474   1.5539   1.5583   1.5595   1.5681
  1.5740   1.5793   1.5832   1.5917   1.5955   1.6078   1.6201   1.6295
  1.6368   1.6446   1.6577   1.6706   1.6777   1.6833   1.6851   1.6885
  1.7038   1.7094   1.7277   1.7303   1.7321   1.7352   1.7469   1.7480
  1.7631   1.7661   1.7702   1.7784   1.7908   1.7970   1.8036   1.8123
  1.8226   1.8307   1.8347   1.8416   1.8494   1.8596   1.8645   1.8709
  1.8766   1.8888   1.8996   1.9153   1.9184   1.9299   1.9385   1.9534
  1.9604   1.9695   1.9736   1.9811   2.0007   2.0147   2.0353   2.0390
  2.0490   2.0608   2.0745   2.0891   2.1020   2.1140   2.1316   2.1469
  2.1522   2.1586   2.1807   2.1979   2.2018   2.2237   2.2280   2.2347
  2.2416   2.2575   2.2652   2.2678   2.2852   2.2894   2.3029   2.3048
  2.3148   2.3264   2.3438   2.3573   2.3645   2.3718   2.3995   2.4058
  2.4311   2.4352   2.4435   2.4475   2.4504   2.4564   2.4638   2.4751
  2.4944   2.4998   2.5061   2.5166   2.5231   2.5360   2.5410   2.5536
  2.5685   2.5783   2.5848   2.5910   2.6016   2.6067   2.6110   2.6162
  2.6241   2.6323   2.6448   2.6489   2.6609   2.6660   2.6669   2.6822
  2.6896   2.6912   2.7002   2.7036   2.7154   2.7209   2.7304   2.7413
  2.7472   2.7500   2.7544   2.7706   2.7773   2.7882   2.7933   2.8019
  2.8161   2.8238   2.8309   2.8432   2.8524   2.8539   2.8628   2.8659
  2.8742   2.8785   2.8841   2.8972   2.9010   2.9034   2.9091   2.9141
  2.9271   2.9333   2.9377   2.9514   2.9564   2.9640   2.9739   2.9751
  2.9873   2.9910   2.9989   3.0041   3.0101   3.0149   3.0198   3.0208
  3.0325   3.0381   3.0463   3.0519   3.0566   3.0709   3.0812   3.0871
  3.0905   3.0959   3.1020   3.1125   3.1161   3.1193   3.1261   3.1283
  3.1313   3.1515   3.1566   3.1655   3.1745   3.1798   3.1860   3.1881
  3.1964   3.1989   3.2052   3.2074   3.2158   3.2208   3.2289   3.2308
  3.2366   3.2401   3.2459   3.2499   3.2544   3.2559   3.2602   3.2692
  3.2716   3.2784   3.2795   3.2847   3.2884   3.2988   3.3029   3.3055
  3.3118   3.3148   3.3219   3.3253   3.3299   3.3317   3.3366   3.3414
  3.3456   3.3462   3.3555   3.3575   3.3622   3.3704   3.3710   3.3771
  3.3840   3.3853   3.3916   3.4021   3.4048   3.4083   3.4155   3.4226
  3.4277   3.4336   3.4364   3.4460   3.4471   3.4534   3.4559   3.4588
  3.4613   3.4681   3.4780   3.4824   3.4900   3.4907   3.4943   3.4973
  3.4996   3.5051   3.5073   3.5144   3.5194   3.5215   3.5299   3.5312
  3.5443   3.5467   3.5520   3.5552   3.5651   3.5742   3.5833   3.5894
  3.5953   3.5996   3.6043   3.6114   3.6218   3.6228   3.6271   3.6362
  3.6398   3.6493   3.6573   3.6678   3.6710   3.6715   3.6776   3.6846
  3.6918   3.7000   3.7023   3.7111   3.7164   3.7191   3.7251   3.7288
  3.7321   3.7434   3.7478   3.7506   3.7559   3.7588   3.7704   3.7729
  3.7815   3.7834   3.7916   3.7952   3.7969   3.8040   3.8085   3.8130
  3.8191   3.8204   3.8354   3.8413   3.8445   3.8527   3.8609   3.8663
  3.8722   3.8800   3.8835   3.8885   3.8987   3.9106   3.9259   3.9350
  3.9377   3.9494   3.9516   3.9547   3.9619   3.9676   3.9815   3.9840
  3.9909   4.0011   4.0091   4.0128   4.0185   4.0315   4.0491   4.0548
  4.0577   4.0657   4.0751   4.0815   4.0865   4.0903   4.0980   4.1165
  4.1240   4.1326   4.1362   4.1442   4.1572   4.1604   4.1727   4.1747
  4.1821   4.1898   4.2027   4.2090   4.2105   4.2225   4.2326   4.2397
  4.2484   4.2556   4.2709   4.2742   4.2771   4.2810   4.2869   4.2943
  4.2981   4.3014   4.3118   4.3256   4.3259   4.3331   4.3358   4.3424
  4.3499   4.3556   4.3625   4.3643   4.3666   4.3747   4.3795   4.3856
  4.3889   4.4026   4.4073   4.4105   4.4206   4.4280   4.4344   4.4464
  4.4608   4.4750   4.4801   4.4870   4.4977   4.5115   4.5201   4.5241
  4.5330   4.5398   4.5419   4.5473   4.5501   4.5559   4.5650   4.5731
  4.5759   4.5821   4.5876   4.5958   4.6162   4.6209   4.6335   4.6440
  4.6550   4.6642   4.6696   4.6739   4.6792   4.6845   4.6906   4.6985
  4.7232   4.7292   4.7395   4.7506   4.7753   4.7876   4.7955   4.8074
  4.8102   4.8227   4.8360   4.8412   4.8532   4.8663   4.8735   4.8814
  4.8900   4.9058   4.9136   4.9384   4.9422   4.9552   4.9743   4.9865
  4.9996   5.0118   5.0296   5.0320   5.0455   5.0532   5.0541   5.0716
  5.0862   5.1005   5.1110   5.1166   5.1268   5.1358   5.1418   5.1587
  5.1747   5.1780   5.1822   5.1978   5.2066   5.2308   5.2391   5.2521
  5.2597   5.2745   5.2904   5.3071   5.3176   5.3228   5.3287   5.3425
  5.3646   5.3904   5.4007   5.4011   5.4166   5.4332   5.4380   5.4651
  5.4918   5.5021   5.5034   5.5045   5.5091   5.5378   5.5457   5.5492
  5.5579   5.5595   5.5626   5.5647   5.5768   5.5889   5.6008   5.6169
  5.6227   5.6326   5.6483   5.6527   5.6580   5.6707   5.6765   5.6837
  5.6971   5.7043   5.7222   5.7327   5.7440   5.7592   5.7646   5.7700
  5.7725   5.7878   5.8111   5.8258   5.8646   5.8778   5.9054   5.9336
  5.9426   5.9686   5.9965   6.0193   6.0220   6.0258   6.0385   6.0582
  6.0821   6.0962   6.1094   6.1135   6.1282   6.1723   6.1882   6.2070
  6.2155   6.2190   6.2358   6.2626   6.2762   6.2970   6.3154   6.3485
  6.3699   6.3763   6.4108   6.4494   6.4639   6.5229   6.5429   6.5622
  6.5817   6.5905   6.6378   6.6395   6.6544   6.6554   6.7054   6.8256
  6.8326   6.8824   6.8853   6.8945   6.9109   6.9227   7.0120   7.0787
  7.1318   7.1499   7.1807   7.2135   7.3297   7.3331   7.3416   7.3448
  7.3476   7.4617   7.5471   7.5572   7.5737   7.5794   7.6340   7.6583
  7.6763   7.7145   7.8597   8.3749   9.9315  10.3285  11.0724  11.2569
 11.7048  11.7943  12.0982  12.3815  12.5265  12.7409  12.8605  12.9826
 13.2857  13.5439  13.8208  13.9464  14.0790  14.1366  14.2456  14.3760
 14.4196  14.7499  15.3263  15.7352  15.9991
 --------------------------------------------------------------
 
          Ground-State Mulliken Net Atomic Charges

     Atom                 Charge (a.u.)
  ----------------------------------------
      1 C                    -0.165847
      2 C                    -0.106395
      3 C                    -0.018528
      4 C                    -0.012699
      5 H                     0.187290
      6 C                    -0.010997
      7 C                     0.097211
      8 C                    -0.000560
      9 C                    -0.162679
     10 C                    -0.142393
     11 C                     0.111776
     12 H                     0.181826
     13 C                     0.360653
     14 C                     0.363621
     15 N                    -0.101912
     16 C                     0.361383
     17 C                     0.423089
     18 N                    -0.084831
     19 O                    -0.462178
     20 O                    -0.474484
     21 O                    -0.478847
     22 O                    -0.363563
     23 C                    -0.201133
     24 H                     0.141099
     25 H                     0.112522
     26 H                     0.112581
     27 C                    -0.199538
     28 H                     0.137942
     29 H                     0.116011
     30 H                     0.115533
     31 H                     0.210580
     32 C                    -0.120087
     33 S                     0.205567
     34 C                    -0.277321
     35 C                    -0.175685
     36 C                    -0.250853
     37 H                     0.185027
     38 H                     0.183812
     39 H                     0.203008
  ----------------------------------------
  Sum of atomic charges =     0.000000

 -----------------------------------------------------------------
                    Cartesian Multipole Moments
 -----------------------------------------------------------------
    Charge (ESU x 10^10)
                 0.0000
    Dipole Moment (Debye)
         X       1.9854      Y      -0.1060      Z       2.1388
       Tot       2.9202
    Quadrupole Moments (Debye-Ang)
        XX    -160.8401     XY       3.4453     YY    -179.7094
        XZ      -2.0596     YZ      -1.2877     ZZ    -168.2184
    Octopole Moments (Debye-Ang^2)
       XXX    -116.2830    XXY     504.4570    XYY     -31.9799
       YYY    1650.1542    XXZ     -23.2927    XYZ      25.7926
       YYZ     -25.8816    XZZ     -28.2908    YZZ     550.9990
       ZZZ     -77.7093
    Hexadecapole Moments (Debye-Ang^3)
      XXXX   -1154.0958   XXXY    -206.6125   XXYY   -2840.6974
      XYYY    -369.3295   YYYY  -17258.7119   XXXZ    -942.9883
      XXYZ     -77.8508   XYYZ    -491.6810   YYYZ    -744.5344
      XXZZ   -1113.9083   XYZZ      29.7249   YYZZ   -4019.6047
      XZZZ    -998.0065   YZZZ     -97.6151   ZZZZ   -5622.5206
 -----------------------------------------------------------------
 Total job time:  276.92s(wall), 8587.31s(cpu) 
 Wed Sep 20 09:23:10 2023

        *************************************************************
        *                                                           *
        *  Thank you very much for using Q-Chem.  Have a nice day.  *
        *                                                           *
        *************************************************************


0 sent ACK to 0 
now end server 0 ... 
cleanup process ... done
remove work dirs ./qchem2516037.0 -- ./qchem2516037.0
rm -rf ./qchem2516037.0
rm -rf ./qchem2516037
