You are running Q-Chem version: 5.4.0

#
# job setting
#
local host:  exp-2-02
current dir: /expanse/lustre/projects/csd626/rramji/aromodel/PNDIT/Rotation_Test
input file:  Dimethyl_Naphthalene_Dicarboximide_Phi_15_Theta_180_Thiophene.qcin
output file: 
nprocs     : 1
nthreads   : 64
#
# qchem installation setting
#
QC:          /cm/shared/apps/spack/cpu/opt/spack/linux-centos8-zen2/gcc-10.2.0/qchem-5.4-akfmr7b3t57bfs6qan3padb2wnb2i7cl
QCAUX:       /cm/shared/apps/spack/cpu/opt/spack/linux-centos8-zen2/gcc-10.2.0/qchem-5.4-akfmr7b3t57bfs6qan3padb2wnb2i7cl/qcaux
QCPROG:      /cm/shared/apps/spack/cpu/opt/spack/linux-centos8-zen2/gcc-10.2.0/qchem-5.4-akfmr7b3t57bfs6qan3padb2wnb2i7cl/exe/qcprog.exe
QCPROG_S:    /cm/shared/apps/spack/cpu/opt/spack/linux-centos8-zen2/gcc-10.2.0/qchem-5.4-akfmr7b3t57bfs6qan3padb2wnb2i7cl/exe/qcprog.exe_s
PARALLEL:    -DPARALLEL
QCMPI:       mpich
#
# qchem directory setting
#
qcrun:       qchem3115536
QCSCRATCH:   .
QCLOCALSCR:  
QCTMPDIR:    .
QCFILEPREF:  ./qchem3115536
QCSAVEDIR:   
workdirs:    ./qchem3115536
workdir0:    ./qchem3115536
partmpdirs =  
#
# parallel setting
#
QCRSH:           ssh
QCMPI:           mpich
QCMPIRUN:        /cm/shared/apps/spack/cpu/opt/spack/linux-centos8-zen2/gcc-10.2.0/qchem-5.4-akfmr7b3t57bfs6qan3padb2wnb2i7cl/bin/mpi/mpirun_qchem
QCMACHINEFILE:   ./qchem3115536/hostfile
exp-2-02

#
# env setting
#
exported envs:   QC QCAUX QCSCRATCH QCRUNNAME QCFILEPREF QCPROG QCPROG_S GUIFILE

Running Job 1 of 1 Dimethyl_Naphthalene_Dicarboximide_Phi_15_Theta_180_Thiophene.qcin
qchem Dimethyl_Naphthalene_Dicarboximide_Phi_15_Theta_180_Thiophene.qcin_3115536.0 ./qchem3115536/ 1
/cm/shared/apps/spack/cpu/opt/spack/linux-centos8-zen2/gcc-10.2.0/qchem-5.4-akfmr7b3t57bfs6qan3padb2wnb2i7cl/bin/mpi/mpirun_qchem -machinefile ./qchem3115536/hostfile -np 1 /cm/shared/apps/spack/cpu/opt/spack/linux-centos8-zen2/gcc-10.2.0/qchem-5.4-akfmr7b3t57bfs6qan3padb2wnb2i7cl/exe/qcprog.exe Dimethyl_Naphthalene_Dicarboximide_Phi_15_Theta_180_Thiophene.qcin_3115536.0 ./qchem3115536/

Process 0 of 1 is on exp-2-02 - thread support 0
initial socket setup ...start
initial socket setup ...done 
now start server 0 ... 
                  Welcome to Q-Chem
     A Quantum Leap Into The Future Of Chemistry


 Q-Chem 5.4, Q-Chem, Inc., Pleasanton, CA (2021)

 License issued to: University of California, San Diego (site)

 E. Epifanovsky,  A. T. B. Gilbert,  Xintian Feng,  Joonho Lee,  Yuezhi Mao,  
 N. Mardirossian,  P. Pokhilko,  A. White,  M. Wormit,  M. P. Coons,  
 A. L. Dempwolff,  Zhengting Gan,  D. Hait,  P. R. Horn,  L. D. Jacobson,  
 I. Kaliman,  J. Kussmann,  A. W. Lange,  Ka Un Lao,  D. S. Levine,  Jie Liu,  
 S. C. McKenzie,  A. F. Morrison,  K. Nanda,  F. Plasser,  D. R. Rehn,  
 M. L. Vidal,  Zhi-Qiang You,  Ying Zhu,  B. Alam,  B. Albrecht,  
 A. Aldossary,  E. Alguire,  J. H. Andersen,  D. Barton,  K. Begam,  A. Behn,  
 Y. A. Bernard,  E. J. Berquist,  H. Burton,  A. Carreras,  K. Carter-Fenk,  
 R. Chakraborty,  A. D. Chien,  K. D. Closser,  V. Cofer-Shabica,  
 S. Dasgupta,  Jia Deng,  M. de Wergifosse,  M. Diedenhofen,  Hainam Do,  
 S. Ehlert,  Po-Tung Fang,  S. Fatehi,  Qingguo Feng,  J. Gayvert,  
 Qinghui Ge,  G. Gidofalvi,  M. Goldey,  J. Gomes,  C. Gonzalez-Espinoza,  
 S. Gulania,  A. Gunina,  M. W. D. Hanson-Heine,  P. H. P. Harbach,  
 A. W. Hauser,  M. F. Herbst,  M. Hernandez Vera,  M. Hodecker,  
 Z. C. Holden,  S. Houck,  Xunkun Huang,  Kerwin Hui,  B. C. Huynh,  
 M. Ivanov,  Hyunjun Ji,  Hanjie Jiang,  B. Kaduk,  S. Kaehler,  
 K. Khistyaev,  Jaehoon Kim,  P. Klunzinger,  Z. Koczor-Benda,  
 Joong Hoon Koh,  D. Kosenkov,  L. Koulias,  T. Kowalczyk,  C. M. Krauter,  
 K. Kue,  A. Kunitsa,  T. Kus,  A. Landau,  K. V. Lawler,  D. Lefrancois,  
 S. Lehtola,  Rain Li,  Yi-Pei Li,  Jiashu Liang,  M. Liebenthal,  
 Hung-Hsuan Lin,  You-Sheng Lin,  Fenglai Liu,  Kuan-Yu Liu,  
 M. Loipersberger,  A. Luenser,  A. Manjanath,  P. Manohar,  E. Mansoor,  
 S. F. Manzer,  Shan-Ping Mao,  A. V. Marenich,  T. Markovich,  S. Mason,  
 S. A. Maurer,  P. F. McLaughlin,  M. F. S. J. Menger,  J.-M. Mewes,  
 S. A. Mewes,  P. Morgante,  J. W. Mullinax,  T. S. Nguyen-Beck,  
 K. J. Oosterbaan,  G. Paran,  Alexander C. Paul,  Suranjan K. Paul,  
 F. Pavosevic,  Zheng Pei,  S. Prager,  E. I. Proynov,  E. Ramos,  B. Rana,  
 A. E. Rask,  A. Rettig,  R. M. Richard,  F. Rob,  E. Rossomme,  T. Scheele,  
 M. Scheurer,  M. Schneider,  N. Sergueev,  S. M. Sharada,  W. Skomorowski,  
 D. W. Small,  C. J. Stein,  Yu-Chuan Su,  E. J. Sundstrom,  Zhen Tao,  
 J. Thirman,  T. Tsuchimochi,  N. M. Tubman,  S. P. Veccham,  O. Vydrov,  
 J. Wenzel,  J. Witte,  A. Yamada,  Kun Yao,  S. Yeganeh,  S. R. Yost,  
 A. Zech,  Igor Ying Zhang,  Xing Zhang,  Yu Zhang,  D. Zuev,  
 A. Aspuru-Guzik,  A. T. Bell,  N. A. Besley,  K. B. Bravaya,  B. R. Brooks,  
 D. Casanova,  Jeng-Da Chai,  S. Coriani,  C. J. Cramer,  
 A. E. DePrince, III,  R. A. DiStasio Jr.,  A. Dreuw,  B. D. Dunietz,  
 T. R. Furlani,  W. A. Goddard III,  S. Grimme,  S. Hammes-Schiffer,  
 T. Head-Gordon,  W. J. Hehre,  Chao-Ping Hsu,  T.-C. Jagau,  Yousung Jung,  
 A. Klamt,  Jing Kong,  D. S. Lambrecht,  WanZhen Liang,  N. J. Mayhall,  
 C. W. McCurdy,  J. B. Neaton,  C. Ochsenfeld,  J. A. Parkhill,  R. Peverati,  
 V. A. Rassolov,  Yihan Shao,  L. V. Slipchenko,  T. Stauch,  R. P. Steele,  
 J. E. Subotnik,  A. J. W. Thom,  A. Tkatchenko,  D. G. Truhlar,  
 T. Van Voorhis,  T. A. Wesolowski,  K. B. Whaley,  H. L. Woodcock III,  
 P. M. Zimmerman,  S. Faraji,  P. M. W. Gill,  M. Head-Gordon,  
 J. M. Herbert,  A. I. Krylov

 Contributors to earlier versions of Q-Chem not listed above: 
 R. D. Adamson,  B. Austin,  R. Baer,  J. Baker,  G. J. O. Beran,  
 K. Brandhorst,  S. T. Brown,  E. F. C. Byrd,  A. K. Chakraborty,  
 G. K. L. Chan,  Chun-Min Chang,  Yunqing Chen,  C.-L. Cheng,  
 Siu Hung Chien,  D. M. Chipman,  D. L. Crittenden,  H. Dachsel,  
 R. J. Doerksen,  A. D. Dutoi,  R. G. Edgar,  J. Fosso-Tande,  
 L. Fusti-Molnar,  D. Ghosh,  A. Ghysels,  A. Golubeva-Zadorozhnaya,  
 J. Gonthier,  M. S. Gordon,  S. R. Gwaltney,  G. Hawkins,  J. E. Herr,  
 A. Heyden,  S. Hirata,  E. G. Hohenstein,  G. Kedziora,  F. J. Keil,  
 C. Kelley,  Jihan Kim,  R. A. King,  R. Z. Khaliullin,  P. P. Korambath,  
 W. Kurlancheek,  A. Laurent,  A. M. Lee,  M. S. Lee,  S. V. Levchenko,  
 Ching Yeh Lin,  D. Liotard,  E. Livshits,  R. C. Lochan,  I. Lotan,  
 L. A. Martinez-Martinez,  P. E. Maslen,  N. Nair,  D. P. O'Neill,  
 D. Neuhauser,  E. Neuscamman,  C. M. Oana,  R. Olivares-Amaya,  R. Olson,  
 T. M. Perrine,  B. Peters,  P. A. Pieniazek,  A. Prociuk,  Y. M. Rhee,  
 J. Ritchie,  M. A. Rohrdanz,  E. Rosta,  N. J. Russ,  H. F. Schaefer III,  
 M. W. Schmidt,  N. E. Schultz,  S. Sharma,  N. Shenvi,  C. D. Sherrill,  
 A. C. Simmonett,  A. Sodt,  T. Stein,  D. Stuck,  K. S. Thanthiriwatte,  
 V. Vanovschi,  L. Vogt,  Tao Wang,  A. Warshel,  M. A. Watson,  
 C. F. Williams,  Q. Wu,  X. Xu,  Jun Yang,  W. Zhang,  Yan Zhao

 Please cite Q-Chem as follows:
 Y. Shao et al., Mol. Phys. 113, 184-215 (2015)
 DOI: 10.1080/00268976.2014.952696

 Q-Chem 5.4.0 for Intel X86 EM64T Linux

 Parts of Q-Chem use Armadillo 9.800.1 (Horizon Scraper).
 http://arma.sourceforge.net/

 Q-Chem begins on Sun Sep 24 16:12:05 2023  

 Host: 
0

     Scratch files written to ./qchem3115536//
 May1621 |scratch|qcdevops|jenkins|workspace|build_RNUM    
 Parallel job on  1  processors
 Processing $rem in /cm/shared/apps/spack/cpu/opt/spack/linux-centos8-zen2/gcc-10.2.0/qchem-5.4-akfmr7b3t57bfs6qan3padb2wnb2i7cl/config/preferences:
 Processing $rem in /home/rramji/.qchemrc:
 Symmetry turned off for PCM/SM12/SMD calculation
 Core orbitals will be frozen

 Checking the input file for inconsistencies... 	...done.

 Q-Chem warning in module forms1/BasisType.C, line 2236:

 You are not using the predefined 5D/6D in this basis set.


--------------------------------------------------------------
User input:
--------------------------------------------------------------
$molecule
0 1
C	0.001478	-6.741404	0.256927
C	0.001603	-6.155638	1.562675
C	0.001931	-5.791452	-0.827197
C	0.001374	-4.803786	1.841253
H	0.001794	-6.821518	2.440709
C	0.001227	-4.378638	-0.535488
C	0.000872	-3.838032	0.794999
C	0.000658	-3.413062	-1.580529
C	0.000186	-2.426473	1.084374
C	0.000046	-2.059348	-1.305258
C	0.000000	-1.478216	0.000000
H	-0.000369	-1.394783	-2.184267
C	0.003770	-6.187987	-2.269719
C	0.000767	-3.798164	-3.011152
N	0.002465	-5.170003	-3.254617
C	0.001433	-4.424987	3.275775
C	-0.000576	-2.036627	2.527951
N	0.000400	-3.049156	3.513104
O	0.006623	-7.353131	-2.661046
O	-0.000172	-2.986854	-3.934410
O	0.002151	-5.248946	4.188059
O	-0.002006	-0.878829	2.940845
C	0.003509	-5.563799	-4.667206
H	0.004658	-6.664085	-4.712423
H	0.897610	-5.147101	-5.169231
H	-0.890935	-5.148785	-5.169992
C	-0.000039	-2.587487	4.904229
H	0.001022	-3.483329	5.546833
H	-0.894545	-1.964972	5.095998
H	0.893071	-1.962932	5.095858
H	0.001797	-7.822318	0.070974
C	0.000000	0.000000	0.000000
S	0.205093	0.766196	1.580530
C	0.628939	2.348114	0.904911
C	0.258137	0.964028	-0.985400
C	0.599745	2.239309	-0.493528
H	0.197169	0.736404	-2.059934
H	0.827678	3.090243	-1.152593
H	0.856796	3.198808	1.556025
$end

$rem
JOBTYPE		SP
EXCHANGE	HF
CORRELATION	pRIMP2
BASIS		cc-pvtz
METHOD		rimp2
AUX_BASIS	rimp2-cc-pvtz
SOLVENT_METHOD	PCM
PURECART	11111
SYMMETRY	false
MEM_TOTAL	110000
SCF_CONVERGENCE = 6
THRESH=10
GUI = 2
$end



$solvent
dielectric 4.90
$end
--------------------------------------------------------------
 ----------------------------------------------------------------
             Standard Nuclear Orientation (Angstroms)
    I     Atom           X                Y                Z
 ----------------------------------------------------------------
    1      C       0.0014780000    -6.7414040000     0.2569270000
    2      C       0.0016030000    -6.1556380000     1.5626750000
    3      C       0.0019310000    -5.7914520000    -0.8271970000
    4      C       0.0013740000    -4.8037860000     1.8412530000
    5      H       0.0017940000    -6.8215180000     2.4407090000
    6      C       0.0012270000    -4.3786380000    -0.5354880000
    7      C       0.0008720000    -3.8380320000     0.7949990000
    8      C       0.0006580000    -3.4130620000    -1.5805290000
    9      C       0.0001860000    -2.4264730000     1.0843740000
   10      C       0.0000460000    -2.0593480000    -1.3052580000
   11      C       0.0000000000    -1.4782160000     0.0000000000
   12      H      -0.0003690000    -1.3947830000    -2.1842670000
   13      C       0.0037700000    -6.1879870000    -2.2697190000
   14      C       0.0007670000    -3.7981640000    -3.0111520000
   15      N       0.0024650000    -5.1700030000    -3.2546170000
   16      C       0.0014330000    -4.4249870000     3.2757750000
   17      C      -0.0005760000    -2.0366270000     2.5279510000
   18      N       0.0004000000    -3.0491560000     3.5131040000
   19      O       0.0066230000    -7.3531310000    -2.6610460000
   20      O      -0.0001720000    -2.9868540000    -3.9344100000
   21      O       0.0021510000    -5.2489460000     4.1880590000
   22      O      -0.0020060000    -0.8788290000     2.9408450000
   23      C       0.0035090000    -5.5637990000    -4.6672060000
   24      H       0.0046580000    -6.6640850000    -4.7124230000
   25      H       0.8976100000    -5.1471010000    -5.1692310000
   26      H      -0.8909350000    -5.1487850000    -5.1699920000
   27      C      -0.0000390000    -2.5874870000     4.9042290000
   28      H       0.0010220000    -3.4833290000     5.5468330000
   29      H      -0.8945450000    -1.9649720000     5.0959980000
   30      H       0.8930710000    -1.9629320000     5.0958580000
   31      H       0.0017970000    -7.8223180000     0.0709740000
   32      C       0.0000000000     0.0000000000     0.0000000000
   33      S       0.2050930000     0.7661960000     1.5805300000
   34      C       0.6289390000     2.3481140000     0.9049110000
   35      C       0.2581370000     0.9640280000    -0.9854000000
   36      C       0.5997450000     2.2393090000    -0.4935280000
   37      H       0.1971690000     0.7364040000    -2.0599340000
   38      H       0.8276780000     3.0902430000    -1.1525930000
   39      H       0.8567960000     3.1988080000     1.5560250000
 ----------------------------------------------------------------
 Nuclear Repulsion Energy =        2515.49709435 hartrees
 There are       97 alpha and       97 beta electrons
 Requested basis set is cc-pVTZ
 There are 344 shells and 982 basis functions

 Total QAlloc Memory Limit 110000 MB
 Mega-Array Size       188 MB
 MEM_STATIC part       192 MB
 Discretize the solute cavity surface with Lebedev spheres
	Using 110 Lebedev grid points for each H atom
	Using 194 Lebedev grid points for other atoms
	Atomic van der Waals radii will be scaled by 1.20
 Remove points where switching function is < 1.0e-08
 Keep 2483 surface tesserae and discard 4075 interior tesserae
 Molecular Surface Area = 359.625 Angst**2
 Requested basis set is rimp2-cc-pVTZ
 There are 750 shells and 2588 basis functions
 A cutoff of  1.0D-10 yielded  31769 shell pairs
 There are    244539 function pairs (    317681 Cartesian)
 Smallest overlap matrix eigenvalue = 9.59E-06

 Q-Chem warning in module stvman/mkSTV.C, line 323:

 Overlap eigenvalue is smaller than square root of threshold
 Use THRESH >= 12 to get rid of this warning


 Scale SEOQF with 1.000000e+00/1.000000e-02/1.000000e-02

 Standard Electronic Orientation quadrupole field applied
 Nucleus-field energy     =     0.0000000122 hartrees
 Guess from superposition of atomic densities
 Warning:  Energy on first SCF cycle will be non-variational
 SAD guess density has 194.000000 electrons

 -----------------------------------------------------------------------
  General SCF calculation program by
  Eric Jon Sundstrom, Paul Horn, Yuezhi Mao, Dmitri Zuev, Alec White,
  David Stuck, Shaama M.S., Shane Yost, Joonho Lee, David Small,
  Daniel Levine, Susi Lehtola, Hugh Burton, Evgeny Epifanovsky,
  Bang C. Huynh
 -----------------------------------------------------------------------
 Hartree-Fock
 using 64 threads for integral computing
 -------------------------------------------------------
 OpenMP Integral computing Module                
 Release: version 1.0, May 2013, Q-Chem Inc. Pittsburgh 
 -------------------------------------------------------
 A restricted SCF calculation will be
 performed using DIIS
 SCF converges when DIIS error is below 1.0e-06
 ---------------------------------------
  Cycle       Energy         DIIS error
 ---------------------------------------
    1   -1581.4755485667      1.88e-02  
    2   -1570.0795633950      2.07e-03  
    3   -1570.4055885507      1.60e-03  
    4   -1570.6293405912      2.60e-04  
    5   -1570.6415702334      7.66e-05  
    6   -1570.6426446227      2.85e-05  
    7   -1570.6429016452      1.47e-05  
    8   -1570.6429879030      6.01e-06  
    9   -1570.6430024215      2.34e-06  
   10   -1570.6430050004      9.10e-07  Convergence criterion met
 ---------------------------------------
 SCF time:   CPU 5722.25s  wall 225.00s 

************** Final PCM Free Energy Summary **************
 G_electrostatic  =      -0.02209577 hartree =     -13.86530560 kcal/mol
 G_cavitation     =       0.00000000 hartree =       0.00000000 kcal/mol
 G_dispersion     =       0.00000000 hartree =       0.00000000 kcal/mol
 G_repulsion      =       0.00000000 hartree =       0.00000000 kcal/mol
 --------------------------------------------------
 Non-electrostatic Free Energy =       0.00000000 hartree =       0.00000000 kcal/mol
 Total                         =      -0.02209577 hartree =     -13.86530560 kcal/mol
 --------------------------------------------------
 SCF Energy (H0 + V/2)                       =   -1570.64300500 
 Solute Internal Energy (H0)                 =   -1570.62090923 
 Total Free Energy (H0 + V/2 + non-elec)     =   -1570.64300500 hartree
                                             = -985593.36119762 kcal/mol
***********************************************************

 SCF   energy in the final basis set =    -1570.6430050004
 Total energy in the final basis set =    -1570.6430050004


 --------------------------------------------------------------
  Generalized many-body perturbation theory program
  by Joonho Lee, Fazle Rob, Xintian Feng, Evgeny Epifanovsky

 No regularization used 
 (reg. param. = 0.0000e+00)
  (P|Q)^-1/2 Time:  CPU 143.60 s  wall 2.37 s

 In RI-MP2 calculation: 
 # of frozen core orbitals: 31

 Components of the RIMP2 correlation energy:
        aaaa    correlation energy =        -0.6203219241 a.u.
        abab    correlation energy =        -3.3988380696 a.u.
        bbbb    correlation energy =        -0.6203219241 a.u.
        non-Brillouin singles      =        -0.0000000000 a.u.
        total same-spin energy     =        -1.2406438482 a.u.
        total opposite-spin energy =        -3.3988380696 a.u.

 Total  RIMP2   correlation energy =        -4.6394819178 a.u.
        RIMP2         total energy =     -1575.2824869181 a.u.

 RI-MP2 Energy Time:  CPU 1748.41 s  wall 28.44 s
 
 --------------------------------------------------------------
 
                    Orbital Energies (a.u.)
 --------------------------------------------------------------
 
 Alpha MOs
 -- Occupied --
-91.9754 -20.5606 -20.5591 -20.5572 -20.5542 -15.6327 -15.6317 -11.4011
-11.4003 -11.3921 -11.3914 -11.3221 -11.3025 -11.3015 -11.2995 -11.2954
-11.2937 -11.2891 -11.2879 -11.2834 -11.2792 -11.2788 -11.2681 -11.2658
-11.2649 -11.2614 -11.2425  -8.9751  -6.6556  -6.6540  -6.6531  -1.4357
 -1.4254  -1.4083  -1.4048  -1.2706  -1.2669  -1.2173  -1.1723  -1.1423
 -1.1170  -1.0618  -1.0499  -0.9935  -0.9901  -0.9804  -0.9597  -0.9468
 -0.8981  -0.8808  -0.8784  -0.8638  -0.7935  -0.7792  -0.7777  -0.7597
 -0.7324  -0.7291  -0.7026  -0.6934  -0.6896  -0.6747  -0.6687  -0.6637
 -0.6578  -0.6414  -0.6390  -0.6368  -0.6273  -0.6149  -0.5847  -0.5835
 -0.5813  -0.5765  -0.5715  -0.5653  -0.5620  -0.5568  -0.5564  -0.5495
 -0.5330  -0.5258  -0.5216  -0.5187  -0.4900  -0.4727  -0.4688  -0.4636
 -0.4571  -0.4329  -0.4210  -0.4103  -0.3839  -0.3755  -0.3421  -0.3375
 -0.2949
 -- Virtual --
 -0.0194   0.0552   0.0668   0.1080   0.1225   0.1559   0.1576   0.1607
  0.1663   0.1804   0.1814   0.1859   0.1889   0.2006   0.2074   0.2154
  0.2266   0.2274   0.2282   0.2367   0.2577   0.2615   0.2697   0.2732
  0.2770   0.3079   0.3120   0.3154   0.3258   0.3311   0.3339   0.3391
  0.3458   0.3509   0.3556   0.3571   0.3615   0.3659   0.3740   0.3807
  0.3826   0.3892   0.3950   0.3965   0.4040   0.4097   0.4104   0.4191
  0.4244   0.4330   0.4376   0.4414   0.4431   0.4462   0.4553   0.4575
  0.4593   0.4628   0.4708   0.4725   0.4757   0.4811   0.4888   0.4959
  0.5029   0.5063   0.5104   0.5159   0.5199   0.5252   0.5279   0.5316
  0.5376   0.5399   0.5489   0.5535   0.5563   0.5593   0.5641   0.5688
  0.5744   0.5789   0.5839   0.5865   0.5894   0.5967   0.5999   0.6023
  0.6051   0.6082   0.6117   0.6171   0.6225   0.6245   0.6265   0.6279
  0.6346   0.6373   0.6385   0.6429   0.6454   0.6579   0.6627   0.6758
  0.6855   0.6910   0.6964   0.7002   0.7064   0.7126   0.7201   0.7329
  0.7353   0.7384   0.7450   0.7554   0.7561   0.7630   0.7643   0.7683
  0.7790   0.7826   0.7959   0.7972   0.8083   0.8097   0.8161   0.8197
  0.8330   0.8381   0.8396   0.8456   0.8503   0.8523   0.8641   0.8652
  0.8658   0.8679   0.8824   0.8865   0.8889   0.8978   0.9046   0.9109
  0.9178   0.9214   0.9243   0.9291   0.9336   0.9382   0.9418   0.9476
  0.9530   0.9569   0.9637   0.9645   0.9733   0.9753   0.9835   0.9895
  0.9976   1.0022   1.0057   1.0086   1.0201   1.0211   1.0233   1.0307
  1.0415   1.0433   1.0551   1.0621   1.0646   1.0703   1.0735   1.0790
  1.0796   1.0805   1.0909   1.0942   1.0975   1.1006   1.1054   1.1086
  1.1170   1.1284   1.1347   1.1390   1.1429   1.1474   1.1552   1.1607
  1.1656   1.1715   1.1796   1.1836   1.1845   1.1924   1.1976   1.2010
  1.2066   1.2115   1.2167   1.2211   1.2285   1.2326   1.2346   1.2393
  1.2439   1.2567   1.2585   1.2647   1.2710   1.2737   1.2821   1.3068
  1.3179   1.3192   1.3277   1.3333   1.3361   1.3436   1.3617   1.3645
  1.3687   1.3793   1.3811   1.3864   1.3875   1.3948   1.4151   1.4180
  1.4225   1.4284   1.4321   1.4406   1.4532   1.4619   1.4671   1.4704
  1.4805   1.4821   1.4888   1.4925   1.4941   1.5079   1.5115   1.5262
  1.5324   1.5405   1.5424   1.5501   1.5583   1.5592   1.5666   1.5702
  1.5751   1.5778   1.5866   1.5888   1.6078   1.6093   1.6244   1.6336
  1.6368   1.6457   1.6539   1.6547   1.6683   1.6808   1.6838   1.6994
  1.7010   1.7136   1.7219   1.7276   1.7305   1.7346   1.7479   1.7550
  1.7629   1.7702   1.7719   1.7847   1.7911   1.7987   1.8066   1.8210
  1.8272   1.8296   1.8442   1.8480   1.8548   1.8611   1.8649   1.8757
  1.8820   1.8879   1.9097   1.9117   1.9222   1.9386   1.9448   1.9495
  1.9610   1.9690   1.9735   1.9995   2.0031   2.0281   2.0317   2.0414
  2.0585   2.0789   2.0890   2.1104   2.1127   2.1220   2.1361   2.1431
  2.1511   2.1651   2.1810   2.1992   2.2035   2.2215   2.2226   2.2347
  2.2467   2.2545   2.2729   2.2815   2.2861   2.2976   2.2983   2.3186
  2.3287   2.3338   2.3373   2.3572   2.3598   2.3626   2.3767   2.4028
  2.4074   2.4338   2.4415   2.4424   2.4539   2.4582   2.4693   2.4785
  2.4823   2.4971   2.5031   2.5072   2.5223   2.5228   2.5303   2.5458
  2.5591   2.5677   2.5818   2.5875   2.5936   2.5963   2.6062   2.6147
  2.6197   2.6235   2.6471   2.6526   2.6605   2.6642   2.6657   2.6722
  2.6774   2.6859   2.6958   2.7043   2.7185   2.7236   2.7240   2.7378
  2.7408   2.7472   2.7501   2.7618   2.7709   2.7732   2.7869   2.7975
  2.8014   2.8106   2.8265   2.8297   2.8430   2.8536   2.8548   2.8564
  2.8722   2.8777   2.8781   2.8857   2.8941   2.8959   2.8999   2.9081
  2.9135   2.9263   2.9305   2.9412   2.9519   2.9586   2.9648   2.9736
  2.9760   2.9768   2.9830   2.9987   3.0020   3.0086   3.0145   3.0195
  3.0258   3.0387   3.0465   3.0509   3.0555   3.0578   3.0759   3.0778
  3.0874   3.0940   3.0965   3.1009   3.1059   3.1113   3.1191   3.1236
  3.1261   3.1282   3.1348   3.1569   3.1692   3.1753   3.1788   3.1840
  3.1925   3.1953   3.2049   3.2085   3.2157   3.2192   3.2224   3.2258
  3.2288   3.2320   3.2369   3.2458   3.2512   3.2543   3.2610   3.2642
  3.2680   3.2738   3.2815   3.2877   3.2938   3.2977   3.2994   3.3010
  3.3048   3.3101   3.3184   3.3221   3.3241   3.3279   3.3345   3.3383
  3.3414   3.3447   3.3478   3.3596   3.3622   3.3685   3.3700   3.3764
  3.3857   3.3879   3.3942   3.3960   3.4010   3.4080   3.4131   3.4180
  3.4245   3.4332   3.4384   3.4420   3.4466   3.4492   3.4581   3.4633
  3.4643   3.4665   3.4743   3.4748   3.4837   3.4875   3.4903   3.4972
  3.5000   3.5060   3.5085   3.5131   3.5145   3.5201   3.5261   3.5284
  3.5338   3.5353   3.5369   3.5492   3.5568   3.5633   3.5777   3.5854
  3.5871   3.5972   3.5993   3.6048   3.6138   3.6183   3.6251   3.6319
  3.6353   3.6390   3.6409   3.6507   3.6556   3.6645   3.6734   3.6776
  3.6813   3.6836   3.6908   3.7016   3.7068   3.7089   3.7107   3.7262
  3.7344   3.7363   3.7433   3.7457   3.7531   3.7592   3.7624   3.7659
  3.7789   3.7828   3.7870   3.7890   3.7968   3.7982   3.8000   3.8081
  3.8207   3.8239   3.8314   3.8356   3.8403   3.8441   3.8540   3.8589
  3.8642   3.8699   3.8731   3.8874   3.8931   3.9027   3.9135   3.9248
  3.9331   3.9396   3.9425   3.9449   3.9472   3.9556   3.9795   3.9838
  3.9871   4.0013   4.0117   4.0125   4.0197   4.0258   4.0391   4.0492
  4.0557   4.0620   4.0696   4.0808   4.0855   4.1023   4.1051   4.1128
  4.1144   4.1329   4.1373   4.1444   4.1469   4.1598   4.1645   4.1747
  4.1770   4.1871   4.1916   4.2044   4.2073   4.2181   4.2329   4.2373
  4.2487   4.2595   4.2711   4.2754   4.2761   4.2803   4.2852   4.2911
  4.2971   4.3015   4.3047   4.3149   4.3277   4.3337   4.3380   4.3451
  4.3516   4.3568   4.3643   4.3662   4.3702   4.3712   4.3764   4.3882
  4.3952   4.4003   4.4055   4.4121   4.4168   4.4230   4.4253   4.4410
  4.4576   4.4681   4.4726   4.4836   4.5055   4.5106   4.5156   4.5180
  4.5238   4.5278   4.5413   4.5466   4.5520   4.5551   4.5720   4.5764
  4.5795   4.5830   4.5884   4.5970   4.6111   4.6166   4.6269   4.6323
  4.6415   4.6631   4.6665   4.6693   4.6746   4.6850   4.6893   4.6955
  4.7146   4.7270   4.7338   4.7374   4.7664   4.7760   4.7791   4.7876
  4.8222   4.8255   4.8313   4.8356   4.8577   4.8682   4.8704   4.8805
  4.8987   4.9168   4.9258   4.9391   4.9499   4.9755   4.9833   4.9897
  5.0063   5.0134   5.0281   5.0393   5.0462   5.0528   5.0553   5.0631
  5.0982   5.1053   5.1077   5.1132   5.1248   5.1357   5.1466   5.1586
  5.1704   5.1768   5.1912   5.1973   5.2067   5.2388   5.2492   5.2549
  5.2707   5.2761   5.2922   5.2970   5.3065   5.3231   5.3301   5.3582
  5.3596   5.3942   5.3986   5.4014   5.4291   5.4330   5.4470   5.4519
  5.4877   5.5079   5.5082   5.5110   5.5157   5.5381   5.5494   5.5526
  5.5593   5.5632   5.5710   5.5768   5.5826   5.5913   5.6073   5.6154
  5.6281   5.6369   5.6517   5.6538   5.6678   5.6758   5.6778   5.6919
  5.7001   5.7147   5.7362   5.7523   5.7544   5.7580   5.7646   5.7733
  5.7858   5.7889   5.8202   5.8323   5.8729   5.8888   5.9102   5.9362
  5.9502   5.9708   6.0185   6.0200   6.0240   6.0277   6.0371   6.0612
  6.0823   6.0991   6.1040   6.1140   6.1385   6.1838   6.2053   6.2097
  6.2171   6.2205   6.2265   6.2692   6.2770   6.2893   6.3139   6.3514
  6.3537   6.3739   6.4458   6.4606   6.4841   6.5310   6.5598   6.5642
  6.5891   6.6270   6.6399   6.6450   6.6569   6.6838   6.7174   6.8342
  6.8404   6.8836   6.8854   6.8965   6.9106   6.9326   6.9649   7.0795
  7.1339   7.1489   7.1862   7.2153   7.2968   7.3318   7.3398   7.3430
  7.3490   7.4670   7.5479   7.5578   7.5753   7.5807   7.6341   7.6477
  7.6774   7.7113   7.7655   8.4492   9.9176  10.3560  11.1869  11.2181
 11.7005  11.7874  12.0205  12.3981  12.4740  12.7773  12.8621  12.9366
 13.4049  13.5424  13.8200  13.9388  14.0528  14.1969  14.3280  14.3808
 14.5058  14.7540  15.3470  15.7591  15.9990
 --------------------------------------------------------------
 
          Ground-State Mulliken Net Atomic Charges

     Atom                 Charge (a.u.)
  ----------------------------------------
      1 C                    -0.147398
      2 C                    -0.111800
      3 C                    -0.028055
      4 C                    -0.002282
      5 H                     0.187997
      6 C                     0.004330
      7 C                     0.081312
      8 C                     0.002591
      9 C                    -0.087523
     10 C                    -0.132589
     11 C                     0.065025
     12 H                     0.183287
     13 C                     0.359053
     14 C                     0.363081
     15 N                    -0.101848
     16 C                     0.358939
     17 C                     0.377324
     18 N                    -0.091549
     19 O                    -0.463670
     20 O                    -0.476821
     21 O                    -0.482156
     22 O                    -0.439974
     23 C                    -0.201152
     24 H                     0.141299
     25 H                     0.112426
     26 H                     0.112467
     27 C                    -0.198988
     28 H                     0.135482
     29 H                     0.113707
     30 H                     0.113625
     31 H                     0.212466
     32 C                     0.004823
     33 S                     0.099449
     34 C                    -0.233143
     35 C                    -0.169326
     36 C                    -0.235995
     37 H                     0.186825
     38 H                     0.183303
     39 H                     0.205461
  ----------------------------------------
  Sum of atomic charges =     0.000000

 -----------------------------------------------------------------
                    Cartesian Multipole Moments
 -----------------------------------------------------------------
    Charge (ESU x 10^10)
                 0.0000
    Dipole Moment (Debye)
         X       0.4400      Y       1.0034      Z      -0.1412
       Tot       1.1047
    Quadrupole Moments (Debye-Ang)
        XX    -163.4663     XY       2.4344     YY    -171.0249
        XZ       0.3016     YZ       0.1805     ZZ    -175.5307
    Octopole Moments (Debye-Ang^2)
       XXX     -39.4593    XXY     467.4895    XYY      -3.5175
       YYY    1609.3599    XXZ     -32.8263    XYZ       1.7287
       YYZ     -24.2128    XZZ      -9.5775    YZZ     558.4785
       ZZZ    -101.5062
    Hexadecapole Moments (Debye-Ang^3)
      XXXX    -229.4847   XXXY     -68.9065   XXYY   -2689.1940
      XYYY     -27.5454   YYYY  -17288.0426   XXXZ     -12.4023
      XXYZ    -133.4145   XYYZ       3.4805   YYYZ    -790.9016
      XXZZ   -1065.7946   XYZZ     -12.2814   YYZZ   -4252.6131
      XZZZ      -9.9478   YZZZ     -38.9283   ZZZZ   -6425.8659
 -----------------------------------------------------------------
 Total job time:  259.47s(wall), 7627.76s(cpu) 
 Sun Sep 24 16:16:25 2023

        *************************************************************
        *                                                           *
        *  Thank you very much for using Q-Chem.  Have a nice day.  *
        *                                                           *
        *************************************************************


0 sent ACK to 0 
now end server 0 ... 
cleanup process ... done
remove work dirs ./qchem3115536.0 -- ./qchem3115536.0
rm -rf ./qchem3115536.0
rm -rf ./qchem3115536
