You are running Q-Chem version: 5.4.0

#
# job setting
#
local host:  exp-2-39
current dir: /expanse/lustre/projects/csd626/rramji/aromodel/PNDIT/Rotation_Test
input file:  Dimethyl_Naphthalene_Dicarboximide_Phi_60_Theta_200_Thiophene.qcin
output file: 
nprocs     : 1
nthreads   : 64
#
# qchem installation setting
#
QC:          /cm/shared/apps/spack/cpu/opt/spack/linux-centos8-zen2/gcc-10.2.0/qchem-5.4-akfmr7b3t57bfs6qan3padb2wnb2i7cl
QCAUX:       /cm/shared/apps/spack/cpu/opt/spack/linux-centos8-zen2/gcc-10.2.0/qchem-5.4-akfmr7b3t57bfs6qan3padb2wnb2i7cl/qcaux
QCPROG:      /cm/shared/apps/spack/cpu/opt/spack/linux-centos8-zen2/gcc-10.2.0/qchem-5.4-akfmr7b3t57bfs6qan3padb2wnb2i7cl/exe/qcprog.exe
QCPROG_S:    /cm/shared/apps/spack/cpu/opt/spack/linux-centos8-zen2/gcc-10.2.0/qchem-5.4-akfmr7b3t57bfs6qan3padb2wnb2i7cl/exe/qcprog.exe_s
PARALLEL:    -DPARALLEL
QCMPI:       mpich
#
# qchem directory setting
#
qcrun:       qchem29756
QCSCRATCH:   .
QCLOCALSCR:  
QCTMPDIR:    .
QCFILEPREF:  ./qchem29756
QCSAVEDIR:   
workdirs:    ./qchem29756
workdir0:    ./qchem29756
partmpdirs =  
#
# parallel setting
#
QCRSH:           ssh
QCMPI:           mpich
QCMPIRUN:        /cm/shared/apps/spack/cpu/opt/spack/linux-centos8-zen2/gcc-10.2.0/qchem-5.4-akfmr7b3t57bfs6qan3padb2wnb2i7cl/bin/mpi/mpirun_qchem
QCMACHINEFILE:   ./qchem29756/hostfile
exp-2-39

#
# env setting
#
exported envs:   QC QCAUX QCSCRATCH QCRUNNAME QCFILEPREF QCPROG QCPROG_S GUIFILE

Running Job 1 of 1 Dimethyl_Naphthalene_Dicarboximide_Phi_60_Theta_200_Thiophene.qcin
qchem Dimethyl_Naphthalene_Dicarboximide_Phi_60_Theta_200_Thiophene.qcin_29756.0 ./qchem29756/ 1
/cm/shared/apps/spack/cpu/opt/spack/linux-centos8-zen2/gcc-10.2.0/qchem-5.4-akfmr7b3t57bfs6qan3padb2wnb2i7cl/bin/mpi/mpirun_qchem -machinefile ./qchem29756/hostfile -np 1 /cm/shared/apps/spack/cpu/opt/spack/linux-centos8-zen2/gcc-10.2.0/qchem-5.4-akfmr7b3t57bfs6qan3padb2wnb2i7cl/exe/qcprog.exe Dimethyl_Naphthalene_Dicarboximide_Phi_60_Theta_200_Thiophene.qcin_29756.0 ./qchem29756/

Process 0 of 1 is on exp-2-39 - thread support 0
initial socket setup ...start
initial socket setup ...done 
now start server 0 ... 
                  Welcome to Q-Chem
     A Quantum Leap Into The Future Of Chemistry


 Q-Chem 5.4, Q-Chem, Inc., Pleasanton, CA (2021)

 License issued to: University of California, San Diego (site)

 E. Epifanovsky,  A. T. B. Gilbert,  Xintian Feng,  Joonho Lee,  Yuezhi Mao,  
 N. Mardirossian,  P. Pokhilko,  A. White,  M. Wormit,  M. P. Coons,  
 A. L. Dempwolff,  Zhengting Gan,  D. Hait,  P. R. Horn,  L. D. Jacobson,  
 I. Kaliman,  J. Kussmann,  A. W. Lange,  Ka Un Lao,  D. S. Levine,  Jie Liu,  
 S. C. McKenzie,  A. F. Morrison,  K. Nanda,  F. Plasser,  D. R. Rehn,  
 M. L. Vidal,  Zhi-Qiang You,  Ying Zhu,  B. Alam,  B. Albrecht,  
 A. Aldossary,  E. Alguire,  J. H. Andersen,  D. Barton,  K. Begam,  A. Behn,  
 Y. A. Bernard,  E. J. Berquist,  H. Burton,  A. Carreras,  K. Carter-Fenk,  
 R. Chakraborty,  A. D. Chien,  K. D. Closser,  V. Cofer-Shabica,  
 S. Dasgupta,  Jia Deng,  M. de Wergifosse,  M. Diedenhofen,  Hainam Do,  
 S. Ehlert,  Po-Tung Fang,  S. Fatehi,  Qingguo Feng,  J. Gayvert,  
 Qinghui Ge,  G. Gidofalvi,  M. Goldey,  J. Gomes,  C. Gonzalez-Espinoza,  
 S. Gulania,  A. Gunina,  M. W. D. Hanson-Heine,  P. H. P. Harbach,  
 A. W. Hauser,  M. F. Herbst,  M. Hernandez Vera,  M. Hodecker,  
 Z. C. Holden,  S. Houck,  Xunkun Huang,  Kerwin Hui,  B. C. Huynh,  
 M. Ivanov,  Hyunjun Ji,  Hanjie Jiang,  B. Kaduk,  S. Kaehler,  
 K. Khistyaev,  Jaehoon Kim,  P. Klunzinger,  Z. Koczor-Benda,  
 Joong Hoon Koh,  D. Kosenkov,  L. Koulias,  T. Kowalczyk,  C. M. Krauter,  
 K. Kue,  A. Kunitsa,  T. Kus,  A. Landau,  K. V. Lawler,  D. Lefrancois,  
 S. Lehtola,  Rain Li,  Yi-Pei Li,  Jiashu Liang,  M. Liebenthal,  
 Hung-Hsuan Lin,  You-Sheng Lin,  Fenglai Liu,  Kuan-Yu Liu,  
 M. Loipersberger,  A. Luenser,  A. Manjanath,  P. Manohar,  E. Mansoor,  
 S. F. Manzer,  Shan-Ping Mao,  A. V. Marenich,  T. Markovich,  S. Mason,  
 S. A. Maurer,  P. F. McLaughlin,  M. F. S. J. Menger,  J.-M. Mewes,  
 S. A. Mewes,  P. Morgante,  J. W. Mullinax,  T. S. Nguyen-Beck,  
 K. J. Oosterbaan,  G. Paran,  Alexander C. Paul,  Suranjan K. Paul,  
 F. Pavosevic,  Zheng Pei,  S. Prager,  E. I. Proynov,  E. Ramos,  B. Rana,  
 A. E. Rask,  A. Rettig,  R. M. Richard,  F. Rob,  E. Rossomme,  T. Scheele,  
 M. Scheurer,  M. Schneider,  N. Sergueev,  S. M. Sharada,  W. Skomorowski,  
 D. W. Small,  C. J. Stein,  Yu-Chuan Su,  E. J. Sundstrom,  Zhen Tao,  
 J. Thirman,  T. Tsuchimochi,  N. M. Tubman,  S. P. Veccham,  O. Vydrov,  
 J. Wenzel,  J. Witte,  A. Yamada,  Kun Yao,  S. Yeganeh,  S. R. Yost,  
 A. Zech,  Igor Ying Zhang,  Xing Zhang,  Yu Zhang,  D. Zuev,  
 A. Aspuru-Guzik,  A. T. Bell,  N. A. Besley,  K. B. Bravaya,  B. R. Brooks,  
 D. Casanova,  Jeng-Da Chai,  S. Coriani,  C. J. Cramer,  
 A. E. DePrince, III,  R. A. DiStasio Jr.,  A. Dreuw,  B. D. Dunietz,  
 T. R. Furlani,  W. A. Goddard III,  S. Grimme,  S. Hammes-Schiffer,  
 T. Head-Gordon,  W. J. Hehre,  Chao-Ping Hsu,  T.-C. Jagau,  Yousung Jung,  
 A. Klamt,  Jing Kong,  D. S. Lambrecht,  WanZhen Liang,  N. J. Mayhall,  
 C. W. McCurdy,  J. B. Neaton,  C. Ochsenfeld,  J. A. Parkhill,  R. Peverati,  
 V. A. Rassolov,  Yihan Shao,  L. V. Slipchenko,  T. Stauch,  R. P. Steele,  
 J. E. Subotnik,  A. J. W. Thom,  A. Tkatchenko,  D. G. Truhlar,  
 T. Van Voorhis,  T. A. Wesolowski,  K. B. Whaley,  H. L. Woodcock III,  
 P. M. Zimmerman,  S. Faraji,  P. M. W. Gill,  M. Head-Gordon,  
 J. M. Herbert,  A. I. Krylov

 Contributors to earlier versions of Q-Chem not listed above: 
 R. D. Adamson,  B. Austin,  R. Baer,  J. Baker,  G. J. O. Beran,  
 K. Brandhorst,  S. T. Brown,  E. F. C. Byrd,  A. K. Chakraborty,  
 G. K. L. Chan,  Chun-Min Chang,  Yunqing Chen,  C.-L. Cheng,  
 Siu Hung Chien,  D. M. Chipman,  D. L. Crittenden,  H. Dachsel,  
 R. J. Doerksen,  A. D. Dutoi,  R. G. Edgar,  J. Fosso-Tande,  
 L. Fusti-Molnar,  D. Ghosh,  A. Ghysels,  A. Golubeva-Zadorozhnaya,  
 J. Gonthier,  M. S. Gordon,  S. R. Gwaltney,  G. Hawkins,  J. E. Herr,  
 A. Heyden,  S. Hirata,  E. G. Hohenstein,  G. Kedziora,  F. J. Keil,  
 C. Kelley,  Jihan Kim,  R. A. King,  R. Z. Khaliullin,  P. P. Korambath,  
 W. Kurlancheek,  A. Laurent,  A. M. Lee,  M. S. Lee,  S. V. Levchenko,  
 Ching Yeh Lin,  D. Liotard,  E. Livshits,  R. C. Lochan,  I. Lotan,  
 L. A. Martinez-Martinez,  P. E. Maslen,  N. Nair,  D. P. O'Neill,  
 D. Neuhauser,  E. Neuscamman,  C. M. Oana,  R. Olivares-Amaya,  R. Olson,  
 T. M. Perrine,  B. Peters,  P. A. Pieniazek,  A. Prociuk,  Y. M. Rhee,  
 J. Ritchie,  M. A. Rohrdanz,  E. Rosta,  N. J. Russ,  H. F. Schaefer III,  
 M. W. Schmidt,  N. E. Schultz,  S. Sharma,  N. Shenvi,  C. D. Sherrill,  
 A. C. Simmonett,  A. Sodt,  T. Stein,  D. Stuck,  K. S. Thanthiriwatte,  
 V. Vanovschi,  L. Vogt,  Tao Wang,  A. Warshel,  M. A. Watson,  
 C. F. Williams,  Q. Wu,  X. Xu,  Jun Yang,  W. Zhang,  Yan Zhao

 Please cite Q-Chem as follows:
 Y. Shao et al., Mol. Phys. 113, 184-215 (2015)
 DOI: 10.1080/00268976.2014.952696

 Q-Chem 5.4.0 for Intel X86 EM64T Linux

 Parts of Q-Chem use Armadillo 9.800.1 (Horizon Scraper).
 http://arma.sourceforge.net/

 Q-Chem begins on Wed Sep 20 09:42:45 2023  

 Host: 
0

     Scratch files written to ./qchem29756//
 May1621 |scratch|qcdevops|jenkins|workspace|build_RNUM    
 Parallel job on  1  processors
 Processing $rem in /cm/shared/apps/spack/cpu/opt/spack/linux-centos8-zen2/gcc-10.2.0/qchem-5.4-akfmr7b3t57bfs6qan3padb2wnb2i7cl/config/preferences:
 Processing $rem in /home/rramji/.qchemrc:
 Symmetry turned off for PCM/SM12/SMD calculation
 Core orbitals will be frozen

 Checking the input file for inconsistencies... 	...done.

 Q-Chem warning in module forms1/BasisType.C, line 2236:

 You are not using the predefined 5D/6D in this basis set.


--------------------------------------------------------------
User input:
--------------------------------------------------------------
$molecule
0 1
C	-0.086486	-6.741404	0.241938
C	-0.532960	-6.155638	1.468983
C	0.284733	-5.791452	-0.776651
C	-0.628455	-4.803786	1.730681
H	-0.833086	-6.821518	2.294130
C	0.184300	-4.378638	-0.502775
C	-0.271086	-3.838032	0.747353
C	0.541191	-3.413062	-1.484986
C	-0.370703	-2.426473	1.019042
C	0.446468	-2.059348	-1.226525
C	-0.000000	-1.478216	-0.000000
H	0.746717	-1.394783	-2.052666
C	0.779832	-6.187987	-2.131549
C	1.030596	-3.798164	-2.829295
N	1.115461	-5.170003	-3.057496
C	-1.119034	-4.424987	3.078712
C	-0.865151	-2.036627	2.375300
N	-1.201176	-3.049156	3.301374
O	0.916355	-7.353131	-2.498300
O	1.345486	-2.986854	-3.697195
O	-1.430379	-5.248946	3.936224
O	-1.007714	-0.878829	2.762805
C	1.599576	-5.563799	-4.384539
H	1.616121	-6.664085	-4.426636
H	2.611458	-5.147101	-4.550487
H	0.931037	-5.148785	-5.162921
C	-1.677382	-2.587487	4.608454
H	-1.896168	-3.483329	5.212668
H	-2.583531	-1.964972	4.482719
H	-0.903674	-1.962932	5.093988
H	-0.022586	-7.822318	0.067309
C	0.000000	0.000000	0.000000
S	0.686805	0.396760	1.580530
C	2.105095	1.215640	0.904911
C	0.864201	0.499140	-0.985400
C	2.007514	1.159347	-0.493528
H	0.660136	0.381296	-2.059934
H	2.770388	1.599875	-1.152593
H	2.867745	1.656053	1.556025
$end

$rem
JOBTYPE		SP
EXCHANGE	HF
CORRELATION	pRIMP2
BASIS		cc-pvtz
METHOD		rimp2
AUX_BASIS	rimp2-cc-pvtz
SOLVENT_METHOD	PCM
PURECART	11111
SYMMETRY	false
MEM_TOTAL	110000
SCF_CONVERGENCE = 6
THRESH=10
GUI = 2
$end



$solvent
dielectric 4.90
$end
--------------------------------------------------------------
 ----------------------------------------------------------------
             Standard Nuclear Orientation (Angstroms)
    I     Atom           X                Y                Z
 ----------------------------------------------------------------
    1      C      -0.0864860000    -6.7414040000     0.2419380000
    2      C      -0.5329600000    -6.1556380000     1.4689830000
    3      C       0.2847330000    -5.7914520000    -0.7766510000
    4      C      -0.6284550000    -4.8037860000     1.7306810000
    5      H      -0.8330860000    -6.8215180000     2.2941300000
    6      C       0.1843000000    -4.3786380000    -0.5027750000
    7      C      -0.2710860000    -3.8380320000     0.7473530000
    8      C       0.5411910000    -3.4130620000    -1.4849860000
    9      C      -0.3707030000    -2.4264730000     1.0190420000
   10      C       0.4464680000    -2.0593480000    -1.2265250000
   11      C       0.0000000000    -1.4782160000     0.0000000000
   12      H       0.7467170000    -1.3947830000    -2.0526660000
   13      C       0.7798320000    -6.1879870000    -2.1315490000
   14      C       1.0305960000    -3.7981640000    -2.8292950000
   15      N       1.1154610000    -5.1700030000    -3.0574960000
   16      C      -1.1190340000    -4.4249870000     3.0787120000
   17      C      -0.8651510000    -2.0366270000     2.3753000000
   18      N      -1.2011760000    -3.0491560000     3.3013740000
   19      O       0.9163550000    -7.3531310000    -2.4983000000
   20      O       1.3454860000    -2.9868540000    -3.6971950000
   21      O      -1.4303790000    -5.2489460000     3.9362240000
   22      O      -1.0077140000    -0.8788290000     2.7628050000
   23      C       1.5995760000    -5.5637990000    -4.3845390000
   24      H       1.6161210000    -6.6640850000    -4.4266360000
   25      H       2.6114580000    -5.1471010000    -4.5504870000
   26      H       0.9310370000    -5.1487850000    -5.1629210000
   27      C      -1.6773820000    -2.5874870000     4.6084540000
   28      H      -1.8961680000    -3.4833290000     5.2126680000
   29      H      -2.5835310000    -1.9649720000     4.4827190000
   30      H      -0.9036740000    -1.9629320000     5.0939880000
   31      H      -0.0225860000    -7.8223180000     0.0673090000
   32      C       0.0000000000     0.0000000000     0.0000000000
   33      S       0.6868050000     0.3967600000     1.5805300000
   34      C       2.1050950000     1.2156400000     0.9049110000
   35      C       0.8642010000     0.4991400000    -0.9854000000
   36      C       2.0075140000     1.1593470000    -0.4935280000
   37      H       0.6601360000     0.3812960000    -2.0599340000
   38      H       2.7703880000     1.5998750000    -1.1525930000
   39      H       2.8677450000     1.6560530000     1.5560250000
 ----------------------------------------------------------------
 Nuclear Repulsion Energy =        2543.15528203 hartrees
 There are       97 alpha and       97 beta electrons
 Requested basis set is cc-pVTZ
 There are 344 shells and 982 basis functions

 Total QAlloc Memory Limit 110000 MB
 Mega-Array Size       188 MB
 MEM_STATIC part       192 MB
 Discretize the solute cavity surface with Lebedev spheres
	Using 110 Lebedev grid points for each H atom
	Using 194 Lebedev grid points for other atoms
	Atomic van der Waals radii will be scaled by 1.20
 Remove points where switching function is < 1.0e-08
 Keep 2474 surface tesserae and discard 4084 interior tesserae
 Molecular Surface Area = 356.760 Angst**2
 Requested basis set is rimp2-cc-pVTZ
 There are 750 shells and 2588 basis functions
 A cutoff of  1.0D-10 yielded  32565 shell pairs
 There are    250341 function pairs (    325168 Cartesian)
 Smallest overlap matrix eigenvalue = 8.65E-06

 Q-Chem warning in module stvman/mkSTV.C, line 323:

 Overlap eigenvalue is smaller than square root of threshold
 Use THRESH >= 12 to get rid of this warning


 Scale SEOQF with 1.000000e-01/1.000000e-02/1.000000e-01

 Standard Electronic Orientation quadrupole field applied
 Nucleus-field energy     =    -0.0000000953 hartrees
 Guess from superposition of atomic densities
 Warning:  Energy on first SCF cycle will be non-variational
 SAD guess density has 194.000000 electrons

 -----------------------------------------------------------------------
  General SCF calculation program by
  Eric Jon Sundstrom, Paul Horn, Yuezhi Mao, Dmitri Zuev, Alec White,
  David Stuck, Shaama M.S., Shane Yost, Joonho Lee, David Small,
  Daniel Levine, Susi Lehtola, Hugh Burton, Evgeny Epifanovsky,
  Bang C. Huynh
 -----------------------------------------------------------------------
 Hartree-Fock
 using 64 threads for integral computing
 -------------------------------------------------------
 OpenMP Integral computing Module                
 Release: version 1.0, May 2013, Q-Chem Inc. Pittsburgh 
 -------------------------------------------------------
 A restricted SCF calculation will be
 performed using DIIS
 SCF converges when DIIS error is below 1.0e-06
 ---------------------------------------
  Cycle       Energy         DIIS error
 ---------------------------------------
    1   -1581.5341372240      1.88e-02  
    2   -1570.0531441558      2.07e-03  
    3   -1570.3801328330      1.59e-03  
    4   -1570.6000804693      2.61e-04  
    5   -1570.6126719970      7.86e-05  
    6   -1570.6138636406      3.02e-05  
    7   -1570.6141819090      1.55e-05  
    8   -1570.6142956461      7.18e-06  
    9   -1570.6143184543      2.80e-06  
   10   -1570.6143235028      1.30e-06  
   11   -1570.6143246567      5.73e-07  Convergence criterion met
 ---------------------------------------
 SCF time:   CPU 6232.89s  wall 252.00s 

************** Final PCM Free Energy Summary **************
 G_electrostatic  =      -0.02419323 hartree =     -15.18147846 kcal/mol
 G_cavitation     =       0.00000000 hartree =       0.00000000 kcal/mol
 G_dispersion     =       0.00000000 hartree =       0.00000000 kcal/mol
 G_repulsion      =       0.00000000 hartree =       0.00000000 kcal/mol
 --------------------------------------------------
 Non-electrostatic Free Energy =       0.00000000 hartree =       0.00000000 kcal/mol
 Total                         =      -0.02419323 hartree =     -15.18147846 kcal/mol
 --------------------------------------------------
 SCF Energy (H0 + V/2)                       =   -1570.61432466 
 Solute Internal Energy (H0)                 =   -1570.59013143 
 Total Free Energy (H0 + V/2 + non-elec)     =   -1570.61432466 hartree
                                             = -985575.36401034 kcal/mol
***********************************************************

 SCF   energy in the final basis set =    -1570.6143246567
 Total energy in the final basis set =    -1570.6143246567


 --------------------------------------------------------------
  Generalized many-body perturbation theory program
  by Joonho Lee, Fazle Rob, Xintian Feng, Evgeny Epifanovsky

 No regularization used 
 (reg. param. = 0.0000e+00)
  (P|Q)^-1/2 Time:  CPU 180.61 s  wall 2.90 s

 In RI-MP2 calculation: 
 # of frozen core orbitals: 31

 Components of the RIMP2 correlation energy:
        aaaa    correlation energy =        -0.6208205726 a.u.
        abab    correlation energy =        -3.4018766389 a.u.
        bbbb    correlation energy =        -0.6208205726 a.u.
        non-Brillouin singles      =        -0.0000000000 a.u.
        total same-spin energy     =        -1.2416411451 a.u.
        total opposite-spin energy =        -3.4018766389 a.u.

 Total  RIMP2   correlation energy =        -4.6435177841 a.u.
        RIMP2         total energy =     -1575.2578424408 a.u.

 RI-MP2 Energy Time:  CPU 1860.23 s  wall 30.49 s
 
 --------------------------------------------------------------
 
                    Orbital Energies (a.u.)
 --------------------------------------------------------------
 
 Alpha MOs
 -- Occupied --
-91.9890 -20.5577 -20.5561 -20.5535 -20.5498 -15.6303 -15.6273 -11.3985
-11.3920 -11.3899 -11.3877 -11.3209 -11.3048 -11.2994 -11.2962 -11.2879
-11.2875 -11.2843 -11.2840 -11.2839 -11.2775 -11.2754 -11.2706 -11.2705
-11.2642 -11.2628 -11.2546  -8.9888  -6.6691  -6.6680  -6.6676  -1.4242
 -1.4240  -1.4036  -1.4018  -1.2661  -1.2630  -1.2165  -1.1892  -1.1395
 -1.1119  -1.0617  -1.0457  -0.9972  -0.9931  -0.9894  -0.9567  -0.9445
 -0.8935  -0.8763  -0.8723  -0.8585  -0.7920  -0.7779  -0.7767  -0.7677
 -0.7319  -0.7163  -0.7056  -0.6917  -0.6859  -0.6744  -0.6650  -0.6608
 -0.6543  -0.6393  -0.6338  -0.6325  -0.6239  -0.6129  -0.5939  -0.5862
 -0.5795  -0.5724  -0.5707  -0.5640  -0.5630  -0.5545  -0.5541  -0.5476
 -0.5337  -0.5283  -0.5134  -0.5089  -0.4869  -0.4721  -0.4605  -0.4561
 -0.4519  -0.4347  -0.4228  -0.4131  -0.4059  -0.3749  -0.3562  -0.3327
 -0.2981
 -- Virtual --
 -0.0121   0.0420   0.0697   0.0920   0.1209   0.1510   0.1585   0.1607
  0.1680   0.1739   0.1799   0.1822   0.1868   0.1898   0.2087   0.2105
  0.2279   0.2285   0.2302   0.2381   0.2544   0.2573   0.2606   0.2654
  0.2766   0.2951   0.3127   0.3170   0.3179   0.3208   0.3318   0.3403
  0.3463   0.3519   0.3556   0.3572   0.3598   0.3605   0.3731   0.3747
  0.3773   0.3850   0.3898   0.3949   0.4001   0.4070   0.4085   0.4116
  0.4162   0.4248   0.4296   0.4326   0.4364   0.4432   0.4470   0.4576
  0.4612   0.4677   0.4699   0.4747   0.4827   0.4868   0.4909   0.4936
  0.4992   0.5057   0.5101   0.5123   0.5159   0.5197   0.5275   0.5309
  0.5365   0.5427   0.5464   0.5495   0.5507   0.5570   0.5629   0.5687
  0.5740   0.5803   0.5827   0.5872   0.5897   0.5934   0.5966   0.6019
  0.6065   0.6131   0.6165   0.6186   0.6233   0.6254   0.6334   0.6343
  0.6362   0.6391   0.6416   0.6438   0.6501   0.6633   0.6641   0.6721
  0.6761   0.6852   0.6961   0.6991   0.7021   0.7090   0.7145   0.7178
  0.7288   0.7344   0.7428   0.7434   0.7528   0.7585   0.7641   0.7679
  0.7713   0.7834   0.7917   0.8001   0.8093   0.8125   0.8159   0.8198
  0.8320   0.8385   0.8441   0.8484   0.8506   0.8550   0.8563   0.8607
  0.8661   0.8688   0.8698   0.8753   0.8816   0.8891   0.8940   0.9059
  0.9118   0.9137   0.9253   0.9302   0.9354   0.9390   0.9398   0.9434
  0.9506   0.9604   0.9676   0.9725   0.9768   0.9830   0.9863   0.9919
  0.9945   1.0016   1.0061   1.0127   1.0165   1.0194   1.0293   1.0385
  1.0391   1.0515   1.0538   1.0573   1.0582   1.0652   1.0717   1.0727
  1.0792   1.0802   1.0861   1.0917   1.1004   1.1088   1.1093   1.1203
  1.1270   1.1310   1.1318   1.1410   1.1480   1.1524   1.1569   1.1631
  1.1686   1.1726   1.1764   1.1818   1.1877   1.1940   1.2010   1.2033
  1.2105   1.2135   1.2198   1.2271   1.2276   1.2367   1.2384   1.2456
  1.2534   1.2554   1.2602   1.2718   1.2816   1.2906   1.2971   1.3057
  1.3126   1.3244   1.3325   1.3384   1.3429   1.3501   1.3582   1.3621
  1.3711   1.3826   1.3850   1.3899   1.3908   1.4023   1.4099   1.4154
  1.4222   1.4279   1.4311   1.4461   1.4499   1.4515   1.4594   1.4761
  1.4808   1.4844   1.4888   1.4929   1.4983   1.5068   1.5167   1.5222
  1.5295   1.5317   1.5349   1.5393   1.5485   1.5591   1.5635   1.5695
  1.5737   1.5752   1.5862   1.5901   1.6068   1.6122   1.6350   1.6412
  1.6448   1.6514   1.6550   1.6596   1.6731   1.6803   1.6868   1.6970
  1.7040   1.7080   1.7137   1.7264   1.7337   1.7428   1.7464   1.7501
  1.7613   1.7730   1.7758   1.7852   1.7958   1.8013   1.8077   1.8150
  1.8234   1.8306   1.8457   1.8479   1.8552   1.8565   1.8622   1.8645
  1.8805   1.8963   1.9039   1.9098   1.9245   1.9339   1.9549   1.9573
  1.9602   1.9661   1.9732   1.9823   1.9946   2.0083   2.0332   2.0474
  2.0578   2.0618   2.0776   2.0866   2.1022   2.1166   2.1359   2.1435
  2.1508   2.1611   2.1703   2.1831   2.1883   2.2091   2.2125   2.2272
  2.2385   2.2563   2.2594   2.2822   2.2898   2.2928   2.2978   2.3100
  2.3218   2.3301   2.3378   2.3490   2.3588   2.3689   2.3761   2.3806
  2.4059   2.4316   2.4384   2.4410   2.4518   2.4551   2.4604   2.4681
  2.4826   2.4945   2.5018   2.5077   2.5159   2.5246   2.5453   2.5491
  2.5634   2.5678   2.5759   2.5906   2.5953   2.5977   2.6059   2.6145
  2.6177   2.6203   2.6307   2.6391   2.6571   2.6639   2.6673   2.6731
  2.6799   2.6882   2.6950   2.7063   2.7151   2.7246   2.7279   2.7323
  2.7436   2.7459   2.7568   2.7632   2.7662   2.7746   2.7836   2.7967
  2.8118   2.8186   2.8324   2.8369   2.8470   2.8553   2.8627   2.8658
  2.8737   2.8802   2.8916   2.8944   2.8954   2.9045   2.9119   2.9135
  2.9178   2.9313   2.9340   2.9466   2.9543   2.9610   2.9700   2.9751
  2.9799   2.9881   2.9914   2.9957   3.0074   3.0090   3.0103   3.0204
  3.0288   3.0368   3.0439   3.0579   3.0606   3.0697   3.0808   3.0887
  3.0920   3.0963   3.1021   3.1052   3.1086   3.1143   3.1199   3.1235
  3.1309   3.1367   3.1417   3.1565   3.1615   3.1709   3.1807   3.1817
  3.1904   3.1955   3.2037   3.2075   3.2103   3.2156   3.2181   3.2292
  3.2315   3.2352   3.2392   3.2493   3.2530   3.2575   3.2587   3.2613
  3.2731   3.2778   3.2828   3.2841   3.2874   3.2930   3.3009   3.3033
  3.3105   3.3148   3.3171   3.3287   3.3313   3.3338   3.3381   3.3424
  3.3442   3.3471   3.3478   3.3568   3.3633   3.3662   3.3694   3.3751
  3.3859   3.3896   3.3916   3.3935   3.4036   3.4104   3.4146   3.4165
  3.4229   3.4299   3.4347   3.4463   3.4479   3.4537   3.4585   3.4597
  3.4632   3.4684   3.4777   3.4811   3.4857   3.4894   3.4922   3.4970
  3.5004   3.5088   3.5124   3.5150   3.5191   3.5269   3.5295   3.5371
  3.5432   3.5535   3.5580   3.5649   3.5745   3.5763   3.5853   3.5891
  3.6034   3.6084   3.6099   3.6185   3.6212   3.6304   3.6330   3.6381
  3.6398   3.6454   3.6519   3.6590   3.6677   3.6735   3.6783   3.6901
  3.6938   3.7018   3.7091   3.7121   3.7150   3.7211   3.7302   3.7334
  3.7345   3.7400   3.7430   3.7474   3.7591   3.7625   3.7685   3.7756
  3.7861   3.7877   3.7910   3.8000   3.8012   3.8079   3.8120   3.8219
  3.8243   3.8280   3.8339   3.8449   3.8543   3.8553   3.8622   3.8694
  3.8755   3.8863   3.8875   3.8990   3.9032   3.9128   3.9234   3.9325
  3.9384   3.9422   3.9423   3.9574   3.9612   3.9706   3.9767   3.9876
  4.0019   4.0052   4.0148   4.0204   4.0251   4.0369   4.0411   4.0590
  4.0600   4.0631   4.0775   4.0828   4.0913   4.0998   4.1058   4.1141
  4.1274   4.1389   4.1466   4.1562   4.1598   4.1662   4.1687   4.1782
  4.1809   4.1928   4.2060   4.2148   4.2161   4.2358   4.2451   4.2538
  4.2625   4.2645   4.2759   4.2781   4.2860   4.2931   4.2956   4.3045
  4.3080   4.3123   4.3194   4.3293   4.3362   4.3375   4.3438   4.3508
  4.3554   4.3641   4.3673   4.3712   4.3734   4.3794   4.3857   4.3938
  4.4016   4.4059   4.4096   4.4152   4.4211   4.4304   4.4551   4.4661
  4.4712   4.4739   4.4782   4.4991   4.5032   4.5158   4.5225   4.5262
  4.5306   4.5425   4.5495   4.5549   4.5594   4.5751   4.5793   4.5840
  4.5847   4.5918   4.6016   4.6098   4.6193   4.6227   4.6293   4.6377
  4.6512   4.6607   4.6697   4.6775   4.6823   4.6897   4.6936   4.7069
  4.7273   4.7363   4.7415   4.7503   4.7651   4.7873   4.7931   4.7952
  4.8117   4.8218   4.8407   4.8447   4.8587   4.8689   4.8738   4.8793
  4.8907   4.8949   4.9240   4.9355   4.9544   4.9614   4.9715   4.9787
  4.9992   5.0157   5.0319   5.0410   5.0523   5.0566   5.0646   5.0849
  5.0950   5.1014   5.1111   5.1239   5.1269   5.1399   5.1495   5.1586
  5.1665   5.1743   5.1808   5.1936   5.2107   5.2422   5.2451   5.2593
  5.2629   5.2771   5.2853   5.2977   5.3191   5.3260   5.3345   5.3432
  5.3534   5.3980   5.4069   5.4110   5.4222   5.4357   5.4432   5.4619
  5.4795   5.5082   5.5094   5.5140   5.5164   5.5327   5.5476   5.5582
  5.5602   5.5626   5.5709   5.5772   5.5812   5.5967   5.6115   5.6188
  5.6294   5.6343   5.6528   5.6535   5.6593   5.6712   5.6771   5.6877
  5.7002   5.7122   5.7269   5.7351   5.7471   5.7598   5.7632   5.7749
  5.7802   5.7873   5.8140   5.8257   5.8484   5.8709   5.9014   5.9368
  5.9492   5.9660   5.9832   6.0050   6.0242   6.0266   6.0395   6.0597
  6.0767   6.0885   6.1027   6.1221   6.1282   6.1621   6.1925   6.2097
  6.2182   6.2207   6.2256   6.2575   6.2709   6.2798   6.3060   6.3457
  6.3526   6.3771   6.3870   6.4497   6.4689   6.5305   6.5538   6.5629
  6.5717   6.5907   6.6107   6.6490   6.6584   6.6618   6.7098   6.8337
  6.8404   6.8839   6.8869   6.9020   6.9120   6.9322   7.0307   7.0812
  7.1184   7.1440   7.1870   7.2012   7.2311   7.3333   7.3444   7.3459
  7.3647   7.4692   7.5475   7.5595   7.5768   7.5823   7.6193   7.6357
  7.6809   7.6877   7.7262   8.4297  10.0075  10.3274  11.0852  11.2119
 11.7151  11.8142  12.1547  12.3944  12.4778  12.6731  12.8552  13.0528
 13.3074  13.5708  13.8211  13.9503  14.1129  14.1556  14.2238  14.3611
 14.4196  14.7430  15.3257  15.7440  16.0324
 --------------------------------------------------------------
 
          Ground-State Mulliken Net Atomic Charges

     Atom                 Charge (a.u.)
  ----------------------------------------
      1 C                    -0.162454
      2 C                    -0.109084
      3 C                    -0.019746
      4 C                    -0.006352
      5 H                     0.186621
      6 C                    -0.025108
      7 C                     0.073401
      8 C                     0.028587
      9 C                    -0.104361
     10 C                    -0.163190
     11 C                     0.099421
     12 H                     0.173049
     13 C                     0.358183
     14 C                     0.363110
     15 N                    -0.101221
     16 C                     0.354347
     17 C                     0.380741
     18 N                    -0.093053
     19 O                    -0.464481
     20 O                    -0.480581
     21 O                    -0.487646
     22 O                    -0.484930
     23 C                    -0.201580
     24 H                     0.141154
     25 H                     0.111660
     26 H                     0.112015
     27 C                    -0.197799
     28 H                     0.133612
     29 H                     0.112072
     30 H                     0.111835
     31 H                     0.210130
     32 C                    -0.122207
     33 S                     0.108333
     34 C                    -0.134952
     35 C                    -0.060137
     36 C                    -0.242651
     37 H                     0.193866
     38 H                     0.192866
     39 H                     0.216529
  ----------------------------------------
  Sum of atomic charges =     0.000000

 -----------------------------------------------------------------
                    Cartesian Multipole Moments
 -----------------------------------------------------------------
    Charge (ESU x 10^10)
                 0.0000
    Dipole Moment (Debye)
         X       3.1585      Y       2.8293      Z      -0.9871
       Tot       4.3538
    Quadrupole Moments (Debye-Ang)
        XX    -156.9316     XY       5.3256     YY    -184.1016
        XZ       8.4807     YZ       1.7237     ZZ    -175.3978
    Octopole Moments (Debye-Ang^2)
       XXX     -78.2453    XXY     520.5191    XYY     -26.1031
       YYY    1699.7890    XXZ     -26.2807    XYZ     -24.4176
       YYZ     -33.2379    XZZ     -21.4414    YZZ     577.1907
       ZZZ    -108.7025
    Hexadecapole Moments (Debye-Ang^3)
      XXXX   -1187.3584   XXXY      44.2535   XXYY   -2855.7396
      XYYY     153.7965   YYYY  -17323.4003   XXXZ     908.8564
      XXYZ     -63.4462   XYYZ     503.9160   YYYZ    -709.2669
      XXZZ   -1135.3175   XYZZ     -93.4757   YYZZ   -4069.9368
      XZZZ     976.3810   YZZZ     -37.6093   ZZZZ   -5745.0257
 -----------------------------------------------------------------
 Total job time:  286.18s(wall), 8207.81s(cpu) 
 Wed Sep 20 09:47:31 2023

        *************************************************************
        *                                                           *
        *  Thank you very much for using Q-Chem.  Have a nice day.  *
        *                                                           *
        *************************************************************


0 sent ACK to 0 
now end server 0 ... 
cleanup process ... done
remove work dirs ./qchem29756.0 -- ./qchem29756.0
rm -rf ./qchem29756.0
rm -rf ./qchem29756
