You are running Q-Chem version: 5.4.0

#
# job setting
#
local host:  exp-2-22
current dir: /expanse/lustre/projects/csd626/rramji/aromodel/PNDIT/Rotation_Test
input file:  Dimethyl_Naphthalene_Dicarboximide_Phi_25_Theta_260_Thiophene.qcin
output file: 
nprocs     : 1
nthreads   : 64
#
# qchem installation setting
#
QC:          /cm/shared/apps/spack/cpu/opt/spack/linux-centos8-zen2/gcc-10.2.0/qchem-5.4-akfmr7b3t57bfs6qan3padb2wnb2i7cl
QCAUX:       /cm/shared/apps/spack/cpu/opt/spack/linux-centos8-zen2/gcc-10.2.0/qchem-5.4-akfmr7b3t57bfs6qan3padb2wnb2i7cl/qcaux
QCPROG:      /cm/shared/apps/spack/cpu/opt/spack/linux-centos8-zen2/gcc-10.2.0/qchem-5.4-akfmr7b3t57bfs6qan3padb2wnb2i7cl/exe/qcprog.exe
QCPROG_S:    /cm/shared/apps/spack/cpu/opt/spack/linux-centos8-zen2/gcc-10.2.0/qchem-5.4-akfmr7b3t57bfs6qan3padb2wnb2i7cl/exe/qcprog.exe_s
PARALLEL:    -DPARALLEL
QCMPI:       mpich
#
# qchem directory setting
#
qcrun:       qchem2407075
QCSCRATCH:   .
QCLOCALSCR:  
QCTMPDIR:    .
QCFILEPREF:  ./qchem2407075
QCSAVEDIR:   
workdirs:    ./qchem2407075
workdir0:    ./qchem2407075
partmpdirs =  
#
# parallel setting
#
QCRSH:           ssh
QCMPI:           mpich
QCMPIRUN:        /cm/shared/apps/spack/cpu/opt/spack/linux-centos8-zen2/gcc-10.2.0/qchem-5.4-akfmr7b3t57bfs6qan3padb2wnb2i7cl/bin/mpi/mpirun_qchem
QCMACHINEFILE:   ./qchem2407075/hostfile
exp-2-22

#
# env setting
#
exported envs:   QC QCAUX QCSCRATCH QCRUNNAME QCFILEPREF QCPROG QCPROG_S GUIFILE

Running Job 1 of 1 Dimethyl_Naphthalene_Dicarboximide_Phi_25_Theta_260_Thiophene.qcin
qchem Dimethyl_Naphthalene_Dicarboximide_Phi_25_Theta_260_Thiophene.qcin_2407075.0 ./qchem2407075/ 1
/cm/shared/apps/spack/cpu/opt/spack/linux-centos8-zen2/gcc-10.2.0/qchem-5.4-akfmr7b3t57bfs6qan3padb2wnb2i7cl/bin/mpi/mpirun_qchem -machinefile ./qchem2407075/hostfile -np 1 /cm/shared/apps/spack/cpu/opt/spack/linux-centos8-zen2/gcc-10.2.0/qchem-5.4-akfmr7b3t57bfs6qan3padb2wnb2i7cl/exe/qcprog.exe Dimethyl_Naphthalene_Dicarboximide_Phi_25_Theta_260_Thiophene.qcin_2407075.0 ./qchem2407075/

Process 0 of 1 is on exp-2-22 - thread support 0
initial socket setup ...start
initial socket setup ...done 
now start server 0 ... 
                  Welcome to Q-Chem
     A Quantum Leap Into The Future Of Chemistry


 Q-Chem 5.4, Q-Chem, Inc., Pleasanton, CA (2021)

 License issued to: University of California, San Diego (site)

 E. Epifanovsky,  A. T. B. Gilbert,  Xintian Feng,  Joonho Lee,  Yuezhi Mao,  
 N. Mardirossian,  P. Pokhilko,  A. White,  M. Wormit,  M. P. Coons,  
 A. L. Dempwolff,  Zhengting Gan,  D. Hait,  P. R. Horn,  L. D. Jacobson,  
 I. Kaliman,  J. Kussmann,  A. W. Lange,  Ka Un Lao,  D. S. Levine,  Jie Liu,  
 S. C. McKenzie,  A. F. Morrison,  K. Nanda,  F. Plasser,  D. R. Rehn,  
 M. L. Vidal,  Zhi-Qiang You,  Ying Zhu,  B. Alam,  B. Albrecht,  
 A. Aldossary,  E. Alguire,  J. H. Andersen,  D. Barton,  K. Begam,  A. Behn,  
 Y. A. Bernard,  E. J. Berquist,  H. Burton,  A. Carreras,  K. Carter-Fenk,  
 R. Chakraborty,  A. D. Chien,  K. D. Closser,  V. Cofer-Shabica,  
 S. Dasgupta,  Jia Deng,  M. de Wergifosse,  M. Diedenhofen,  Hainam Do,  
 S. Ehlert,  Po-Tung Fang,  S. Fatehi,  Qingguo Feng,  J. Gayvert,  
 Qinghui Ge,  G. Gidofalvi,  M. Goldey,  J. Gomes,  C. Gonzalez-Espinoza,  
 S. Gulania,  A. Gunina,  M. W. D. Hanson-Heine,  P. H. P. Harbach,  
 A. W. Hauser,  M. F. Herbst,  M. Hernandez Vera,  M. Hodecker,  
 Z. C. Holden,  S. Houck,  Xunkun Huang,  Kerwin Hui,  B. C. Huynh,  
 M. Ivanov,  Hyunjun Ji,  Hanjie Jiang,  B. Kaduk,  S. Kaehler,  
 K. Khistyaev,  Jaehoon Kim,  P. Klunzinger,  Z. Koczor-Benda,  
 Joong Hoon Koh,  D. Kosenkov,  L. Koulias,  T. Kowalczyk,  C. M. Krauter,  
 K. Kue,  A. Kunitsa,  T. Kus,  A. Landau,  K. V. Lawler,  D. Lefrancois,  
 S. Lehtola,  Rain Li,  Yi-Pei Li,  Jiashu Liang,  M. Liebenthal,  
 Hung-Hsuan Lin,  You-Sheng Lin,  Fenglai Liu,  Kuan-Yu Liu,  
 M. Loipersberger,  A. Luenser,  A. Manjanath,  P. Manohar,  E. Mansoor,  
 S. F. Manzer,  Shan-Ping Mao,  A. V. Marenich,  T. Markovich,  S. Mason,  
 S. A. Maurer,  P. F. McLaughlin,  M. F. S. J. Menger,  J.-M. Mewes,  
 S. A. Mewes,  P. Morgante,  J. W. Mullinax,  T. S. Nguyen-Beck,  
 K. J. Oosterbaan,  G. Paran,  Alexander C. Paul,  Suranjan K. Paul,  
 F. Pavosevic,  Zheng Pei,  S. Prager,  E. I. Proynov,  E. Ramos,  B. Rana,  
 A. E. Rask,  A. Rettig,  R. M. Richard,  F. Rob,  E. Rossomme,  T. Scheele,  
 M. Scheurer,  M. Schneider,  N. Sergueev,  S. M. Sharada,  W. Skomorowski,  
 D. W. Small,  C. J. Stein,  Yu-Chuan Su,  E. J. Sundstrom,  Zhen Tao,  
 J. Thirman,  T. Tsuchimochi,  N. M. Tubman,  S. P. Veccham,  O. Vydrov,  
 J. Wenzel,  J. Witte,  A. Yamada,  Kun Yao,  S. Yeganeh,  S. R. Yost,  
 A. Zech,  Igor Ying Zhang,  Xing Zhang,  Yu Zhang,  D. Zuev,  
 A. Aspuru-Guzik,  A. T. Bell,  N. A. Besley,  K. B. Bravaya,  B. R. Brooks,  
 D. Casanova,  Jeng-Da Chai,  S. Coriani,  C. J. Cramer,  
 A. E. DePrince, III,  R. A. DiStasio Jr.,  A. Dreuw,  B. D. Dunietz,  
 T. R. Furlani,  W. A. Goddard III,  S. Grimme,  S. Hammes-Schiffer,  
 T. Head-Gordon,  W. J. Hehre,  Chao-Ping Hsu,  T.-C. Jagau,  Yousung Jung,  
 A. Klamt,  Jing Kong,  D. S. Lambrecht,  WanZhen Liang,  N. J. Mayhall,  
 C. W. McCurdy,  J. B. Neaton,  C. Ochsenfeld,  J. A. Parkhill,  R. Peverati,  
 V. A. Rassolov,  Yihan Shao,  L. V. Slipchenko,  T. Stauch,  R. P. Steele,  
 J. E. Subotnik,  A. J. W. Thom,  A. Tkatchenko,  D. G. Truhlar,  
 T. Van Voorhis,  T. A. Wesolowski,  K. B. Whaley,  H. L. Woodcock III,  
 P. M. Zimmerman,  S. Faraji,  P. M. W. Gill,  M. Head-Gordon,  
 J. M. Herbert,  A. I. Krylov

 Contributors to earlier versions of Q-Chem not listed above: 
 R. D. Adamson,  B. Austin,  R. Baer,  J. Baker,  G. J. O. Beran,  
 K. Brandhorst,  S. T. Brown,  E. F. C. Byrd,  A. K. Chakraborty,  
 G. K. L. Chan,  Chun-Min Chang,  Yunqing Chen,  C.-L. Cheng,  
 Siu Hung Chien,  D. M. Chipman,  D. L. Crittenden,  H. Dachsel,  
 R. J. Doerksen,  A. D. Dutoi,  R. G. Edgar,  J. Fosso-Tande,  
 L. Fusti-Molnar,  D. Ghosh,  A. Ghysels,  A. Golubeva-Zadorozhnaya,  
 J. Gonthier,  M. S. Gordon,  S. R. Gwaltney,  G. Hawkins,  J. E. Herr,  
 A. Heyden,  S. Hirata,  E. G. Hohenstein,  G. Kedziora,  F. J. Keil,  
 C. Kelley,  Jihan Kim,  R. A. King,  R. Z. Khaliullin,  P. P. Korambath,  
 W. Kurlancheek,  A. Laurent,  A. M. Lee,  M. S. Lee,  S. V. Levchenko,  
 Ching Yeh Lin,  D. Liotard,  E. Livshits,  R. C. Lochan,  I. Lotan,  
 L. A. Martinez-Martinez,  P. E. Maslen,  N. Nair,  D. P. O'Neill,  
 D. Neuhauser,  E. Neuscamman,  C. M. Oana,  R. Olivares-Amaya,  R. Olson,  
 T. M. Perrine,  B. Peters,  P. A. Pieniazek,  A. Prociuk,  Y. M. Rhee,  
 J. Ritchie,  M. A. Rohrdanz,  E. Rosta,  N. J. Russ,  H. F. Schaefer III,  
 M. W. Schmidt,  N. E. Schultz,  S. Sharma,  N. Shenvi,  C. D. Sherrill,  
 A. C. Simmonett,  A. Sodt,  T. Stein,  D. Stuck,  K. S. Thanthiriwatte,  
 V. Vanovschi,  L. Vogt,  Tao Wang,  A. Warshel,  M. A. Watson,  
 C. F. Williams,  Q. Wu,  X. Xu,  Jun Yang,  W. Zhang,  Yan Zhao

 Please cite Q-Chem as follows:
 Y. Shao et al., Mol. Phys. 113, 184-215 (2015)
 DOI: 10.1080/00268976.2014.952696

 Q-Chem 5.4.0 for Intel X86 EM64T Linux

 Parts of Q-Chem use Armadillo 9.800.1 (Horizon Scraper).
 http://arma.sourceforge.net/

 Q-Chem begins on Sun Sep 24 17:00:40 2023  

 Host: 
0

     Scratch files written to ./qchem2407075//
 May1621 |scratch|qcdevops|jenkins|workspace|build_RNUM    
 Parallel job on  1  processors
 Processing $rem in /cm/shared/apps/spack/cpu/opt/spack/linux-centos8-zen2/gcc-10.2.0/qchem-5.4-akfmr7b3t57bfs6qan3padb2wnb2i7cl/config/preferences:
 Processing $rem in /home/rramji/.qchemrc:
 Symmetry turned off for PCM/SM12/SMD calculation
 Core orbitals will be frozen

 Checking the input file for inconsistencies... 	...done.

 Q-Chem warning in module forms1/BasisType.C, line 2236:

 You are not using the predefined 5D/6D in this basis set.


--------------------------------------------------------------
User input:
--------------------------------------------------------------
$molecule
0 1
C	-0.252767	-6.741404	0.046070
C	-1.538656	-6.155638	0.272935
C	0.814966	-5.791452	-0.141739
C	-1.813042	-4.803786	0.321083
H	-2.403318	-6.821518	0.425592
C	0.527566	-4.378638	-0.091779
C	-0.782769	-3.838032	0.138909
C	1.556632	-3.413062	-0.273808
C	-1.067868	-2.426473	0.188483
C	1.285436	-2.059348	-0.226610
C	-0.000000	-1.478216	-0.000000
H	2.151019	-1.394783	-0.379657
C	2.235891	-6.187987	-0.390420
C	2.965540	-3.798164	-0.522125
N	3.205600	-5.170003	-0.562731
C	-3.225760	-4.424987	0.570244
C	-2.489646	-2.036627	0.438407
N	-3.459662	-3.049156	0.610438
O	2.621768	-7.353131	-0.455563
O	3.874608	-2.986854	-0.683373
O	-4.124059	-5.248946	0.729367
O	-2.896516	-0.878829	0.508697
C	4.596910	-5.563799	-0.806996
H	4.641640	-6.664085	-0.813717
H	5.246567	-5.147101	-0.013655
H	4.936739	-5.148785	-1.775159
C	-4.829729	-2.587487	0.851572
H	-5.462387	-3.483329	0.964204
H	-5.173914	-1.964972	0.003956
H	-4.863360	-1.962932	1.764390
H	-0.069584	-7.822318	0.014094
C	0.000000	0.000000	0.000000
S	0.335026	0.718942	1.580530
C	1.027130	2.203226	0.904911
C	0.421617	0.904557	-0.985400
C	0.979485	2.101144	-0.493528
H	0.322049	0.690978	-2.059934
H	1.351718	2.899571	-1.152593
H	1.399246	3.001430	1.556025
$end

$rem
JOBTYPE		SP
EXCHANGE	HF
CORRELATION	pRIMP2
BASIS		cc-pvtz
METHOD		rimp2
AUX_BASIS	rimp2-cc-pvtz
SOLVENT_METHOD	PCM
PURECART	11111
SYMMETRY	false
MEM_TOTAL	110000
SCF_CONVERGENCE = 6
THRESH=10
GUI = 2
$end



$solvent
dielectric 4.90
$end
--------------------------------------------------------------
 ----------------------------------------------------------------
             Standard Nuclear Orientation (Angstroms)
    I     Atom           X                Y                Z
 ----------------------------------------------------------------
    1      C      -0.2527670000    -6.7414040000     0.0460700000
    2      C      -1.5386560000    -6.1556380000     0.2729350000
    3      C       0.8149660000    -5.7914520000    -0.1417390000
    4      C      -1.8130420000    -4.8037860000     0.3210830000
    5      H      -2.4033180000    -6.8215180000     0.4255920000
    6      C       0.5275660000    -4.3786380000    -0.0917790000
    7      C      -0.7827690000    -3.8380320000     0.1389090000
    8      C       1.5566320000    -3.4130620000    -0.2738080000
    9      C      -1.0678680000    -2.4264730000     0.1884830000
   10      C       1.2854360000    -2.0593480000    -0.2266100000
   11      C       0.0000000000    -1.4782160000     0.0000000000
   12      H       2.1510190000    -1.3947830000    -0.3796570000
   13      C       2.2358910000    -6.1879870000    -0.3904200000
   14      C       2.9655400000    -3.7981640000    -0.5221250000
   15      N       3.2056000000    -5.1700030000    -0.5627310000
   16      C      -3.2257600000    -4.4249870000     0.5702440000
   17      C      -2.4896460000    -2.0366270000     0.4384070000
   18      N      -3.4596620000    -3.0491560000     0.6104380000
   19      O       2.6217680000    -7.3531310000    -0.4555630000
   20      O       3.8746080000    -2.9868540000    -0.6833730000
   21      O      -4.1240590000    -5.2489460000     0.7293670000
   22      O      -2.8965160000    -0.8788290000     0.5086970000
   23      C       4.5969100000    -5.5637990000    -0.8069960000
   24      H       4.6416400000    -6.6640850000    -0.8137170000
   25      H       5.2465670000    -5.1471010000    -0.0136550000
   26      H       4.9367390000    -5.1487850000    -1.7751590000
   27      C      -4.8297290000    -2.5874870000     0.8515720000
   28      H      -5.4623870000    -3.4833290000     0.9642040000
   29      H      -5.1739140000    -1.9649720000     0.0039560000
   30      H      -4.8633600000    -1.9629320000     1.7643900000
   31      H      -0.0695840000    -7.8223180000     0.0140940000
   32      C       0.0000000000     0.0000000000     0.0000000000
   33      S       0.3350260000     0.7189420000     1.5805300000
   34      C       1.0271300000     2.2032260000     0.9049110000
   35      C       0.4216170000     0.9045570000    -0.9854000000
   36      C       0.9794850000     2.1011440000    -0.4935280000
   37      H       0.3220490000     0.6909780000    -2.0599340000
   38      H       1.3517180000     2.8995710000    -1.1525930000
   39      H       1.3992460000     3.0014300000     1.5560250000
 ----------------------------------------------------------------
 Nuclear Repulsion Energy =        2494.45345419 hartrees
 There are       97 alpha and       97 beta electrons
 Requested basis set is cc-pVTZ
 There are 344 shells and 982 basis functions

 Total QAlloc Memory Limit 110000 MB
 Mega-Array Size       188 MB
 MEM_STATIC part       192 MB
 Discretize the solute cavity surface with Lebedev spheres
	Using 110 Lebedev grid points for each H atom
	Using 194 Lebedev grid points for other atoms
	Atomic van der Waals radii will be scaled by 1.20
 Remove points where switching function is < 1.0e-08
 Keep 2595 surface tesserae and discard 3963 interior tesserae
 Molecular Surface Area = 370.261 Angst**2
 Requested basis set is rimp2-cc-pVTZ
 There are 750 shells and 2588 basis functions
 A cutoff of  1.0D-10 yielded  31517 shell pairs
 There are    242315 function pairs (    314775 Cartesian)
 Smallest overlap matrix eigenvalue = 9.20E-06

 Q-Chem warning in module stvman/mkSTV.C, line 323:

 Overlap eigenvalue is smaller than square root of threshold
 Use THRESH >= 12 to get rid of this warning


 Scale SEOQF with 1.000000e-02/1.000000e-02/1.000000e-01

 Standard Electronic Orientation quadrupole field applied
 Nucleus-field energy     =     0.0000000162 hartrees
 Guess from superposition of atomic densities
 Warning:  Energy on first SCF cycle will be non-variational
 SAD guess density has 194.000000 electrons

 -----------------------------------------------------------------------
  General SCF calculation program by
  Eric Jon Sundstrom, Paul Horn, Yuezhi Mao, Dmitri Zuev, Alec White,
  David Stuck, Shaama M.S., Shane Yost, Joonho Lee, David Small,
  Daniel Levine, Susi Lehtola, Hugh Burton, Evgeny Epifanovsky,
  Bang C. Huynh
 -----------------------------------------------------------------------
 Hartree-Fock
 using 64 threads for integral computing
 -------------------------------------------------------
 OpenMP Integral computing Module                
 Release: version 1.0, May 2013, Q-Chem Inc. Pittsburgh 
 -------------------------------------------------------
 A restricted SCF calculation will be
 performed using DIIS
 SCF converges when DIIS error is below 1.0e-06
 ---------------------------------------
  Cycle       Energy         DIIS error
 ---------------------------------------
    1   -1581.2877283649      1.87e-02  
    2   -1570.1117817327      2.09e-03  
    3   -1570.4382076419      1.63e-03  
    4   -1570.6693123996      2.56e-04  
    5   -1570.6812928436      7.52e-05  
    6   -1570.6823315713      2.79e-05  
    7   -1570.6825648272      1.43e-05  
    8   -1570.6826394413      5.96e-06  
    9   -1570.6826512308      2.30e-06  
   10   -1570.6826532434      7.44e-07  Convergence criterion met
 ---------------------------------------
 SCF time:   CPU 6032.75s  wall 232.00s 

************** Final PCM Free Energy Summary **************
 G_electrostatic  =      -0.02537859 hartree =     -15.92530280 kcal/mol
 G_cavitation     =       0.00000000 hartree =       0.00000000 kcal/mol
 G_dispersion     =       0.00000000 hartree =       0.00000000 kcal/mol
 G_repulsion      =       0.00000000 hartree =       0.00000000 kcal/mol
 --------------------------------------------------
 Non-electrostatic Free Energy =       0.00000000 hartree =       0.00000000 kcal/mol
 Total                         =      -0.02537859 hartree =     -15.92530280 kcal/mol
 --------------------------------------------------
 SCF Energy (H0 + V/2)                       =   -1570.68265324 
 Solute Internal Energy (H0)                 =   -1570.65727466 
 Total Free Energy (H0 + V/2 + non-elec)     =   -1570.68265324 hartree
                                             = -985618.24084565 kcal/mol
***********************************************************

 SCF   energy in the final basis set =    -1570.6826532434
 Total energy in the final basis set =    -1570.6826532434


 --------------------------------------------------------------
  Generalized many-body perturbation theory program
  by Joonho Lee, Fazle Rob, Xintian Feng, Evgeny Epifanovsky

 No regularization used 
 (reg. param. = 0.0000e+00)
  (P|Q)^-1/2 Time:  CPU 2162.92 s  wall 35.34 s

 In RI-MP2 calculation: 
 # of frozen core orbitals: 31

 Components of the RIMP2 correlation energy:
        aaaa    correlation energy =        -0.6163325572 a.u.
        abab    correlation energy =        -3.3928859690 a.u.
        bbbb    correlation energy =        -0.6163325572 a.u.
        non-Brillouin singles      =        -0.0000000000 a.u.
        total same-spin energy     =        -1.2326651143 a.u.
        total opposite-spin energy =        -3.3928859690 a.u.

 Total  RIMP2   correlation energy =        -4.6255510833 a.u.
        RIMP2         total energy =     -1575.3082043267 a.u.

 RI-MP2 Energy Time:  CPU 3893.40 s  wall 63.43 s
 
 --------------------------------------------------------------
 
                    Orbital Energies (a.u.)
 --------------------------------------------------------------
 
 Alpha MOs
 -- Occupied --
-91.9926 -20.5587 -20.5576 -20.5563 -20.5556 -15.6314 -15.6313 -11.4004
-11.3975 -11.3931 -11.3908 -11.3162 -11.3063 -11.3030 -11.3008 -11.2993
-11.2988 -11.2918 -11.2869 -11.2860 -11.2837 -11.2806 -11.2789 -11.2647
-11.2647 -11.2573 -11.2513  -8.9919  -6.6727  -6.6721  -6.6716  -1.4251
 -1.4246  -1.4043  -1.4037  -1.2679  -1.2656  -1.2182  -1.1773  -1.1441
 -1.1180  -1.0634  -1.0504  -0.9933  -0.9905  -0.9847  -0.9594  -0.9482
 -0.8977  -0.8797  -0.8780  -0.8607  -0.7957  -0.7775  -0.7735  -0.7613
 -0.7363  -0.7192  -0.7058  -0.6950  -0.6818  -0.6740  -0.6667  -0.6625
 -0.6573  -0.6424  -0.6381  -0.6344  -0.6302  -0.6130  -0.5853  -0.5848
 -0.5781  -0.5739  -0.5670  -0.5644  -0.5630  -0.5554  -0.5533  -0.5486
 -0.5343  -0.5268  -0.5216  -0.5134  -0.4838  -0.4721  -0.4673  -0.4611
 -0.4599  -0.4539  -0.4285  -0.4184  -0.4089  -0.3615  -0.3455  -0.3349
 -0.3232
 -- Virtual --
 -0.0190   0.0646   0.0723   0.0880   0.1138   0.1542   0.1580   0.1590
  0.1652   0.1672   0.1766   0.1834   0.1865   0.1921   0.2026   0.2067
  0.2098   0.2232   0.2277   0.2292   0.2313   0.2382   0.2592   0.2611
  0.2639   0.3022   0.3090   0.3141   0.3151   0.3199   0.3245   0.3333
  0.3401   0.3436   0.3504   0.3575   0.3592   0.3613   0.3705   0.3738
  0.3767   0.3814   0.3875   0.3926   0.3972   0.4029   0.4061   0.4103
  0.4111   0.4241   0.4312   0.4356   0.4422   0.4450   0.4515   0.4544
  0.4588   0.4625   0.4639   0.4676   0.4710   0.4765   0.4801   0.4900
  0.4950   0.4963   0.5017   0.5097   0.5133   0.5220   0.5233   0.5302
  0.5340   0.5426   0.5466   0.5515   0.5524   0.5563   0.5621   0.5645
  0.5670   0.5723   0.5783   0.5833   0.5890   0.5927   0.5954   0.5977
  0.6013   0.6042   0.6104   0.6155   0.6182   0.6236   0.6277   0.6319
  0.6330   0.6344   0.6362   0.6391   0.6435   0.6470   0.6569   0.6619
  0.6671   0.6701   0.6861   0.6929   0.6979   0.7028   0.7102   0.7160
  0.7270   0.7307   0.7368   0.7421   0.7515   0.7567   0.7588   0.7656
  0.7682   0.7725   0.7797   0.7865   0.7934   0.7947   0.8040   0.8117
  0.8145   0.8211   0.8308   0.8367   0.8392   0.8460   0.8492   0.8588
  0.8627   0.8649   0.8652   0.8720   0.8828   0.8868   0.8938   0.8999
  0.9052   0.9146   0.9196   0.9262   0.9317   0.9331   0.9346   0.9477
  0.9484   0.9513   0.9583   0.9644   0.9722   0.9766   0.9811   0.9835
  0.9861   0.9985   1.0004   1.0058   1.0086   1.0150   1.0176   1.0242
  1.0329   1.0376   1.0425   1.0496   1.0586   1.0655   1.0665   1.0730
  1.0775   1.0828   1.0835   1.0888   1.0945   1.1001   1.1040   1.1095
  1.1181   1.1231   1.1328   1.1394   1.1434   1.1472   1.1507   1.1548
  1.1563   1.1690   1.1707   1.1774   1.1799   1.1856   1.1881   1.1970
  1.2015   1.2101   1.2125   1.2210   1.2233   1.2290   1.2342   1.2388
  1.2431   1.2474   1.2492   1.2612   1.2713   1.2768   1.2844   1.2992
  1.3132   1.3244   1.3276   1.3327   1.3420   1.3425   1.3457   1.3566
  1.3673   1.3743   1.3820   1.3861   1.3876   1.3962   1.4109   1.4141
  1.4203   1.4265   1.4320   1.4405   1.4452   1.4497   1.4591   1.4732
  1.4833   1.4871   1.4903   1.4931   1.4993   1.5049   1.5116   1.5196
  1.5215   1.5313   1.5347   1.5426   1.5442   1.5543   1.5590   1.5630
  1.5646   1.5694   1.5758   1.5864   1.5994   1.6111   1.6179   1.6272
  1.6281   1.6416   1.6484   1.6584   1.6696   1.6700   1.6797   1.6843
  1.6931   1.7007   1.7086   1.7143   1.7269   1.7322   1.7390   1.7453
  1.7513   1.7553   1.7699   1.7786   1.7852   1.7991   1.8051   1.8072
  1.8117   1.8267   1.8347   1.8382   1.8539   1.8572   1.8587   1.8640
  1.8659   1.8773   1.9039   1.9093   1.9171   1.9270   1.9337   1.9425
  1.9557   1.9622   1.9713   1.9776   1.9871   2.0053   2.0113   2.0292
  2.0349   2.0495   2.0576   2.0802   2.0828   2.1157   2.1209   2.1345
  2.1442   2.1519   2.1567   2.1691   2.1905   2.1923   2.2038   2.2108
  2.2208   2.2336   2.2501   2.2576   2.2822   2.2876   2.2897   2.2948
  2.3131   2.3191   2.3255   2.3333   2.3496   2.3583   2.3647   2.3870
  2.3999   2.4258   2.4297   2.4359   2.4513   2.4562   2.4563   2.4651
  2.4797   2.4849   2.4867   2.4984   2.5033   2.5169   2.5235   2.5405
  2.5529   2.5633   2.5771   2.5831   2.5845   2.5922   2.5993   2.6040
  2.6146   2.6172   2.6253   2.6455   2.6520   2.6596   2.6648   2.6669
  2.6714   2.6822   2.6945   2.6954   2.7071   2.7103   2.7141   2.7197
  2.7318   2.7441   2.7491   2.7519   2.7572   2.7663   2.7768   2.7894
  2.8031   2.8144   2.8246   2.8313   2.8336   2.8376   2.8493   2.8592
  2.8646   2.8721   2.8747   2.8776   2.8838   2.8946   2.8957   2.9030
  2.9115   2.9212   2.9276   2.9317   2.9438   2.9508   2.9529   2.9677
  2.9737   2.9855   2.9867   2.9954   2.9998   3.0042   3.0074   3.0166
  3.0214   3.0276   3.0339   3.0406   3.0502   3.0608   3.0617   3.0748
  3.0817   3.0897   3.0916   3.1005   3.1088   3.1143   3.1166   3.1207
  3.1270   3.1307   3.1422   3.1479   3.1619   3.1680   3.1709   3.1774
  3.1890   3.1970   3.1996   3.2013   3.2086   3.2135   3.2158   3.2222
  3.2266   3.2285   3.2354   3.2394   3.2449   3.2511   3.2542   3.2629
  3.2635   3.2691   3.2777   3.2823   3.2858   3.2869   3.2922   3.2996
  3.3042   3.3077   3.3171   3.3238   3.3253   3.3273   3.3297   3.3354
  3.3375   3.3424   3.3450   3.3517   3.3552   3.3609   3.3669   3.3691
  3.3768   3.3814   3.3878   3.3950   3.4007   3.4037   3.4121   3.4210
  3.4264   3.4321   3.4367   3.4378   3.4436   3.4477   3.4500   3.4521
  3.4551   3.4581   3.4676   3.4766   3.4780   3.4817   3.4877   3.4939
  3.4958   3.5001   3.5031   3.5090   3.5122   3.5150   3.5209   3.5308
  3.5333   3.5373   3.5443   3.5564   3.5662   3.5711   3.5767   3.5821
  3.5859   3.5892   3.6018   3.6070   3.6160   3.6188   3.6234   3.6257
  3.6332   3.6365   3.6395   3.6442   3.6556   3.6635   3.6702   3.6745
  3.6865   3.6946   3.7002   3.7031   3.7046   3.7133   3.7169   3.7204
  3.7266   3.7324   3.7365   3.7451   3.7487   3.7559   3.7590   3.7663
  3.7692   3.7764   3.7821   3.7865   3.7910   3.7942   3.8025   3.8056
  3.8082   3.8131   3.8159   3.8340   3.8346   3.8439   3.8537   3.8591
  3.8610   3.8719   3.8777   3.8795   3.8877   3.9010   3.9048   3.9178
  3.9243   3.9290   3.9385   3.9441   3.9473   3.9549   3.9605   3.9661
  3.9746   3.9888   3.9954   4.0093   4.0139   4.0201   4.0243   4.0274
  4.0544   4.0607   4.0638   4.0777   4.0815   4.0879   4.0974   4.1046
  4.1129   4.1230   4.1301   4.1343   4.1503   4.1564   4.1637   4.1728
  4.1827   4.1839   4.1877   4.1933   4.2026   4.2133   4.2254   4.2367
  4.2467   4.2521   4.2585   4.2612   4.2703   4.2772   4.2827   4.2914
  4.2957   4.2982   4.2993   4.3131   4.3164   4.3277   4.3333   4.3359
  4.3396   4.3526   4.3600   4.3637   4.3667   4.3682   4.3744   4.3798
  4.3864   4.3971   4.4007   4.4054   4.4082   4.4180   4.4233   4.4290
  4.4509   4.4621   4.4667   4.4823   4.4951   4.5044   4.5134   4.5185
  4.5207   4.5269   4.5291   4.5372   4.5425   4.5512   4.5687   4.5706
  4.5770   4.5797   4.5832   4.5931   4.6048   4.6100   4.6227   4.6304
  4.6417   4.6616   4.6636   4.6677   4.6700   4.6775   4.6835   4.6931
  4.7113   4.7338   4.7351   4.7507   4.7519   4.7578   4.7631   4.7956
  4.8146   4.8182   4.8342   4.8392   4.8443   4.8625   4.8638   4.8708
  4.8790   4.8860   4.9046   4.9078   4.9306   4.9479   4.9720   4.9793
  4.9889   5.0034   5.0199   5.0301   5.0417   5.0499   5.0546   5.0677
  5.0905   5.1010   5.1060   5.1077   5.1238   5.1288   5.1385   5.1451
  5.1639   5.1737   5.1768   5.1872   5.1978   5.2114   5.2315   5.2556
  5.2574   5.2738   5.2789   5.2919   5.3213   5.3281   5.3299   5.3434
  5.3534   5.3954   5.3980   5.4022   5.4132   5.4302   5.4342   5.4433
  5.4933   5.5006   5.5070   5.5085   5.5124   5.5310   5.5372   5.5465
  5.5546   5.5599   5.5627   5.5732   5.5772   5.5880   5.5979   5.6040
  5.6190   5.6308   5.6521   5.6537   5.6560   5.6726   5.6765   5.6880
  5.6965   5.6982   5.7307   5.7393   5.7506   5.7560   5.7588   5.7685
  5.7720   5.7763   5.8111   5.8254   5.8382   5.8527   5.8778   5.9174
  5.9384   5.9567   5.9933   5.9994   6.0211   6.0259   6.0282   6.0395
  6.0842   6.0925   6.1001   6.1115   6.1156   6.1535   6.1879   6.2055
  6.2171   6.2178   6.2204   6.2501   6.2616   6.2696   6.2979   6.3385
  6.3500   6.3835   6.4109   6.4435   6.4623   6.5214   6.5617   6.5679
  6.5812   6.5930   6.6225   6.6470   6.6584   6.6634   6.7060   6.8270
  6.8305   6.8777   6.8859   6.8929   6.9111   6.9211   6.9234   7.0767
  7.0961   7.1385   7.1817   7.1862   7.2261   7.3321   7.3396   7.3440
  7.3495   7.4650   7.5415   7.5563   7.5700   7.5727   7.5841   7.6329
  7.6631   7.6790   7.7198   8.2942   9.8720  10.2775  11.0896  11.1864
 11.6584  11.7402  11.9880  12.3576  12.4576  12.6601  12.8409  12.8557
 13.2845  13.5555  13.8027  13.9254  14.0030  14.0864  14.1981  14.3406
 14.4094  14.7198  15.2982  15.7305  16.0120
 --------------------------------------------------------------
 
          Ground-State Mulliken Net Atomic Charges

     Atom                 Charge (a.u.)
  ----------------------------------------
      1 C                    -0.130300
      2 C                    -0.109786
      3 C                    -0.043092
      4 C                     0.002300
      5 H                     0.188890
      6 C                     0.001825
      7 C                     0.072169
      8 C                    -0.003042
      9 C                    -0.010104
     10 C                    -0.086695
     11 C                    -0.000875
     12 H                     0.188971
     13 C                     0.360696
     14 C                     0.363763
     15 N                    -0.101602
     16 C                     0.359517
     17 C                     0.353917
     18 N                    -0.098564
     19 O                    -0.464878
     20 O                    -0.476531
     21 O                    -0.479447
     22 O                    -0.458101
     23 C                    -0.201167
     24 H                     0.141142
     25 H                     0.112562
     26 H                     0.112282
     27 C                    -0.195919
     28 H                     0.133622
     29 H                     0.113337
     30 H                     0.113532
     31 H                     0.214509
     32 C                     0.014974
     33 S                     0.033897
     34 C                    -0.211981
     35 C                    -0.222129
     36 C                    -0.182120
     37 H                     0.189612
     38 H                     0.193254
     39 H                     0.211561
  ----------------------------------------
  Sum of atomic charges =     0.000000

 -----------------------------------------------------------------
                    Cartesian Multipole Moments
 -----------------------------------------------------------------
    Charge (ESU x 10^10)
                 0.0000
    Dipole Moment (Debye)
         X       0.8895      Y       0.7683      Z      -0.9071
       Tot       1.4847
    Quadrupole Moments (Debye-Ang)
        XX    -181.7788     XY       5.5791     YY    -166.1047
        XZ       3.7483     YZ       0.5402     ZZ    -157.9873
    Octopole Moments (Debye-Ang^2)
       XXX      -7.1524    XXY     553.5117    XYY       2.3005
       YYY    1586.4529    XXZ     -19.8270    XYZ     -10.8508
       YYZ     -12.6075    XZZ       1.0379    YZZ     483.7979
       ZZZ     -63.4463
    Hexadecapole Moments (Debye-Ang^3)
      XXXX   -6094.9795   XXXY     -91.4953   XXYY   -4171.6671
      XYYY     734.5549   YYYY  -17045.5992   XXXZ     516.0811
      XXYZ      29.0813   XYYZ     266.3316   YYYZ    -161.2994
      XXZZ   -1081.2316   XYZZ      88.0814   YYZZ   -2733.4938
      XZZZ     469.3476   YZZZ     -96.0002   ZZZZ    -630.3103
 -----------------------------------------------------------------
 Total job time:  301.53s(wall), 10082.41s(cpu) 
 Sun Sep 24 17:05:42 2023

        *************************************************************
        *                                                           *
        *  Thank you very much for using Q-Chem.  Have a nice day.  *
        *                                                           *
        *************************************************************


0 sent ACK to 0 
now end server 0 ... 
cleanup process ... done
remove work dirs ./qchem2407075.0 -- ./qchem2407075.0
rm -rf ./qchem2407075.0
rm -rf ./qchem2407075
