You are running Q-Chem version: 5.4.0

#
# job setting
#
local host:  exp-2-02
current dir: /expanse/lustre/projects/csd626/rramji/aromodel/PNDIT/Rotation_Test
input file:  Dimethyl_Naphthalene_Dicarboximide_Phi_15_Theta_140_Thiophene.qcin
output file: 
nprocs     : 1
nthreads   : 64
#
# qchem installation setting
#
QC:          /cm/shared/apps/spack/cpu/opt/spack/linux-centos8-zen2/gcc-10.2.0/qchem-5.4-akfmr7b3t57bfs6qan3padb2wnb2i7cl
QCAUX:       /cm/shared/apps/spack/cpu/opt/spack/linux-centos8-zen2/gcc-10.2.0/qchem-5.4-akfmr7b3t57bfs6qan3padb2wnb2i7cl/qcaux
QCPROG:      /cm/shared/apps/spack/cpu/opt/spack/linux-centos8-zen2/gcc-10.2.0/qchem-5.4-akfmr7b3t57bfs6qan3padb2wnb2i7cl/exe/qcprog.exe
QCPROG_S:    /cm/shared/apps/spack/cpu/opt/spack/linux-centos8-zen2/gcc-10.2.0/qchem-5.4-akfmr7b3t57bfs6qan3padb2wnb2i7cl/exe/qcprog.exe_s
PARALLEL:    -DPARALLEL
QCMPI:       mpich
#
# qchem directory setting
#
qcrun:       qchem3111893
QCSCRATCH:   .
QCLOCALSCR:  
QCTMPDIR:    .
QCFILEPREF:  ./qchem3111893
QCSAVEDIR:   
workdirs:    ./qchem3111893
workdir0:    ./qchem3111893
partmpdirs =  
#
# parallel setting
#
QCRSH:           ssh
QCMPI:           mpich
QCMPIRUN:        /cm/shared/apps/spack/cpu/opt/spack/linux-centos8-zen2/gcc-10.2.0/qchem-5.4-akfmr7b3t57bfs6qan3padb2wnb2i7cl/bin/mpi/mpirun_qchem
QCMACHINEFILE:   ./qchem3111893/hostfile
exp-2-02

#
# env setting
#
exported envs:   QC QCAUX QCSCRATCH QCRUNNAME QCFILEPREF QCPROG QCPROG_S GUIFILE

Running Job 1 of 1 Dimethyl_Naphthalene_Dicarboximide_Phi_15_Theta_140_Thiophene.qcin
qchem Dimethyl_Naphthalene_Dicarboximide_Phi_15_Theta_140_Thiophene.qcin_3111893.0 ./qchem3111893/ 1
/cm/shared/apps/spack/cpu/opt/spack/linux-centos8-zen2/gcc-10.2.0/qchem-5.4-akfmr7b3t57bfs6qan3padb2wnb2i7cl/bin/mpi/mpirun_qchem -machinefile ./qchem3111893/hostfile -np 1 /cm/shared/apps/spack/cpu/opt/spack/linux-centos8-zen2/gcc-10.2.0/qchem-5.4-akfmr7b3t57bfs6qan3padb2wnb2i7cl/exe/qcprog.exe Dimethyl_Naphthalene_Dicarboximide_Phi_15_Theta_140_Thiophene.qcin_3111893.0 ./qchem3111893/

Process 0 of 1 is on exp-2-02 - thread support 0
initial socket setup ...start
initial socket setup ...done 
now start server 0 ... 
                  Welcome to Q-Chem
     A Quantum Leap Into The Future Of Chemistry


 Q-Chem 5.4, Q-Chem, Inc., Pleasanton, CA (2021)

 License issued to: University of California, San Diego (site)

 E. Epifanovsky,  A. T. B. Gilbert,  Xintian Feng,  Joonho Lee,  Yuezhi Mao,  
 N. Mardirossian,  P. Pokhilko,  A. White,  M. Wormit,  M. P. Coons,  
 A. L. Dempwolff,  Zhengting Gan,  D. Hait,  P. R. Horn,  L. D. Jacobson,  
 I. Kaliman,  J. Kussmann,  A. W. Lange,  Ka Un Lao,  D. S. Levine,  Jie Liu,  
 S. C. McKenzie,  A. F. Morrison,  K. Nanda,  F. Plasser,  D. R. Rehn,  
 M. L. Vidal,  Zhi-Qiang You,  Ying Zhu,  B. Alam,  B. Albrecht,  
 A. Aldossary,  E. Alguire,  J. H. Andersen,  D. Barton,  K. Begam,  A. Behn,  
 Y. A. Bernard,  E. J. Berquist,  H. Burton,  A. Carreras,  K. Carter-Fenk,  
 R. Chakraborty,  A. D. Chien,  K. D. Closser,  V. Cofer-Shabica,  
 S. Dasgupta,  Jia Deng,  M. de Wergifosse,  M. Diedenhofen,  Hainam Do,  
 S. Ehlert,  Po-Tung Fang,  S. Fatehi,  Qingguo Feng,  J. Gayvert,  
 Qinghui Ge,  G. Gidofalvi,  M. Goldey,  J. Gomes,  C. Gonzalez-Espinoza,  
 S. Gulania,  A. Gunina,  M. W. D. Hanson-Heine,  P. H. P. Harbach,  
 A. W. Hauser,  M. F. Herbst,  M. Hernandez Vera,  M. Hodecker,  
 Z. C. Holden,  S. Houck,  Xunkun Huang,  Kerwin Hui,  B. C. Huynh,  
 M. Ivanov,  Hyunjun Ji,  Hanjie Jiang,  B. Kaduk,  S. Kaehler,  
 K. Khistyaev,  Jaehoon Kim,  P. Klunzinger,  Z. Koczor-Benda,  
 Joong Hoon Koh,  D. Kosenkov,  L. Koulias,  T. Kowalczyk,  C. M. Krauter,  
 K. Kue,  A. Kunitsa,  T. Kus,  A. Landau,  K. V. Lawler,  D. Lefrancois,  
 S. Lehtola,  Rain Li,  Yi-Pei Li,  Jiashu Liang,  M. Liebenthal,  
 Hung-Hsuan Lin,  You-Sheng Lin,  Fenglai Liu,  Kuan-Yu Liu,  
 M. Loipersberger,  A. Luenser,  A. Manjanath,  P. Manohar,  E. Mansoor,  
 S. F. Manzer,  Shan-Ping Mao,  A. V. Marenich,  T. Markovich,  S. Mason,  
 S. A. Maurer,  P. F. McLaughlin,  M. F. S. J. Menger,  J.-M. Mewes,  
 S. A. Mewes,  P. Morgante,  J. W. Mullinax,  T. S. Nguyen-Beck,  
 K. J. Oosterbaan,  G. Paran,  Alexander C. Paul,  Suranjan K. Paul,  
 F. Pavosevic,  Zheng Pei,  S. Prager,  E. I. Proynov,  E. Ramos,  B. Rana,  
 A. E. Rask,  A. Rettig,  R. M. Richard,  F. Rob,  E. Rossomme,  T. Scheele,  
 M. Scheurer,  M. Schneider,  N. Sergueev,  S. M. Sharada,  W. Skomorowski,  
 D. W. Small,  C. J. Stein,  Yu-Chuan Su,  E. J. Sundstrom,  Zhen Tao,  
 J. Thirman,  T. Tsuchimochi,  N. M. Tubman,  S. P. Veccham,  O. Vydrov,  
 J. Wenzel,  J. Witte,  A. Yamada,  Kun Yao,  S. Yeganeh,  S. R. Yost,  
 A. Zech,  Igor Ying Zhang,  Xing Zhang,  Yu Zhang,  D. Zuev,  
 A. Aspuru-Guzik,  A. T. Bell,  N. A. Besley,  K. B. Bravaya,  B. R. Brooks,  
 D. Casanova,  Jeng-Da Chai,  S. Coriani,  C. J. Cramer,  
 A. E. DePrince, III,  R. A. DiStasio Jr.,  A. Dreuw,  B. D. Dunietz,  
 T. R. Furlani,  W. A. Goddard III,  S. Grimme,  S. Hammes-Schiffer,  
 T. Head-Gordon,  W. J. Hehre,  Chao-Ping Hsu,  T.-C. Jagau,  Yousung Jung,  
 A. Klamt,  Jing Kong,  D. S. Lambrecht,  WanZhen Liang,  N. J. Mayhall,  
 C. W. McCurdy,  J. B. Neaton,  C. Ochsenfeld,  J. A. Parkhill,  R. Peverati,  
 V. A. Rassolov,  Yihan Shao,  L. V. Slipchenko,  T. Stauch,  R. P. Steele,  
 J. E. Subotnik,  A. J. W. Thom,  A. Tkatchenko,  D. G. Truhlar,  
 T. Van Voorhis,  T. A. Wesolowski,  K. B. Whaley,  H. L. Woodcock III,  
 P. M. Zimmerman,  S. Faraji,  P. M. W. Gill,  M. Head-Gordon,  
 J. M. Herbert,  A. I. Krylov

 Contributors to earlier versions of Q-Chem not listed above: 
 R. D. Adamson,  B. Austin,  R. Baer,  J. Baker,  G. J. O. Beran,  
 K. Brandhorst,  S. T. Brown,  E. F. C. Byrd,  A. K. Chakraborty,  
 G. K. L. Chan,  Chun-Min Chang,  Yunqing Chen,  C.-L. Cheng,  
 Siu Hung Chien,  D. M. Chipman,  D. L. Crittenden,  H. Dachsel,  
 R. J. Doerksen,  A. D. Dutoi,  R. G. Edgar,  J. Fosso-Tande,  
 L. Fusti-Molnar,  D. Ghosh,  A. Ghysels,  A. Golubeva-Zadorozhnaya,  
 J. Gonthier,  M. S. Gordon,  S. R. Gwaltney,  G. Hawkins,  J. E. Herr,  
 A. Heyden,  S. Hirata,  E. G. Hohenstein,  G. Kedziora,  F. J. Keil,  
 C. Kelley,  Jihan Kim,  R. A. King,  R. Z. Khaliullin,  P. P. Korambath,  
 W. Kurlancheek,  A. Laurent,  A. M. Lee,  M. S. Lee,  S. V. Levchenko,  
 Ching Yeh Lin,  D. Liotard,  E. Livshits,  R. C. Lochan,  I. Lotan,  
 L. A. Martinez-Martinez,  P. E. Maslen,  N. Nair,  D. P. O'Neill,  
 D. Neuhauser,  E. Neuscamman,  C. M. Oana,  R. Olivares-Amaya,  R. Olson,  
 T. M. Perrine,  B. Peters,  P. A. Pieniazek,  A. Prociuk,  Y. M. Rhee,  
 J. Ritchie,  M. A. Rohrdanz,  E. Rosta,  N. J. Russ,  H. F. Schaefer III,  
 M. W. Schmidt,  N. E. Schultz,  S. Sharma,  N. Shenvi,  C. D. Sherrill,  
 A. C. Simmonett,  A. Sodt,  T. Stein,  D. Stuck,  K. S. Thanthiriwatte,  
 V. Vanovschi,  L. Vogt,  Tao Wang,  A. Warshel,  M. A. Watson,  
 C. F. Williams,  Q. Wu,  X. Xu,  Jun Yang,  W. Zhang,  Yan Zhao

 Please cite Q-Chem as follows:
 Y. Shao et al., Mol. Phys. 113, 184-215 (2015)
 DOI: 10.1080/00268976.2014.952696

 Q-Chem 5.4.0 for Intel X86 EM64T Linux

 Parts of Q-Chem use Armadillo 9.800.1 (Horizon Scraper).
 http://arma.sourceforge.net/

 Q-Chem begins on Sun Sep 24 15:54:38 2023  

 Host: 
0

     Scratch files written to ./qchem3111893//
 May1621 |scratch|qcdevops|jenkins|workspace|build_RNUM    
 Parallel job on  1  processors
 Processing $rem in /cm/shared/apps/spack/cpu/opt/spack/linux-centos8-zen2/gcc-10.2.0/qchem-5.4-akfmr7b3t57bfs6qan3padb2wnb2i7cl/config/preferences:
 Processing $rem in /home/rramji/.qchemrc:
 Symmetry turned off for PCM/SM12/SMD calculation
 Core orbitals will be frozen

 Checking the input file for inconsistencies... 	...done.

 Q-Chem warning in module forms1/BasisType.C, line 2236:

 You are not using the predefined 5D/6D in this basis set.


--------------------------------------------------------------
User input:
--------------------------------------------------------------
$molecule
0 1
C	0.166281	-6.741404	0.195868
C	1.005696	-6.155638	1.196048
C	-0.530233	-5.791452	-0.634911
C	1.184587	-4.803786	1.409599
H	1.570232	-6.821518	1.868538
C	-0.343266	-4.378638	-0.410996
C	0.511683	-3.838032	0.608444
C	-1.015440	-3.413062	-1.211179
C	0.697165	-2.426473	0.830559
C	-0.838968	-2.059348	-0.999915
C	0.000000	-1.478216	0.000000
H	-1.404302	-1.394783	-1.673009
C	-1.456059	-6.187987	-1.741129
C	-1.934944	-3.798164	-2.307170
N	-2.090139	-5.170003	-2.494766
C	2.106725	-4.424987	2.508468
C	1.624494	-2.036627	1.936893
N	2.258486	-3.049156	2.690936
O	-1.705414	-7.353131	-2.042736
O	-2.529122	-2.986854	-3.013823
O	2.693680	-5.248946	3.206857
O	1.888802	-0.878829	2.254108
C	-2.997334	-5.563799	-3.577543
H	-3.025519	-6.664085	-3.612920
H	-2.635109	-5.147101	-4.536833
H	-4.005702	-5.148785	-3.387762
C	3.152347	-2.587487	3.756883
H	3.566218	-3.483329	4.248464
H	2.590383	-1.964972	4.478763
H	3.959687	-1.962932	3.329599
H	0.046998	-7.822318	0.053215
C	0.000000	0.000000	0.000000
S	0.205093	0.766196	1.580530
C	0.628939	2.348114	0.904911
C	0.258137	0.964028	-0.985400
C	0.599745	2.239309	-0.493528
H	0.197169	0.736404	-2.059934
H	0.827678	3.090243	-1.152593
H	0.856796	3.198808	1.556025
$end

$rem
JOBTYPE		SP
EXCHANGE	HF
CORRELATION	pRIMP2
BASIS		cc-pvtz
METHOD		rimp2
AUX_BASIS	rimp2-cc-pvtz
SOLVENT_METHOD	PCM
PURECART	11111
SYMMETRY	false
MEM_TOTAL	110000
SCF_CONVERGENCE = 6
THRESH=10
GUI = 2
$end



$solvent
dielectric 4.90
$end
--------------------------------------------------------------
 ----------------------------------------------------------------
             Standard Nuclear Orientation (Angstroms)
    I     Atom           X                Y                Z
 ----------------------------------------------------------------
    1      C       0.1662810000    -6.7414040000     0.1958680000
    2      C       1.0056960000    -6.1556380000     1.1960480000
    3      C      -0.5302330000    -5.7914520000    -0.6349110000
    4      C       1.1845870000    -4.8037860000     1.4095990000
    5      H       1.5702320000    -6.8215180000     1.8685380000
    6      C      -0.3432660000    -4.3786380000    -0.4109960000
    7      C       0.5116830000    -3.8380320000     0.6084440000
    8      C      -1.0154400000    -3.4130620000    -1.2111790000
    9      C       0.6971650000    -2.4264730000     0.8305590000
   10      C      -0.8389680000    -2.0593480000    -0.9999150000
   11      C       0.0000000000    -1.4782160000     0.0000000000
   12      H      -1.4043020000    -1.3947830000    -1.6730090000
   13      C      -1.4560590000    -6.1879870000    -1.7411290000
   14      C      -1.9349440000    -3.7981640000    -2.3071700000
   15      N      -2.0901390000    -5.1700030000    -2.4947660000
   16      C       2.1067250000    -4.4249870000     2.5084680000
   17      C       1.6244940000    -2.0366270000     1.9368930000
   18      N       2.2584860000    -3.0491560000     2.6909360000
   19      O      -1.7054140000    -7.3531310000    -2.0427360000
   20      O      -2.5291220000    -2.9868540000    -3.0138230000
   21      O       2.6936800000    -5.2489460000     3.2068570000
   22      O       1.8888020000    -0.8788290000     2.2541080000
   23      C      -2.9973340000    -5.5637990000    -3.5775430000
   24      H      -3.0255190000    -6.6640850000    -3.6129200000
   25      H      -2.6351090000    -5.1471010000    -4.5368330000
   26      H      -4.0057020000    -5.1487850000    -3.3877620000
   27      C       3.1523470000    -2.5874870000     3.7568830000
   28      H       3.5662180000    -3.4833290000     4.2484640000
   29      H       2.5903830000    -1.9649720000     4.4787630000
   30      H       3.9596870000    -1.9629320000     3.3295990000
   31      H       0.0469980000    -7.8223180000     0.0532150000
   32      C       0.0000000000     0.0000000000     0.0000000000
   33      S       0.2050930000     0.7661960000     1.5805300000
   34      C       0.6289390000     2.3481140000     0.9049110000
   35      C       0.2581370000     0.9640280000    -0.9854000000
   36      C       0.5997450000     2.2393090000    -0.4935280000
   37      H       0.1971690000     0.7364040000    -2.0599340000
   38      H       0.8276780000     3.0902430000    -1.1525930000
   39      H       0.8567960000     3.1988080000     1.5560250000
 ----------------------------------------------------------------
 Nuclear Repulsion Energy =        2510.01199774 hartrees
 There are       97 alpha and       97 beta electrons
 Requested basis set is cc-pVTZ
 There are 344 shells and 982 basis functions

 Total QAlloc Memory Limit 110000 MB
 Mega-Array Size       188 MB
 MEM_STATIC part       192 MB
 Discretize the solute cavity surface with Lebedev spheres
	Using 110 Lebedev grid points for each H atom
	Using 194 Lebedev grid points for other atoms
	Atomic van der Waals radii will be scaled by 1.20
 Remove points where switching function is < 1.0e-08
 Keep 2507 surface tesserae and discard 4051 interior tesserae
 Molecular Surface Area = 362.757 Angst**2
 Requested basis set is rimp2-cc-pVTZ
 There are 750 shells and 2588 basis functions
 A cutoff of  1.0D-10 yielded  31747 shell pairs
 There are    244529 function pairs (    317761 Cartesian)
 Smallest overlap matrix eigenvalue = 9.86E-06

 Q-Chem warning in module stvman/mkSTV.C, line 323:

 Overlap eigenvalue is smaller than square root of threshold
 Use THRESH >= 12 to get rid of this warning


 Scale SEOQF with 1.000000e-01/1.000000e-02/1.000000e-01

 Standard Electronic Orientation quadrupole field applied
 Nucleus-field energy     =    -0.0000000442 hartrees
 Guess from superposition of atomic densities
 Warning:  Energy on first SCF cycle will be non-variational
 SAD guess density has 194.000000 electrons

 -----------------------------------------------------------------------
  General SCF calculation program by
  Eric Jon Sundstrom, Paul Horn, Yuezhi Mao, Dmitri Zuev, Alec White,
  David Stuck, Shaama M.S., Shane Yost, Joonho Lee, David Small,
  Daniel Levine, Susi Lehtola, Hugh Burton, Evgeny Epifanovsky,
  Bang C. Huynh
 -----------------------------------------------------------------------
 Hartree-Fock
 using 64 threads for integral computing
 -------------------------------------------------------
 OpenMP Integral computing Module                
 Release: version 1.0, May 2013, Q-Chem Inc. Pittsburgh 
 -------------------------------------------------------
 A restricted SCF calculation will be
 performed using DIIS
 SCF converges when DIIS error is below 1.0e-06
 ---------------------------------------
  Cycle       Energy         DIIS error
 ---------------------------------------
    1   -1581.3544929746      1.87e-02  
    2   -1570.0930885621      2.09e-03  
    3   -1570.4175791558      1.63e-03  
    4   -1570.6483032314      2.58e-04  
    5   -1570.6603832672      7.62e-05  
    6   -1570.6614373476      2.77e-05  
    7   -1570.6616780746      1.43e-05  
    8   -1570.6617549510      5.88e-06  
    9   -1570.6617675597      2.36e-06  
   10   -1570.6617698973      8.11e-07  Convergence criterion met
 ---------------------------------------
 SCF time:   CPU 5596.54s  wall 224.00s 

************** Final PCM Free Energy Summary **************
 G_electrostatic  =      -0.02286172 hartree =     -14.34594448 kcal/mol
 G_cavitation     =       0.00000000 hartree =       0.00000000 kcal/mol
 G_dispersion     =       0.00000000 hartree =       0.00000000 kcal/mol
 G_repulsion      =       0.00000000 hartree =       0.00000000 kcal/mol
 --------------------------------------------------
 Non-electrostatic Free Energy =       0.00000000 hartree =       0.00000000 kcal/mol
 Total                         =      -0.02286172 hartree =     -14.34594448 kcal/mol
 --------------------------------------------------
 SCF Energy (H0 + V/2)                       =   -1570.66176990 
 Solute Internal Energy (H0)                 =   -1570.63890818 
 Total Free Energy (H0 + V/2 + non-elec)     =   -1570.66176990 hartree
                                             = -985605.13634816 kcal/mol
***********************************************************

 SCF   energy in the final basis set =    -1570.6617698973
 Total energy in the final basis set =    -1570.6617698973


 --------------------------------------------------------------
  Generalized many-body perturbation theory program
  by Joonho Lee, Fazle Rob, Xintian Feng, Evgeny Epifanovsky

 No regularization used 
 (reg. param. = 0.0000e+00)
  (P|Q)^-1/2 Time:  CPU 151.20 s  wall 2.82 s

 In RI-MP2 calculation: 
 # of frozen core orbitals: 31

 Components of the RIMP2 correlation energy:
        aaaa    correlation energy =        -0.6189526299 a.u.
        abab    correlation energy =        -3.3970888933 a.u.
        bbbb    correlation energy =        -0.6189526299 a.u.
        non-Brillouin singles      =        -0.0000000000 a.u.
        total same-spin energy     =        -1.2379052597 a.u.
        total opposite-spin energy =        -3.3970888933 a.u.

 Total  RIMP2   correlation energy =        -4.6349941530 a.u.
        RIMP2         total energy =     -1575.2967640503 a.u.

 RI-MP2 Energy Time:  CPU 1735.28 s  wall 28.69 s
 
 --------------------------------------------------------------
 
                    Orbital Energies (a.u.)
 --------------------------------------------------------------
 
 Alpha MOs
 -- Occupied --
-91.9813 -20.5587 -20.5565 -20.5542 -20.5513 -15.6313 -15.6303 -11.4001
-11.3962 -11.3918 -11.3907 -11.3178 -11.3025 -11.3022 -11.3007 -11.2967
-11.2959 -11.2865 -11.2859 -11.2847 -11.2823 -11.2798 -11.2772 -11.2647
-11.2646 -11.2593 -11.2432  -8.9813  -6.6617  -6.6612  -6.6608  -1.4253
 -1.4250  -1.4044  -1.4041  -1.2677  -1.2655  -1.2169  -1.1722  -1.1429
 -1.1168  -1.0618  -1.0494  -0.9928  -0.9879  -0.9808  -0.9590  -0.9474
 -0.8964  -0.8797  -0.8769  -0.8619  -0.7933  -0.7769  -0.7744  -0.7592
 -0.7328  -0.7198  -0.7034  -0.6934  -0.6842  -0.6734  -0.6664  -0.6623
 -0.6567  -0.6410  -0.6375  -0.6354  -0.6286  -0.6132  -0.5843  -0.5826
 -0.5784  -0.5702  -0.5676  -0.5655  -0.5640  -0.5556  -0.5543  -0.5485
 -0.5346  -0.5245  -0.5211  -0.5149  -0.4835  -0.4712  -0.4637  -0.4618
 -0.4571  -0.4426  -0.4267  -0.4175  -0.4090  -0.3686  -0.3365  -0.3295
 -0.3034
 -- Virtual --
 -0.0205   0.0587   0.0706   0.1037   0.1278   0.1547   0.1579   0.1597
  0.1661   0.1708   0.1799   0.1827   0.1848   0.1939   0.2058   0.2075
  0.2205   0.2270   0.2279   0.2326   0.2393   0.2468   0.2605   0.2621
  0.2652   0.3061   0.3123   0.3135   0.3208   0.3247   0.3298   0.3355
  0.3427   0.3496   0.3517   0.3570   0.3594   0.3606   0.3689   0.3752
  0.3816   0.3832   0.3873   0.3960   0.3997   0.4054   0.4077   0.4122
  0.4205   0.4274   0.4324   0.4408   0.4416   0.4464   0.4523   0.4559
  0.4582   0.4588   0.4617   0.4750   0.4788   0.4855   0.4865   0.4968
  0.5061   0.5081   0.5106   0.5165   0.5196   0.5220   0.5282   0.5329
  0.5373   0.5385   0.5447   0.5486   0.5519   0.5562   0.5583   0.5679
  0.5706   0.5761   0.5799   0.5857   0.5911   0.5935   0.5975   0.6031
  0.6047   0.6113   0.6152   0.6173   0.6179   0.6233   0.6280   0.6308
  0.6323   0.6350   0.6375   0.6390   0.6433   0.6493   0.6540   0.6707
  0.6749   0.6830   0.6920   0.6967   0.7024   0.7071   0.7108   0.7177
  0.7277   0.7352   0.7383   0.7405   0.7446   0.7573   0.7594   0.7638
  0.7712   0.7780   0.7816   0.7993   0.8048   0.8062   0.8121   0.8198
  0.8268   0.8293   0.8379   0.8407   0.8427   0.8468   0.8550   0.8604
  0.8637   0.8675   0.8699   0.8747   0.8786   0.8923   0.9030   0.9105
  0.9124   0.9177   0.9196   0.9269   0.9306   0.9423   0.9446   0.9467
  0.9561   0.9564   0.9661   0.9673   0.9731   0.9790   0.9819   0.9842
  0.9889   0.9945   1.0018   1.0080   1.0096   1.0146   1.0271   1.0306
  1.0384   1.0397   1.0501   1.0539   1.0621   1.0678   1.0711   1.0727
  1.0774   1.0830   1.0862   1.0881   1.0917   1.0990   1.1059   1.1131
  1.1283   1.1313   1.1354   1.1392   1.1454   1.1483   1.1511   1.1541
  1.1640   1.1658   1.1722   1.1747   1.1824   1.1861   1.1919   1.1980
  1.1999   1.2062   1.2120   1.2159   1.2204   1.2267   1.2388   1.2423
  1.2454   1.2511   1.2571   1.2582   1.2665   1.2809   1.2827   1.2920
  1.3175   1.3239   1.3295   1.3365   1.3388   1.3446   1.3516   1.3663
  1.3675   1.3777   1.3814   1.3827   1.3892   1.3978   1.4035   1.4145
  1.4207   1.4259   1.4304   1.4410   1.4449   1.4539   1.4552   1.4612
  1.4752   1.4792   1.4861   1.4906   1.5036   1.5042   1.5137   1.5174
  1.5250   1.5301   1.5342   1.5453   1.5509   1.5573   1.5619   1.5655
  1.5695   1.5740   1.5822   1.5916   1.5991   1.6073   1.6086   1.6324
  1.6403   1.6494   1.6507   1.6641   1.6675   1.6717   1.6842   1.6867
  1.6961   1.7091   1.7132   1.7170   1.7284   1.7350   1.7435   1.7449
  1.7487   1.7642   1.7696   1.7699   1.7887   1.7992   1.8054   1.8122
  1.8185   1.8199   1.8327   1.8452   1.8507   1.8558   1.8603   1.8656
  1.8743   1.8779   1.8993   1.9124   1.9153   1.9273   1.9327   1.9485
  1.9678   1.9708   1.9737   1.9859   1.9898   2.0098   2.0313   2.0372
  2.0451   2.0608   2.0672   2.0803   2.1075   2.1145   2.1319   2.1376
  2.1429   2.1553   2.1751   2.1885   2.2061   2.2101   2.2228   2.2373
  2.2471   2.2543   2.2593   2.2753   2.2857   2.2918   2.2982   2.3090
  2.3156   2.3294   2.3347   2.3447   2.3564   2.3653   2.3759   2.3938
  2.4148   2.4297   2.4381   2.4420   2.4515   2.4566   2.4669   2.4746
  2.4829   2.4832   2.4946   2.5014   2.5104   2.5318   2.5356   2.5508
  2.5584   2.5655   2.5751   2.5874   2.5962   2.5985   2.6087   2.6138
  2.6191   2.6250   2.6323   2.6459   2.6574   2.6633   2.6682   2.6716
  2.6761   2.6851   2.6890   2.7046   2.7129   2.7203   2.7263   2.7285
  2.7335   2.7425   2.7497   2.7519   2.7552   2.7697   2.7826   2.7926
  2.8001   2.8093   2.8193   2.8278   2.8404   2.8491   2.8522   2.8596
  2.8649   2.8688   2.8772   2.8804   2.8858   2.8934   2.8982   2.9014
  2.9106   2.9223   2.9308   2.9327   2.9423   2.9485   2.9572   2.9624
  2.9714   2.9770   2.9906   2.9993   3.0020   3.0047   3.0076   3.0144
  3.0292   3.0374   3.0410   3.0457   3.0502   3.0578   3.0625   3.0744
  3.0865   3.0914   3.1004   3.1025   3.1093   3.1142   3.1189   3.1253
  3.1294   3.1335   3.1404   3.1461   3.1559   3.1666   3.1698   3.1833
  3.1861   3.1977   3.2003   3.2082   3.2094   3.2108   3.2177   3.2229
  3.2269   3.2308   3.2426   3.2478   3.2509   3.2564   3.2615   3.2626
  3.2687   3.2743   3.2802   3.2851   3.2883   3.2962   3.2977   3.3039
  3.3075   3.3120   3.3224   3.3259   3.3294   3.3324   3.3346   3.3403
  3.3429   3.3459   3.3463   3.3501   3.3594   3.3674   3.3712   3.3726
  3.3782   3.3791   3.3854   3.3903   3.4003   3.4019   3.4038   3.4226
  3.4250   3.4276   3.4308   3.4416   3.4435   3.4488   3.4520   3.4549
  3.4624   3.4640   3.4654   3.4754   3.4796   3.4839   3.4889   3.4975
  3.4993   3.5030   3.5054   3.5095   3.5135   3.5183   3.5196   3.5242
  3.5274   3.5381   3.5428   3.5464   3.5548   3.5662   3.5685   3.5793
  3.5820   3.5860   3.5955   3.6011   3.6110   3.6197   3.6271   3.6316
  3.6330   3.6382   3.6416   3.6479   3.6520   3.6551   3.6716   3.6773
  3.6820   3.6875   3.6974   3.7014   3.7086   3.7112   3.7156   3.7243
  3.7262   3.7305   3.7334   3.7407   3.7497   3.7560   3.7570   3.7645
  3.7723   3.7811   3.7845   3.7856   3.7935   3.7954   3.8013   3.8028
  3.8201   3.8263   3.8335   3.8375   3.8410   3.8457   3.8525   3.8581
  3.8612   3.8643   3.8779   3.8832   3.8985   3.9014   3.9105   3.9230
  3.9275   3.9320   3.9335   3.9437   3.9528   3.9544   3.9649   3.9792
  3.9828   3.9928   4.0001   4.0054   4.0135   4.0152   4.0292   4.0392
  4.0466   4.0603   4.0688   4.0745   4.0824   4.0983   4.0995   4.1051
  4.1240   4.1284   4.1329   4.1486   4.1535   4.1561   4.1691   4.1744
  4.1827   4.1851   4.1905   4.2036   4.2123   4.2191   4.2277   4.2286
  4.2412   4.2464   4.2623   4.2680   4.2729   4.2760   4.2763   4.2863
  4.2951   4.2990   4.3024   4.3121   4.3186   4.3226   4.3350   4.3443
  4.3486   4.3491   4.3536   4.3634   4.3665   4.3689   4.3704   4.3796
  4.3920   4.3975   4.4043   4.4127   4.4201   4.4254   4.4337   4.4417
  4.4475   4.4632   4.4721   4.4808   4.4853   4.4964   4.5131   4.5207
  4.5224   4.5285   4.5346   4.5430   4.5467   4.5531   4.5667   4.5739
  4.5768   4.5813   4.5867   4.5922   4.6092   4.6120   4.6266   4.6328
  4.6424   4.6578   4.6596   4.6694   4.6739   4.6800   4.6883   4.6983
  4.7162   4.7217   4.7343   4.7444   4.7580   4.7764   4.7867   4.7885
  4.8086   4.8254   4.8348   4.8380   4.8440   4.8645   4.8725   4.8747
  4.8813   4.8957   4.9132   4.9285   4.9339   4.9602   4.9665   4.9728
  4.9893   5.0132   5.0281   5.0372   5.0426   5.0457   5.0494   5.0516
  5.0920   5.0969   5.1033   5.1110   5.1196   5.1257   5.1436   5.1447
  5.1688   5.1747   5.1852   5.1877   5.1958   5.2316   5.2400   5.2566
  5.2630   5.2776   5.2824   5.2900   5.3213   5.3287   5.3326   5.3416
  5.3496   5.3821   5.3964   5.4035   5.4212   5.4309   5.4412   5.4521
  5.4897   5.5062   5.5086   5.5105   5.5133   5.5286   5.5489   5.5565
  5.5598   5.5606   5.5742   5.5775   5.5819   5.5904   5.6038   5.6076
  5.6262   5.6356   5.6490   5.6525   5.6556   5.6739   5.6766   5.6950
  5.7010   5.7092   5.7257   5.7410   5.7526   5.7574   5.7609   5.7737
  5.7743   5.7788   5.8110   5.8219   5.8536   5.8833   5.9105   5.9293
  5.9465   5.9691   6.0115   6.0135   6.0230   6.0263   6.0396   6.0522
  6.0744   6.1004   6.1082   6.1161   6.1380   6.1661   6.1950   6.2099
  6.2176   6.2187   6.2223   6.2627   6.2705   6.2750   6.3061   6.3433
  6.3512   6.3694   6.4430   6.4506   6.4669   6.5260   6.5619   6.5707
  6.5873   6.6039   6.6405   6.6457   6.6498   6.6596   6.7061   6.8319
  6.8358   6.8803   6.8859   6.8973   6.9112   6.9261   6.9829   7.0786
  7.1132   7.1405   7.1858   7.1956   7.2297   7.3322   7.3416   7.3441
  7.3570   7.4667   7.5446   7.5571   7.5732   7.5784   7.6115   7.6336
  7.6725   7.6849   7.7229   8.3718   9.8779  10.3034  11.1250  11.2523
 11.6651  11.7202  11.9517  12.3676  12.4463  12.7932  12.8454  12.9227
 13.2683  13.5681  13.8151  13.9379  14.0474  14.1444  14.2488  14.3499
 14.4154  14.7301  15.3353  15.7202  15.9617
 --------------------------------------------------------------
 
          Ground-State Mulliken Net Atomic Charges

     Atom                 Charge (a.u.)
  ----------------------------------------
      1 C                    -0.140113
      2 C                    -0.108598
      3 C                    -0.037576
      4 C                    -0.004838
      5 H                     0.188445
      6 C                    -0.006577
      7 C                     0.079904
      8 C                     0.006467
      9 C                    -0.066153
     10 C                    -0.157472
     11 C                     0.104156
     12 H                     0.183010
     13 C                     0.360911
     14 C                     0.367200
     15 N                    -0.101397
     16 C                     0.359165
     17 C                     0.398441
     18 N                    -0.095519
     19 O                    -0.464386
     20 O                    -0.476410
     21 O                    -0.481835
     22 O                    -0.460396
     23 C                    -0.200968
     24 H                     0.141119
     25 H                     0.112170
     26 H                     0.112467
     27 C                    -0.196598
     28 H                     0.134069
     29 H                     0.112781
     30 H                     0.112830
     31 H                     0.213331
     32 C                    -0.073327
     33 S                     0.076145
     34 C                    -0.192065
     35 C                    -0.155234
     36 C                    -0.234145
     37 H                     0.192626
     38 H                     0.188075
     39 H                     0.210296
  ----------------------------------------
  Sum of atomic charges =     0.000000

 -----------------------------------------------------------------
                    Cartesian Multipole Moments
 -----------------------------------------------------------------
    Charge (ESU x 10^10)
                 0.0000
    Dipole Moment (Debye)
         X       0.9134      Y       1.1741      Z      -0.3255
       Tot       1.5228
    Quadrupole Moments (Debye-Ang)
        XX    -171.6482     XY       2.8112     YY    -168.7241
        XZ      -8.9565     YZ       0.6272     ZZ    -168.5897
    Octopole Moments (Debye-Ang^2)
       XXX     -72.3149    XXY     502.0201    XYY     -10.1936
       YYY    1601.1276    XXZ     -30.5017    XYZ      43.5508
       YYZ     -17.9032    XZZ     -20.9752    YZZ     527.9462
       ZZZ     -91.8062
    Hexadecapole Moments (Debye-Ang^3)
      XXXX   -2632.5965   XXXY    -198.2817   XXYY   -3329.2507
      XYYY    -527.4108   YYYY  -17203.2723   XXXZ   -1476.4312
      XXYZ      10.7204   XYYZ    -764.2461   YYYZ    -627.7963
      XXZZ   -1141.7358   XYZZ      50.9464   YYZZ   -3613.8450
      XZZZ   -1498.2706   YZZZ    -151.4837   ZZZZ   -3901.4342
 -----------------------------------------------------------------
 Total job time:  256.67s(wall), 7445.62s(cpu) 
 Sun Sep 24 15:58:54 2023

        *************************************************************
        *                                                           *
        *  Thank you very much for using Q-Chem.  Have a nice day.  *
        *                                                           *
        *************************************************************


0 sent ACK to 0 
now end server 0 ... 
cleanup process ... done
remove work dirs ./qchem3111893.0 -- ./qchem3111893.0
rm -rf ./qchem3111893.0
rm -rf ./qchem3111893
