You are running Q-Chem version: 5.4.0

#
# job setting
#
local host:  exp-2-39
current dir: /expanse/lustre/projects/csd626/rramji/aromodel/PNDIT/Rotation_Test
input file:  Dimethyl_Naphthalene_Dicarboximide_Phi_60_Theta_10_Thiophene.qcin
output file: 
nprocs     : 1
nthreads   : 64
#
# qchem installation setting
#
QC:          /cm/shared/apps/spack/cpu/opt/spack/linux-centos8-zen2/gcc-10.2.0/qchem-5.4-akfmr7b3t57bfs6qan3padb2wnb2i7cl
QCAUX:       /cm/shared/apps/spack/cpu/opt/spack/linux-centos8-zen2/gcc-10.2.0/qchem-5.4-akfmr7b3t57bfs6qan3padb2wnb2i7cl/qcaux
QCPROG:      /cm/shared/apps/spack/cpu/opt/spack/linux-centos8-zen2/gcc-10.2.0/qchem-5.4-akfmr7b3t57bfs6qan3padb2wnb2i7cl/exe/qcprog.exe
QCPROG_S:    /cm/shared/apps/spack/cpu/opt/spack/linux-centos8-zen2/gcc-10.2.0/qchem-5.4-akfmr7b3t57bfs6qan3padb2wnb2i7cl/exe/qcprog.exe_s
PARALLEL:    -DPARALLEL
QCMPI:       mpich
#
# qchem directory setting
#
qcrun:       qchem4176488
QCSCRATCH:   .
QCLOCALSCR:  
QCTMPDIR:    .
QCFILEPREF:  ./qchem4176488
QCSAVEDIR:   
workdirs:    ./qchem4176488
workdir0:    ./qchem4176488
partmpdirs =  
#
# parallel setting
#
QCRSH:           ssh
QCMPI:           mpich
QCMPIRUN:        /cm/shared/apps/spack/cpu/opt/spack/linux-centos8-zen2/gcc-10.2.0/qchem-5.4-akfmr7b3t57bfs6qan3padb2wnb2i7cl/bin/mpi/mpirun_qchem
QCMACHINEFILE:   ./qchem4176488/hostfile
exp-2-39

#
# env setting
#
exported envs:   QC QCAUX QCSCRATCH QCRUNNAME QCFILEPREF QCPROG QCPROG_S GUIFILE

Running Job 1 of 1 Dimethyl_Naphthalene_Dicarboximide_Phi_60_Theta_10_Thiophene.qcin
qchem Dimethyl_Naphthalene_Dicarboximide_Phi_60_Theta_10_Thiophene.qcin_4176488.0 ./qchem4176488/ 1
/cm/shared/apps/spack/cpu/opt/spack/linux-centos8-zen2/gcc-10.2.0/qchem-5.4-akfmr7b3t57bfs6qan3padb2wnb2i7cl/bin/mpi/mpirun_qchem -machinefile ./qchem4176488/hostfile -np 1 /cm/shared/apps/spack/cpu/opt/spack/linux-centos8-zen2/gcc-10.2.0/qchem-5.4-akfmr7b3t57bfs6qan3padb2wnb2i7cl/exe/qcprog.exe Dimethyl_Naphthalene_Dicarboximide_Phi_60_Theta_10_Thiophene.qcin_4176488.0 ./qchem4176488/

Process 0 of 1 is on exp-2-39 - thread support 0
initial socket setup ...start
initial socket setup ...done 
now start server 0 ... 
                  Welcome to Q-Chem
     A Quantum Leap Into The Future Of Chemistry


 Q-Chem 5.4, Q-Chem, Inc., Pleasanton, CA (2021)

 License issued to: University of California, San Diego (site)

 E. Epifanovsky,  A. T. B. Gilbert,  Xintian Feng,  Joonho Lee,  Yuezhi Mao,  
 N. Mardirossian,  P. Pokhilko,  A. White,  M. Wormit,  M. P. Coons,  
 A. L. Dempwolff,  Zhengting Gan,  D. Hait,  P. R. Horn,  L. D. Jacobson,  
 I. Kaliman,  J. Kussmann,  A. W. Lange,  Ka Un Lao,  D. S. Levine,  Jie Liu,  
 S. C. McKenzie,  A. F. Morrison,  K. Nanda,  F. Plasser,  D. R. Rehn,  
 M. L. Vidal,  Zhi-Qiang You,  Ying Zhu,  B. Alam,  B. Albrecht,  
 A. Aldossary,  E. Alguire,  J. H. Andersen,  D. Barton,  K. Begam,  A. Behn,  
 Y. A. Bernard,  E. J. Berquist,  H. Burton,  A. Carreras,  K. Carter-Fenk,  
 R. Chakraborty,  A. D. Chien,  K. D. Closser,  V. Cofer-Shabica,  
 S. Dasgupta,  Jia Deng,  M. de Wergifosse,  M. Diedenhofen,  Hainam Do,  
 S. Ehlert,  Po-Tung Fang,  S. Fatehi,  Qingguo Feng,  J. Gayvert,  
 Qinghui Ge,  G. Gidofalvi,  M. Goldey,  J. Gomes,  C. Gonzalez-Espinoza,  
 S. Gulania,  A. Gunina,  M. W. D. Hanson-Heine,  P. H. P. Harbach,  
 A. W. Hauser,  M. F. Herbst,  M. Hernandez Vera,  M. Hodecker,  
 Z. C. Holden,  S. Houck,  Xunkun Huang,  Kerwin Hui,  B. C. Huynh,  
 M. Ivanov,  Hyunjun Ji,  Hanjie Jiang,  B. Kaduk,  S. Kaehler,  
 K. Khistyaev,  Jaehoon Kim,  P. Klunzinger,  Z. Koczor-Benda,  
 Joong Hoon Koh,  D. Kosenkov,  L. Koulias,  T. Kowalczyk,  C. M. Krauter,  
 K. Kue,  A. Kunitsa,  T. Kus,  A. Landau,  K. V. Lawler,  D. Lefrancois,  
 S. Lehtola,  Rain Li,  Yi-Pei Li,  Jiashu Liang,  M. Liebenthal,  
 Hung-Hsuan Lin,  You-Sheng Lin,  Fenglai Liu,  Kuan-Yu Liu,  
 M. Loipersberger,  A. Luenser,  A. Manjanath,  P. Manohar,  E. Mansoor,  
 S. F. Manzer,  Shan-Ping Mao,  A. V. Marenich,  T. Markovich,  S. Mason,  
 S. A. Maurer,  P. F. McLaughlin,  M. F. S. J. Menger,  J.-M. Mewes,  
 S. A. Mewes,  P. Morgante,  J. W. Mullinax,  T. S. Nguyen-Beck,  
 K. J. Oosterbaan,  G. Paran,  Alexander C. Paul,  Suranjan K. Paul,  
 F. Pavosevic,  Zheng Pei,  S. Prager,  E. I. Proynov,  E. Ramos,  B. Rana,  
 A. E. Rask,  A. Rettig,  R. M. Richard,  F. Rob,  E. Rossomme,  T. Scheele,  
 M. Scheurer,  M. Schneider,  N. Sergueev,  S. M. Sharada,  W. Skomorowski,  
 D. W. Small,  C. J. Stein,  Yu-Chuan Su,  E. J. Sundstrom,  Zhen Tao,  
 J. Thirman,  T. Tsuchimochi,  N. M. Tubman,  S. P. Veccham,  O. Vydrov,  
 J. Wenzel,  J. Witte,  A. Yamada,  Kun Yao,  S. Yeganeh,  S. R. Yost,  
 A. Zech,  Igor Ying Zhang,  Xing Zhang,  Yu Zhang,  D. Zuev,  
 A. Aspuru-Guzik,  A. T. Bell,  N. A. Besley,  K. B. Bravaya,  B. R. Brooks,  
 D. Casanova,  Jeng-Da Chai,  S. Coriani,  C. J. Cramer,  
 A. E. DePrince, III,  R. A. DiStasio Jr.,  A. Dreuw,  B. D. Dunietz,  
 T. R. Furlani,  W. A. Goddard III,  S. Grimme,  S. Hammes-Schiffer,  
 T. Head-Gordon,  W. J. Hehre,  Chao-Ping Hsu,  T.-C. Jagau,  Yousung Jung,  
 A. Klamt,  Jing Kong,  D. S. Lambrecht,  WanZhen Liang,  N. J. Mayhall,  
 C. W. McCurdy,  J. B. Neaton,  C. Ochsenfeld,  J. A. Parkhill,  R. Peverati,  
 V. A. Rassolov,  Yihan Shao,  L. V. Slipchenko,  T. Stauch,  R. P. Steele,  
 J. E. Subotnik,  A. J. W. Thom,  A. Tkatchenko,  D. G. Truhlar,  
 T. Van Voorhis,  T. A. Wesolowski,  K. B. Whaley,  H. L. Woodcock III,  
 P. M. Zimmerman,  S. Faraji,  P. M. W. Gill,  M. Head-Gordon,  
 J. M. Herbert,  A. I. Krylov

 Contributors to earlier versions of Q-Chem not listed above: 
 R. D. Adamson,  B. Austin,  R. Baer,  J. Baker,  G. J. O. Beran,  
 K. Brandhorst,  S. T. Brown,  E. F. C. Byrd,  A. K. Chakraborty,  
 G. K. L. Chan,  Chun-Min Chang,  Yunqing Chen,  C.-L. Cheng,  
 Siu Hung Chien,  D. M. Chipman,  D. L. Crittenden,  H. Dachsel,  
 R. J. Doerksen,  A. D. Dutoi,  R. G. Edgar,  J. Fosso-Tande,  
 L. Fusti-Molnar,  D. Ghosh,  A. Ghysels,  A. Golubeva-Zadorozhnaya,  
 J. Gonthier,  M. S. Gordon,  S. R. Gwaltney,  G. Hawkins,  J. E. Herr,  
 A. Heyden,  S. Hirata,  E. G. Hohenstein,  G. Kedziora,  F. J. Keil,  
 C. Kelley,  Jihan Kim,  R. A. King,  R. Z. Khaliullin,  P. P. Korambath,  
 W. Kurlancheek,  A. Laurent,  A. M. Lee,  M. S. Lee,  S. V. Levchenko,  
 Ching Yeh Lin,  D. Liotard,  E. Livshits,  R. C. Lochan,  I. Lotan,  
 L. A. Martinez-Martinez,  P. E. Maslen,  N. Nair,  D. P. O'Neill,  
 D. Neuhauser,  E. Neuscamman,  C. M. Oana,  R. Olivares-Amaya,  R. Olson,  
 T. M. Perrine,  B. Peters,  P. A. Pieniazek,  A. Prociuk,  Y. M. Rhee,  
 J. Ritchie,  M. A. Rohrdanz,  E. Rosta,  N. J. Russ,  H. F. Schaefer III,  
 M. W. Schmidt,  N. E. Schultz,  S. Sharma,  N. Shenvi,  C. D. Sherrill,  
 A. C. Simmonett,  A. Sodt,  T. Stein,  D. Stuck,  K. S. Thanthiriwatte,  
 V. Vanovschi,  L. Vogt,  Tao Wang,  A. Warshel,  M. A. Watson,  
 C. F. Williams,  Q. Wu,  X. Xu,  Jun Yang,  W. Zhang,  Yan Zhao

 Please cite Q-Chem as follows:
 Y. Shao et al., Mol. Phys. 113, 184-215 (2015)
 DOI: 10.1080/00268976.2014.952696

 Q-Chem 5.4.0 for Intel X86 EM64T Linux

 Parts of Q-Chem use Armadillo 9.800.1 (Horizon Scraper).
 http://arma.sourceforge.net/

 Q-Chem begins on Wed Sep 20 08:09:51 2023  

 Host: 
0

     Scratch files written to ./qchem4176488//
 May1621 |scratch|qcdevops|jenkins|workspace|build_RNUM    
 Parallel job on  1  processors
 Processing $rem in /cm/shared/apps/spack/cpu/opt/spack/linux-centos8-zen2/gcc-10.2.0/qchem-5.4-akfmr7b3t57bfs6qan3padb2wnb2i7cl/config/preferences:
 Processing $rem in /home/rramji/.qchemrc:
 Symmetry turned off for PCM/SM12/SMD calculation
 Core orbitals will be frozen

 Checking the input file for inconsistencies... 	...done.

 Q-Chem warning in module forms1/BasisType.C, line 2236:

 You are not using the predefined 5D/6D in this basis set.


--------------------------------------------------------------
User input:
--------------------------------------------------------------
$molecule
0 1
C	0.043160	-6.741404	-0.253280
C	0.269777	-6.155638	-1.539213
C	-0.145543	-5.791452	0.814295
C	0.318377	-4.803786	-1.813519
H	0.422058	-6.821518	-2.403941
C	-0.094194	-4.378638	0.527140
C	0.137191	-3.838032	-0.783072
C	-0.275104	-3.413062	1.556403
C	0.188116	-2.426473	-1.067932
C	-0.226701	-2.059348	1.285420
C	-0.000000	-1.478216	-0.000000
H	-0.378931	-1.394783	2.151147
C	-0.397845	-6.187987	2.234582
C	-0.523637	-3.798164	2.965273
N	-0.567586	-5.170003	3.204744
C	0.567421	-4.424987	-3.226257
C	0.439541	-2.036627	-2.489446
N	0.609650	-3.049156	-3.459801
O	-0.468608	-7.353131	2.619468
O	-0.683034	-2.986854	3.874668
O	0.725131	-5.248946	-4.124806
O	0.512648	-0.878829	-2.895819
C	-0.813908	-5.563799	4.595691
H	-0.822891	-6.664085	4.640022
H	-1.781600	-5.147101	4.934830
H	-0.020360	-5.148785	5.246157
C	0.851649	-2.587487	-4.829716
H	0.962191	-3.483329	-5.462742
H	1.765865	-1.964972	-4.863242
H	0.005383	-1.962932	-5.173521
H	0.010555	-7.822318	-0.070208
C	0.000000	0.000000	0.000000
S	0.686805	0.396760	1.580530
C	2.105095	1.215640	0.904911
C	0.864201	0.499140	-0.985400
C	2.007514	1.159347	-0.493528
H	0.660136	0.381296	-2.059934
H	2.770388	1.599875	-1.152593
H	2.867745	1.656053	1.556025
$end

$rem
JOBTYPE		SP
EXCHANGE	HF
CORRELATION	pRIMP2
BASIS		cc-pvtz
METHOD		rimp2
AUX_BASIS	rimp2-cc-pvtz
SOLVENT_METHOD	PCM
PURECART	11111
SYMMETRY	false
MEM_TOTAL	110000
SCF_CONVERGENCE = 6
THRESH=10
GUI = 2
$end



$solvent
dielectric 4.90
$end
--------------------------------------------------------------
 ----------------------------------------------------------------
             Standard Nuclear Orientation (Angstroms)
    I     Atom           X                Y                Z
 ----------------------------------------------------------------
    1      C       0.0431600000    -6.7414040000    -0.2532800000
    2      C       0.2697770000    -6.1556380000    -1.5392130000
    3      C      -0.1455430000    -5.7914520000     0.8142950000
    4      C       0.3183770000    -4.8037860000    -1.8135190000
    5      H       0.4220580000    -6.8215180000    -2.4039410000
    6      C      -0.0941940000    -4.3786380000     0.5271400000
    7      C       0.1371910000    -3.8380320000    -0.7830720000
    8      C      -0.2751040000    -3.4130620000     1.5564030000
    9      C       0.1881160000    -2.4264730000    -1.0679320000
   10      C      -0.2267010000    -2.0593480000     1.2854200000
   11      C       0.0000000000    -1.4782160000     0.0000000000
   12      H      -0.3789310000    -1.3947830000     2.1511470000
   13      C      -0.3978450000    -6.1879870000     2.2345820000
   14      C      -0.5236370000    -3.7981640000     2.9652730000
   15      N      -0.5675860000    -5.1700030000     3.2047440000
   16      C       0.5674210000    -4.4249870000    -3.2262570000
   17      C       0.4395410000    -2.0366270000    -2.4894460000
   18      N       0.6096500000    -3.0491560000    -3.4598010000
   19      O      -0.4686080000    -7.3531310000     2.6194680000
   20      O      -0.6830340000    -2.9868540000     3.8746680000
   21      O       0.7251310000    -5.2489460000    -4.1248060000
   22      O       0.5126480000    -0.8788290000    -2.8958190000
   23      C      -0.8139080000    -5.5637990000     4.5956910000
   24      H      -0.8228910000    -6.6640850000     4.6400220000
   25      H      -1.7816000000    -5.1471010000     4.9348300000
   26      H      -0.0203600000    -5.1487850000     5.2461570000
   27      C       0.8516490000    -2.5874870000    -4.8297160000
   28      H       0.9621910000    -3.4833290000    -5.4627420000
   29      H       1.7658650000    -1.9649720000    -4.8632420000
   30      H       0.0053830000    -1.9629320000    -5.1735210000
   31      H       0.0105550000    -7.8223180000    -0.0702080000
   32      C       0.0000000000     0.0000000000     0.0000000000
   33      S       0.6868050000     0.3967600000     1.5805300000
   34      C       2.1050950000     1.2156400000     0.9049110000
   35      C       0.8642010000     0.4991400000    -0.9854000000
   36      C       2.0075140000     1.1593470000    -0.4935280000
   37      H       0.6601360000     0.3812960000    -2.0599340000
   38      H       2.7703880000     1.5998750000    -1.1525930000
   39      H       2.8677450000     1.6560530000     1.5560250000
 ----------------------------------------------------------------
 Nuclear Repulsion Energy =        2538.27860302 hartrees
 There are       97 alpha and       97 beta electrons
 Requested basis set is cc-pVTZ
 There are 344 shells and 982 basis functions

 Total QAlloc Memory Limit 110000 MB
 Mega-Array Size       188 MB
 MEM_STATIC part       192 MB
 Discretize the solute cavity surface with Lebedev spheres
	Using 110 Lebedev grid points for each H atom
	Using 194 Lebedev grid points for other atoms
	Atomic van der Waals radii will be scaled by 1.20
 Remove points where switching function is < 1.0e-08
 Keep 2500 surface tesserae and discard 4058 interior tesserae
 Molecular Surface Area = 355.025 Angst**2
 Requested basis set is rimp2-cc-pVTZ
 There are 750 shells and 2588 basis functions
 A cutoff of  1.0D-10 yielded  32633 shell pairs
 There are    251067 function pairs (    326099 Cartesian)
 Smallest overlap matrix eigenvalue = 9.18E-06

 Q-Chem warning in module stvman/mkSTV.C, line 323:

 Overlap eigenvalue is smaller than square root of threshold
 Use THRESH >= 12 to get rid of this warning


 Scale SEOQF with 1.000000e-01/1.000000e-02/1.000000e-02

 Standard Electronic Orientation quadrupole field applied
 Nucleus-field energy     =     0.0000000128 hartrees
 Guess from superposition of atomic densities
 Warning:  Energy on first SCF cycle will be non-variational
 SAD guess density has 194.000000 electrons

 -----------------------------------------------------------------------
  General SCF calculation program by
  Eric Jon Sundstrom, Paul Horn, Yuezhi Mao, Dmitri Zuev, Alec White,
  David Stuck, Shaama M.S., Shane Yost, Joonho Lee, David Small,
  Daniel Levine, Susi Lehtola, Hugh Burton, Evgeny Epifanovsky,
  Bang C. Huynh
 -----------------------------------------------------------------------
 Hartree-Fock
 using 64 threads for integral computing
 -------------------------------------------------------
 OpenMP Integral computing Module                
 Release: version 1.0, May 2013, Q-Chem Inc. Pittsburgh 
 -------------------------------------------------------
 A restricted SCF calculation will be
 performed using DIIS
 SCF converges when DIIS error is below 1.0e-06
 ---------------------------------------
  Cycle       Energy         DIIS error
 ---------------------------------------
    1   -1581.6427510150      1.88e-02  
    2   -1570.0312149524      2.06e-03  
    3   -1570.3625186457      1.57e-03  
    4   -1570.5779630475      2.63e-04  
    5   -1570.5909238951      8.11e-05  
    6   -1570.5922286818      3.14e-05  
    7   -1570.5925822908      1.58e-05  
    8   -1570.5927036220      7.36e-06  
    9   -1570.5927273175      2.87e-06  
   10   -1570.5927323018      1.29e-06  
   11   -1570.5927334146      5.85e-07  Convergence criterion met
 ---------------------------------------
 SCF time:   CPU 6262.32s  wall 260.00s 

************** Final PCM Free Energy Summary **************
 G_electrostatic  =      -0.02118698 hartree =     -13.29503265 kcal/mol
 G_cavitation     =       0.00000000 hartree =       0.00000000 kcal/mol
 G_dispersion     =       0.00000000 hartree =       0.00000000 kcal/mol
 G_repulsion      =       0.00000000 hartree =       0.00000000 kcal/mol
 --------------------------------------------------
 Non-electrostatic Free Energy =       0.00000000 hartree =       0.00000000 kcal/mol
 Total                         =      -0.02118698 hartree =     -13.29503265 kcal/mol
 --------------------------------------------------
 SCF Energy (H0 + V/2)                       =   -1570.59273341 
 Solute Internal Energy (H0)                 =   -1570.57154643 
 Total Free Energy (H0 + V/2 + non-elec)     =   -1570.59273341 hartree
                                             = -985561.81530141 kcal/mol
***********************************************************

 SCF   energy in the final basis set =    -1570.5927334146
 Total energy in the final basis set =    -1570.5927334146


 --------------------------------------------------------------
  Generalized many-body perturbation theory program
  by Joonho Lee, Fazle Rob, Xintian Feng, Evgeny Epifanovsky

 No regularization used 
 (reg. param. = 0.0000e+00)
  (P|Q)^-1/2 Time:  CPU 180.44 s  wall 3.22 s

 In RI-MP2 calculation: 
 # of frozen core orbitals: 31

 Components of the RIMP2 correlation energy:
        aaaa    correlation energy =        -0.6206849329 a.u.
        abab    correlation energy =        -3.3993470515 a.u.
        bbbb    correlation energy =        -0.6206849329 a.u.
        non-Brillouin singles      =        -0.0000000000 a.u.
        total same-spin energy     =        -1.2413698657 a.u.
        total opposite-spin energy =        -3.3993470515 a.u.

 Total  RIMP2   correlation energy =        -4.6407169173 a.u.
        RIMP2         total energy =     -1575.2334503318 a.u.

 RI-MP2 Energy Time:  CPU 1822.66 s  wall 31.60 s
 
 --------------------------------------------------------------
 
                    Orbital Energies (a.u.)
 --------------------------------------------------------------
 
 Alpha MOs
 -- Occupied --
-91.9912 -20.5570 -20.5546 -20.5536 -20.5507 -15.6300 -15.6294 -11.3981
-11.3977 -11.3886 -11.3886 -11.3219 -11.3138 -11.2986 -11.2957 -11.2870
-11.2857 -11.2831 -11.2829 -11.2767 -11.2744 -11.2721 -11.2669 -11.2647
-11.2634 -11.2617 -11.2499  -8.9925  -6.6732  -6.6723  -6.6719  -1.4304
 -1.4231  -1.4047  -1.4025  -1.2671  -1.2644  -1.2165  -1.1884  -1.1396
 -1.1114  -1.0619  -1.0458  -0.9993  -0.9912  -0.9902  -0.9571  -0.9447
 -0.8961  -0.8766  -0.8735  -0.8600  -0.7967  -0.7789  -0.7756  -0.7671
 -0.7370  -0.7325  -0.6997  -0.6920  -0.6819  -0.6726  -0.6657  -0.6614
 -0.6540  -0.6411  -0.6394  -0.6330  -0.6243  -0.6123  -0.5914  -0.5843
 -0.5780  -0.5747  -0.5707  -0.5629  -0.5592  -0.5555  -0.5542  -0.5452
 -0.5333  -0.5224  -0.5187  -0.5103  -0.4770  -0.4628  -0.4618  -0.4562
 -0.4543  -0.4388  -0.4275  -0.4183  -0.4078  -0.3781  -0.3540  -0.3310
 -0.2967
 -- Virtual --
 -0.0089   0.0454   0.0693   0.0933   0.1189   0.1512   0.1557   0.1592
  0.1684   0.1698   0.1769   0.1875   0.1912   0.1982   0.2093   0.2101
  0.2251   0.2274   0.2292   0.2371   0.2387   0.2509   0.2588   0.2640
  0.2666   0.3023   0.3117   0.3171   0.3215   0.3229   0.3306   0.3398
  0.3484   0.3534   0.3545   0.3583   0.3613   0.3693   0.3712   0.3758
  0.3793   0.3855   0.3883   0.3927   0.4025   0.4062   0.4083   0.4124
  0.4177   0.4277   0.4289   0.4351   0.4398   0.4463   0.4470   0.4504
  0.4590   0.4675   0.4714   0.4775   0.4818   0.4853   0.4870   0.4963
  0.4992   0.5005   0.5097   0.5146   0.5183   0.5282   0.5309   0.5316
  0.5364   0.5405   0.5464   0.5484   0.5560   0.5576   0.5603   0.5664
  0.5741   0.5798   0.5828   0.5859   0.5940   0.5970   0.5988   0.6036
  0.6083   0.6109   0.6168   0.6216   0.6227   0.6251   0.6321   0.6331
  0.6371   0.6388   0.6422   0.6447   0.6514   0.6620   0.6671   0.6784
  0.6853   0.6891   0.6933   0.6974   0.7025   0.7102   0.7158   0.7221
  0.7300   0.7359   0.7390   0.7471   0.7506   0.7570   0.7680   0.7706
  0.7763   0.7851   0.7966   0.8021   0.8039   0.8091   0.8137   0.8244
  0.8266   0.8371   0.8391   0.8407   0.8431   0.8541   0.8591   0.8640
  0.8651   0.8668   0.8766   0.8770   0.8815   0.8893   0.8984   0.9145
  0.9162   0.9177   0.9237   0.9265   0.9336   0.9383   0.9423   0.9475
  0.9506   0.9615   0.9635   0.9672   0.9780   0.9863   0.9901   0.9929
  1.0011   1.0056   1.0077   1.0094   1.0200   1.0239   1.0310   1.0349
  1.0446   1.0470   1.0520   1.0609   1.0695   1.0725   1.0732   1.0773
  1.0811   1.0858   1.0889   1.0916   1.1004   1.1113   1.1164   1.1201
  1.1258   1.1300   1.1364   1.1400   1.1497   1.1523   1.1585   1.1626
  1.1673   1.1773   1.1801   1.1825   1.1846   1.1973   1.1985   1.2054
  1.2112   1.2125   1.2181   1.2204   1.2294   1.2318   1.2425   1.2510
  1.2536   1.2612   1.2681   1.2732   1.2778   1.2824   1.2951   1.3069
  1.3145   1.3296   1.3335   1.3368   1.3445   1.3495   1.3561   1.3677
  1.3716   1.3760   1.3842   1.3871   1.3895   1.3995   1.4099   1.4166
  1.4254   1.4281   1.4321   1.4388   1.4464   1.4540   1.4646   1.4792
  1.4820   1.4832   1.4874   1.4924   1.5021   1.5115   1.5143   1.5210
  1.5328   1.5345   1.5452   1.5544   1.5569   1.5612   1.5667   1.5713
  1.5739   1.5775   1.5842   1.5906   1.6114   1.6190   1.6241   1.6374
  1.6493   1.6501   1.6515   1.6645   1.6719   1.6829   1.6889   1.6974
  1.7089   1.7172   1.7238   1.7354   1.7438   1.7480   1.7518   1.7574
  1.7632   1.7719   1.7835   1.7892   1.7930   1.8030   1.8092   1.8175
  1.8281   1.8417   1.8446   1.8529   1.8613   1.8641   1.8731   1.8751
  1.8772   1.8873   1.8929   1.9129   1.9232   1.9416   1.9503   1.9545
  1.9666   1.9751   1.9776   1.9838   2.0113   2.0246   2.0338   2.0422
  2.0432   2.0597   2.0848   2.0982   2.1005   2.1159   2.1331   2.1436
  2.1500   2.1580   2.1732   2.1780   2.2031   2.2167   2.2273   2.2355
  2.2398   2.2620   2.2726   2.2839   2.2886   2.2969   2.3029   2.3162
  2.3337   2.3389   2.3543   2.3618   2.3693   2.3753   2.3799   2.4004
  2.4049   2.4199   2.4356   2.4402   2.4499   2.4572   2.4623   2.4729
  2.4851   2.4959   2.5030   2.5063   2.5187   2.5333   2.5383   2.5491
  2.5590   2.5654   2.5750   2.5917   2.5964   2.5980   2.6114   2.6141
  2.6218   2.6301   2.6390   2.6538   2.6633   2.6703   2.6724   2.6762
  2.6798   2.6922   2.6987   2.6998   2.7169   2.7248   2.7262   2.7389
  2.7458   2.7497   2.7524   2.7653   2.7693   2.7755   2.7990   2.8123
  2.8178   2.8241   2.8351   2.8411   2.8500   2.8554   2.8610   2.8694
  2.8717   2.8818   2.8824   2.8968   2.8996   2.9098   2.9122   2.9232
  2.9333   2.9471   2.9484   2.9539   2.9608   2.9694   2.9755   2.9772
  2.9816   2.9927   2.9943   2.9993   3.0073   3.0108   3.0208   3.0229
  3.0319   3.0344   3.0380   3.0458   3.0562   3.0705   3.0762   3.0832
  3.0936   3.0954   3.1010   3.1019   3.1149   3.1160   3.1241   3.1312
  3.1361   3.1433   3.1539   3.1592   3.1620   3.1695   3.1842   3.1890
  3.1990   3.2020   3.2065   3.2107   3.2151   3.2236   3.2241   3.2263
  3.2349   3.2370   3.2444   3.2502   3.2554   3.2606   3.2664   3.2729
  3.2765   3.2788   3.2819   3.2895   3.2920   3.2949   3.2996   3.3041
  3.3105   3.3153   3.3184   3.3219   3.3332   3.3346   3.3361   3.3432
  3.3454   3.3493   3.3568   3.3626   3.3648   3.3676   3.3742   3.3761
  3.3835   3.3852   3.3952   3.3977   3.4011   3.4080   3.4155   3.4191
  3.4297   3.4313   3.4377   3.4457   3.4520   3.4541   3.4583   3.4631
  3.4699   3.4735   3.4777   3.4817   3.4876   3.4956   3.5003   3.5008
  3.5047   3.5109   3.5115   3.5178   3.5209   3.5282   3.5379   3.5405
  3.5505   3.5509   3.5555   3.5649   3.5686   3.5758   3.5824   3.5961
  3.6030   3.6062   3.6087   3.6211   3.6274   3.6302   3.6313   3.6404
  3.6437   3.6465   3.6618   3.6662   3.6758   3.6821   3.6843   3.6896
  3.6957   3.7033   3.7086   3.7094   3.7181   3.7238   3.7320   3.7350
  3.7359   3.7461   3.7497   3.7546   3.7600   3.7651   3.7788   3.7808
  3.7875   3.7886   3.7972   3.7985   3.8021   3.8062   3.8145   3.8193
  3.8239   3.8301   3.8342   3.8418   3.8521   3.8603   3.8634   3.8725
  3.8807   3.8850   3.8903   3.8977   3.9123   3.9159   3.9237   3.9357
  3.9378   3.9475   3.9479   3.9600   3.9665   3.9790   3.9850   3.9914
  3.9934   4.0136   4.0178   4.0241   4.0337   4.0379   4.0456   4.0626
  4.0749   4.0797   4.0835   4.0869   4.0938   4.1099   4.1186   4.1304
  4.1348   4.1428   4.1453   4.1538   4.1565   4.1637   4.1700   4.1771
  4.1879   4.1930   4.2010   4.2026   4.2183   4.2316   4.2459   4.2610
  4.2661   4.2732   4.2783   4.2796   4.2910   4.2939   4.2958   4.3008
  4.3025   4.3107   4.3157   4.3255   4.3386   4.3434   4.3496   4.3537
  4.3602   4.3667   4.3684   4.3744   4.3770   4.3827   4.3862   4.3938
  4.4005   4.4062   4.4089   4.4208   4.4284   4.4368   4.4504   4.4601
  4.4654   4.4738   4.4831   4.5026   4.5054   4.5216   4.5265   4.5322
  4.5333   4.5451   4.5484   4.5598   4.5675   4.5776   4.5801   4.5851
  4.5872   4.5907   4.6048   4.6107   4.6127   4.6217   4.6329   4.6405
  4.6481   4.6621   4.6703   4.6821   4.6834   4.6899   4.6990   4.7086
  4.7157   4.7284   4.7448   4.7639   4.7738   4.7795   4.7891   4.7993
  4.8137   4.8251   4.8407   4.8487   4.8560   4.8619   4.8817   4.8836
  4.8909   4.8978   4.9237   4.9317   4.9506   4.9527   4.9714   4.9811
  4.9964   5.0314   5.0380   5.0441   5.0491   5.0561   5.0580   5.0679
  5.1033   5.1054   5.1206   5.1270   5.1324   5.1456   5.1524   5.1549
  5.1701   5.1875   5.2057   5.2116   5.2196   5.2433   5.2521   5.2609
  5.2804   5.2823   5.2915   5.3122   5.3254   5.3323   5.3426   5.3577
  5.3666   5.3978   5.4036   5.4069   5.4294   5.4352   5.4375   5.4664
  5.4856   5.5039   5.5101   5.5139   5.5154   5.5372   5.5605   5.5626
  5.5651   5.5667   5.5748   5.5786   5.5859   5.5972   5.6067   5.6161
  5.6314   5.6401   5.6543   5.6578   5.6677   5.6739   5.6789   5.7013
  5.7055   5.7153   5.7258   5.7402   5.7565   5.7636   5.7746   5.7813
  5.7948   5.8151   5.8261   5.8455   5.8731   5.9004   5.9203   5.9299
  5.9560   5.9760   5.9965   6.0086   6.0258   6.0263   6.0512   6.0812
  6.0859   6.0976   6.1076   6.1304   6.1553   6.1819   6.1943   6.2181
  6.2192   6.2284   6.2441   6.2688   6.2769   6.3099   6.3237   6.3533
  6.3611   6.3921   6.4457   6.4673   6.4951   6.5348   6.5641   6.5666
  6.5871   6.5925   6.6476   6.6511   6.6642   6.7072   6.7415   6.8394
  6.8437   6.8879   6.8999   6.9021   6.9134   6.9318   7.0413   7.0824
  7.1519   7.1551   7.2097   7.2378   7.3342   7.3448   7.3463   7.3546
  7.4218   7.4804   7.5507   7.5671   7.5811   7.5831   7.6369   7.6807
  7.6958   7.7288   8.0152   8.4025   9.9970  10.3792  11.0768  11.2861
 11.7207  11.8234  12.1600  12.3960  12.5184  12.7318  12.8574  13.0945
 13.2694  13.5656  13.8243  13.9540  14.0508  14.1854  14.2538  14.3824
 14.4219  14.7641  15.3361  15.7381  16.0231
 --------------------------------------------------------------
 
          Ground-State Mulliken Net Atomic Charges

     Atom                 Charge (a.u.)
  ----------------------------------------
      1 C                    -0.167488
      2 C                    -0.112183
      3 C                    -0.020516
      4 C                    -0.003993
      5 H                     0.185774
      6 C                    -0.024034
      7 C                     0.079868
      8 C                     0.030729
      9 C                    -0.122295
     10 C                    -0.129105
     11 C                     0.070084
     12 H                     0.164532
     13 C                     0.358938
     14 C                     0.364220
     15 N                    -0.101112
     16 C                     0.355968
     17 C                     0.384976
     18 N                    -0.088770
     19 O                    -0.464944
     20 O                    -0.479082
     21 O                    -0.486760
     22 O                    -0.464521
     23 C                    -0.201726
     24 H                     0.140870
     25 H                     0.112012
     26 H                     0.111776
     27 C                    -0.199934
     28 H                     0.134843
     29 H                     0.111518
     30 H                     0.112730
     31 H                     0.209499
     32 C                    -0.114515
     33 S                     0.029011
     34 C                    -0.108267
     35 C                    -0.066817
     36 C                    -0.268399
     37 H                     0.253896
     38 H                     0.193292
     39 H                     0.219922
  ----------------------------------------
  Sum of atomic charges =     0.000000

 -----------------------------------------------------------------
                    Cartesian Multipole Moments
 -----------------------------------------------------------------
    Charge (ESU x 10^10)
                 0.0000
    Dipole Moment (Debye)
         X       3.2626      Y       3.1887      Z      -0.6919
       Tot       4.6142
    Quadrupole Moments (Debye-Ang)
        XX    -154.3368     XY       6.0389     YY    -185.9353
        XZ       4.8498     YZ      -0.8298     ZZ    -177.5490
    Octopole Moments (Debye-Ang^2)
       XXX    -102.9082    XXY     513.2347    XYY     -34.7737
       YYY    1714.2777    XXZ       8.0925    XYZ     -10.3512
       YYZ       5.8354    XZZ     -33.4578    YZZ     585.2218
       ZZZ       2.8718
    Hexadecapole Moments (Debye-Ang^3)
      XXXX    -684.7673   XXXY    -124.2877   XXYY   -2718.8858
      XYYY    -237.8118   YYYY  -17422.7848   XXXZ     469.7004
      XXYZ     109.1757   XYYZ     265.7410   YYYZ     698.4620
      XXZZ   -1107.3224   XYZZ      21.7101   YYZZ   -4207.9295
      XZZZ     505.4836   YZZZ     -35.2980   ZZZZ   -6295.8404
 -----------------------------------------------------------------
 Total job time:  297.67s(wall), 8254.94s(cpu) 
 Wed Sep 20 08:14:49 2023

        *************************************************************
        *                                                           *
        *  Thank you very much for using Q-Chem.  Have a nice day.  *
        *                                                           *
        *************************************************************


0 sent ACK to 0 
now end server 0 ... 
cleanup process ... done
remove work dirs ./qchem4176488.0 -- ./qchem4176488.0
rm -rf ./qchem4176488.0
rm -rf ./qchem4176488
