You are running Q-Chem version: 5.4.0

#
# job setting
#
local host:  exp-3-18
current dir: /expanse/lustre/projects/csd626/rramji/aromodel/PNDIT/Rotation_Test
input file:  Dimethyl_Naphthalene_Dicarboximide_Phi_10_Theta_0_Thiophene.qcin
output file: 
nprocs     : 1
nthreads   : 64
#
# qchem installation setting
#
QC:          /cm/shared/apps/spack/cpu/opt/spack/linux-centos8-zen2/gcc-10.2.0/qchem-5.4-akfmr7b3t57bfs6qan3padb2wnb2i7cl
QCAUX:       /cm/shared/apps/spack/cpu/opt/spack/linux-centos8-zen2/gcc-10.2.0/qchem-5.4-akfmr7b3t57bfs6qan3padb2wnb2i7cl/qcaux
QCPROG:      /cm/shared/apps/spack/cpu/opt/spack/linux-centos8-zen2/gcc-10.2.0/qchem-5.4-akfmr7b3t57bfs6qan3padb2wnb2i7cl/exe/qcprog.exe
QCPROG_S:    /cm/shared/apps/spack/cpu/opt/spack/linux-centos8-zen2/gcc-10.2.0/qchem-5.4-akfmr7b3t57bfs6qan3padb2wnb2i7cl/exe/qcprog.exe_s
PARALLEL:    -DPARALLEL
QCMPI:       mpich
#
# qchem directory setting
#
qcrun:       qchem3542196
QCSCRATCH:   .
QCLOCALSCR:  
QCTMPDIR:    .
QCFILEPREF:  ./qchem3542196
QCSAVEDIR:   
workdirs:    ./qchem3542196
workdir0:    ./qchem3542196
partmpdirs =  
#
# parallel setting
#
QCRSH:           ssh
QCMPI:           mpich
QCMPIRUN:        /cm/shared/apps/spack/cpu/opt/spack/linux-centos8-zen2/gcc-10.2.0/qchem-5.4-akfmr7b3t57bfs6qan3padb2wnb2i7cl/bin/mpi/mpirun_qchem
QCMACHINEFILE:   ./qchem3542196/hostfile
exp-3-18

#
# env setting
#
exported envs:   QC QCAUX QCSCRATCH QCRUNNAME QCFILEPREF QCPROG QCPROG_S GUIFILE

Running Job 1 of 1 Dimethyl_Naphthalene_Dicarboximide_Phi_10_Theta_0_Thiophene.qcin
qchem Dimethyl_Naphthalene_Dicarboximide_Phi_10_Theta_0_Thiophene.qcin_3542196.0 ./qchem3542196/ 1
/cm/shared/apps/spack/cpu/opt/spack/linux-centos8-zen2/gcc-10.2.0/qchem-5.4-akfmr7b3t57bfs6qan3padb2wnb2i7cl/bin/mpi/mpirun_qchem -machinefile ./qchem3542196/hostfile -np 1 /cm/shared/apps/spack/cpu/opt/spack/linux-centos8-zen2/gcc-10.2.0/qchem-5.4-akfmr7b3t57bfs6qan3padb2wnb2i7cl/exe/qcprog.exe Dimethyl_Naphthalene_Dicarboximide_Phi_10_Theta_0_Thiophene.qcin_3542196.0 ./qchem3542196/

Process 0 of 1 is on exp-3-18 - thread support 0
initial socket setup ...start
initial socket setup ...done 
now start server 0 ... 
                  Welcome to Q-Chem
     A Quantum Leap Into The Future Of Chemistry


 Q-Chem 5.4, Q-Chem, Inc., Pleasanton, CA (2021)

 License issued to: University of California, San Diego (site)

 E. Epifanovsky,  A. T. B. Gilbert,  Xintian Feng,  Joonho Lee,  Yuezhi Mao,  
 N. Mardirossian,  P. Pokhilko,  A. White,  M. Wormit,  M. P. Coons,  
 A. L. Dempwolff,  Zhengting Gan,  D. Hait,  P. R. Horn,  L. D. Jacobson,  
 I. Kaliman,  J. Kussmann,  A. W. Lange,  Ka Un Lao,  D. S. Levine,  Jie Liu,  
 S. C. McKenzie,  A. F. Morrison,  K. Nanda,  F. Plasser,  D. R. Rehn,  
 M. L. Vidal,  Zhi-Qiang You,  Ying Zhu,  B. Alam,  B. Albrecht,  
 A. Aldossary,  E. Alguire,  J. H. Andersen,  D. Barton,  K. Begam,  A. Behn,  
 Y. A. Bernard,  E. J. Berquist,  H. Burton,  A. Carreras,  K. Carter-Fenk,  
 R. Chakraborty,  A. D. Chien,  K. D. Closser,  V. Cofer-Shabica,  
 S. Dasgupta,  Jia Deng,  M. de Wergifosse,  M. Diedenhofen,  Hainam Do,  
 S. Ehlert,  Po-Tung Fang,  S. Fatehi,  Qingguo Feng,  J. Gayvert,  
 Qinghui Ge,  G. Gidofalvi,  M. Goldey,  J. Gomes,  C. Gonzalez-Espinoza,  
 S. Gulania,  A. Gunina,  M. W. D. Hanson-Heine,  P. H. P. Harbach,  
 A. W. Hauser,  M. F. Herbst,  M. Hernandez Vera,  M. Hodecker,  
 Z. C. Holden,  S. Houck,  Xunkun Huang,  Kerwin Hui,  B. C. Huynh,  
 M. Ivanov,  Hyunjun Ji,  Hanjie Jiang,  B. Kaduk,  S. Kaehler,  
 K. Khistyaev,  Jaehoon Kim,  P. Klunzinger,  Z. Koczor-Benda,  
 Joong Hoon Koh,  D. Kosenkov,  L. Koulias,  T. Kowalczyk,  C. M. Krauter,  
 K. Kue,  A. Kunitsa,  T. Kus,  A. Landau,  K. V. Lawler,  D. Lefrancois,  
 S. Lehtola,  Rain Li,  Yi-Pei Li,  Jiashu Liang,  M. Liebenthal,  
 Hung-Hsuan Lin,  You-Sheng Lin,  Fenglai Liu,  Kuan-Yu Liu,  
 M. Loipersberger,  A. Luenser,  A. Manjanath,  P. Manohar,  E. Mansoor,  
 S. F. Manzer,  Shan-Ping Mao,  A. V. Marenich,  T. Markovich,  S. Mason,  
 S. A. Maurer,  P. F. McLaughlin,  M. F. S. J. Menger,  J.-M. Mewes,  
 S. A. Mewes,  P. Morgante,  J. W. Mullinax,  T. S. Nguyen-Beck,  
 K. J. Oosterbaan,  G. Paran,  Alexander C. Paul,  Suranjan K. Paul,  
 F. Pavosevic,  Zheng Pei,  S. Prager,  E. I. Proynov,  E. Ramos,  B. Rana,  
 A. E. Rask,  A. Rettig,  R. M. Richard,  F. Rob,  E. Rossomme,  T. Scheele,  
 M. Scheurer,  M. Schneider,  N. Sergueev,  S. M. Sharada,  W. Skomorowski,  
 D. W. Small,  C. J. Stein,  Yu-Chuan Su,  E. J. Sundstrom,  Zhen Tao,  
 J. Thirman,  T. Tsuchimochi,  N. M. Tubman,  S. P. Veccham,  O. Vydrov,  
 J. Wenzel,  J. Witte,  A. Yamada,  Kun Yao,  S. Yeganeh,  S. R. Yost,  
 A. Zech,  Igor Ying Zhang,  Xing Zhang,  Yu Zhang,  D. Zuev,  
 A. Aspuru-Guzik,  A. T. Bell,  N. A. Besley,  K. B. Bravaya,  B. R. Brooks,  
 D. Casanova,  Jeng-Da Chai,  S. Coriani,  C. J. Cramer,  
 A. E. DePrince, III,  R. A. DiStasio Jr.,  A. Dreuw,  B. D. Dunietz,  
 T. R. Furlani,  W. A. Goddard III,  S. Grimme,  S. Hammes-Schiffer,  
 T. Head-Gordon,  W. J. Hehre,  Chao-Ping Hsu,  T.-C. Jagau,  Yousung Jung,  
 A. Klamt,  Jing Kong,  D. S. Lambrecht,  WanZhen Liang,  N. J. Mayhall,  
 C. W. McCurdy,  J. B. Neaton,  C. Ochsenfeld,  J. A. Parkhill,  R. Peverati,  
 V. A. Rassolov,  Yihan Shao,  L. V. Slipchenko,  T. Stauch,  R. P. Steele,  
 J. E. Subotnik,  A. J. W. Thom,  A. Tkatchenko,  D. G. Truhlar,  
 T. Van Voorhis,  T. A. Wesolowski,  K. B. Whaley,  H. L. Woodcock III,  
 P. M. Zimmerman,  S. Faraji,  P. M. W. Gill,  M. Head-Gordon,  
 J. M. Herbert,  A. I. Krylov

 Contributors to earlier versions of Q-Chem not listed above: 
 R. D. Adamson,  B. Austin,  R. Baer,  J. Baker,  G. J. O. Beran,  
 K. Brandhorst,  S. T. Brown,  E. F. C. Byrd,  A. K. Chakraborty,  
 G. K. L. Chan,  Chun-Min Chang,  Yunqing Chen,  C.-L. Cheng,  
 Siu Hung Chien,  D. M. Chipman,  D. L. Crittenden,  H. Dachsel,  
 R. J. Doerksen,  A. D. Dutoi,  R. G. Edgar,  J. Fosso-Tande,  
 L. Fusti-Molnar,  D. Ghosh,  A. Ghysels,  A. Golubeva-Zadorozhnaya,  
 J. Gonthier,  M. S. Gordon,  S. R. Gwaltney,  G. Hawkins,  J. E. Herr,  
 A. Heyden,  S. Hirata,  E. G. Hohenstein,  G. Kedziora,  F. J. Keil,  
 C. Kelley,  Jihan Kim,  R. A. King,  R. Z. Khaliullin,  P. P. Korambath,  
 W. Kurlancheek,  A. Laurent,  A. M. Lee,  M. S. Lee,  S. V. Levchenko,  
 Ching Yeh Lin,  D. Liotard,  E. Livshits,  R. C. Lochan,  I. Lotan,  
 L. A. Martinez-Martinez,  P. E. Maslen,  N. Nair,  D. P. O'Neill,  
 D. Neuhauser,  E. Neuscamman,  C. M. Oana,  R. Olivares-Amaya,  R. Olson,  
 T. M. Perrine,  B. Peters,  P. A. Pieniazek,  A. Prociuk,  Y. M. Rhee,  
 J. Ritchie,  M. A. Rohrdanz,  E. Rosta,  N. J. Russ,  H. F. Schaefer III,  
 M. W. Schmidt,  N. E. Schultz,  S. Sharma,  N. Shenvi,  C. D. Sherrill,  
 A. C. Simmonett,  A. Sodt,  T. Stein,  D. Stuck,  K. S. Thanthiriwatte,  
 V. Vanovschi,  L. Vogt,  Tao Wang,  A. Warshel,  M. A. Watson,  
 C. F. Williams,  Q. Wu,  X. Xu,  Jun Yang,  W. Zhang,  Yan Zhao

 Please cite Q-Chem as follows:
 Y. Shao et al., Mol. Phys. 113, 184-215 (2015)
 DOI: 10.1080/00268976.2014.952696

 Q-Chem 5.4.0 for Intel X86 EM64T Linux

 Parts of Q-Chem use Armadillo 9.800.1 (Horizon Scraper).
 http://arma.sourceforge.net/

 Q-Chem begins on Wed Sep 20 08:00:36 2023  

 Host: 
0

     Scratch files written to ./qchem3542196//
 May1621 |scratch|qcdevops|jenkins|workspace|build_RNUM    
 Parallel job on  1  processors
 Processing $rem in /cm/shared/apps/spack/cpu/opt/spack/linux-centos8-zen2/gcc-10.2.0/qchem-5.4-akfmr7b3t57bfs6qan3padb2wnb2i7cl/config/preferences:
 Processing $rem in /home/rramji/.qchemrc:
 Symmetry turned off for PCM/SM12/SMD calculation
 Core orbitals will be frozen

 Checking the input file for inconsistencies... 	...done.

 Q-Chem warning in module forms1/BasisType.C, line 2236:

 You are not using the predefined 5D/6D in this basis set.


--------------------------------------------------------------
User input:
--------------------------------------------------------------
$molecule
0 1
C	1.169177	-6.639243	-0.256927
C	1.067337	-6.062399	-1.562675
C	1.003773	-5.703803	0.827197
C	0.832816	-4.731044	-1.841253
H	1.182777	-6.718195	-2.440709
C	0.759135	-4.312330	0.535488
C	0.665608	-3.779876	-0.794999
C	0.592024	-3.361324	1.580529
C	0.421169	-2.389641	-1.084374
C	0.357557	-2.028070	1.305258
C	0.256690	-1.455759	0.000000
H	0.242565	-1.373530	2.184267
C	1.070820	-6.094632	2.269719
C	0.658788	-3.740595	3.011152
N	0.895334	-5.091887	3.254617
C	0.766979	-4.358010	-3.275775
C	0.354224	-2.005586	-2.527951
N	0.529086	-3.002902	-3.513104
O	1.270336	-7.242571	2.661046
O	0.518831	-2.941447	3.934410
O	0.909352	-5.169576	-4.188059
O	0.154583	-0.865129	-2.940845
C	0.962688	-5.479882	4.667206
H	1.152619	-6.563651	4.712423
H	0.009812	-5.224773	5.169231
H	1.771476	-4.915854	5.169992
C	0.449351	-2.548170	-4.904229
H	0.603867	-3.430587	-5.546833
H	1.222168	-1.779783	-5.095998
H	-0.538644	-2.088191	-5.095858
H	1.356562	-7.703791	-0.070974
C	0.000000	0.000000	0.000000
S	-0.000201	0.793171	1.580530
C	-0.000228	2.430885	0.904911
C	-0.000168	0.997990	-0.985400
C	-0.000267	2.318231	-0.493528
H	-0.000145	0.762343	-2.059934
H	-0.000339	3.199164	-1.152593
H	-0.000311	3.311566	1.556025
$end

$rem
JOBTYPE		SP
EXCHANGE	HF
CORRELATION	pRIMP2
BASIS		cc-pvtz
METHOD		rimp2
AUX_BASIS	rimp2-cc-pvtz
SOLVENT_METHOD	PCM
PURECART	11111
SYMMETRY	false
MEM_TOTAL	110000
SCF_CONVERGENCE = 6
THRESH=10
GUI = 2
$end



$solvent
dielectric 4.90
$end
--------------------------------------------------------------
 ----------------------------------------------------------------
             Standard Nuclear Orientation (Angstroms)
    I     Atom           X                Y                Z
 ----------------------------------------------------------------
    1      C       1.1691770000    -6.6392430000    -0.2569270000
    2      C       1.0673370000    -6.0623990000    -1.5626750000
    3      C       1.0037730000    -5.7038030000     0.8271970000
    4      C       0.8328160000    -4.7310440000    -1.8412530000
    5      H       1.1827770000    -6.7181950000    -2.4407090000
    6      C       0.7591350000    -4.3123300000     0.5354880000
    7      C       0.6656080000    -3.7798760000    -0.7949990000
    8      C       0.5920240000    -3.3613240000     1.5805290000
    9      C       0.4211690000    -2.3896410000    -1.0843740000
   10      C       0.3575570000    -2.0280700000     1.3052580000
   11      C       0.2566900000    -1.4557590000     0.0000000000
   12      H       0.2425650000    -1.3735300000     2.1842670000
   13      C       1.0708200000    -6.0946320000     2.2697190000
   14      C       0.6587880000    -3.7405950000     3.0111520000
   15      N       0.8953340000    -5.0918870000     3.2546170000
   16      C       0.7669790000    -4.3580100000    -3.2757750000
   17      C       0.3542240000    -2.0055860000    -2.5279510000
   18      N       0.5290860000    -3.0029020000    -3.5131040000
   19      O       1.2703360000    -7.2425710000     2.6610460000
   20      O       0.5188310000    -2.9414470000     3.9344100000
   21      O       0.9093520000    -5.1695760000    -4.1880590000
   22      O       0.1545830000    -0.8651290000    -2.9408450000
   23      C       0.9626880000    -5.4798820000     4.6672060000
   24      H       1.1526190000    -6.5636510000     4.7124230000
   25      H       0.0098120000    -5.2247730000     5.1692310000
   26      H       1.7714760000    -4.9158540000     5.1699920000
   27      C       0.4493510000    -2.5481700000    -4.9042290000
   28      H       0.6038670000    -3.4305870000    -5.5468330000
   29      H       1.2221680000    -1.7797830000    -5.0959980000
   30      H      -0.5386440000    -2.0881910000    -5.0958580000
   31      H       1.3565620000    -7.7037910000    -0.0709740000
   32      C       0.0000000000     0.0000000000     0.0000000000
   33      S      -0.0002010000     0.7931710000     1.5805300000
   34      C      -0.0002280000     2.4308850000     0.9049110000
   35      C      -0.0001680000     0.9979900000    -0.9854000000
   36      C      -0.0002670000     2.3182310000    -0.4935280000
   37      H      -0.0001450000     0.7623430000    -2.0599340000
   38      H      -0.0003390000     3.1991640000    -1.1525930000
   39      H      -0.0003110000     3.3115660000     1.5560250000
 ----------------------------------------------------------------
 Nuclear Repulsion Energy =        2497.97282643 hartrees
 There are       97 alpha and       97 beta electrons
 Requested basis set is cc-pVTZ
 There are 344 shells and 982 basis functions

 Total QAlloc Memory Limit 110000 MB
 Mega-Array Size       188 MB
 MEM_STATIC part       192 MB
 Discretize the solute cavity surface with Lebedev spheres
	Using 110 Lebedev grid points for each H atom
	Using 194 Lebedev grid points for other atoms
	Atomic van der Waals radii will be scaled by 1.20
 Remove points where switching function is < 1.0e-08
 Keep 2524 surface tesserae and discard 4034 interior tesserae
 Molecular Surface Area = 360.861 Angst**2
 Requested basis set is rimp2-cc-pVTZ
 There are 750 shells and 2588 basis functions
 A cutoff of  1.0D-10 yielded  31712 shell pairs
 There are    244298 function pairs (    317485 Cartesian)
 Smallest overlap matrix eigenvalue = 9.74E-06

 Q-Chem warning in module stvman/mkSTV.C, line 323:

 Overlap eigenvalue is smaller than square root of threshold
 Use THRESH >= 12 to get rid of this warning


 Scale SEOQF with 1.000000e-01/1.000000e-02/1.000000e-02

 Standard Electronic Orientation quadrupole field applied
 Nucleus-field energy     =     0.0000000114 hartrees
 Guess from superposition of atomic densities
 Warning:  Energy on first SCF cycle will be non-variational
 SAD guess density has 194.000000 electrons

 -----------------------------------------------------------------------
  General SCF calculation program by
  Eric Jon Sundstrom, Paul Horn, Yuezhi Mao, Dmitri Zuev, Alec White,
  David Stuck, Shaama M.S., Shane Yost, Joonho Lee, David Small,
  Daniel Levine, Susi Lehtola, Hugh Burton, Evgeny Epifanovsky,
  Bang C. Huynh
 -----------------------------------------------------------------------
 Hartree-Fock
 using 64 threads for integral computing
 -------------------------------------------------------
 OpenMP Integral computing Module                
 Release: version 1.0, May 2013, Q-Chem Inc. Pittsburgh 
 -------------------------------------------------------
 A restricted SCF calculation will be
 performed using DIIS
 SCF converges when DIIS error is below 1.0e-06
 ---------------------------------------
  Cycle       Energy         DIIS error
 ---------------------------------------
    1   -1581.4023327867      1.87e-02  
    2   -1570.1147964484      2.08e-03  
    3   -1570.4444317179      1.61e-03  
    4   -1570.6695959814      2.59e-04  
    5   -1570.6818581876      7.78e-05  
    6   -1570.6829780081      2.86e-05  
    7   -1570.6832383899      1.43e-05  
    8   -1570.6833194820      5.95e-06  
    9   -1570.6833321380      2.28e-06  
   10   -1570.6833343180      8.07e-07  Convergence criterion met
 ---------------------------------------
 SCF time:   CPU 5992.38s  wall 230.00s 

************** Final PCM Free Energy Summary **************
 G_electrostatic  =      -0.02086254 hartree =     -13.09143874 kcal/mol
 G_cavitation     =       0.00000000 hartree =       0.00000000 kcal/mol
 G_dispersion     =       0.00000000 hartree =       0.00000000 kcal/mol
 G_repulsion      =       0.00000000 hartree =       0.00000000 kcal/mol
 --------------------------------------------------
 Non-electrostatic Free Energy =       0.00000000 hartree =       0.00000000 kcal/mol
 Total                         =      -0.02086254 hartree =     -13.09143874 kcal/mol
 --------------------------------------------------
 SCF Energy (H0 + V/2)                       =   -1570.68333432 
 Solute Internal Energy (H0)                 =   -1570.66247178 
 Total Free Energy (H0 + V/2 + non-elec)     =   -1570.68333432 hartree
                                             = -985618.66822643 kcal/mol
***********************************************************

 SCF   energy in the final basis set =    -1570.6833343180
 Total energy in the final basis set =    -1570.6833343180


 --------------------------------------------------------------
  Generalized many-body perturbation theory program
  by Joonho Lee, Fazle Rob, Xintian Feng, Evgeny Epifanovsky

 No regularization used 
 (reg. param. = 0.0000e+00)
  (P|Q)^-1/2 Time:  CPU 208.67 s  wall 3.52 s

 In RI-MP2 calculation: 
 # of frozen core orbitals: 31

 Components of the RIMP2 correlation energy:
        aaaa    correlation energy =        -0.6177391557 a.u.
        abab    correlation energy =        -3.3927143281 a.u.
        bbbb    correlation energy =        -0.6177391557 a.u.
        non-Brillouin singles      =        -0.0000000000 a.u.
        total same-spin energy     =        -1.2354783114 a.u.
        total opposite-spin energy =        -3.3927143281 a.u.

 Total  RIMP2   correlation energy =        -4.6281926395 a.u.
        RIMP2         total energy =     -1575.3115269575 a.u.

 RI-MP2 Energy Time:  CPU 1892.09 s  wall 31.21 s
 
 --------------------------------------------------------------
 
                    Orbital Energies (a.u.)
 --------------------------------------------------------------
 
 Alpha MOs
 -- Occupied --
-91.9932 -20.5585 -20.5565 -20.5560 -20.5536 -15.6312 -15.6307 -11.3998
-11.3976 -11.3914 -11.3908 -11.3200 -11.3021 -11.3002 -11.2984 -11.2953
-11.2940 -11.2912 -11.2906 -11.2875 -11.2832 -11.2790 -11.2787 -11.2650
-11.2644 -11.2526 -11.2498  -8.9932  -6.6740  -6.6734  -6.6728  -1.4259
 -1.4248  -1.4043  -1.4042  -1.2676  -1.2655  -1.2170  -1.1777  -1.1441
 -1.1163  -1.0638  -1.0495  -0.9926  -0.9903  -0.9872  -0.9588  -0.9474
 -0.8975  -0.8794  -0.8788  -0.8617  -0.7966  -0.7802  -0.7733  -0.7624
 -0.7358  -0.7245  -0.7033  -0.6941  -0.6824  -0.6741  -0.6666  -0.6624
 -0.6562  -0.6416  -0.6378  -0.6341  -0.6281  -0.6130  -0.5914  -0.5837
 -0.5791  -0.5709  -0.5663  -0.5641  -0.5615  -0.5562  -0.5543  -0.5471
 -0.5351  -0.5254  -0.5249  -0.5160  -0.4817  -0.4694  -0.4654  -0.4619
 -0.4581  -0.4505  -0.4295  -0.4194  -0.4100  -0.3777  -0.3554  -0.3366
 -0.2993
 -- Virtual --
 -0.0197   0.0509   0.0677   0.1041   0.1346   0.1541   0.1586   0.1589
  0.1665   0.1727   0.1750   0.1859   0.1966   0.2022   0.2078   0.2098
  0.2253   0.2278   0.2294   0.2372   0.2460   0.2551   0.2631   0.2679
  0.2700   0.3092   0.3109   0.3153   0.3202   0.3363   0.3380   0.3415
  0.3484   0.3488   0.3530   0.3559   0.3581   0.3639   0.3778   0.3806
  0.3849   0.3883   0.3964   0.3983   0.4040   0.4081   0.4112   0.4186
  0.4256   0.4300   0.4337   0.4398   0.4439   0.4473   0.4508   0.4564
  0.4593   0.4637   0.4696   0.4711   0.4793   0.4837   0.4889   0.4918
  0.5017   0.5095   0.5157   0.5174   0.5217   0.5263   0.5276   0.5302
  0.5373   0.5396   0.5464   0.5566   0.5577   0.5614   0.5650   0.5684
  0.5703   0.5717   0.5831   0.5891   0.5921   0.5948   0.5999   0.6002
  0.6027   0.6054   0.6142   0.6182   0.6217   0.6237   0.6295   0.6308
  0.6335   0.6364   0.6374   0.6429   0.6522   0.6627   0.6716   0.6789
  0.6836   0.6908   0.6970   0.6996   0.7061   0.7127   0.7133   0.7235
  0.7306   0.7383   0.7397   0.7499   0.7562   0.7576   0.7681   0.7714
  0.7751   0.7787   0.7853   0.7945   0.8105   0.8128   0.8212   0.8235
  0.8266   0.8366   0.8422   0.8426   0.8491   0.8513   0.8597   0.8621
  0.8649   0.8665   0.8715   0.8765   0.8883   0.8995   0.9040   0.9138
  0.9156   0.9218   0.9269   0.9283   0.9322   0.9364   0.9445   0.9508
  0.9558   0.9598   0.9633   0.9689   0.9764   0.9798   0.9821   0.9889
  0.9926   0.9972   1.0100   1.0105   1.0137   1.0190   1.0293   1.0327
  1.0403   1.0491   1.0606   1.0614   1.0634   1.0668   1.0677   1.0740
  1.0786   1.0819   1.0843   1.0883   1.0939   1.0972   1.1127   1.1222
  1.1244   1.1291   1.1374   1.1385   1.1432   1.1453   1.1572   1.1647
  1.1664   1.1695   1.1741   1.1772   1.1859   1.1934   1.1983   1.2007
  1.2051   1.2098   1.2142   1.2217   1.2264   1.2335   1.2389   1.2393
  1.2428   1.2459   1.2595   1.2618   1.2631   1.2766   1.2803   1.3080
  1.3178   1.3266   1.3305   1.3376   1.3422   1.3458   1.3534   1.3604
  1.3683   1.3811   1.3834   1.3913   1.3945   1.3976   1.4057   1.4203
  1.4241   1.4306   1.4390   1.4415   1.4467   1.4497   1.4599   1.4673
  1.4715   1.4796   1.4897   1.4950   1.4968   1.5027   1.5192   1.5203
  1.5316   1.5337   1.5409   1.5504   1.5569   1.5595   1.5671   1.5682
  1.5745   1.5789   1.5883   1.6023   1.6119   1.6174   1.6225   1.6316
  1.6437   1.6460   1.6560   1.6614   1.6697   1.6704   1.6863   1.6930
  1.6957   1.7123   1.7267   1.7328   1.7375   1.7428   1.7490   1.7524
  1.7670   1.7753   1.7829   1.7920   1.7968   1.8021   1.8053   1.8258
  1.8300   1.8368   1.8462   1.8530   1.8576   1.8663   1.8689   1.8762
  1.8813   1.8919   1.9034   1.9141   1.9270   1.9327   1.9393   1.9534
  1.9595   1.9712   1.9739   1.9883   1.9888   2.0135   2.0195   2.0296
  2.0532   2.0627   2.0833   2.0947   2.1042   2.1059   2.1262   2.1430
  2.1588   2.1624   2.1698   2.1767   2.2038   2.2155   2.2274   2.2364
  2.2410   2.2520   2.2623   2.2778   2.2845   2.2873   2.2929   2.3142
  2.3215   2.3305   2.3352   2.3430   2.3623   2.3663   2.3750   2.3891
  2.4138   2.4201   2.4325   2.4409   2.4471   2.4579   2.4603   2.4768
  2.4882   2.4950   2.4988   2.5023   2.5095   2.5219   2.5487   2.5526
  2.5606   2.5708   2.5843   2.5858   2.5898   2.5990   2.6023   2.6152
  2.6200   2.6340   2.6415   2.6483   2.6584   2.6654   2.6685   2.6710
  2.6793   2.6873   2.6979   2.7039   2.7114   2.7116   2.7273   2.7317
  2.7393   2.7468   2.7493   2.7578   2.7681   2.7709   2.7861   2.7927
  2.8053   2.8164   2.8223   2.8382   2.8439   2.8541   2.8561   2.8635
  2.8658   2.8712   2.8778   2.8806   2.8854   2.8882   2.9078   2.9131
  2.9199   2.9266   2.9365   2.9480   2.9516   2.9688   2.9696   2.9753
  2.9768   2.9852   2.9950   3.0019   3.0060   3.0076   3.0143   3.0177
  3.0246   3.0361   3.0390   3.0417   3.0451   3.0587   3.0657   3.0796
  3.0876   3.0900   3.0965   3.1012   3.1033   3.1133   3.1160   3.1205
  3.1267   3.1327   3.1362   3.1450   3.1651   3.1765   3.1800   3.1839
  3.1960   3.1982   3.2020   3.2116   3.2136   3.2171   3.2232   3.2253
  3.2327   3.2334   3.2414   3.2454   3.2550   3.2597   3.2633   3.2672
  3.2709   3.2728   3.2806   3.2821   3.2863   3.2924   3.2976   3.3046
  3.3097   3.3139   3.3199   3.3201   3.3292   3.3328   3.3362   3.3387
  3.3453   3.3485   3.3517   3.3564   3.3608   3.3692   3.3704   3.3726
  3.3751   3.3852   3.3899   3.3954   3.3990   3.4095   3.4121   3.4208
  3.4280   3.4332   3.4354   3.4375   3.4435   3.4458   3.4494   3.4563
  3.4620   3.4650   3.4705   3.4766   3.4872   3.4898   3.4938   3.4964
  3.4990   3.5013   3.5059   3.5097   3.5131   3.5157   3.5250   3.5274
  3.5356   3.5379   3.5475   3.5563   3.5639   3.5737   3.5763   3.5898
  3.5922   3.5931   3.6065   3.6072   3.6127   3.6145   3.6196   3.6293
  3.6332   3.6386   3.6417   3.6480   3.6539   3.6702   3.6733   3.6779
  3.6837   3.6891   3.6979   3.7000   3.7076   3.7083   3.7176   3.7222
  3.7296   3.7308   3.7390   3.7455   3.7480   3.7555   3.7572   3.7656
  3.7678   3.7825   3.7850   3.7933   3.7947   3.8014   3.8018   3.8107
  3.8182   3.8230   3.8263   3.8405   3.8488   3.8537   3.8616   3.8685
  3.8754   3.8785   3.8828   3.8890   3.8968   3.9137   3.9184   3.9265
  3.9366   3.9385   3.9411   3.9448   3.9587   3.9614   3.9711   3.9900
  3.9936   4.0068   4.0112   4.0165   4.0226   4.0277   4.0445   4.0496
  4.0614   4.0720   4.0796   4.0815   4.0866   4.0995   4.1042   4.1063
  4.1271   4.1305   4.1373   4.1424   4.1539   4.1599   4.1615   4.1736
  4.1747   4.1856   4.1896   4.2032   4.2059   4.2184   4.2303   4.2411
  4.2513   4.2550   4.2658   4.2726   4.2785   4.2828   4.2875   4.2942
  4.2993   4.3036   4.3122   4.3192   4.3221   4.3286   4.3327   4.3488
  4.3520   4.3541   4.3652   4.3662   4.3676   4.3794   4.3837   4.3878
  4.3933   4.3990   4.4057   4.4120   4.4185   4.4222   4.4366   4.4435
  4.4568   4.4639   4.4823   4.4975   4.5028   4.5120   4.5168   4.5225
  4.5276   4.5317   4.5426   4.5514   4.5612   4.5639   4.5678   4.5749
  4.5796   4.5847   4.5904   4.6017   4.6084   4.6151   4.6254   4.6437
  4.6445   4.6543   4.6609   4.6725   4.6794   4.6865   4.6917   4.6960
  4.7145   4.7247   4.7380   4.7557   4.7714   4.7779   4.7856   4.8115
  4.8190   4.8294   4.8368   4.8427   4.8530   4.8595   4.8805   4.8865
  4.8901   4.9132   4.9366   4.9407   4.9605   4.9727   4.9828   4.9891
  5.0066   5.0113   5.0285   5.0379   5.0485   5.0507   5.0529   5.0632
  5.1055   5.1090   5.1194   5.1244   5.1257   5.1358   5.1567   5.1679
  5.1711   5.1811   5.1930   5.2175   5.2244   5.2403   5.2561   5.2608
  5.2771   5.2837   5.2957   5.2993   5.3145   5.3236   5.3316   5.3434
  5.3701   5.3947   5.4017   5.4058   5.4241   5.4320   5.4354   5.4699
  5.4809   5.5082   5.5086   5.5121   5.5161   5.5415   5.5487   5.5557
  5.5602   5.5640   5.5726   5.5775   5.5789   5.5939   5.6076   5.6136
  5.6312   5.6424   5.6521   5.6542   5.6564   5.6765   5.6801   5.6890
  5.7031   5.7234   5.7242   5.7481   5.7575   5.7620   5.7700   5.7716
  5.7896   5.7923   5.8154   5.8293   5.8577   5.8968   5.9173   5.9352
  5.9588   5.9601   6.0037   6.0209   6.0231   6.0339   6.0488   6.0677
  6.1006   6.1080   6.1140   6.1189   6.1352   6.1885   6.2097   6.2161
  6.2176   6.2212   6.2426   6.2732   6.2777   6.2986   6.3081   6.3527
  6.3646   6.3960   6.4505   6.4555   6.4723   6.5297   6.5618   6.5687
  6.5895   6.6237   6.6468   6.6512   6.6588   6.7060   6.7702   6.8345
  6.8425   6.8852   6.8861   6.8955   6.9111   6.9360   6.9388   7.0809
  7.1341   7.1486   7.1951   7.2101   7.2637   7.3324   7.3410   7.3437
  7.3506   7.4717   7.5499   7.5599   7.5761   7.5823   7.6348   7.6471
  7.6828   7.7171   7.8344   8.4717   9.9662  10.4006  11.1832  11.2612
 11.7257  11.7821  12.0218  12.3924  12.5220  12.6115  12.8506  13.1949
 13.4633  13.5599  13.8232  13.9575  14.0726  14.1630  14.3293  14.4143
 14.5386  14.7869  15.3762  15.7530  16.0332
 --------------------------------------------------------------
 
          Ground-State Mulliken Net Atomic Charges

     Atom                 Charge (a.u.)
  ----------------------------------------
      1 C                    -0.144161
      2 C                    -0.111865
      3 C                    -0.029074
      4 C                    -0.002543
      5 H                     0.187889
      6 C                     0.005042
      7 C                     0.071376
      8 C                     0.058499
      9 C                    -0.074925
     10 C                    -0.176066
     11 C                     0.042803
     12 H                     0.169156
     13 C                     0.358165
     14 C                     0.364177
     15 N                    -0.101327
     16 C                     0.359236
     17 C                     0.385293
     18 N                    -0.091467
     19 O                    -0.464145
     20 O                    -0.476555
     21 O                    -0.483210
     22 O                    -0.479157
     23 C                    -0.201178
     24 H                     0.141094
     25 H                     0.112532
     26 H                     0.112546
     27 C                    -0.198228
     28 H                     0.134563
     29 H                     0.112535
     30 H                     0.112798
     31 H                     0.212582
     32 C                     0.005650
     33 S                     0.007373
     34 C                    -0.190649
     35 C                    -0.133087
     36 C                    -0.242466
     37 H                     0.234719
     38 H                     0.192160
     39 H                     0.219916
  ----------------------------------------
  Sum of atomic charges =     0.000000

 -----------------------------------------------------------------
                    Cartesian Multipole Moments
 -----------------------------------------------------------------
    Charge (ESU x 10^10)
                -0.0000
    Dipole Moment (Debye)
         X       0.0652      Y       2.2155      Z      -0.8430
       Tot       2.3713
    Quadrupole Moments (Debye-Ang)
        XX    -164.4380     XY       2.6393     YY    -167.3728
        XZ       0.0362     YZ       0.5379     ZZ    -178.0397
    Octopole Moments (Debye-Ang^2)
       XXX    -268.2925    XXY     460.9574    XYY    -118.2425
       YYY    1584.3259    XXZ      -0.7316    XYZ       0.2647
       YYZ       6.0633    XZZ    -103.5850    YZZ     553.6339
       ZZZ       3.9251
    Hexadecapole Moments (Debye-Ang^3)
      XXXX    -647.9512   XXXY    1305.8599   XXYY   -2739.9120
      XYYY    1537.9189   YYYY  -16735.0826   XXXZ     -62.5816
      XXYZ     109.9507   XYYZ     -88.7719   YYYZ     718.4465
      XXZZ   -1158.0020   XYZZ     536.6075   YYZZ   -4162.7647
      XZZZ       3.7089   YZZZ     -61.7014   ZZZZ   -6464.7437
 -----------------------------------------------------------------
 Total job time:  268.95s(wall), 8051.58s(cpu) 
 Wed Sep 20 08:05:05 2023

        *************************************************************
        *                                                           *
        *  Thank you very much for using Q-Chem.  Have a nice day.  *
        *                                                           *
        *************************************************************


0 sent ACK to 0 
now end server 0 ... 
cleanup process ... done
remove work dirs ./qchem3542196.0 -- ./qchem3542196.0
rm -rf ./qchem3542196.0
rm -rf ./qchem3542196
