You are running Q-Chem version: 5.4.0

#
# job setting
#
local host:  exp-5-07
current dir: /expanse/lustre/projects/csd626/rramji/aromodel/PTB7_fin/Hydrogenated_Rotation_Test
input file:  fin_bdt_Phi_5_Theta_100_fin_ftt_Hydrogenated.qcin
output file: 
nprocs     : 1
nthreads   : 64
#
# qchem installation setting
#
QC:          /cm/shared/apps/spack/cpu/opt/spack/linux-centos8-zen2/gcc-10.2.0/qchem-5.4-akfmr7b3t57bfs6qan3padb2wnb2i7cl
QCAUX:       /cm/shared/apps/spack/cpu/opt/spack/linux-centos8-zen2/gcc-10.2.0/qchem-5.4-akfmr7b3t57bfs6qan3padb2wnb2i7cl/qcaux
QCPROG:      /cm/shared/apps/spack/cpu/opt/spack/linux-centos8-zen2/gcc-10.2.0/qchem-5.4-akfmr7b3t57bfs6qan3padb2wnb2i7cl/exe/qcprog.exe
QCPROG_S:    /cm/shared/apps/spack/cpu/opt/spack/linux-centos8-zen2/gcc-10.2.0/qchem-5.4-akfmr7b3t57bfs6qan3padb2wnb2i7cl/exe/qcprog.exe_s
PARALLEL:    -DPARALLEL
QCMPI:       mpich
#
# qchem directory setting
#
qcrun:       qchem467436
QCSCRATCH:   .
QCLOCALSCR:  
QCTMPDIR:    .
QCFILEPREF:  ./qchem467436
QCSAVEDIR:   
workdirs:    ./qchem467436
workdir0:    ./qchem467436
partmpdirs =  
#
# parallel setting
#
QCRSH:           ssh
QCMPI:           mpich
QCMPIRUN:        /cm/shared/apps/spack/cpu/opt/spack/linux-centos8-zen2/gcc-10.2.0/qchem-5.4-akfmr7b3t57bfs6qan3padb2wnb2i7cl/bin/mpi/mpirun_qchem
QCMACHINEFILE:   ./qchem467436/hostfile
exp-5-07

#
# env setting
#
exported envs:   QC QCAUX QCSCRATCH QCRUNNAME QCFILEPREF QCPROG QCPROG_S GUIFILE

Running Job 1 of 1 fin_bdt_Phi_5_Theta_100_fin_ftt_Hydrogenated.qcin
qchem fin_bdt_Phi_5_Theta_100_fin_ftt_Hydrogenated.qcin_467436.0 ./qchem467436/ 1
/cm/shared/apps/spack/cpu/opt/spack/linux-centos8-zen2/gcc-10.2.0/qchem-5.4-akfmr7b3t57bfs6qan3padb2wnb2i7cl/bin/mpi/mpirun_qchem -machinefile ./qchem467436/hostfile -np 1 /cm/shared/apps/spack/cpu/opt/spack/linux-centos8-zen2/gcc-10.2.0/qchem-5.4-akfmr7b3t57bfs6qan3padb2wnb2i7cl/exe/qcprog.exe fin_bdt_Phi_5_Theta_100_fin_ftt_Hydrogenated.qcin_467436.0 ./qchem467436/

Process 0 of 1 is on exp-5-07 - thread support 0
initial socket setup ...start
initial socket setup ...done 
now start server 0 ... 
                  Welcome to Q-Chem
     A Quantum Leap Into The Future Of Chemistry


 Q-Chem 5.4, Q-Chem, Inc., Pleasanton, CA (2021)

 License issued to: University of California, San Diego (site)

 E. Epifanovsky,  A. T. B. Gilbert,  Xintian Feng,  Joonho Lee,  Yuezhi Mao,  
 N. Mardirossian,  P. Pokhilko,  A. White,  M. Wormit,  M. P. Coons,  
 A. L. Dempwolff,  Zhengting Gan,  D. Hait,  P. R. Horn,  L. D. Jacobson,  
 I. Kaliman,  J. Kussmann,  A. W. Lange,  Ka Un Lao,  D. S. Levine,  Jie Liu,  
 S. C. McKenzie,  A. F. Morrison,  K. Nanda,  F. Plasser,  D. R. Rehn,  
 M. L. Vidal,  Zhi-Qiang You,  Ying Zhu,  B. Alam,  B. Albrecht,  
 A. Aldossary,  E. Alguire,  J. H. Andersen,  D. Barton,  K. Begam,  A. Behn,  
 Y. A. Bernard,  E. J. Berquist,  H. Burton,  A. Carreras,  K. Carter-Fenk,  
 R. Chakraborty,  A. D. Chien,  K. D. Closser,  V. Cofer-Shabica,  
 S. Dasgupta,  Jia Deng,  M. de Wergifosse,  M. Diedenhofen,  Hainam Do,  
 S. Ehlert,  Po-Tung Fang,  S. Fatehi,  Qingguo Feng,  J. Gayvert,  
 Qinghui Ge,  G. Gidofalvi,  M. Goldey,  J. Gomes,  C. Gonzalez-Espinoza,  
 S. Gulania,  A. Gunina,  M. W. D. Hanson-Heine,  P. H. P. Harbach,  
 A. W. Hauser,  M. F. Herbst,  M. Hernandez Vera,  M. Hodecker,  
 Z. C. Holden,  S. Houck,  Xunkun Huang,  Kerwin Hui,  B. C. Huynh,  
 M. Ivanov,  Hyunjun Ji,  Hanjie Jiang,  B. Kaduk,  S. Kaehler,  
 K. Khistyaev,  Jaehoon Kim,  P. Klunzinger,  Z. Koczor-Benda,  
 Joong Hoon Koh,  D. Kosenkov,  L. Koulias,  T. Kowalczyk,  C. M. Krauter,  
 K. Kue,  A. Kunitsa,  T. Kus,  A. Landau,  K. V. Lawler,  D. Lefrancois,  
 S. Lehtola,  Rain Li,  Yi-Pei Li,  Jiashu Liang,  M. Liebenthal,  
 Hung-Hsuan Lin,  You-Sheng Lin,  Fenglai Liu,  Kuan-Yu Liu,  
 M. Loipersberger,  A. Luenser,  A. Manjanath,  P. Manohar,  E. Mansoor,  
 S. F. Manzer,  Shan-Ping Mao,  A. V. Marenich,  T. Markovich,  S. Mason,  
 S. A. Maurer,  P. F. McLaughlin,  M. F. S. J. Menger,  J.-M. Mewes,  
 S. A. Mewes,  P. Morgante,  J. W. Mullinax,  T. S. Nguyen-Beck,  
 K. J. Oosterbaan,  G. Paran,  Alexander C. Paul,  Suranjan K. Paul,  
 F. Pavosevic,  Zheng Pei,  S. Prager,  E. I. Proynov,  E. Ramos,  B. Rana,  
 A. E. Rask,  A. Rettig,  R. M. Richard,  F. Rob,  E. Rossomme,  T. Scheele,  
 M. Scheurer,  M. Schneider,  N. Sergueev,  S. M. Sharada,  W. Skomorowski,  
 D. W. Small,  C. J. Stein,  Yu-Chuan Su,  E. J. Sundstrom,  Zhen Tao,  
 J. Thirman,  T. Tsuchimochi,  N. M. Tubman,  S. P. Veccham,  O. Vydrov,  
 J. Wenzel,  J. Witte,  A. Yamada,  Kun Yao,  S. Yeganeh,  S. R. Yost,  
 A. Zech,  Igor Ying Zhang,  Xing Zhang,  Yu Zhang,  D. Zuev,  
 A. Aspuru-Guzik,  A. T. Bell,  N. A. Besley,  K. B. Bravaya,  B. R. Brooks,  
 D. Casanova,  Jeng-Da Chai,  S. Coriani,  C. J. Cramer,  
 A. E. DePrince, III,  R. A. DiStasio Jr.,  A. Dreuw,  B. D. Dunietz,  
 T. R. Furlani,  W. A. Goddard III,  S. Grimme,  S. Hammes-Schiffer,  
 T. Head-Gordon,  W. J. Hehre,  Chao-Ping Hsu,  T.-C. Jagau,  Yousung Jung,  
 A. Klamt,  Jing Kong,  D. S. Lambrecht,  WanZhen Liang,  N. J. Mayhall,  
 C. W. McCurdy,  J. B. Neaton,  C. Ochsenfeld,  J. A. Parkhill,  R. Peverati,  
 V. A. Rassolov,  Yihan Shao,  L. V. Slipchenko,  T. Stauch,  R. P. Steele,  
 J. E. Subotnik,  A. J. W. Thom,  A. Tkatchenko,  D. G. Truhlar,  
 T. Van Voorhis,  T. A. Wesolowski,  K. B. Whaley,  H. L. Woodcock III,  
 P. M. Zimmerman,  S. Faraji,  P. M. W. Gill,  M. Head-Gordon,  
 J. M. Herbert,  A. I. Krylov

 Contributors to earlier versions of Q-Chem not listed above: 
 R. D. Adamson,  B. Austin,  R. Baer,  J. Baker,  G. J. O. Beran,  
 K. Brandhorst,  S. T. Brown,  E. F. C. Byrd,  A. K. Chakraborty,  
 G. K. L. Chan,  Chun-Min Chang,  Yunqing Chen,  C.-L. Cheng,  
 Siu Hung Chien,  D. M. Chipman,  D. L. Crittenden,  H. Dachsel,  
 R. J. Doerksen,  A. D. Dutoi,  R. G. Edgar,  J. Fosso-Tande,  
 L. Fusti-Molnar,  D. Ghosh,  A. Ghysels,  A. Golubeva-Zadorozhnaya,  
 J. Gonthier,  M. S. Gordon,  S. R. Gwaltney,  G. Hawkins,  J. E. Herr,  
 A. Heyden,  S. Hirata,  E. G. Hohenstein,  G. Kedziora,  F. J. Keil,  
 C. Kelley,  Jihan Kim,  R. A. King,  R. Z. Khaliullin,  P. P. Korambath,  
 W. Kurlancheek,  A. Laurent,  A. M. Lee,  M. S. Lee,  S. V. Levchenko,  
 Ching Yeh Lin,  D. Liotard,  E. Livshits,  R. C. Lochan,  I. Lotan,  
 L. A. Martinez-Martinez,  P. E. Maslen,  N. Nair,  D. P. O'Neill,  
 D. Neuhauser,  E. Neuscamman,  C. M. Oana,  R. Olivares-Amaya,  R. Olson,  
 T. M. Perrine,  B. Peters,  P. A. Pieniazek,  A. Prociuk,  Y. M. Rhee,  
 J. Ritchie,  M. A. Rohrdanz,  E. Rosta,  N. J. Russ,  H. F. Schaefer III,  
 M. W. Schmidt,  N. E. Schultz,  S. Sharma,  N. Shenvi,  C. D. Sherrill,  
 A. C. Simmonett,  A. Sodt,  T. Stein,  D. Stuck,  K. S. Thanthiriwatte,  
 V. Vanovschi,  L. Vogt,  Tao Wang,  A. Warshel,  M. A. Watson,  
 C. F. Williams,  Q. Wu,  X. Xu,  Jun Yang,  W. Zhang,  Yan Zhao

 Please cite Q-Chem as follows:
 Y. Shao et al., Mol. Phys. 113, 184-215 (2015)
 DOI: 10.1080/00268976.2014.952696

 Q-Chem 5.4.0 for Intel X86 EM64T Linux

 Parts of Q-Chem use Armadillo 9.800.1 (Horizon Scraper).
 http://arma.sourceforge.net/

 Q-Chem begins on Tue Sep 26 18:15:29 2023  

 Host: 
0

     Scratch files written to ./qchem467436//
 May1621 |scratch|qcdevops|jenkins|workspace|build_RNUM    
 Parallel job on  1  processors
 Processing $rem in /cm/shared/apps/spack/cpu/opt/spack/linux-centos8-zen2/gcc-10.2.0/qchem-5.4-akfmr7b3t57bfs6qan3padb2wnb2i7cl/config/preferences:
 Processing $rem in /home/rramji/.qchemrc:
 Symmetry turned off for PCM/SM12/SMD calculation
 Core orbitals will be frozen

 Checking the input file for inconsistencies... 	...done.

 Q-Chem warning in module forms1/BasisType.C, line 2236:

 You are not using the predefined 5D/6D in this basis set.


--------------------------------------------------------------
User input:
--------------------------------------------------------------
$molecule
0 1
C	-0.255459	-8.519741	-0.093711
C	0.799036	-7.635967	0.083869
S	-1.789425	-7.651740	-0.345260
C	0.418360	-6.261894	0.018411
H	1.834294	-7.954738	0.259169
C	-0.987769	-6.079985	-0.229701
C	-1.555260	-4.798382	-0.302697
C	1.294992	-5.153542	0.196459
C	0.726408	-3.869626	0.127651
C	-0.680716	-3.688927	-0.123544
O	2.601852	-5.481075	0.396706
O	-2.868193	-4.479871	-0.502673
C	-3.691495	-5.356026	-1.262918
H	-4.614080	-4.790496	-1.494604
H	-3.974195	-6.268513	-0.693738
H	-3.199559	-5.658187	-2.212720
C	3.490743	-4.546999	0.997016
H	4.416630	-5.107564	1.226691
H	3.073934	-4.131473	1.939526
H	3.746794	-3.712085	0.309214
C	-1.058247	-2.314326	-0.186133
S	1.527599	-2.295487	0.256010
C	0.000000	-1.435180	0.000000
H	-2.092285	-1.993211	-0.363896
C	0.000000	0.000000	0.000000
S	0.080615	0.895811	1.510732
C	0.216842	2.465231	0.727629
C	0.079127	0.904769	-1.064665
C	0.198659	2.288406	-0.678287
C	0.074988	0.838492	-2.486150
C	0.185097	2.098524	-3.106916
S	0.290501	3.341568	-1.965735
C	0.211932	2.351623	-4.559972
O	0.133545	1.421416	-5.350277
O	0.326994	3.629649	-5.004375
F	-0.018214	-0.271734	-3.246290
C	0.368367	3.986101	-6.334976
H	0.465270	5.086806	-6.370268
H	-0.553140	3.675878	-6.875609
H	1.229874	3.519263	-6.861878
H	0.297091	3.381746	1.321510
H	-0.401636	-9.146471	0.793825
H	-0.103519	-9.150570	-0.977367
H	-0.179195	-1.444158	1.064992
$end

$rem
JOBTYPE		SP
EXCHANGE	HF
CORRELATION	pRIMP2
BASIS		cc-pvtz
METHOD		rimp2
AUX_BASIS	rimp2-cc-pvtz
SOLVENT_METHOD	PCM
PURECART	11111
SYMMETRY	false
MEM_TOTAL	110000
SCF_CONVERGENCE = 6
THRESH=10
GUI = 2
$end



$solvent
dielectric 4.90
$end
--------------------------------------------------------------
 ----------------------------------------------------------------
             Standard Nuclear Orientation (Angstroms)
    I     Atom           X                Y                Z
 ----------------------------------------------------------------
    1      C      -0.2554590000    -8.5197410000    -0.0937110000
    2      C       0.7990360000    -7.6359670000     0.0838690000
    3      S      -1.7894250000    -7.6517400000    -0.3452600000
    4      C       0.4183600000    -6.2618940000     0.0184110000
    5      H       1.8342940000    -7.9547380000     0.2591690000
    6      C      -0.9877690000    -6.0799850000    -0.2297010000
    7      C      -1.5552600000    -4.7983820000    -0.3026970000
    8      C       1.2949920000    -5.1535420000     0.1964590000
    9      C       0.7264080000    -3.8696260000     0.1276510000
   10      C      -0.6807160000    -3.6889270000    -0.1235440000
   11      O       2.6018520000    -5.4810750000     0.3967060000
   12      O      -2.8681930000    -4.4798710000    -0.5026730000
   13      C      -3.6914950000    -5.3560260000    -1.2629180000
   14      H      -4.6140800000    -4.7904960000    -1.4946040000
   15      H      -3.9741950000    -6.2685130000    -0.6937380000
   16      H      -3.1995590000    -5.6581870000    -2.2127200000
   17      C       3.4907430000    -4.5469990000     0.9970160000
   18      H       4.4166300000    -5.1075640000     1.2266910000
   19      H       3.0739340000    -4.1314730000     1.9395260000
   20      H       3.7467940000    -3.7120850000     0.3092140000
   21      C      -1.0582470000    -2.3143260000    -0.1861330000
   22      S       1.5275990000    -2.2954870000     0.2560100000
   23      C       0.0000000000    -1.4351800000     0.0000000000
   24      H      -2.0922850000    -1.9932110000    -0.3638960000
   25      C       0.0000000000     0.0000000000     0.0000000000
   26      S       0.0806150000     0.8958110000     1.5107320000
   27      C       0.2168420000     2.4652310000     0.7276290000
   28      C       0.0791270000     0.9047690000    -1.0646650000
   29      C       0.1986590000     2.2884060000    -0.6782870000
   30      C       0.0749880000     0.8384920000    -2.4861500000
   31      C       0.1850970000     2.0985240000    -3.1069160000
   32      S       0.2905010000     3.3415680000    -1.9657350000
   33      C       0.2119320000     2.3516230000    -4.5599720000
   34      O       0.1335450000     1.4214160000    -5.3502770000
   35      O       0.3269940000     3.6296490000    -5.0043750000
   36      F      -0.0182140000    -0.2717340000    -3.2462900000
   37      C       0.3683670000     3.9861010000    -6.3349760000
   38      H       0.4652700000     5.0868060000    -6.3702680000
   39      H      -0.5531400000     3.6758780000    -6.8756090000
   40      H       1.2298740000     3.5192630000    -6.8618780000
   41      H       0.2970910000     3.3817460000     1.3215100000
   42      H      -0.4016360000    -9.1464710000     0.7938250000
   43      H      -0.1035190000    -9.1505700000    -0.9773670000
   44      H      -0.1791950000    -1.4441580000     1.0649920000
 ----------------------------------------------------------------
 Nuclear Repulsion Energy =        3355.92904151 hartrees
 There are      120 alpha and      120 beta electrons
 Requested basis set is cc-pVTZ
 There are 388 shells and 1096 basis functions

 Total QAlloc Memory Limit 110000 MB
 Mega-Array Size       188 MB
 MEM_STATIC part       192 MB
 Discretize the solute cavity surface with Lebedev spheres
	Using 110 Lebedev grid points for each H atom
	Using 194 Lebedev grid points for other atoms
	Atomic van der Waals radii will be scaled by 1.20
 Remove points where switching function is < 1.0e-08
 Keep 3014 surface tesserae and discard 4262 interior tesserae
 Molecular Surface Area = 444.833 Angst**2
 Requested basis set is rimp2-cc-pVTZ
 There are 853 shells and 2963 basis functions
 A cutoff of  1.0D-10 yielded  33162 shell pairs
 There are    250298 function pairs (    323759 Cartesian)
 Smallest overlap matrix eigenvalue = 2.21E-05

 Scale SEOQF with 1.000000e-01/1.000000e-02/1.000000e-02

 Standard Electronic Orientation quadrupole field applied
 Nucleus-field energy     =     0.0000000368 hartrees
 Guess from superposition of atomic densities
 Warning:  Energy on first SCF cycle will be non-variational
 SAD guess density has 240.000000 electrons

 -----------------------------------------------------------------------
  General SCF calculation program by
  Eric Jon Sundstrom, Paul Horn, Yuezhi Mao, Dmitri Zuev, Alec White,
  David Stuck, Shaama M.S., Shane Yost, Joonho Lee, David Small,
  Daniel Levine, Susi Lehtola, Hugh Burton, Evgeny Epifanovsky,
  Bang C. Huynh
 -----------------------------------------------------------------------
 Hartree-Fock
 using 64 threads for integral computing
 -------------------------------------------------------
 OpenMP Integral computing Module                
 Release: version 1.0, May 2013, Q-Chem Inc. Pittsburgh 
 -------------------------------------------------------
 A restricted SCF calculation will be
 performed using DIIS
 SCF converges when DIIS error is below 1.0e-06
 ---------------------------------------
  Cycle       Energy         DIIS error
 ---------------------------------------
    1   -2767.3407777246      1.77e-02  
    2   -2754.8727162998      1.54e-03  
    3   -2755.2223634132      8.72e-04  
    4   -2755.3111174869      2.55e-04  
    5   -2755.3245087697      7.23e-05  
    6   -2755.3259712342      2.56e-05  
    7   -2755.3263499099      1.34e-05  
    8   -2755.3264736646      5.77e-06  
    9   -2755.3265051608      3.07e-06  
   10   -2755.3265131563      1.48e-06  
   11   -2755.3265155121      7.48e-07  Convergence criterion met
 ---------------------------------------
 SCF time:   CPU 7590.53s  wall 276.00s 

************** Final PCM Free Energy Summary **************
 G_electrostatic  =      -0.02253126 hartree =     -14.13857783 kcal/mol
 G_cavitation     =       0.00000000 hartree =       0.00000000 kcal/mol
 G_dispersion     =       0.00000000 hartree =       0.00000000 kcal/mol
 G_repulsion      =       0.00000000 hartree =       0.00000000 kcal/mol
 --------------------------------------------------
 Non-electrostatic Free Energy =       0.00000000 hartree =       0.00000000 kcal/mol
 Total                         =      -0.02253126 hartree =     -14.13857783 kcal/mol
 --------------------------------------------------
 SCF Energy (H0 + V/2)                       =   -2755.32651551 
 Solute Internal Energy (H0)                 =   -2755.30398425 
 Total Free Energy (H0 + V/2 + non-elec)     =   -2755.32651551 hartree
                                             = -1728993.48418130 kcal/mol
***********************************************************

 SCF   energy in the final basis set =    -2755.3265155121
 Total energy in the final basis set =    -2755.3265155121


 --------------------------------------------------------------
  Generalized many-body perturbation theory program
  by Joonho Lee, Fazle Rob, Xintian Feng, Evgeny Epifanovsky

 No regularization used 
 (reg. param. = 0.0000e+00)
  (P|Q)^-1/2 Time:  CPU 144.83 s  wall 2.42 s

 In RI-MP2 calculation: 
 # of frozen core orbitals: 45

 Components of the RIMP2 correlation energy:
        aaaa    correlation energy =        -0.6696359973 a.u.
        abab    correlation energy =        -3.7507480634 a.u.
        bbbb    correlation energy =        -0.6696359973 a.u.
        non-Brillouin singles      =        -0.0000000000 a.u.
        total same-spin energy     =        -1.3392719946 a.u.
        total opposite-spin energy =        -3.7507480634 a.u.

 Total  RIMP2   correlation energy =        -5.0900200581 a.u.
        RIMP2         total energy =     -2760.4165355702 a.u.

 RI-MP2 Energy Time:  CPU 2912.88 s  wall 47.09 s
 
 --------------------------------------------------------------
 
                    Orbital Energies (a.u.)
 --------------------------------------------------------------
 
 Alpha MOs
 -- Occupied --
-92.0196 -91.9957 -91.9775 -91.9578 -26.3354 -20.6128 -20.5869 -20.5867
-20.5512 -11.4113 -11.3777 -11.3114 -11.3088 -11.3069 -11.2992 -11.2979
-11.2966 -11.2889 -11.2844 -11.2828 -11.2823 -11.2812 -11.2809 -11.2726
-11.2723 -11.2579 -11.2574 -11.2493 -11.2365  -9.0179  -8.9997  -8.9797
 -8.9604  -6.6986  -6.6980  -6.6975  -6.6810  -6.6803  -6.6790  -6.6608
 -6.6599  -6.6586  -6.6417  -6.6408  -6.6397  -1.6483  -1.4726  -1.4101
 -1.4086  -1.3680  -1.2378  -1.2089  -1.1751  -1.1440  -1.0991  -1.0501
 -1.0456  -1.0312  -1.0084  -0.9974  -0.9727  -0.9595  -0.9484  -0.9404
 -0.8931  -0.8715  -0.8647  -0.8082  -0.7939  -0.7848  -0.7779  -0.7740
 -0.7653  -0.7331  -0.7214  -0.7165  -0.6971  -0.6923  -0.6814  -0.6791
 -0.6726  -0.6641  -0.6561  -0.6483  -0.6318  -0.6307  -0.6197  -0.6145
 -0.6109  -0.6072  -0.5957  -0.5925  -0.5825  -0.5652  -0.5589  -0.5539
 -0.5494  -0.5353  -0.5282  -0.5224  -0.5130  -0.5073  -0.5035  -0.5012
 -0.4879  -0.4861  -0.4779  -0.4702  -0.4623  -0.4619  -0.4609  -0.4460
 -0.4231  -0.4031  -0.3851  -0.3701  -0.3511  -0.2923  -0.2890  -0.2209
 -- Virtual --
  0.0272   0.0528   0.1134   0.1194   0.1401   0.1488   0.1536   0.1550
  0.1585   0.1607   0.1681   0.1781   0.1793   0.1858   0.1883   0.1926
  0.2012   0.2040   0.2055   0.2102   0.2193   0.2212   0.2236   0.2263
  0.2298   0.2353   0.2388   0.2486   0.2519   0.2578   0.2663   0.2716
  0.2757   0.2852   0.3095   0.3199   0.3285   0.3318   0.3345   0.3426
  0.3475   0.3582   0.3604   0.3630   0.3682   0.3728   0.3798   0.3817
  0.3839   0.3895   0.3953   0.3981   0.4023   0.4096   0.4118   0.4213
  0.4217   0.4263   0.4300   0.4331   0.4373   0.4403   0.4453   0.4467
  0.4578   0.4603   0.4664   0.4674   0.4724   0.4765   0.4784   0.4843
  0.4861   0.4939   0.4982   0.5013   0.5035   0.5112   0.5172   0.5189
  0.5224   0.5308   0.5336   0.5375   0.5379   0.5466   0.5477   0.5536
  0.5560   0.5581   0.5619   0.5626   0.5691   0.5745   0.5775   0.5802
  0.5836   0.5872   0.5895   0.5933   0.5964   0.6002   0.6057   0.6078
  0.6128   0.6148   0.6184   0.6222   0.6238   0.6247   0.6291   0.6317
  0.6390   0.6409   0.6419   0.6467   0.6471   0.6492   0.6543   0.6566
  0.6621   0.6647   0.6702   0.6770   0.6838   0.6851   0.6893   0.6954
  0.7002   0.7036   0.7103   0.7154   0.7174   0.7192   0.7245   0.7424
  0.7454   0.7505   0.7592   0.7683   0.7702   0.7721   0.7785   0.7841
  0.7932   0.7963   0.8015   0.8054   0.8110   0.8140   0.8181   0.8229
  0.8250   0.8343   0.8364   0.8511   0.8599   0.8675   0.8807   0.8828
  0.8892   0.8933   0.8942   0.8965   0.9013   0.9067   0.9104   0.9170
  0.9209   0.9221   0.9341   0.9346   0.9367   0.9461   0.9520   0.9546
  0.9629   0.9670   0.9706   0.9760   0.9773   0.9854   0.9883   0.9914
  0.9948   1.0006   1.0019   1.0067   1.0103   1.0166   1.0209   1.0268
  1.0340   1.0385   1.0463   1.0493   1.0520   1.0551   1.0618   1.0674
  1.0716   1.0759   1.0812   1.0877   1.0940   1.0944   1.0991   1.1060
  1.1099   1.1187   1.1223   1.1319   1.1350   1.1410   1.1490   1.1517
  1.1556   1.1585   1.1639   1.1672   1.1722   1.1751   1.1793   1.1822
  1.1849   1.1906   1.1922   1.1983   1.1999   1.2036   1.2126   1.2193
  1.2212   1.2267   1.2355   1.2409   1.2438   1.2489   1.2534   1.2566
  1.2584   1.2676   1.2722   1.2809   1.2848   1.2881   1.2946   1.2997
  1.3045   1.3071   1.3166   1.3189   1.3261   1.3325   1.3424   1.3436
  1.3485   1.3519   1.3605   1.3710   1.3767   1.3868   1.3945   1.4007
  1.4018   1.4085   1.4141   1.4214   1.4275   1.4363   1.4428   1.4551
  1.4637   1.4720   1.4789   1.4800   1.4895   1.4932   1.4947   1.4987
  1.5036   1.5079   1.5119   1.5126   1.5210   1.5315   1.5342   1.5384
  1.5424   1.5467   1.5512   1.5543   1.5608   1.5680   1.5689   1.5804
  1.5845   1.5948   1.6039   1.6110   1.6208   1.6238   1.6316   1.6384
  1.6453   1.6557   1.6572   1.6643   1.6692   1.6729   1.6812   1.6853
  1.6903   1.6969   1.7070   1.7199   1.7224   1.7276   1.7346   1.7513
  1.7551   1.7649   1.7703   1.7825   1.7892   1.7960   1.8067   1.8132
  1.8222   1.8315   1.8343   1.8401   1.8554   1.8613   1.8633   1.8746
  1.8788   1.8845   1.8906   1.9087   1.9160   1.9261   1.9319   1.9341
  1.9386   1.9424   1.9522   1.9600   1.9706   1.9847   1.9883   2.0154
  2.0175   2.0199   2.0246   2.0316   2.0372   2.0426   2.0481   2.0528
  2.0694   2.0744   2.0848   2.0947   2.0981   2.1086   2.1147   2.1343
  2.1419   2.1443   2.1510   2.1568   2.1674   2.1790   2.1840   2.1928
  2.1948   2.1997   2.2082   2.2198   2.2257   2.2282   2.2329   2.2432
  2.2525   2.2571   2.2625   2.2704   2.2763   2.2782   2.2953   2.3071
  2.3167   2.3194   2.3265   2.3390   2.3478   2.3510   2.3604   2.3642
  2.3854   2.3868   2.3930   2.4072   2.4129   2.4191   2.4239   2.4276
  2.4365   2.4577   2.4592   2.4678   2.4809   2.4831   2.4944   2.5023
  2.5135   2.5256   2.5295   2.5330   2.5434   2.5620   2.5645   2.5687
  2.5790   2.5835   2.5952   2.6037   2.6165   2.6184   2.6251   2.6262
  2.6344   2.6390   2.6441   2.6484   2.6542   2.6607   2.6672   2.6722
  2.6817   2.6890   2.6927   2.6950   2.6992   2.7054   2.7183   2.7205
  2.7279   2.7296   2.7363   2.7390   2.7450   2.7583   2.7653   2.7699
  2.7731   2.7821   2.7997   2.8059   2.8085   2.8147   2.8190   2.8294
  2.8365   2.8466   2.8486   2.8563   2.8642   2.8680   2.8729   2.8802
  2.8827   2.8896   2.8999   2.9048   2.9178   2.9247   2.9355   2.9422
  2.9577   2.9604   2.9638   2.9717   2.9770   2.9842   2.9923   2.9953
  3.0091   3.0132   3.0262   3.0287   3.0412   3.0433   3.0462   3.0487
  3.0519   3.0676   3.0740   3.0865   3.0901   3.0933   3.1019   3.1058
  3.1099   3.1128   3.1201   3.1302   3.1316   3.1363   3.1421   3.1493
  3.1537   3.1579   3.1593   3.1653   3.1674   3.1760   3.1793   3.1814
  3.1932   3.1953   3.2008   3.2058   3.2112   3.2145   3.2206   3.2249
  3.2359   3.2372   3.2469   3.2508   3.2557   3.2611   3.2626   3.2670
  3.2748   3.2754   3.2793   3.2825   3.2862   3.2918   3.2933   3.2972
  3.3078   3.3104   3.3138   3.3183   3.3241   3.3308   3.3357   3.3369
  3.3427   3.3481   3.3512   3.3558   3.3598   3.3641   3.3659   3.3669
  3.3695   3.3807   3.3831   3.3927   3.3965   3.4019   3.4045   3.4079
  3.4124   3.4163   3.4221   3.4294   3.4315   3.4342   3.4369   3.4443
  3.4486   3.4575   3.4596   3.4650   3.4685   3.4746   3.4801   3.4830
  3.4909   3.5009   3.5024   3.5053   3.5109   3.5204   3.5246   3.5298
  3.5422   3.5491   3.5572   3.5629   3.5667   3.5684   3.5780   3.5811
  3.5825   3.5893   3.5940   3.6003   3.6026   3.6101   3.6155   3.6200
  3.6259   3.6305   3.6333   3.6423   3.6454   3.6509   3.6542   3.6561
  3.6590   3.6695   3.6724   3.6766   3.6784   3.6839   3.6878   3.6946
  3.7032   3.7067   3.7117   3.7143   3.7175   3.7223   3.7260   3.7281
  3.7326   3.7345   3.7423   3.7498   3.7544   3.7599   3.7689   3.7732
  3.7848   3.7882   3.7935   3.7958   3.8082   3.8092   3.8160   3.8215
  3.8248   3.8308   3.8395   3.8438   3.8480   3.8490   3.8535   3.8636
  3.8670   3.8730   3.8800   3.8826   3.8893   3.8953   3.9029   3.9152
  3.9203   3.9254   3.9319   3.9394   3.9433   3.9569   3.9577   3.9645
  3.9678   3.9683   3.9795   3.9894   4.0001   4.0112   4.0155   4.0190
  4.0218   4.0319   4.0374   4.0493   4.0527   4.0603   4.0655   4.0710
  4.0742   4.0784   4.0870   4.0937   4.1015   4.1082   4.1190   4.1234
  4.1366   4.1405   4.1541   4.1570   4.1690   4.1714   4.1731   4.1770
  4.1834   4.1882   4.1972   4.2115   4.2128   4.2208   4.2280   4.2372
  4.2477   4.2523   4.2700   4.2736   4.2828   4.2912   4.2988   4.3078
  4.3149   4.3234   4.3274   4.3366   4.3471   4.3487   4.3535   4.3638
  4.3713   4.3763   4.3847   4.3937   4.3968   4.4022   4.4107   4.4138
  4.4208   4.4235   4.4285   4.4325   4.4337   4.4402   4.4538   4.4552
  4.4689   4.4900   4.4936   4.4938   4.4996   4.5127   4.5242   4.5280
  4.5333   4.5483   4.5510   4.5645   4.5689   4.5745   4.5784   4.5957
  4.5997   4.6019   4.6163   4.6216   4.6341   4.6382   4.6436   4.6481
  4.6587   4.6627   4.6688   4.6838   4.6953   4.7054   4.7114   4.7286
  4.7331   4.7435   4.7451   4.7564   4.7748   4.7823   4.7988   4.8091
  4.8221   4.8267   4.8330   4.8573   4.8654   4.8817   4.8920   4.8992
  4.9167   4.9230   4.9428   4.9529   4.9573   4.9664   4.9684   4.9841
  4.9853   5.0069   5.0092   5.0122   5.0174   5.0402   5.0488   5.0504
  5.0697   5.0829   5.1015   5.1227   5.1421   5.1582   5.1697   5.1748
  5.1903   5.1962   5.2033   5.2066   5.2133   5.2166   5.2309   5.2532
  5.2586   5.2666   5.2765   5.2898   5.2951   5.3149   5.3197   5.3269
  5.3368   5.3547   5.3550   5.3654   5.3744   5.3803   5.3909   5.4030
  5.4045   5.4092   5.4360   5.4451   5.4686   5.4727   5.4848   5.4982
  5.5083   5.5199   5.5225   5.5426   5.5677   5.5713   5.5751   5.5899
  5.5970   5.6120   5.6168   5.6338   5.6423   5.6775   5.6917   5.6921
  5.7277   5.7345   5.7648   5.7895   5.8002   5.8219   5.8369   5.8582
  5.8647   5.8832   5.9050   5.9301   5.9637   5.9689   5.9834   6.0038
  6.0426   6.0705   6.1213   6.1261   6.1332   6.1460   6.1718   6.1777
  6.1854   6.1899   6.2260   6.2457   6.2629   6.2784   6.2866   6.3026
  6.3080   6.3365   6.3613   6.4278   6.4619   6.4925   6.5393   6.5481
  6.5557   6.5670   6.6460   6.6759   6.6981   6.7190   6.7390   6.7487
  6.8073   6.8565   6.8595   6.8828   6.8994   6.9912   7.1313   7.1462
  7.1777   7.2115   7.2223   7.2395   7.3256   7.3269   7.3421   7.3720
  7.3758   7.4280   7.4618   7.4853   7.4866   7.4972   7.5205   7.5494
  7.6164   7.7395   7.7697   7.8033   7.8313   7.9122   7.9273   7.9566
  8.0027   8.1311   8.3398   8.6793   8.9272   9.0130   9.3624   9.5033
  9.6974  10.3067  11.2372  11.4109  11.9097  11.9627  12.1210  12.3104
 12.4067  12.5002  12.7425  12.9234  12.9968  13.1749  13.4807  13.5829
 13.8325  13.9007  13.9482  13.9925  14.1965  14.3237  14.9529  15.2043
 --------------------------------------------------------------
 
          Ground-State Mulliken Net Atomic Charges

     Atom                 Charge (a.u.)
  ----------------------------------------
      1 C                    -0.070205
      2 C                    -0.260214
      3 S                    -0.135781
      4 C                    -0.043516
      5 H                     0.193311
      6 C                    -0.052341
      7 C                     0.228375
      8 C                     0.224986
      9 C                    -0.079318
     10 C                    -0.059525
     11 O                    -0.334877
     12 O                    -0.343558
     13 C                    -0.082356
     14 H                     0.119939
     15 H                     0.091593
     16 H                     0.093363
     17 C                    -0.086456
     18 H                     0.123045
     19 H                     0.091630
     20 H                     0.090618
     21 C                    -0.242043
     22 S                    -0.071601
     23 C                     0.065822
     24 H                     0.204353
     25 C                    -0.093224
     26 S                     0.103663
     27 C                    -0.238931
     28 C                    -0.075975
     29 C                    -0.002802
     30 C                     0.393113
     31 C                    -0.155941
     32 S                     0.039506
     33 C                     0.460229
     34 O                    -0.448634
     35 O                    -0.297568
     36 F                    -0.212369
     37 C                    -0.055146
     38 H                     0.116705
     39 H                     0.084754
     40 H                     0.084817
     41 H                     0.216889
     42 H                     0.117078
     43 H                     0.115085
     44 H                     0.183507
  ----------------------------------------
  Sum of atomic charges =     0.000000

 -----------------------------------------------------------------
                    Cartesian Multipole Moments
 -----------------------------------------------------------------
    Charge (ESU x 10^10)
                -0.0000
    Dipole Moment (Debye)
         X       0.3439      Y       3.8341      Z       3.7545
       Tot       5.3773
    Quadrupole Moments (Debye-Ang)
        XX    -187.2279     XY      -2.2071     YY    -174.7161
        XZ       6.8357     YZ     -11.3455     ZZ    -201.5760
    Octopole Moments (Debye-Ang^2)
       XXX      -2.6294    XXY     326.9006    XYY      36.6168
       YYY    1018.9163    XXZ     179.0416    XYZ     -43.1551
       YYZ     131.4133    XZZ       6.8836    YZZ     489.0045
       ZZZ     569.8308
    Hexadecapole Moments (Debye-Ang^3)
      XXXX   -2311.6615   XXXY    -634.7818   XXYY   -3996.8750
      XYYY    -876.6726   YYYY  -19880.4969   XXXZ     -23.8770
      XXYZ     448.6955   XYYZ     106.7254   YYYZ    1051.1226
      XXZZ   -1372.5212   XYZZ    -152.5526   YYZZ   -4163.8952
      XZZZ    -214.7749   YZZZ     544.5411   ZZZZ   -5677.1689
 -----------------------------------------------------------------
 Total job time:  326.06s(wall), 10593.94s(cpu) 
 Tue Sep 26 18:20:55 2023

        *************************************************************
        *                                                           *
        *  Thank you very much for using Q-Chem.  Have a nice day.  *
        *                                                           *
        *************************************************************


0 sent ACK to 0 
now end server 0 ... 
cleanup process ... done
remove work dirs ./qchem467436.0 -- ./qchem467436.0
rm -rf ./qchem467436.0
rm -rf ./qchem467436
