You are running Q-Chem version: 5.4.0

#
# job setting
#
local host:  exp-8-24
current dir: /expanse/lustre/projects/csd626/rramji/aromodel/PTB7_fin/Hydrogenated_Rotation_Test
input file:  fin_bdt_Phi_40_Theta_150_fin_ftt_Hydrogenated.qcin
output file: 
nprocs     : 1
nthreads   : 64
#
# qchem installation setting
#
QC:          /cm/shared/apps/spack/cpu/opt/spack/linux-centos8-zen2/gcc-10.2.0/qchem-5.4-akfmr7b3t57bfs6qan3padb2wnb2i7cl
QCAUX:       /cm/shared/apps/spack/cpu/opt/spack/linux-centos8-zen2/gcc-10.2.0/qchem-5.4-akfmr7b3t57bfs6qan3padb2wnb2i7cl/qcaux
QCPROG:      /cm/shared/apps/spack/cpu/opt/spack/linux-centos8-zen2/gcc-10.2.0/qchem-5.4-akfmr7b3t57bfs6qan3padb2wnb2i7cl/exe/qcprog.exe
QCPROG_S:    /cm/shared/apps/spack/cpu/opt/spack/linux-centos8-zen2/gcc-10.2.0/qchem-5.4-akfmr7b3t57bfs6qan3padb2wnb2i7cl/exe/qcprog.exe_s
PARALLEL:    -DPARALLEL
QCMPI:       mpich
#
# qchem directory setting
#
qcrun:       qchem940558
QCSCRATCH:   .
QCLOCALSCR:  
QCTMPDIR:    .
QCFILEPREF:  ./qchem940558
QCSAVEDIR:   
workdirs:    ./qchem940558
workdir0:    ./qchem940558
partmpdirs =  
#
# parallel setting
#
QCRSH:           ssh
QCMPI:           mpich
QCMPIRUN:        /cm/shared/apps/spack/cpu/opt/spack/linux-centos8-zen2/gcc-10.2.0/qchem-5.4-akfmr7b3t57bfs6qan3padb2wnb2i7cl/bin/mpi/mpirun_qchem
QCMACHINEFILE:   ./qchem940558/hostfile
exp-8-24

#
# env setting
#
exported envs:   QC QCAUX QCSCRATCH QCRUNNAME QCFILEPREF QCPROG QCPROG_S GUIFILE

Running Job 1 of 1 fin_bdt_Phi_40_Theta_150_fin_ftt_Hydrogenated.qcin
qchem fin_bdt_Phi_40_Theta_150_fin_ftt_Hydrogenated.qcin_940558.0 ./qchem940558/ 1
/cm/shared/apps/spack/cpu/opt/spack/linux-centos8-zen2/gcc-10.2.0/qchem-5.4-akfmr7b3t57bfs6qan3padb2wnb2i7cl/bin/mpi/mpirun_qchem -machinefile ./qchem940558/hostfile -np 1 /cm/shared/apps/spack/cpu/opt/spack/linux-centos8-zen2/gcc-10.2.0/qchem-5.4-akfmr7b3t57bfs6qan3padb2wnb2i7cl/exe/qcprog.exe fin_bdt_Phi_40_Theta_150_fin_ftt_Hydrogenated.qcin_940558.0 ./qchem940558/

Process 0 of 1 is on exp-8-24 - thread support 0
initial socket setup ...start
initial socket setup ...done 
now start server 0 ... 
                  Welcome to Q-Chem
     A Quantum Leap Into The Future Of Chemistry


 Q-Chem 5.4, Q-Chem, Inc., Pleasanton, CA (2021)

 License issued to: University of California, San Diego (site)

 E. Epifanovsky,  A. T. B. Gilbert,  Xintian Feng,  Joonho Lee,  Yuezhi Mao,  
 N. Mardirossian,  P. Pokhilko,  A. White,  M. Wormit,  M. P. Coons,  
 A. L. Dempwolff,  Zhengting Gan,  D. Hait,  P. R. Horn,  L. D. Jacobson,  
 I. Kaliman,  J. Kussmann,  A. W. Lange,  Ka Un Lao,  D. S. Levine,  Jie Liu,  
 S. C. McKenzie,  A. F. Morrison,  K. Nanda,  F. Plasser,  D. R. Rehn,  
 M. L. Vidal,  Zhi-Qiang You,  Ying Zhu,  B. Alam,  B. Albrecht,  
 A. Aldossary,  E. Alguire,  J. H. Andersen,  D. Barton,  K. Begam,  A. Behn,  
 Y. A. Bernard,  E. J. Berquist,  H. Burton,  A. Carreras,  K. Carter-Fenk,  
 R. Chakraborty,  A. D. Chien,  K. D. Closser,  V. Cofer-Shabica,  
 S. Dasgupta,  Jia Deng,  M. de Wergifosse,  M. Diedenhofen,  Hainam Do,  
 S. Ehlert,  Po-Tung Fang,  S. Fatehi,  Qingguo Feng,  J. Gayvert,  
 Qinghui Ge,  G. Gidofalvi,  M. Goldey,  J. Gomes,  C. Gonzalez-Espinoza,  
 S. Gulania,  A. Gunina,  M. W. D. Hanson-Heine,  P. H. P. Harbach,  
 A. W. Hauser,  M. F. Herbst,  M. Hernandez Vera,  M. Hodecker,  
 Z. C. Holden,  S. Houck,  Xunkun Huang,  Kerwin Hui,  B. C. Huynh,  
 M. Ivanov,  Hyunjun Ji,  Hanjie Jiang,  B. Kaduk,  S. Kaehler,  
 K. Khistyaev,  Jaehoon Kim,  P. Klunzinger,  Z. Koczor-Benda,  
 Joong Hoon Koh,  D. Kosenkov,  L. Koulias,  T. Kowalczyk,  C. M. Krauter,  
 K. Kue,  A. Kunitsa,  T. Kus,  A. Landau,  K. V. Lawler,  D. Lefrancois,  
 S. Lehtola,  Rain Li,  Yi-Pei Li,  Jiashu Liang,  M. Liebenthal,  
 Hung-Hsuan Lin,  You-Sheng Lin,  Fenglai Liu,  Kuan-Yu Liu,  
 M. Loipersberger,  A. Luenser,  A. Manjanath,  P. Manohar,  E. Mansoor,  
 S. F. Manzer,  Shan-Ping Mao,  A. V. Marenich,  T. Markovich,  S. Mason,  
 S. A. Maurer,  P. F. McLaughlin,  M. F. S. J. Menger,  J.-M. Mewes,  
 S. A. Mewes,  P. Morgante,  J. W. Mullinax,  T. S. Nguyen-Beck,  
 K. J. Oosterbaan,  G. Paran,  Alexander C. Paul,  Suranjan K. Paul,  
 F. Pavosevic,  Zheng Pei,  S. Prager,  E. I. Proynov,  E. Ramos,  B. Rana,  
 A. E. Rask,  A. Rettig,  R. M. Richard,  F. Rob,  E. Rossomme,  T. Scheele,  
 M. Scheurer,  M. Schneider,  N. Sergueev,  S. M. Sharada,  W. Skomorowski,  
 D. W. Small,  C. J. Stein,  Yu-Chuan Su,  E. J. Sundstrom,  Zhen Tao,  
 J. Thirman,  T. Tsuchimochi,  N. M. Tubman,  S. P. Veccham,  O. Vydrov,  
 J. Wenzel,  J. Witte,  A. Yamada,  Kun Yao,  S. Yeganeh,  S. R. Yost,  
 A. Zech,  Igor Ying Zhang,  Xing Zhang,  Yu Zhang,  D. Zuev,  
 A. Aspuru-Guzik,  A. T. Bell,  N. A. Besley,  K. B. Bravaya,  B. R. Brooks,  
 D. Casanova,  Jeng-Da Chai,  S. Coriani,  C. J. Cramer,  
 A. E. DePrince, III,  R. A. DiStasio Jr.,  A. Dreuw,  B. D. Dunietz,  
 T. R. Furlani,  W. A. Goddard III,  S. Grimme,  S. Hammes-Schiffer,  
 T. Head-Gordon,  W. J. Hehre,  Chao-Ping Hsu,  T.-C. Jagau,  Yousung Jung,  
 A. Klamt,  Jing Kong,  D. S. Lambrecht,  WanZhen Liang,  N. J. Mayhall,  
 C. W. McCurdy,  J. B. Neaton,  C. Ochsenfeld,  J. A. Parkhill,  R. Peverati,  
 V. A. Rassolov,  Yihan Shao,  L. V. Slipchenko,  T. Stauch,  R. P. Steele,  
 J. E. Subotnik,  A. J. W. Thom,  A. Tkatchenko,  D. G. Truhlar,  
 T. Van Voorhis,  T. A. Wesolowski,  K. B. Whaley,  H. L. Woodcock III,  
 P. M. Zimmerman,  S. Faraji,  P. M. W. Gill,  M. Head-Gordon,  
 J. M. Herbert,  A. I. Krylov

 Contributors to earlier versions of Q-Chem not listed above: 
 R. D. Adamson,  B. Austin,  R. Baer,  J. Baker,  G. J. O. Beran,  
 K. Brandhorst,  S. T. Brown,  E. F. C. Byrd,  A. K. Chakraborty,  
 G. K. L. Chan,  Chun-Min Chang,  Yunqing Chen,  C.-L. Cheng,  
 Siu Hung Chien,  D. M. Chipman,  D. L. Crittenden,  H. Dachsel,  
 R. J. Doerksen,  A. D. Dutoi,  R. G. Edgar,  J. Fosso-Tande,  
 L. Fusti-Molnar,  D. Ghosh,  A. Ghysels,  A. Golubeva-Zadorozhnaya,  
 J. Gonthier,  M. S. Gordon,  S. R. Gwaltney,  G. Hawkins,  J. E. Herr,  
 A. Heyden,  S. Hirata,  E. G. Hohenstein,  G. Kedziora,  F. J. Keil,  
 C. Kelley,  Jihan Kim,  R. A. King,  R. Z. Khaliullin,  P. P. Korambath,  
 W. Kurlancheek,  A. Laurent,  A. M. Lee,  M. S. Lee,  S. V. Levchenko,  
 Ching Yeh Lin,  D. Liotard,  E. Livshits,  R. C. Lochan,  I. Lotan,  
 L. A. Martinez-Martinez,  P. E. Maslen,  N. Nair,  D. P. O'Neill,  
 D. Neuhauser,  E. Neuscamman,  C. M. Oana,  R. Olivares-Amaya,  R. Olson,  
 T. M. Perrine,  B. Peters,  P. A. Pieniazek,  A. Prociuk,  Y. M. Rhee,  
 J. Ritchie,  M. A. Rohrdanz,  E. Rosta,  N. J. Russ,  H. F. Schaefer III,  
 M. W. Schmidt,  N. E. Schultz,  S. Sharma,  N. Shenvi,  C. D. Sherrill,  
 A. C. Simmonett,  A. Sodt,  T. Stein,  D. Stuck,  K. S. Thanthiriwatte,  
 V. Vanovschi,  L. Vogt,  Tao Wang,  A. Warshel,  M. A. Watson,  
 C. F. Williams,  Q. Wu,  X. Xu,  Jun Yang,  W. Zhang,  Yan Zhao

 Please cite Q-Chem as follows:
 Y. Shao et al., Mol. Phys. 113, 184-215 (2015)
 DOI: 10.1080/00268976.2014.952696

 Q-Chem 5.4.0 for Intel X86 EM64T Linux

 Parts of Q-Chem use Armadillo 9.800.1 (Horizon Scraper).
 http://arma.sourceforge.net/

 Q-Chem begins on Sun Sep 24 17:50:15 2023  

 Host: 
0

     Scratch files written to ./qchem940558//
 May1621 |scratch|qcdevops|jenkins|workspace|build_RNUM    
 Parallel job on  1  processors
 Processing $rem in /cm/shared/apps/spack/cpu/opt/spack/linux-centos8-zen2/gcc-10.2.0/qchem-5.4-akfmr7b3t57bfs6qan3padb2wnb2i7cl/config/preferences:
 Processing $rem in /home/rramji/.qchemrc:
 Symmetry turned off for PCM/SM12/SMD calculation
 Core orbitals will be frozen

 Checking the input file for inconsistencies... 	...done.

 Q-Chem warning in module forms1/BasisType.C, line 2236:

 You are not using the predefined 5D/6D in this basis set.


--------------------------------------------------------------
User input:
--------------------------------------------------------------
$molecule
0 1
C	-0.092419	-8.519741	-0.255929
C	0.449364	-7.635967	0.666007
S	-0.885736	-7.651740	-1.592708
C	0.254813	-6.261894	0.332317
H	0.980526	-7.954738	1.571741
C	-0.458965	-6.079985	-0.904324
C	-0.767823	-4.798382	-1.385968
C	0.681909	-5.153542	1.118303
C	0.369139	-3.869626	0.638514
C	-0.342916	-3.688927	-0.600871
O	1.368544	-5.481075	2.248132
O	-1.458570	-4.479871	-2.520275
C	-1.405396	-5.356026	-3.639637
H	-1.820940	-4.790496	-4.495304
H	-2.023129	-6.268513	-3.490336
H	-0.361595	-5.658187	-3.873314
C	1.480048	-4.546999	3.314934
H	1.899255	-5.107564	4.171837
H	0.490123	-4.131473	3.601473
H	2.171521	-3.712085	3.068969
C	-0.537642	-2.314326	-0.930308
S	0.785807	-2.295487	1.334769
C	-0.000000	-1.435180	-0.000000
H	-1.066134	-1.993211	-1.836691
C	0.000000	0.000000	0.000000
S	0.579852	0.687566	1.510732
C	1.591625	1.895024	0.727629
C	0.583771	0.695758	-1.064665
C	1.475308	1.760606	-0.678287
C	0.542366	0.643841	-2.486150
C	1.355286	1.612843	-3.106916
S	2.154609	2.570627	-1.965735
C	1.522440	1.804778	-4.559972
O	0.924684	1.087757	-5.350277
O	2.349739	2.785679	-5.004375
F	-0.170780	-0.212144	-3.246290
C	2.588082	3.053936	-6.334976
H	3.298799	3.899999	-6.370268
H	1.655291	3.328371	-6.875609
H	3.026021	2.177385	-6.861878
H	2.183053	2.599759	1.321510
H	-0.866272	-9.146471	0.202590
H	0.682165	-9.150570	-0.707539
H	-0.931016	-1.444158	0.547293
$end

$rem
JOBTYPE		SP
EXCHANGE	HF
CORRELATION	pRIMP2
BASIS		cc-pvtz
METHOD		rimp2
AUX_BASIS	rimp2-cc-pvtz
SOLVENT_METHOD	PCM
PURECART	11111
SYMMETRY	false
MEM_TOTAL	110000
SCF_CONVERGENCE = 6
THRESH=10
GUI = 2
$end



$solvent
dielectric 4.90
$end
--------------------------------------------------------------
 ----------------------------------------------------------------
             Standard Nuclear Orientation (Angstroms)
    I     Atom           X                Y                Z
 ----------------------------------------------------------------
    1      C      -0.0924190000    -8.5197410000    -0.2559290000
    2      C       0.4493640000    -7.6359670000     0.6660070000
    3      S      -0.8857360000    -7.6517400000    -1.5927080000
    4      C       0.2548130000    -6.2618940000     0.3323170000
    5      H       0.9805260000    -7.9547380000     1.5717410000
    6      C      -0.4589650000    -6.0799850000    -0.9043240000
    7      C      -0.7678230000    -4.7983820000    -1.3859680000
    8      C       0.6819090000    -5.1535420000     1.1183030000
    9      C       0.3691390000    -3.8696260000     0.6385140000
   10      C      -0.3429160000    -3.6889270000    -0.6008710000
   11      O       1.3685440000    -5.4810750000     2.2481320000
   12      O      -1.4585700000    -4.4798710000    -2.5202750000
   13      C      -1.4053960000    -5.3560260000    -3.6396370000
   14      H      -1.8209400000    -4.7904960000    -4.4953040000
   15      H      -2.0231290000    -6.2685130000    -3.4903360000
   16      H      -0.3615950000    -5.6581870000    -3.8733140000
   17      C       1.4800480000    -4.5469990000     3.3149340000
   18      H       1.8992550000    -5.1075640000     4.1718370000
   19      H       0.4901230000    -4.1314730000     3.6014730000
   20      H       2.1715210000    -3.7120850000     3.0689690000
   21      C      -0.5376420000    -2.3143260000    -0.9303080000
   22      S       0.7858070000    -2.2954870000     1.3347690000
   23      C       0.0000000000    -1.4351800000     0.0000000000
   24      H      -1.0661340000    -1.9932110000    -1.8366910000
   25      C       0.0000000000     0.0000000000     0.0000000000
   26      S       0.5798520000     0.6875660000     1.5107320000
   27      C       1.5916250000     1.8950240000     0.7276290000
   28      C       0.5837710000     0.6957580000    -1.0646650000
   29      C       1.4753080000     1.7606060000    -0.6782870000
   30      C       0.5423660000     0.6438410000    -2.4861500000
   31      C       1.3552860000     1.6128430000    -3.1069160000
   32      S       2.1546090000     2.5706270000    -1.9657350000
   33      C       1.5224400000     1.8047780000    -4.5599720000
   34      O       0.9246840000     1.0877570000    -5.3502770000
   35      O       2.3497390000     2.7856790000    -5.0043750000
   36      F      -0.1707800000    -0.2121440000    -3.2462900000
   37      C       2.5880820000     3.0539360000    -6.3349760000
   38      H       3.2987990000     3.8999990000    -6.3702680000
   39      H       1.6552910000     3.3283710000    -6.8756090000
   40      H       3.0260210000     2.1773850000    -6.8618780000
   41      H       2.1830530000     2.5997590000     1.3215100000
   42      H      -0.8662720000    -9.1464710000     0.2025900000
   43      H       0.6821650000    -9.1505700000    -0.7075390000
   44      H      -0.9310160000    -1.4441580000     0.5472930000
 ----------------------------------------------------------------
 Nuclear Repulsion Energy =        3399.39485531 hartrees
 There are      120 alpha and      120 beta electrons
 Requested basis set is cc-pVTZ
 There are 388 shells and 1096 basis functions

 Total QAlloc Memory Limit 110000 MB
 Mega-Array Size       188 MB
 MEM_STATIC part       192 MB
 Discretize the solute cavity surface with Lebedev spheres
	Using 110 Lebedev grid points for each H atom
	Using 194 Lebedev grid points for other atoms
	Atomic van der Waals radii will be scaled by 1.20
 Remove points where switching function is < 1.0e-08
 Keep 2926 surface tesserae and discard 4350 interior tesserae
 Molecular Surface Area = 434.805 Angst**2
 Requested basis set is rimp2-cc-pVTZ
 There are 853 shells and 2963 basis functions
 A cutoff of  1.0D-10 yielded  33994 shell pairs
 There are    256234 function pairs (    331261 Cartesian)
 Smallest overlap matrix eigenvalue = 2.17E-05

 Scale SEOQF with 1.000000e-01/1.000000e-02/1.000000e-02

 Standard Electronic Orientation quadrupole field applied
 Nucleus-field energy     =     0.0000000254 hartrees
 Guess from superposition of atomic densities
 Warning:  Energy on first SCF cycle will be non-variational
 SAD guess density has 240.000000 electrons

 -----------------------------------------------------------------------
  General SCF calculation program by
  Eric Jon Sundstrom, Paul Horn, Yuezhi Mao, Dmitri Zuev, Alec White,
  David Stuck, Shaama M.S., Shane Yost, Joonho Lee, David Small,
  Daniel Levine, Susi Lehtola, Hugh Burton, Evgeny Epifanovsky,
  Bang C. Huynh
 -----------------------------------------------------------------------
 Hartree-Fock
 using 64 threads for integral computing
 -------------------------------------------------------
 OpenMP Integral computing Module                
 Release: version 1.0, May 2013, Q-Chem Inc. Pittsburgh 
 -------------------------------------------------------
 A restricted SCF calculation will be
 performed using DIIS
 SCF converges when DIIS error is below 1.0e-06
 ---------------------------------------
  Cycle       Energy         DIIS error
 ---------------------------------------
    1   -2767.4052237172      1.77e-02  
    2   -2754.8339103495      1.54e-03  
    3   -2755.1838348763      8.71e-04  
    4   -2755.2731116829      2.56e-04  
    5   -2755.2869847650      7.37e-05  
    6   -2755.2886218015      2.71e-05  
    7   -2755.2890807099      1.40e-05  
    8   -2755.2892300588      5.94e-06  
    9   -2755.2892638771      3.09e-06  
   10   -2755.2892717402      1.46e-06  
   11   -2755.2892739657      7.21e-07  Convergence criterion met
 ---------------------------------------
 SCF time:   CPU 7754.64s  wall 278.00s 

************** Final PCM Free Energy Summary **************
 G_electrostatic  =      -0.02171887 hartree =     -13.62879862 kcal/mol
 G_cavitation     =       0.00000000 hartree =       0.00000000 kcal/mol
 G_dispersion     =       0.00000000 hartree =       0.00000000 kcal/mol
 G_repulsion      =       0.00000000 hartree =       0.00000000 kcal/mol
 --------------------------------------------------
 Non-electrostatic Free Energy =       0.00000000 hartree =       0.00000000 kcal/mol
 Total                         =      -0.02171887 hartree =     -13.62879862 kcal/mol
 --------------------------------------------------
 SCF Energy (H0 + V/2)                       =   -2755.28927397 
 Solute Internal Energy (H0)                 =   -2755.26755509 
 Total Free Energy (H0 + V/2 + non-elec)     =   -2755.28927397 hartree
                                             = -1728970.11475822 kcal/mol
***********************************************************

 SCF   energy in the final basis set =    -2755.2892739657
 Total energy in the final basis set =    -2755.2892739657


 --------------------------------------------------------------
  Generalized many-body perturbation theory program
  by Joonho Lee, Fazle Rob, Xintian Feng, Evgeny Epifanovsky

 No regularization used 
 (reg. param. = 0.0000e+00)
  (P|Q)^-1/2 Time:  CPU 147.86 s  wall 3.04 s

 In RI-MP2 calculation: 
 # of frozen core orbitals: 45

 Components of the RIMP2 correlation energy:
        aaaa    correlation energy =        -0.6726716459 a.u.
        abab    correlation energy =        -3.7586092318 a.u.
        bbbb    correlation energy =        -0.6726716459 a.u.
        non-Brillouin singles      =        -0.0000000000 a.u.
        total same-spin energy     =        -1.3453432917 a.u.
        total opposite-spin energy =        -3.7586092318 a.u.

 Total  RIMP2   correlation energy =        -5.1039525235 a.u.
        RIMP2         total energy =     -2760.3932264893 a.u.

 RI-MP2 Energy Time:  CPU 2998.24 s  wall 49.04 s
 
 --------------------------------------------------------------
 
                    Orbital Energies (a.u.)
 --------------------------------------------------------------
 
 Alpha MOs
 -- Occupied --
-92.0163 -91.9985 -91.9792 -91.9565 -26.3377 -20.6137 -20.5861 -20.5858
-20.5527 -11.4126 -11.3783 -11.3081 -11.3054 -11.3038 -11.3024 -11.3020
-11.2989 -11.2894 -11.2845 -11.2841 -11.2813 -11.2813 -11.2772 -11.2719
-11.2705 -11.2569 -11.2549 -11.2480 -11.2334  -9.0153  -9.0024  -8.9814
 -8.9591  -6.6960  -6.6954  -6.6950  -6.6837  -6.6830  -6.6817  -6.6624
 -6.6615  -6.6602  -6.6404  -6.6394  -6.6384  -1.6512  -1.4736  -1.4095
 -1.4076  -1.3692  -1.2416  -1.2084  -1.1744  -1.1450  -1.0977  -1.0522
 -1.0453  -1.0316  -1.0080  -0.9971  -0.9738  -0.9594  -0.9477  -0.9398
 -0.8936  -0.8734  -0.8621  -0.8078  -0.7981  -0.7856  -0.7761  -0.7712
 -0.7626  -0.7315  -0.7232  -0.7193  -0.6966  -0.6937  -0.6830  -0.6800
 -0.6746  -0.6653  -0.6558  -0.6476  -0.6373  -0.6284  -0.6184  -0.6133
 -0.6100  -0.6085  -0.5985  -0.5927  -0.5746  -0.5682  -0.5576  -0.5542
 -0.5433  -0.5371  -0.5313  -0.5228  -0.5143  -0.5086  -0.5061  -0.4992
 -0.4875  -0.4829  -0.4739  -0.4717  -0.4633  -0.4624  -0.4553  -0.4444
 -0.4292  -0.3959  -0.3846  -0.3684  -0.3510  -0.2954  -0.2856  -0.2146
 -- Virtual --
  0.0120   0.0571   0.1072   0.1250   0.1414   0.1469   0.1524   0.1554
  0.1573   0.1615   0.1677   0.1795   0.1820   0.1874   0.1882   0.1976
  0.2001   0.2053   0.2054   0.2137   0.2164   0.2235   0.2247   0.2254
  0.2303   0.2310   0.2393   0.2478   0.2540   0.2566   0.2678   0.2692
  0.2765   0.2937   0.3040   0.3195   0.3283   0.3392   0.3419   0.3476
  0.3495   0.3557   0.3592   0.3666   0.3688   0.3738   0.3759   0.3837
  0.3847   0.3905   0.3953   0.4017   0.4053   0.4088   0.4132   0.4216
  0.4253   0.4279   0.4303   0.4310   0.4348   0.4429   0.4465   0.4535
  0.4573   0.4614   0.4629   0.4701   0.4760   0.4795   0.4828   0.4872
  0.4879   0.4947   0.4975   0.5017   0.5051   0.5126   0.5178   0.5228
  0.5253   0.5275   0.5303   0.5329   0.5405   0.5451   0.5486   0.5507
  0.5552   0.5599   0.5643   0.5652   0.5731   0.5753   0.5777   0.5782
  0.5864   0.5904   0.5915   0.5943   0.5974   0.6028   0.6041   0.6122
  0.6141   0.6161   0.6169   0.6213   0.6228   0.6265   0.6287   0.6321
  0.6352   0.6394   0.6412   0.6446   0.6475   0.6521   0.6555   0.6576
  0.6636   0.6719   0.6739   0.6777   0.6825   0.6881   0.6949   0.6963
  0.7026   0.7036   0.7089   0.7129   0.7190   0.7247   0.7275   0.7399
  0.7476   0.7577   0.7618   0.7657   0.7715   0.7780   0.7853   0.7888
  0.7910   0.7920   0.8035   0.8056   0.8081   0.8146   0.8175   0.8274
  0.8307   0.8425   0.8458   0.8521   0.8633   0.8682   0.8711   0.8799
  0.8837   0.8899   0.8962   0.9033   0.9058   0.9081   0.9145   0.9238
  0.9247   0.9296   0.9354   0.9362   0.9433   0.9470   0.9500   0.9562
  0.9594   0.9632   0.9764   0.9790   0.9826   0.9897   0.9920   0.9966
  0.9976   1.0035   1.0067   1.0090   1.0117   1.0147   1.0254   1.0278
  1.0346   1.0410   1.0468   1.0504   1.0551   1.0580   1.0641   1.0681
  1.0686   1.0792   1.0812   1.0903   1.0929   1.0985   1.1042   1.1112
  1.1182   1.1204   1.1244   1.1267   1.1346   1.1387   1.1410   1.1546
  1.1602   1.1607   1.1620   1.1712   1.1720   1.1777   1.1799   1.1852
  1.1903   1.1951   1.1979   1.1999   1.2023   1.2122   1.2156   1.2200
  1.2236   1.2298   1.2394   1.2411   1.2475   1.2500   1.2533   1.2562
  1.2612   1.2693   1.2756   1.2806   1.2836   1.2868   1.2907   1.2958
  1.3009   1.3090   1.3135   1.3157   1.3282   1.3328   1.3399   1.3425
  1.3456   1.3545   1.3628   1.3691   1.3767   1.3772   1.3900   1.3962
  1.3994   1.4078   1.4116   1.4173   1.4216   1.4369   1.4457   1.4501
  1.4592   1.4715   1.4762   1.4857   1.4872   1.4946   1.4986   1.5010
  1.5059   1.5104   1.5127   1.5185   1.5261   1.5322   1.5330   1.5370
  1.5441   1.5475   1.5501   1.5562   1.5579   1.5656   1.5710   1.5820
  1.5984   1.6010   1.6044   1.6142   1.6236   1.6282   1.6344   1.6408
  1.6456   1.6551   1.6607   1.6637   1.6683   1.6751   1.6830   1.6911
  1.6939   1.7005   1.7142   1.7189   1.7247   1.7291   1.7384   1.7484
  1.7551   1.7600   1.7673   1.7765   1.7856   1.7898   1.8030   1.8106
  1.8167   1.8246   1.8318   1.8438   1.8584   1.8628   1.8679   1.8722
  1.8772   1.8850   1.8975   1.8997   1.9094   1.9256   1.9335   1.9384
  1.9479   1.9510   1.9569   1.9686   1.9753   1.9807   1.9973   2.0088
  2.0171   2.0194   2.0232   2.0285   2.0379   2.0423   2.0470   2.0632
  2.0673   2.0712   2.0952   2.0990   2.1107   2.1227   2.1285   2.1321
  2.1470   2.1501   2.1614   2.1647   2.1739   2.1832   2.1900   2.1913
  2.1943   2.1971   2.2106   2.2200   2.2230   2.2336   2.2409   2.2443
  2.2478   2.2536   2.2686   2.2702   2.2754   2.2799   2.2848   2.2952
  2.3000   2.3227   2.3292   2.3342   2.3403   2.3508   2.3634   2.3679
  2.3760   2.3855   2.3941   2.4036   2.4145   2.4170   2.4247   2.4284
  2.4376   2.4474   2.4655   2.4686   2.4745   2.4834   2.4915   2.4989
  2.5090   2.5132   2.5279   2.5328   2.5409   2.5496   2.5624   2.5629
  2.5720   2.5784   2.6040   2.6053   2.6129   2.6187   2.6255   2.6264
  2.6341   2.6377   2.6434   2.6486   2.6522   2.6566   2.6649   2.6757
  2.6852   2.6870   2.6947   2.7041   2.7066   2.7086   2.7158   2.7214
  2.7296   2.7343   2.7407   2.7455   2.7491   2.7566   2.7651   2.7711
  2.7766   2.7851   2.7883   2.7992   2.8133   2.8158   2.8272   2.8347
  2.8476   2.8512   2.8543   2.8568   2.8631   2.8682   2.8727   2.8790
  2.8910   2.8931   2.8992   2.9097   2.9143   2.9350   2.9353   2.9529
  2.9586   2.9634   2.9655   2.9737   2.9809   2.9881   2.9937   2.9981
  3.0109   3.0183   3.0268   3.0344   3.0411   3.0424   3.0447   3.0545
  3.0623   3.0708   3.0798   3.0861   3.0904   3.0947   3.0970   3.1049
  3.1069   3.1150   3.1175   3.1278   3.1323   3.1447   3.1471   3.1511
  3.1574   3.1626   3.1649   3.1688   3.1751   3.1782   3.1813   3.1906
  3.1935   3.1972   3.2013   3.2097   3.2116   3.2163   3.2191   3.2211
  3.2354   3.2461   3.2486   3.2523   3.2577   3.2591   3.2634   3.2663
  3.2703   3.2774   3.2830   3.2847   3.2905   3.2915   3.2998   3.3067
  3.3091   3.3106   3.3147   3.3197   3.3297   3.3374   3.3383   3.3456
  3.3462   3.3526   3.3543   3.3563   3.3583   3.3629   3.3681   3.3715
  3.3743   3.3813   3.3879   3.3919   3.3980   3.4010   3.4053   3.4119
  3.4176   3.4268   3.4285   3.4317   3.4336   3.4404   3.4427   3.4477
  3.4507   3.4553   3.4599   3.4688   3.4696   3.4738   3.4788   3.4842
  3.4945   3.4965   3.5008   3.5060   3.5116   3.5254   3.5291   3.5350
  3.5410   3.5451   3.5510   3.5605   3.5634   3.5751   3.5791   3.5823
  3.5883   3.5936   3.5951   3.6017   3.6051   3.6133   3.6173   3.6231
  3.6272   3.6363   3.6371   3.6399   3.6471   3.6549   3.6588   3.6640
  3.6646   3.6679   3.6769   3.6826   3.6863   3.6934   3.6950   3.7053
  3.7087   3.7102   3.7165   3.7215   3.7235   3.7266   3.7279   3.7317
  3.7377   3.7432   3.7474   3.7610   3.7615   3.7648   3.7750   3.7759
  3.7884   3.7920   3.8036   3.8090   3.8108   3.8168   3.8219   3.8267
  3.8298   3.8314   3.8373   3.8436   3.8508   3.8525   3.8584   3.8634
  3.8733   3.8771   3.8832   3.8921   3.8959   3.8981   3.9083   3.9136
  3.9241   3.9322   3.9367   3.9407   3.9514   3.9562   3.9650   3.9676
  3.9703   3.9752   3.9892   3.9963   4.0043   4.0151   4.0214   4.0222
  4.0242   4.0304   4.0460   4.0482   4.0521   4.0591   4.0664   4.0693
  4.0703   4.0754   4.0788   4.0887   4.1021   4.1144   4.1247   4.1273
  4.1303   4.1478   4.1514   4.1588   4.1642   4.1694   4.1708   4.1759
  4.1842   4.1929   4.1953   4.2095   4.2152   4.2194   4.2345   4.2400
  4.2496   4.2525   4.2618   4.2711   4.2870   4.2972   4.3006   4.3234
  4.3242   4.3326   4.3407   4.3457   4.3504   4.3548   4.3605   4.3659
  4.3758   4.3768   4.3857   4.3957   4.3983   4.4083   4.4107   4.4160
  4.4244   4.4254   4.4293   4.4345   4.4462   4.4489   4.4581   4.4625
  4.4714   4.4759   4.4873   4.4996   4.5057   4.5159   4.5225   4.5306
  4.5388   4.5465   4.5612   4.5663   4.5709   4.5730   4.5782   4.5836
  4.6013   4.6049   4.6188   4.6308   4.6323   4.6405   4.6504   4.6505
  4.6622   4.6684   4.6749   4.6886   4.6927   4.6945   4.7118   4.7240
  4.7249   4.7404   4.7534   4.7671   4.7789   4.7901   4.8063   4.8142
  4.8289   4.8306   4.8330   4.8451   4.8747   4.8819   4.8897   4.8976
  4.9201   4.9242   4.9314   4.9474   4.9600   4.9673   4.9686   4.9730
  4.9986   5.0007   5.0102   5.0114   5.0154   5.0253   5.0420   5.0485
  5.0717   5.0884   5.0939   5.1087   5.1263   5.1324   5.1631   5.1725
  5.1911   5.1941   5.1980   5.2063   5.2084   5.2182   5.2320   5.2540
  5.2583   5.2633   5.2838   5.2884   5.2962   5.3094   5.3193   5.3280
  5.3401   5.3542   5.3545   5.3651   5.3721   5.3869   5.3938   5.4029
  5.4044   5.4181   5.4381   5.4451   5.4568   5.4723   5.4884   5.4987
  5.5088   5.5170   5.5219   5.5455   5.5661   5.5774   5.5800   5.5885
  5.6043   5.6121   5.6157   5.6293   5.6407   5.6619   5.6841   5.6950
  5.7134   5.7355   5.7645   5.7872   5.7993   5.8223   5.8420   5.8553
  5.8600   5.8826   5.9049   5.9494   5.9587   5.9678   5.9848   5.9998
  6.0414   6.0736   6.1155   6.1295   6.1325   6.1502   6.1732   6.1766
  6.1849   6.1864   6.2406   6.2439   6.2527   6.2696   6.2857   6.2954
  6.3072   6.3437   6.3546   6.4212   6.4477   6.4849   6.5080   6.5487
  6.5546   6.5673   6.6479   6.6747   6.6800   6.7117   6.7342   6.7435
  6.8083   6.8556   6.8582   6.8811   6.8998   6.9885   7.1330   7.1466
  7.1769   7.2094   7.2234   7.2406   7.3244   7.3291   7.3420   7.3698
  7.3733   7.4280   7.4610   7.4840   7.4877   7.4983   7.5186   7.5471
  7.6096   7.7397   7.7683   7.8042   7.8300   7.9070   7.9289   7.9578
  8.0055   8.1175   8.3285   8.5781   8.9337   9.0214   9.3641   9.5013
  9.7072  10.3363  11.2516  11.3870  11.9415  12.0331  12.1243  12.3284
 12.4004  12.5048  12.6752  12.9438  13.0006  13.2372  13.4817  13.6051
 13.6584  13.8705  13.9364  13.9527  14.1766  14.3112  14.8844  15.2201
 --------------------------------------------------------------
 
          Ground-State Mulliken Net Atomic Charges

     Atom                 Charge (a.u.)
  ----------------------------------------
      1 C                    -0.069628
      2 C                    -0.270365
      3 S                    -0.138435
      4 C                    -0.042425
      5 H                     0.191950
      6 C                    -0.054738
      7 C                     0.224256
      8 C                     0.219553
      9 C                    -0.078753
     10 C                    -0.050587
     11 O                    -0.334961
     12 O                    -0.343256
     13 C                    -0.082337
     14 H                     0.120798
     15 H                     0.091483
     16 H                     0.092666
     17 C                    -0.088036
     18 H                     0.123829
     19 H                     0.091819
     20 H                     0.089098
     21 C                    -0.273865
     22 S                    -0.081488
     23 C                     0.055914
     24 H                     0.208223
     25 C                    -0.112101
     26 S                     0.091064
     27 C                    -0.199181
     28 C                    -0.028653
     29 C                    -0.024247
     30 C                     0.367418
     31 C                    -0.131735
     32 S                     0.049957
     33 C                     0.457196
     34 O                    -0.446915
     35 O                    -0.297568
     36 F                    -0.212317
     37 C                    -0.054737
     38 H                     0.117026
     39 H                     0.084879
     40 H                     0.084958
     41 H                     0.218196
     42 H                     0.115923
     43 H                     0.113654
     44 H                     0.206469
  ----------------------------------------
  Sum of atomic charges =     0.000000

 -----------------------------------------------------------------
                    Cartesian Multipole Moments
 -----------------------------------------------------------------
    Charge (ESU x 10^10)
                 0.0000
    Dipole Moment (Debye)
         X       2.2640      Y       3.8616      Z       3.4719
       Tot       5.6649
    Quadrupole Moments (Debye-Ang)
        XX    -193.6520     XY       6.7134     YY    -185.6655
        XZ      -3.8059     YZ     -11.5914     ZZ    -187.1804
    Octopole Moments (Debye-Ang^2)
       XXX    -301.4659    XXY     455.6465    XYY     -59.2659
       YYY    1144.5866    XXZ     173.3387    XYZ     -40.8159
       YYZ     184.4804    XZZ     -29.5887    YZZ     440.1419
       ZZZ     585.9643
    Hexadecapole Moments (Debye-Ang^3)
      XXXX   -1945.1101   XXXY    -868.8849   XXYY   -3898.4681
      XYYY   -1000.0296   YYYY  -19218.6830   XXXZ     381.4467
      XXYZ     115.2338   XYYZ     116.9929   YYYZ     310.5092
      XXZZ   -1328.6946   XYZZ     -30.7302   YYZZ   -4216.2842
      XZZZ      94.3311   YZZZ      81.3099   ZZZZ   -7201.4746
 -----------------------------------------------------------------
 Total job time:  331.46s(wall), 10908.76s(cpu) 
 Sun Sep 24 17:55:47 2023

        *************************************************************
        *                                                           *
        *  Thank you very much for using Q-Chem.  Have a nice day.  *
        *                                                           *
        *************************************************************


0 sent ACK to 0 
now end server 0 ... 
cleanup process ... done
remove work dirs ./qchem940558.0 -- ./qchem940558.0
rm -rf ./qchem940558.0
rm -rf ./qchem940558
