You are running Q-Chem version: 5.4.0

#
# job setting
#
local host:  exp-5-42
current dir: /expanse/lustre/projects/csd626/rramji/aromodel/PTB7_fin/Hydrogenated_Rotation_Test
input file:  fin_bdt_Phi_0_Theta_80_fin_ftt_Hydrogenated.qcin
output file: 
nprocs     : 1
nthreads   : 64
#
# qchem installation setting
#
QC:          /cm/shared/apps/spack/cpu/opt/spack/linux-centos8-zen2/gcc-10.2.0/qchem-5.4-akfmr7b3t57bfs6qan3padb2wnb2i7cl
QCAUX:       /cm/shared/apps/spack/cpu/opt/spack/linux-centos8-zen2/gcc-10.2.0/qchem-5.4-akfmr7b3t57bfs6qan3padb2wnb2i7cl/qcaux
QCPROG:      /cm/shared/apps/spack/cpu/opt/spack/linux-centos8-zen2/gcc-10.2.0/qchem-5.4-akfmr7b3t57bfs6qan3padb2wnb2i7cl/exe/qcprog.exe
QCPROG_S:    /cm/shared/apps/spack/cpu/opt/spack/linux-centos8-zen2/gcc-10.2.0/qchem-5.4-akfmr7b3t57bfs6qan3padb2wnb2i7cl/exe/qcprog.exe_s
PARALLEL:    -DPARALLEL
QCMPI:       mpich
#
# qchem directory setting
#
qcrun:       qchem948949
QCSCRATCH:   .
QCLOCALSCR:  
QCTMPDIR:    .
QCFILEPREF:  ./qchem948949
QCSAVEDIR:   
workdirs:    ./qchem948949
workdir0:    ./qchem948949
partmpdirs =  
#
# parallel setting
#
QCRSH:           ssh
QCMPI:           mpich
QCMPIRUN:        /cm/shared/apps/spack/cpu/opt/spack/linux-centos8-zen2/gcc-10.2.0/qchem-5.4-akfmr7b3t57bfs6qan3padb2wnb2i7cl/bin/mpi/mpirun_qchem
QCMACHINEFILE:   ./qchem948949/hostfile
exp-5-42

#
# env setting
#
exported envs:   QC QCAUX QCSCRATCH QCRUNNAME QCFILEPREF QCPROG QCPROG_S GUIFILE

Running Job 1 of 1 fin_bdt_Phi_0_Theta_80_fin_ftt_Hydrogenated.qcin
qchem fin_bdt_Phi_0_Theta_80_fin_ftt_Hydrogenated.qcin_948949.0 ./qchem948949/ 1
/cm/shared/apps/spack/cpu/opt/spack/linux-centos8-zen2/gcc-10.2.0/qchem-5.4-akfmr7b3t57bfs6qan3padb2wnb2i7cl/bin/mpi/mpirun_qchem -machinefile ./qchem948949/hostfile -np 1 /cm/shared/apps/spack/cpu/opt/spack/linux-centos8-zen2/gcc-10.2.0/qchem-5.4-akfmr7b3t57bfs6qan3padb2wnb2i7cl/exe/qcprog.exe fin_bdt_Phi_0_Theta_80_fin_ftt_Hydrogenated.qcin_948949.0 ./qchem948949/

Process 0 of 1 is on exp-5-42 - thread support 0
initial socket setup ...start
initial socket setup ...done 
now start server 0 ... 
                  Welcome to Q-Chem
     A Quantum Leap Into The Future Of Chemistry


 Q-Chem 5.4, Q-Chem, Inc., Pleasanton, CA (2021)

 License issued to: University of California, San Diego (site)

 E. Epifanovsky,  A. T. B. Gilbert,  Xintian Feng,  Joonho Lee,  Yuezhi Mao,  
 N. Mardirossian,  P. Pokhilko,  A. White,  M. Wormit,  M. P. Coons,  
 A. L. Dempwolff,  Zhengting Gan,  D. Hait,  P. R. Horn,  L. D. Jacobson,  
 I. Kaliman,  J. Kussmann,  A. W. Lange,  Ka Un Lao,  D. S. Levine,  Jie Liu,  
 S. C. McKenzie,  A. F. Morrison,  K. Nanda,  F. Plasser,  D. R. Rehn,  
 M. L. Vidal,  Zhi-Qiang You,  Ying Zhu,  B. Alam,  B. Albrecht,  
 A. Aldossary,  E. Alguire,  J. H. Andersen,  D. Barton,  K. Begam,  A. Behn,  
 Y. A. Bernard,  E. J. Berquist,  H. Burton,  A. Carreras,  K. Carter-Fenk,  
 R. Chakraborty,  A. D. Chien,  K. D. Closser,  V. Cofer-Shabica,  
 S. Dasgupta,  Jia Deng,  M. de Wergifosse,  M. Diedenhofen,  Hainam Do,  
 S. Ehlert,  Po-Tung Fang,  S. Fatehi,  Qingguo Feng,  J. Gayvert,  
 Qinghui Ge,  G. Gidofalvi,  M. Goldey,  J. Gomes,  C. Gonzalez-Espinoza,  
 S. Gulania,  A. Gunina,  M. W. D. Hanson-Heine,  P. H. P. Harbach,  
 A. W. Hauser,  M. F. Herbst,  M. Hernandez Vera,  M. Hodecker,  
 Z. C. Holden,  S. Houck,  Xunkun Huang,  Kerwin Hui,  B. C. Huynh,  
 M. Ivanov,  Hyunjun Ji,  Hanjie Jiang,  B. Kaduk,  S. Kaehler,  
 K. Khistyaev,  Jaehoon Kim,  P. Klunzinger,  Z. Koczor-Benda,  
 Joong Hoon Koh,  D. Kosenkov,  L. Koulias,  T. Kowalczyk,  C. M. Krauter,  
 K. Kue,  A. Kunitsa,  T. Kus,  A. Landau,  K. V. Lawler,  D. Lefrancois,  
 S. Lehtola,  Rain Li,  Yi-Pei Li,  Jiashu Liang,  M. Liebenthal,  
 Hung-Hsuan Lin,  You-Sheng Lin,  Fenglai Liu,  Kuan-Yu Liu,  
 M. Loipersberger,  A. Luenser,  A. Manjanath,  P. Manohar,  E. Mansoor,  
 S. F. Manzer,  Shan-Ping Mao,  A. V. Marenich,  T. Markovich,  S. Mason,  
 S. A. Maurer,  P. F. McLaughlin,  M. F. S. J. Menger,  J.-M. Mewes,  
 S. A. Mewes,  P. Morgante,  J. W. Mullinax,  T. S. Nguyen-Beck,  
 K. J. Oosterbaan,  G. Paran,  Alexander C. Paul,  Suranjan K. Paul,  
 F. Pavosevic,  Zheng Pei,  S. Prager,  E. I. Proynov,  E. Ramos,  B. Rana,  
 A. E. Rask,  A. Rettig,  R. M. Richard,  F. Rob,  E. Rossomme,  T. Scheele,  
 M. Scheurer,  M. Schneider,  N. Sergueev,  S. M. Sharada,  W. Skomorowski,  
 D. W. Small,  C. J. Stein,  Yu-Chuan Su,  E. J. Sundstrom,  Zhen Tao,  
 J. Thirman,  T. Tsuchimochi,  N. M. Tubman,  S. P. Veccham,  O. Vydrov,  
 J. Wenzel,  J. Witte,  A. Yamada,  Kun Yao,  S. Yeganeh,  S. R. Yost,  
 A. Zech,  Igor Ying Zhang,  Xing Zhang,  Yu Zhang,  D. Zuev,  
 A. Aspuru-Guzik,  A. T. Bell,  N. A. Besley,  K. B. Bravaya,  B. R. Brooks,  
 D. Casanova,  Jeng-Da Chai,  S. Coriani,  C. J. Cramer,  
 A. E. DePrince, III,  R. A. DiStasio Jr.,  A. Dreuw,  B. D. Dunietz,  
 T. R. Furlani,  W. A. Goddard III,  S. Grimme,  S. Hammes-Schiffer,  
 T. Head-Gordon,  W. J. Hehre,  Chao-Ping Hsu,  T.-C. Jagau,  Yousung Jung,  
 A. Klamt,  Jing Kong,  D. S. Lambrecht,  WanZhen Liang,  N. J. Mayhall,  
 C. W. McCurdy,  J. B. Neaton,  C. Ochsenfeld,  J. A. Parkhill,  R. Peverati,  
 V. A. Rassolov,  Yihan Shao,  L. V. Slipchenko,  T. Stauch,  R. P. Steele,  
 J. E. Subotnik,  A. J. W. Thom,  A. Tkatchenko,  D. G. Truhlar,  
 T. Van Voorhis,  T. A. Wesolowski,  K. B. Whaley,  H. L. Woodcock III,  
 P. M. Zimmerman,  S. Faraji,  P. M. W. Gill,  M. Head-Gordon,  
 J. M. Herbert,  A. I. Krylov

 Contributors to earlier versions of Q-Chem not listed above: 
 R. D. Adamson,  B. Austin,  R. Baer,  J. Baker,  G. J. O. Beran,  
 K. Brandhorst,  S. T. Brown,  E. F. C. Byrd,  A. K. Chakraborty,  
 G. K. L. Chan,  Chun-Min Chang,  Yunqing Chen,  C.-L. Cheng,  
 Siu Hung Chien,  D. M. Chipman,  D. L. Crittenden,  H. Dachsel,  
 R. J. Doerksen,  A. D. Dutoi,  R. G. Edgar,  J. Fosso-Tande,  
 L. Fusti-Molnar,  D. Ghosh,  A. Ghysels,  A. Golubeva-Zadorozhnaya,  
 J. Gonthier,  M. S. Gordon,  S. R. Gwaltney,  G. Hawkins,  J. E. Herr,  
 A. Heyden,  S. Hirata,  E. G. Hohenstein,  G. Kedziora,  F. J. Keil,  
 C. Kelley,  Jihan Kim,  R. A. King,  R. Z. Khaliullin,  P. P. Korambath,  
 W. Kurlancheek,  A. Laurent,  A. M. Lee,  M. S. Lee,  S. V. Levchenko,  
 Ching Yeh Lin,  D. Liotard,  E. Livshits,  R. C. Lochan,  I. Lotan,  
 L. A. Martinez-Martinez,  P. E. Maslen,  N. Nair,  D. P. O'Neill,  
 D. Neuhauser,  E. Neuscamman,  C. M. Oana,  R. Olivares-Amaya,  R. Olson,  
 T. M. Perrine,  B. Peters,  P. A. Pieniazek,  A. Prociuk,  Y. M. Rhee,  
 J. Ritchie,  M. A. Rohrdanz,  E. Rosta,  N. J. Russ,  H. F. Schaefer III,  
 M. W. Schmidt,  N. E. Schultz,  S. Sharma,  N. Shenvi,  C. D. Sherrill,  
 A. C. Simmonett,  A. Sodt,  T. Stein,  D. Stuck,  K. S. Thanthiriwatte,  
 V. Vanovschi,  L. Vogt,  Tao Wang,  A. Warshel,  M. A. Watson,  
 C. F. Williams,  Q. Wu,  X. Xu,  Jun Yang,  W. Zhang,  Yan Zhao

 Please cite Q-Chem as follows:
 Y. Shao et al., Mol. Phys. 113, 184-215 (2015)
 DOI: 10.1080/00268976.2014.952696

 Q-Chem 5.4.0 for Intel X86 EM64T Linux

 Parts of Q-Chem use Armadillo 9.800.1 (Horizon Scraper).
 http://arma.sourceforge.net/

 Q-Chem begins on Sun Sep 24 17:07:03 2023  

 Host: 
0

     Scratch files written to ./qchem948949//
 May1621 |scratch|qcdevops|jenkins|workspace|build_RNUM    
 Parallel job on  1  processors
 Processing $rem in /cm/shared/apps/spack/cpu/opt/spack/linux-centos8-zen2/gcc-10.2.0/qchem-5.4-akfmr7b3t57bfs6qan3padb2wnb2i7cl/config/preferences:
 Processing $rem in /home/rramji/.qchemrc:
 Symmetry turned off for PCM/SM12/SMD calculation
 Core orbitals will be frozen

 Checking the input file for inconsistencies... 	...done.

 Q-Chem warning in module forms1/BasisType.C, line 2236:

 You are not using the predefined 5D/6D in this basis set.


--------------------------------------------------------------
User input:
--------------------------------------------------------------
$molecule
0 1
C	-0.272104	-8.519741	-0.000687
C	0.779533	-7.635967	-0.194476
S	-1.799596	-7.651740	0.287581
C	0.399427	-6.261894	-0.125787
H	1.812314	-7.954738	-0.383826
C	-1.006762	-6.079985	0.121989
C	-1.564994	-4.798382	0.247488
C	1.284087	-5.153542	-0.258303
C	0.726260	-3.869626	-0.128493
C	-0.681918	-3.688927	0.116725
O	2.580622	-5.481075	-0.517104
O	-2.867144	-4.479871	0.508622
C	-3.900814	-5.356026	0.075811
H	-4.847002	-4.790496	0.173640
H	-3.971794	-6.268513	0.707354
H	-3.763397	-5.658187	-0.984963
C	3.621225	-4.546999	-0.257016
H	4.569828	-5.107564	-0.357864
H	3.551910	-4.131473	0.771211
H	3.626592	-3.712085	-0.990913
C	-1.058088	-2.314326	0.187034
S	1.523035	-2.295487	-0.281899
C	0.000000	-1.435180	0.000000
H	-2.090565	-1.993211	0.373653
C	0.000000	0.000000	0.000000
S	0.002233	0.899428	1.510732
C	0.001157	2.474749	0.727629
C	-0.000030	0.908223	-1.064665
C	-0.001545	2.297013	-0.678287
C	0.001624	0.841837	-2.486150
C	0.001494	2.106670	-3.106916
S	-0.001841	3.354171	-1.965735
C	0.006168	2.361146	-4.559972
O	0.009152	1.427646	-5.350277
O	0.009405	3.644337	-5.004375
F	0.005539	-0.272288	-3.246290
C	0.019554	4.003038	-6.334976
H	0.020155	5.108000	-6.370268
H	-0.871409	3.613681	-6.875609
H	0.918470	3.613062	-6.861878
H	0.001222	3.394771	1.321510
H	-0.105910	-9.146471	0.883319
H	-0.431555	-9.150570	-0.883019
H	0.195861	-1.444158	1.062054
$end

$rem
JOBTYPE		SP
EXCHANGE	HF
CORRELATION	pRIMP2
BASIS		cc-pvtz
METHOD		rimp2
AUX_BASIS	rimp2-cc-pvtz
SOLVENT_METHOD	PCM
PURECART	11111
SYMMETRY	false
MEM_TOTAL	110000
SCF_CONVERGENCE = 6
THRESH=10
GUI = 2
$end



$solvent
dielectric 4.90
$end
--------------------------------------------------------------
 ----------------------------------------------------------------
             Standard Nuclear Orientation (Angstroms)
    I     Atom           X                Y                Z
 ----------------------------------------------------------------
    1      C      -0.2721040000    -8.5197410000    -0.0006870000
    2      C       0.7795330000    -7.6359670000    -0.1944760000
    3      S      -1.7995960000    -7.6517400000     0.2875810000
    4      C       0.3994270000    -6.2618940000    -0.1257870000
    5      H       1.8123140000    -7.9547380000    -0.3838260000
    6      C      -1.0067620000    -6.0799850000     0.1219890000
    7      C      -1.5649940000    -4.7983820000     0.2474880000
    8      C       1.2840870000    -5.1535420000    -0.2583030000
    9      C       0.7262600000    -3.8696260000    -0.1284930000
   10      C      -0.6819180000    -3.6889270000     0.1167250000
   11      O       2.5806220000    -5.4810750000    -0.5171040000
   12      O      -2.8671440000    -4.4798710000     0.5086220000
   13      C      -3.9008140000    -5.3560260000     0.0758110000
   14      H      -4.8470020000    -4.7904960000     0.1736400000
   15      H      -3.9717940000    -6.2685130000     0.7073540000
   16      H      -3.7633970000    -5.6581870000    -0.9849630000
   17      C       3.6212250000    -4.5469990000    -0.2570160000
   18      H       4.5698280000    -5.1075640000    -0.3578640000
   19      H       3.5519100000    -4.1314730000     0.7712110000
   20      H       3.6265920000    -3.7120850000    -0.9909130000
   21      C      -1.0580880000    -2.3143260000     0.1870340000
   22      S       1.5230350000    -2.2954870000    -0.2818990000
   23      C       0.0000000000    -1.4351800000     0.0000000000
   24      H      -2.0905650000    -1.9932110000     0.3736530000
   25      C       0.0000000000     0.0000000000     0.0000000000
   26      S       0.0022330000     0.8994280000     1.5107320000
   27      C       0.0011570000     2.4747490000     0.7276290000
   28      C      -0.0000300000     0.9082230000    -1.0646650000
   29      C      -0.0015450000     2.2970130000    -0.6782870000
   30      C       0.0016240000     0.8418370000    -2.4861500000
   31      C       0.0014940000     2.1066700000    -3.1069160000
   32      S      -0.0018410000     3.3541710000    -1.9657350000
   33      C       0.0061680000     2.3611460000    -4.5599720000
   34      O       0.0091520000     1.4276460000    -5.3502770000
   35      O       0.0094050000     3.6443370000    -5.0043750000
   36      F       0.0055390000    -0.2722880000    -3.2462900000
   37      C       0.0195540000     4.0030380000    -6.3349760000
   38      H       0.0201550000     5.1080000000    -6.3702680000
   39      H      -0.8714090000     3.6136810000    -6.8756090000
   40      H       0.9184700000     3.6130620000    -6.8618780000
   41      H       0.0012220000     3.3947710000     1.3215100000
   42      H      -0.1059100000    -9.1464710000     0.8833190000
   43      H      -0.4315550000    -9.1505700000    -0.8830190000
   44      H       0.1958610000    -1.4441580000     1.0620540000
 ----------------------------------------------------------------
 Nuclear Repulsion Energy =        3356.08982678 hartrees
 There are      120 alpha and      120 beta electrons
 Requested basis set is cc-pVTZ
 There are 388 shells and 1096 basis functions

 Total QAlloc Memory Limit 110000 MB
 Mega-Array Size       188 MB
 MEM_STATIC part       192 MB
 Discretize the solute cavity surface with Lebedev spheres
	Using 110 Lebedev grid points for each H atom
	Using 194 Lebedev grid points for other atoms
	Atomic van der Waals radii will be scaled by 1.20
 Remove points where switching function is < 1.0e-08
 Keep 2989 surface tesserae and discard 4287 interior tesserae
 Molecular Surface Area = 445.778 Angst**2
 Requested basis set is rimp2-cc-pVTZ
 There are 853 shells and 2963 basis functions
 A cutoff of  1.0D-10 yielded  33169 shell pairs
 There are    250213 function pairs (    323737 Cartesian)
 Smallest overlap matrix eigenvalue = 2.21E-05

 Scale SEOQF with 1.000000e-01/1.000000e-02/1.000000e-02

 Standard Electronic Orientation quadrupole field applied
 Nucleus-field energy     =     0.0000000377 hartrees
 Guess from superposition of atomic densities
 Warning:  Energy on first SCF cycle will be non-variational
 SAD guess density has 240.000000 electrons

 -----------------------------------------------------------------------
  General SCF calculation program by
  Eric Jon Sundstrom, Paul Horn, Yuezhi Mao, Dmitri Zuev, Alec White,
  David Stuck, Shaama M.S., Shane Yost, Joonho Lee, David Small,
  Daniel Levine, Susi Lehtola, Hugh Burton, Evgeny Epifanovsky,
  Bang C. Huynh
 -----------------------------------------------------------------------
 Hartree-Fock
 using 64 threads for integral computing
 -------------------------------------------------------
 OpenMP Integral computing Module                
 Release: version 1.0, May 2013, Q-Chem Inc. Pittsburgh 
 -------------------------------------------------------
 A restricted SCF calculation will be
 performed using DIIS
 SCF converges when DIIS error is below 1.0e-06
 ---------------------------------------
  Cycle       Energy         DIIS error
 ---------------------------------------
    1   -2767.3400022052      1.77e-02  
    2   -2754.8726175323      1.54e-03  
    3   -2755.2223034239      8.73e-04  
    4   -2755.3112928783      2.55e-04  
    5   -2755.3247094878      7.23e-05  
    6   -2755.3261747381      2.56e-05  
    7   -2755.3265546328      1.34e-05  
    8   -2755.3266789108      5.79e-06  
    9   -2755.3267105469      3.09e-06  
   10   -2755.3267185749      1.48e-06  
   11   -2755.3267209683      7.59e-07  Convergence criterion met
 ---------------------------------------
 SCF time:   CPU 7662.08s  wall 281.00s 

************** Final PCM Free Energy Summary **************
 G_electrostatic  =      -0.02278324 hartree =     -14.29669762 kcal/mol
 G_cavitation     =       0.00000000 hartree =       0.00000000 kcal/mol
 G_dispersion     =       0.00000000 hartree =       0.00000000 kcal/mol
 G_repulsion      =       0.00000000 hartree =       0.00000000 kcal/mol
 --------------------------------------------------
 Non-electrostatic Free Energy =       0.00000000 hartree =       0.00000000 kcal/mol
 Total                         =      -0.02278324 hartree =     -14.29669762 kcal/mol
 --------------------------------------------------
 SCF Energy (H0 + V/2)                       =   -2755.32672097 
 Solute Internal Energy (H0)                 =   -2755.30393773 
 Total Free Energy (H0 + V/2 + non-elec)     =   -2755.32672097 hartree
                                             = -1728993.61310701 kcal/mol
***********************************************************

 SCF   energy in the final basis set =    -2755.3267209683
 Total energy in the final basis set =    -2755.3267209683


 --------------------------------------------------------------
  Generalized many-body perturbation theory program
  by Joonho Lee, Fazle Rob, Xintian Feng, Evgeny Epifanovsky

 No regularization used 
 (reg. param. = 0.0000e+00)
  (P|Q)^-1/2 Time:  CPU 122.38 s  wall 2.26 s

 In RI-MP2 calculation: 
 # of frozen core orbitals: 45

 Components of the RIMP2 correlation energy:
        aaaa    correlation energy =        -0.6695967193 a.u.
        abab    correlation energy =        -3.7506517943 a.u.
        bbbb    correlation energy =        -0.6695967193 a.u.
        non-Brillouin singles      =        -0.0000000000 a.u.
        total same-spin energy     =        -1.3391934386 a.u.
        total opposite-spin energy =        -3.7506517943 a.u.

 Total  RIMP2   correlation energy =        -5.0898452329 a.u.
        RIMP2         total energy =     -2760.4165662012 a.u.

 RI-MP2 Energy Time:  CPU 2928.17 s  wall 47.41 s
 
 --------------------------------------------------------------
 
                    Orbital Energies (a.u.)
 --------------------------------------------------------------
 
 Alpha MOs
 -- Occupied --
-92.0197 -91.9955 -91.9774 -91.9579 -26.3351 -20.6127 -20.5871 -20.5865
-20.5510 -11.4111 -11.3777 -11.3122 -11.3089 -11.3069 -11.2989 -11.2978
-11.2962 -11.2888 -11.2841 -11.2827 -11.2826 -11.2811 -11.2811 -11.2727
-11.2726 -11.2579 -11.2576 -11.2493 -11.2365  -9.0180  -8.9996  -8.9796
 -8.9605  -6.6987  -6.6981  -6.6976  -6.6809  -6.6802  -6.6789  -6.6607
 -6.6598  -6.6585  -6.6418  -6.6408  -6.6398  -1.6479  -1.4725  -1.4100
 -1.4087  -1.3678  -1.2378  -1.2089  -1.1751  -1.1440  -1.0991  -1.0501
 -1.0455  -1.0313  -1.0083  -0.9974  -0.9726  -0.9594  -0.9484  -0.9405
 -0.8930  -0.8714  -0.8647  -0.8090  -0.7929  -0.7849  -0.7772  -0.7743
 -0.7654  -0.7331  -0.7213  -0.7161  -0.6970  -0.6923  -0.6816  -0.6790
 -0.6724  -0.6642  -0.6561  -0.6483  -0.6334  -0.6292  -0.6197  -0.6146
 -0.6106  -0.6071  -0.5957  -0.5926  -0.5827  -0.5646  -0.5600  -0.5553
 -0.5504  -0.5342  -0.5278  -0.5218  -0.5127  -0.5073  -0.5035  -0.5016
 -0.4875  -0.4862  -0.4776  -0.4693  -0.4620  -0.4618  -0.4610  -0.4462
 -0.4232  -0.4028  -0.3853  -0.3700  -0.3512  -0.2922  -0.2892  -0.2209
 -- Virtual --
  0.0280   0.0531   0.1135   0.1203   0.1394   0.1482   0.1538   0.1550
  0.1586   0.1597   0.1669   0.1782   0.1821   0.1859   0.1889   0.1921
  0.2010   0.2036   0.2058   0.2096   0.2186   0.2210   0.2240   0.2268
  0.2296   0.2349   0.2392   0.2478   0.2528   0.2583   0.2652   0.2713
  0.2779   0.2837   0.3091   0.3185   0.3273   0.3305   0.3359   0.3444
  0.3482   0.3581   0.3611   0.3645   0.3689   0.3733   0.3800   0.3807
  0.3851   0.3881   0.3958   0.3999   0.4019   0.4078   0.4126   0.4185
  0.4206   0.4272   0.4294   0.4334   0.4364   0.4420   0.4458   0.4486
  0.4543   0.4614   0.4681   0.4690   0.4746   0.4769   0.4779   0.4823
  0.4859   0.4961   0.4986   0.5022   0.5053   0.5143   0.5173   0.5200
  0.5224   0.5275   0.5332   0.5391   0.5428   0.5468   0.5485   0.5540
  0.5560   0.5566   0.5601   0.5629   0.5668   0.5715   0.5771   0.5781
  0.5838   0.5872   0.5896   0.5922   0.5979   0.5991   0.6020   0.6086
  0.6131   0.6166   0.6169   0.6214   0.6227   0.6239   0.6279   0.6358
  0.6364   0.6394   0.6424   0.6447   0.6481   0.6507   0.6555   0.6600
  0.6625   0.6646   0.6759   0.6790   0.6814   0.6847   0.6906   0.6938
  0.7013   0.7047   0.7104   0.7141   0.7174   0.7189   0.7273   0.7427
  0.7462   0.7508   0.7585   0.7623   0.7689   0.7728   0.7785   0.7847
  0.7934   0.7964   0.7993   0.8029   0.8078   0.8151   0.8224   0.8238
  0.8247   0.8300   0.8355   0.8517   0.8573   0.8700   0.8770   0.8832
  0.8895   0.8914   0.8967   0.9006   0.9067   0.9079   0.9106   0.9188
  0.9197   0.9238   0.9315   0.9341   0.9398   0.9501   0.9531   0.9575
  0.9612   0.9647   0.9720   0.9752   0.9786   0.9837   0.9887   0.9897
  0.9953   0.9990   1.0034   1.0093   1.0126   1.0163   1.0234   1.0256
  1.0366   1.0397   1.0443   1.0486   1.0509   1.0553   1.0608   1.0687
  1.0739   1.0784   1.0804   1.0889   1.0930   1.0965   1.1001   1.1037
  1.1109   1.1162   1.1236   1.1295   1.1351   1.1357   1.1432   1.1525
  1.1556   1.1590   1.1638   1.1670   1.1704   1.1728   1.1781   1.1811
  1.1830   1.1918   1.1935   1.1976   1.2011   1.2068   1.2101   1.2170
  1.2254   1.2277   1.2394   1.2414   1.2433   1.2477   1.2517   1.2581
  1.2650   1.2677   1.2772   1.2824   1.2858   1.2906   1.2917   1.2958
  1.3059   1.3093   1.3178   1.3196   1.3289   1.3323   1.3377   1.3423
  1.3441   1.3537   1.3655   1.3677   1.3798   1.3850   1.3929   1.3974
  1.4065   1.4083   1.4162   1.4204   1.4255   1.4362   1.4402   1.4511
  1.4635   1.4680   1.4759   1.4779   1.4878   1.4920   1.4944   1.4988
  1.5034   1.5088   1.5123   1.5136   1.5205   1.5334   1.5375   1.5375
  1.5431   1.5468   1.5509   1.5519   1.5585   1.5638   1.5720   1.5785
  1.5844   1.5997   1.6058   1.6097   1.6198   1.6244   1.6255   1.6419
  1.6521   1.6562   1.6597   1.6669   1.6723   1.6785   1.6813   1.6849
  1.6927   1.6992   1.7024   1.7173   1.7214   1.7292   1.7330   1.7470
  1.7536   1.7609   1.7759   1.7787   1.7879   1.7970   1.8092   1.8141
  1.8215   1.8305   1.8350   1.8448   1.8545   1.8596   1.8619   1.8761
  1.8816   1.8842   1.8906   1.9000   1.9167   1.9206   1.9265   1.9318
  1.9370   1.9407   1.9513   1.9620   1.9750   1.9895   1.9922   2.0142
  2.0158   2.0219   2.0257   2.0311   2.0355   2.0423   2.0503   2.0554
  2.0628   2.0734   2.0861   2.0953   2.1035   2.1158   2.1232   2.1390
  2.1439   2.1463   2.1497   2.1565   2.1705   2.1810   2.1835   2.1932
  2.1937   2.2061   2.2136   2.2158   2.2217   2.2308   2.2336   2.2479
  2.2506   2.2530   2.2653   2.2707   2.2797   2.2903   2.2943   2.3052
  2.3119   2.3215   2.3258   2.3438   2.3488   2.3505   2.3601   2.3682
  2.3757   2.3873   2.3942   2.4014   2.4067   2.4165   2.4199   2.4299
  2.4343   2.4556   2.4571   2.4724   2.4783   2.4812   2.4858   2.5010
  2.5133   2.5190   2.5290   2.5328   2.5422   2.5598   2.5656   2.5734
  2.5817   2.5861   2.5946   2.6037   2.6112   2.6161   2.6231   2.6266
  2.6358   2.6401   2.6429   2.6498   2.6570   2.6583   2.6717   2.6758
  2.6824   2.6862   2.6902   2.6927   2.6986   2.7074   2.7147   2.7208
  2.7252   2.7321   2.7377   2.7401   2.7448   2.7586   2.7619   2.7669
  2.7738   2.7793   2.7895   2.8062   2.8087   2.8137   2.8210   2.8261
  2.8364   2.8479   2.8502   2.8576   2.8633   2.8716   2.8746   2.8787
  2.8861   2.8891   2.9034   2.9060   2.9170   2.9279   2.9404   2.9508
  2.9578   2.9594   2.9646   2.9705   2.9810   2.9831   2.9865   2.9990
  3.0082   3.0163   3.0261   3.0354   3.0396   3.0401   3.0444   3.0464
  3.0511   3.0651   3.0760   3.0858   3.0903   3.0915   3.1023   3.1048
  3.1083   3.1159   3.1221   3.1274   3.1304   3.1357   3.1416   3.1486
  3.1535   3.1559   3.1599   3.1650   3.1676   3.1780   3.1786   3.1797
  3.1869   3.1961   3.2013   3.2071   3.2115   3.2136   3.2174   3.2237
  3.2264   3.2342   3.2452   3.2498   3.2544   3.2576   3.2609   3.2669
  3.2738   3.2773   3.2793   3.2837   3.2859   3.2890   3.2938   3.2983
  3.3059   3.3116   3.3171   3.3211   3.3296   3.3310   3.3363   3.3432
  3.3457   3.3502   3.3529   3.3552   3.3617   3.3648   3.3664   3.3685
  3.3688   3.3801   3.3880   3.3928   3.3974   3.4018   3.4039   3.4080
  3.4100   3.4168   3.4233   3.4285   3.4307   3.4340   3.4411   3.4455
  3.4497   3.4559   3.4599   3.4640   3.4688   3.4719   3.4808   3.4896
  3.4921   3.4955   3.5072   3.5125   3.5163   3.5205   3.5252   3.5313
  3.5463   3.5501   3.5561   3.5578   3.5669   3.5703   3.5757   3.5788
  3.5819   3.5874   3.5964   3.5991   3.6015   3.6084   3.6102   3.6187
  3.6247   3.6331   3.6350   3.6391   3.6477   3.6501   3.6517   3.6570
  3.6604   3.6698   3.6754   3.6782   3.6805   3.6821   3.6898   3.7012
  3.7023   3.7047   3.7092   3.7141   3.7154   3.7218   3.7252   3.7307
  3.7358   3.7365   3.7427   3.7494   3.7547   3.7607   3.7656   3.7740
  3.7827   3.7863   3.7902   3.7969   3.8018   3.8068   3.8132   3.8214
  3.8245   3.8303   3.8395   3.8442   3.8470   3.8486   3.8510   3.8569
  3.8702   3.8714   3.8760   3.8839   3.8881   3.8989   3.9063   3.9163
  3.9179   3.9252   3.9364   3.9431   3.9456   3.9555   3.9570   3.9614
  3.9659   3.9688   3.9785   3.9890   3.9965   4.0068   4.0159   4.0181
  4.0208   4.0311   4.0402   4.0458   4.0506   4.0624   4.0660   4.0711
  4.0745   4.0823   4.0896   4.0989   4.1017   4.1074   4.1132   4.1209
  4.1351   4.1412   4.1537   4.1580   4.1706   4.1719   4.1733   4.1773
  4.1804   4.1884   4.2002   4.2068   4.2107   4.2179   4.2256   4.2360
  4.2477   4.2529   4.2693   4.2761   4.2835   4.2925   4.3016   4.3127
  4.3228   4.3282   4.3321   4.3353   4.3464   4.3482   4.3521   4.3650
  4.3688   4.3765   4.3885   4.3913   4.3946   4.4033   4.4120   4.4159
  4.4227   4.4261   4.4278   4.4341   4.4354   4.4369   4.4527   4.4583
  4.4709   4.4855   4.4895   4.4924   4.4974   4.5109   4.5215   4.5244
  4.5365   4.5494   4.5545   4.5635   4.5673   4.5697   4.5790   4.5930
  4.6018   4.6055   4.6204   4.6237   4.6322   4.6387   4.6406   4.6473
  4.6598   4.6642   4.6690   4.6821   4.7005   4.7033   4.7092   4.7253
  4.7316   4.7393   4.7491   4.7622   4.7752   4.7790   4.8006   4.8100
  4.8225   4.8270   4.8280   4.8592   4.8645   4.8771   4.8915   4.8940
  4.9171   4.9211   4.9453   4.9485   4.9543   4.9645   4.9674   4.9761
  4.9984   5.0035   5.0117   5.0139   5.0231   5.0417   5.0543   5.0586
  5.0593   5.0928   5.1028   5.1231   5.1478   5.1575   5.1678   5.1787
  5.1891   5.1959   5.2015   5.2057   5.2112   5.2151   5.2324   5.2538
  5.2586   5.2635   5.2809   5.2938   5.2962   5.3125   5.3183   5.3282
  5.3365   5.3515   5.3548   5.3583   5.3675   5.3833   5.3902   5.4018
  5.4031   5.4110   5.4357   5.4454   5.4650   5.4728   5.4828   5.4990
  5.5097   5.5222   5.5229   5.5442   5.5672   5.5682   5.5752   5.5921
  5.5956   5.6111   5.6169   5.6324   5.6405   5.6796   5.6857   5.6920
  5.7304   5.7374   5.7665   5.7903   5.8003   5.8208   5.8389   5.8591
  5.8667   5.8846   5.9061   5.9246   5.9672   5.9691   5.9846   6.0031
  6.0427   6.0706   6.1214   6.1258   6.1333   6.1514   6.1711   6.1778
  6.1855   6.1917   6.2220   6.2466   6.2636   6.2768   6.2861   6.3031
  6.3081   6.3434   6.3611   6.4297   6.4706   6.4900   6.5383   6.5476
  6.5558   6.5678   6.6440   6.6761   6.7005   6.7172   6.7398   6.7482
  6.8073   6.8562   6.8597   6.8825   6.8997   6.9915   7.1313   7.1463
  7.1778   7.2118   7.2224   7.2395   7.3258   7.3269   7.3421   7.3725
  7.3762   7.4282   7.4620   7.4858   7.4867   7.4968   7.5210   7.5497
  7.6168   7.7392   7.7703   7.8032   7.8314   7.9127   7.9273   7.9568
  8.0038   8.1322   8.3374   8.6945   8.9275   9.0143   9.3627   9.5046
  9.6981  10.3036  11.2382  11.4277  11.8942  11.9572  12.1210  12.3193
 12.4013  12.4951  12.7265  12.9294  12.9987  13.1682  13.4812  13.5850
 13.8181  13.8932  13.9471  13.9883  14.2172  14.3294  14.9592  15.2025
 --------------------------------------------------------------
 
          Ground-State Mulliken Net Atomic Charges

     Atom                 Charge (a.u.)
  ----------------------------------------
      1 C                    -0.070203
      2 C                    -0.259835
      3 S                    -0.135874
      4 C                    -0.044100
      5 H                     0.193392
      6 C                    -0.052370
      7 C                     0.227962
      8 C                     0.226298
      9 C                    -0.080020
     10 C                    -0.059689
     11 O                    -0.334947
     12 O                    -0.343586
     13 C                    -0.082508
     14 H                     0.119826
     15 H                     0.091763
     16 H                     0.093334
     17 C                    -0.086275
     18 H                     0.122972
     19 H                     0.091624
     20 H                     0.091008
     21 C                    -0.245280
     22 S                    -0.071233
     23 C                     0.071867
     24 H                     0.204160
     25 C                    -0.093766
     26 S                     0.103056
     27 C                    -0.239801
     28 C                    -0.080722
     29 C                    -0.004030
     30 C                     0.399286
     31 C                    -0.157055
     32 S                     0.038778
     33 C                     0.460448
     34 O                    -0.448688
     35 O                    -0.297639
     36 F                    -0.212065
     37 C                    -0.055083
     38 H                     0.116657
     39 H                     0.084774
     40 H                     0.084739
     41 H                     0.216780
     42 H                     0.117125
     43 H                     0.115119
     44 H                     0.183801
  ----------------------------------------
  Sum of atomic charges =     0.000000

 -----------------------------------------------------------------
                    Cartesian Multipole Moments
 -----------------------------------------------------------------
    Charge (ESU x 10^10)
                -0.0000
    Dipole Moment (Debye)
         X       0.2271      Y       3.8003      Z       3.7194
       Tot       5.3224
    Quadrupole Moments (Debye-Ang)
        XX    -183.4802     XY      -3.6433     YY    -174.5618
        XZ       2.7584     YZ     -10.0672     ZZ    -205.5094
    Octopole Moments (Debye-Ang^2)
       XXX      42.0936    XXY     306.2019    XYY      44.6727
       YYY    1016.5220    XXZ     174.0929    XYZ     -15.3204
       YYZ     115.1027    XZZ      16.6177    YZZ     507.9336
       ZZZ     555.1254
    Hexadecapole Moments (Debye-Ang^3)
      XXXX   -2301.1589   XXXY    -508.9595   XXYY   -3923.8009
      XYYY    -787.7107   YYYY  -19892.0115   XXXZ     133.3763
      XXYZ     508.5557   XYYZ     122.4000   YYYZ    1329.4388
      XXZZ   -1419.4796   XYZZ    -183.4488   YYZZ   -4239.5187
      XZZZ     145.0799   YZZZ     731.4748   ZZZZ   -5573.5409
 -----------------------------------------------------------------
 Total job time:  338.81s(wall), 11114.79s(cpu) 
 Sun Sep 24 17:12:42 2023

        *************************************************************
        *                                                           *
        *  Thank you very much for using Q-Chem.  Have a nice day.  *
        *                                                           *
        *************************************************************


0 sent ACK to 0 
now end server 0 ... 
cleanup process ... done
remove work dirs ./qchem948949.0 -- ./qchem948949.0
rm -rf ./qchem948949.0
rm -rf ./qchem948949
