You are running Q-Chem version: 5.4.0

#
# job setting
#
local host:  exp-5-42
current dir: /expanse/lustre/projects/csd626/rramji/aromodel/PTB7_fin/Hydrogenated_Rotation_Test
input file:  fin_bdt_Phi_0_Theta_220_fin_ftt_Hydrogenated.qcin
output file: 
nprocs     : 1
nthreads   : 64
#
# qchem installation setting
#
QC:          /cm/shared/apps/spack/cpu/opt/spack/linux-centos8-zen2/gcc-10.2.0/qchem-5.4-akfmr7b3t57bfs6qan3padb2wnb2i7cl
QCAUX:       /cm/shared/apps/spack/cpu/opt/spack/linux-centos8-zen2/gcc-10.2.0/qchem-5.4-akfmr7b3t57bfs6qan3padb2wnb2i7cl/qcaux
QCPROG:      /cm/shared/apps/spack/cpu/opt/spack/linux-centos8-zen2/gcc-10.2.0/qchem-5.4-akfmr7b3t57bfs6qan3padb2wnb2i7cl/exe/qcprog.exe
QCPROG_S:    /cm/shared/apps/spack/cpu/opt/spack/linux-centos8-zen2/gcc-10.2.0/qchem-5.4-akfmr7b3t57bfs6qan3padb2wnb2i7cl/exe/qcprog.exe_s
PARALLEL:    -DPARALLEL
QCMPI:       mpich
#
# qchem directory setting
#
qcrun:       qchem962712
QCSCRATCH:   .
QCLOCALSCR:  
QCTMPDIR:    .
QCFILEPREF:  ./qchem962712
QCSAVEDIR:   
workdirs:    ./qchem962712
workdir0:    ./qchem962712
partmpdirs =  
#
# parallel setting
#
QCRSH:           ssh
QCMPI:           mpich
QCMPIRUN:        /cm/shared/apps/spack/cpu/opt/spack/linux-centos8-zen2/gcc-10.2.0/qchem-5.4-akfmr7b3t57bfs6qan3padb2wnb2i7cl/bin/mpi/mpirun_qchem
QCMACHINEFILE:   ./qchem962712/hostfile
exp-5-42

#
# env setting
#
exported envs:   QC QCAUX QCSCRATCH QCRUNNAME QCFILEPREF QCPROG QCPROG_S GUIFILE

Running Job 1 of 1 fin_bdt_Phi_0_Theta_220_fin_ftt_Hydrogenated.qcin
qchem fin_bdt_Phi_0_Theta_220_fin_ftt_Hydrogenated.qcin_962712.0 ./qchem962712/ 1
/cm/shared/apps/spack/cpu/opt/spack/linux-centos8-zen2/gcc-10.2.0/qchem-5.4-akfmr7b3t57bfs6qan3padb2wnb2i7cl/bin/mpi/mpirun_qchem -machinefile ./qchem962712/hostfile -np 1 /cm/shared/apps/spack/cpu/opt/spack/linux-centos8-zen2/gcc-10.2.0/qchem-5.4-akfmr7b3t57bfs6qan3padb2wnb2i7cl/exe/qcprog.exe fin_bdt_Phi_0_Theta_220_fin_ftt_Hydrogenated.qcin_962712.0 ./qchem962712/

Process 0 of 1 is on exp-5-42 - thread support 0
initial socket setup ...start
initial socket setup ...done 
now start server 0 ... 
                  Welcome to Q-Chem
     A Quantum Leap Into The Future Of Chemistry


 Q-Chem 5.4, Q-Chem, Inc., Pleasanton, CA (2021)

 License issued to: University of California, San Diego (site)

 E. Epifanovsky,  A. T. B. Gilbert,  Xintian Feng,  Joonho Lee,  Yuezhi Mao,  
 N. Mardirossian,  P. Pokhilko,  A. White,  M. Wormit,  M. P. Coons,  
 A. L. Dempwolff,  Zhengting Gan,  D. Hait,  P. R. Horn,  L. D. Jacobson,  
 I. Kaliman,  J. Kussmann,  A. W. Lange,  Ka Un Lao,  D. S. Levine,  Jie Liu,  
 S. C. McKenzie,  A. F. Morrison,  K. Nanda,  F. Plasser,  D. R. Rehn,  
 M. L. Vidal,  Zhi-Qiang You,  Ying Zhu,  B. Alam,  B. Albrecht,  
 A. Aldossary,  E. Alguire,  J. H. Andersen,  D. Barton,  K. Begam,  A. Behn,  
 Y. A. Bernard,  E. J. Berquist,  H. Burton,  A. Carreras,  K. Carter-Fenk,  
 R. Chakraborty,  A. D. Chien,  K. D. Closser,  V. Cofer-Shabica,  
 S. Dasgupta,  Jia Deng,  M. de Wergifosse,  M. Diedenhofen,  Hainam Do,  
 S. Ehlert,  Po-Tung Fang,  S. Fatehi,  Qingguo Feng,  J. Gayvert,  
 Qinghui Ge,  G. Gidofalvi,  M. Goldey,  J. Gomes,  C. Gonzalez-Espinoza,  
 S. Gulania,  A. Gunina,  M. W. D. Hanson-Heine,  P. H. P. Harbach,  
 A. W. Hauser,  M. F. Herbst,  M. Hernandez Vera,  M. Hodecker,  
 Z. C. Holden,  S. Houck,  Xunkun Huang,  Kerwin Hui,  B. C. Huynh,  
 M. Ivanov,  Hyunjun Ji,  Hanjie Jiang,  B. Kaduk,  S. Kaehler,  
 K. Khistyaev,  Jaehoon Kim,  P. Klunzinger,  Z. Koczor-Benda,  
 Joong Hoon Koh,  D. Kosenkov,  L. Koulias,  T. Kowalczyk,  C. M. Krauter,  
 K. Kue,  A. Kunitsa,  T. Kus,  A. Landau,  K. V. Lawler,  D. Lefrancois,  
 S. Lehtola,  Rain Li,  Yi-Pei Li,  Jiashu Liang,  M. Liebenthal,  
 Hung-Hsuan Lin,  You-Sheng Lin,  Fenglai Liu,  Kuan-Yu Liu,  
 M. Loipersberger,  A. Luenser,  A. Manjanath,  P. Manohar,  E. Mansoor,  
 S. F. Manzer,  Shan-Ping Mao,  A. V. Marenich,  T. Markovich,  S. Mason,  
 S. A. Maurer,  P. F. McLaughlin,  M. F. S. J. Menger,  J.-M. Mewes,  
 S. A. Mewes,  P. Morgante,  J. W. Mullinax,  T. S. Nguyen-Beck,  
 K. J. Oosterbaan,  G. Paran,  Alexander C. Paul,  Suranjan K. Paul,  
 F. Pavosevic,  Zheng Pei,  S. Prager,  E. I. Proynov,  E. Ramos,  B. Rana,  
 A. E. Rask,  A. Rettig,  R. M. Richard,  F. Rob,  E. Rossomme,  T. Scheele,  
 M. Scheurer,  M. Schneider,  N. Sergueev,  S. M. Sharada,  W. Skomorowski,  
 D. W. Small,  C. J. Stein,  Yu-Chuan Su,  E. J. Sundstrom,  Zhen Tao,  
 J. Thirman,  T. Tsuchimochi,  N. M. Tubman,  S. P. Veccham,  O. Vydrov,  
 J. Wenzel,  J. Witte,  A. Yamada,  Kun Yao,  S. Yeganeh,  S. R. Yost,  
 A. Zech,  Igor Ying Zhang,  Xing Zhang,  Yu Zhang,  D. Zuev,  
 A. Aspuru-Guzik,  A. T. Bell,  N. A. Besley,  K. B. Bravaya,  B. R. Brooks,  
 D. Casanova,  Jeng-Da Chai,  S. Coriani,  C. J. Cramer,  
 A. E. DePrince, III,  R. A. DiStasio Jr.,  A. Dreuw,  B. D. Dunietz,  
 T. R. Furlani,  W. A. Goddard III,  S. Grimme,  S. Hammes-Schiffer,  
 T. Head-Gordon,  W. J. Hehre,  Chao-Ping Hsu,  T.-C. Jagau,  Yousung Jung,  
 A. Klamt,  Jing Kong,  D. S. Lambrecht,  WanZhen Liang,  N. J. Mayhall,  
 C. W. McCurdy,  J. B. Neaton,  C. Ochsenfeld,  J. A. Parkhill,  R. Peverati,  
 V. A. Rassolov,  Yihan Shao,  L. V. Slipchenko,  T. Stauch,  R. P. Steele,  
 J. E. Subotnik,  A. J. W. Thom,  A. Tkatchenko,  D. G. Truhlar,  
 T. Van Voorhis,  T. A. Wesolowski,  K. B. Whaley,  H. L. Woodcock III,  
 P. M. Zimmerman,  S. Faraji,  P. M. W. Gill,  M. Head-Gordon,  
 J. M. Herbert,  A. I. Krylov

 Contributors to earlier versions of Q-Chem not listed above: 
 R. D. Adamson,  B. Austin,  R. Baer,  J. Baker,  G. J. O. Beran,  
 K. Brandhorst,  S. T. Brown,  E. F. C. Byrd,  A. K. Chakraborty,  
 G. K. L. Chan,  Chun-Min Chang,  Yunqing Chen,  C.-L. Cheng,  
 Siu Hung Chien,  D. M. Chipman,  D. L. Crittenden,  H. Dachsel,  
 R. J. Doerksen,  A. D. Dutoi,  R. G. Edgar,  J. Fosso-Tande,  
 L. Fusti-Molnar,  D. Ghosh,  A. Ghysels,  A. Golubeva-Zadorozhnaya,  
 J. Gonthier,  M. S. Gordon,  S. R. Gwaltney,  G. Hawkins,  J. E. Herr,  
 A. Heyden,  S. Hirata,  E. G. Hohenstein,  G. Kedziora,  F. J. Keil,  
 C. Kelley,  Jihan Kim,  R. A. King,  R. Z. Khaliullin,  P. P. Korambath,  
 W. Kurlancheek,  A. Laurent,  A. M. Lee,  M. S. Lee,  S. V. Levchenko,  
 Ching Yeh Lin,  D. Liotard,  E. Livshits,  R. C. Lochan,  I. Lotan,  
 L. A. Martinez-Martinez,  P. E. Maslen,  N. Nair,  D. P. O'Neill,  
 D. Neuhauser,  E. Neuscamman,  C. M. Oana,  R. Olivares-Amaya,  R. Olson,  
 T. M. Perrine,  B. Peters,  P. A. Pieniazek,  A. Prociuk,  Y. M. Rhee,  
 J. Ritchie,  M. A. Rohrdanz,  E. Rosta,  N. J. Russ,  H. F. Schaefer III,  
 M. W. Schmidt,  N. E. Schultz,  S. Sharma,  N. Shenvi,  C. D. Sherrill,  
 A. C. Simmonett,  A. Sodt,  T. Stein,  D. Stuck,  K. S. Thanthiriwatte,  
 V. Vanovschi,  L. Vogt,  Tao Wang,  A. Warshel,  M. A. Watson,  
 C. F. Williams,  Q. Wu,  X. Xu,  Jun Yang,  W. Zhang,  Yan Zhao

 Please cite Q-Chem as follows:
 Y. Shao et al., Mol. Phys. 113, 184-215 (2015)
 DOI: 10.1080/00268976.2014.952696

 Q-Chem 5.4.0 for Intel X86 EM64T Linux

 Parts of Q-Chem use Armadillo 9.800.1 (Horizon Scraper).
 http://arma.sourceforge.net/

 Q-Chem begins on Sun Sep 24 18:26:39 2023  

 Host: 
0

     Scratch files written to ./qchem962712//
 May1621 |scratch|qcdevops|jenkins|workspace|build_RNUM    
 Parallel job on  1  processors
 Processing $rem in /cm/shared/apps/spack/cpu/opt/spack/linux-centos8-zen2/gcc-10.2.0/qchem-5.4-akfmr7b3t57bfs6qan3padb2wnb2i7cl/config/preferences:
 Processing $rem in /home/rramji/.qchemrc:
 Symmetry turned off for PCM/SM12/SMD calculation
 Core orbitals will be frozen

 Checking the input file for inconsistencies... 	...done.

 Q-Chem warning in module forms1/BasisType.C, line 2236:

 You are not using the predefined 5D/6D in this basis set.


--------------------------------------------------------------
User input:
--------------------------------------------------------------
$molecule
0 1
C	0.208886	-8.519741	-0.174379
C	-0.472151	-7.635967	0.650052
S	1.193717	-7.651740	-1.377058
C	-0.225125	-6.261894	0.353105
H	-1.141594	-7.954738	1.458961
C	0.692811	-6.079985	-0.740583
C	1.039773	-4.798382	-1.195546
C	-0.817634	-5.153542	1.023267
C	-0.473754	-3.869626	0.565262
C	0.447350	-3.688927	-0.527745
O	-1.644483	-5.481075	2.054917
O	1.869424	-4.479871	-2.232592
C	2.939466	-5.356026	-2.565470
H	3.601405	-4.790496	-3.248608
H	2.587892	-6.268513	-3.094885
H	3.516052	-5.658187	-1.664539
C	-2.608813	-4.546999	2.524564
H	-3.270661	-5.107564	3.211568
H	-3.216646	-4.131473	1.692342
H	-2.141184	-3.712085	3.090211
C	0.690319	-2.314326	-0.823402
S	-0.985511	-2.295487	1.194935
C	0.000000	-1.435180	0.000000
H	1.361286	-1.993211	-1.630024
C	0.000000	0.000000	0.000000
S	0.002233	0.899428	1.510732
C	0.001157	2.474749	0.727629
C	-0.000030	0.908223	-1.064665
C	-0.001545	2.297013	-0.678287
C	0.001624	0.841837	-2.486150
C	0.001494	2.106670	-3.106916
S	-0.001841	3.354171	-1.965735
C	0.006168	2.361146	-4.559972
O	0.009152	1.427646	-5.350277
O	0.009405	3.644337	-5.004375
F	0.005539	-0.272288	-3.246290
C	0.019554	4.003038	-6.334976
H	0.020155	5.108000	-6.370268
H	-0.871409	3.613681	-6.875609
H	0.918470	3.613062	-6.861878
H	0.001222	3.394771	1.321510
H	-0.486655	-9.146471	-0.744739
H	0.898184	-9.150570	0.399033
H	-0.832713	-1.444158	-0.687683
$end

$rem
JOBTYPE		SP
EXCHANGE	HF
CORRELATION	pRIMP2
BASIS		cc-pvtz
METHOD		rimp2
AUX_BASIS	rimp2-cc-pvtz
SOLVENT_METHOD	PCM
PURECART	11111
SYMMETRY	false
MEM_TOTAL	110000
SCF_CONVERGENCE = 6
THRESH=10
GUI = 2
$end



$solvent
dielectric 4.90
$end
--------------------------------------------------------------
 ----------------------------------------------------------------
             Standard Nuclear Orientation (Angstroms)
    I     Atom           X                Y                Z
 ----------------------------------------------------------------
    1      C       0.2088860000    -8.5197410000    -0.1743790000
    2      C      -0.4721510000    -7.6359670000     0.6500520000
    3      S       1.1937170000    -7.6517400000    -1.3770580000
    4      C      -0.2251250000    -6.2618940000     0.3531050000
    5      H      -1.1415940000    -7.9547380000     1.4589610000
    6      C       0.6928110000    -6.0799850000    -0.7405830000
    7      C       1.0397730000    -4.7983820000    -1.1955460000
    8      C      -0.8176340000    -5.1535420000     1.0232670000
    9      C      -0.4737540000    -3.8696260000     0.5652620000
   10      C       0.4473500000    -3.6889270000    -0.5277450000
   11      O      -1.6444830000    -5.4810750000     2.0549170000
   12      O       1.8694240000    -4.4798710000    -2.2325920000
   13      C       2.9394660000    -5.3560260000    -2.5654700000
   14      H       3.6014050000    -4.7904960000    -3.2486080000
   15      H       2.5878920000    -6.2685130000    -3.0948850000
   16      H       3.5160520000    -5.6581870000    -1.6645390000
   17      C      -2.6088130000    -4.5469990000     2.5245640000
   18      H      -3.2706610000    -5.1075640000     3.2115680000
   19      H      -3.2166460000    -4.1314730000     1.6923420000
   20      H      -2.1411840000    -3.7120850000     3.0902110000
   21      C       0.6903190000    -2.3143260000    -0.8234020000
   22      S      -0.9855110000    -2.2954870000     1.1949350000
   23      C       0.0000000000    -1.4351800000     0.0000000000
   24      H       1.3612860000    -1.9932110000    -1.6300240000
   25      C       0.0000000000     0.0000000000     0.0000000000
   26      S       0.0022330000     0.8994280000     1.5107320000
   27      C       0.0011570000     2.4747490000     0.7276290000
   28      C      -0.0000300000     0.9082230000    -1.0646650000
   29      C      -0.0015450000     2.2970130000    -0.6782870000
   30      C       0.0016240000     0.8418370000    -2.4861500000
   31      C       0.0014940000     2.1066700000    -3.1069160000
   32      S      -0.0018410000     3.3541710000    -1.9657350000
   33      C       0.0061680000     2.3611460000    -4.5599720000
   34      O       0.0091520000     1.4276460000    -5.3502770000
   35      O       0.0094050000     3.6443370000    -5.0043750000
   36      F       0.0055390000    -0.2722880000    -3.2462900000
   37      C       0.0195540000     4.0030380000    -6.3349760000
   38      H       0.0201550000     5.1080000000    -6.3702680000
   39      H      -0.8714090000     3.6136810000    -6.8756090000
   40      H       0.9184700000     3.6130620000    -6.8618780000
   41      H       0.0012220000     3.3947710000     1.3215100000
   42      H      -0.4866550000    -9.1464710000    -0.7447390000
   43      H       0.8981840000    -9.1505700000     0.3990330000
   44      H      -0.8327130000    -1.4441580000    -0.6876830000
 ----------------------------------------------------------------
 Nuclear Repulsion Energy =        3361.64236859 hartrees
 There are      120 alpha and      120 beta electrons
 Requested basis set is cc-pVTZ
 There are 388 shells and 1096 basis functions

 Total QAlloc Memory Limit 110000 MB
 Mega-Array Size       188 MB
 MEM_STATIC part       192 MB
 Discretize the solute cavity surface with Lebedev spheres
	Using 110 Lebedev grid points for each H atom
	Using 194 Lebedev grid points for other atoms
	Atomic van der Waals radii will be scaled by 1.20
 Remove points where switching function is < 1.0e-08
 Keep 2961 surface tesserae and discard 4315 interior tesserae
 Molecular Surface Area = 439.507 Angst**2
 Requested basis set is rimp2-cc-pVTZ
 There are 853 shells and 2963 basis functions
 A cutoff of  1.0D-10 yielded  33434 shell pairs
 There are    252738 function pairs (    327012 Cartesian)
 Smallest overlap matrix eigenvalue = 2.16E-05

 Scale SEOQF with 1.000000e-01/1.000000e-02/1.000000e-02

 Standard Electronic Orientation quadrupole field applied
 Nucleus-field energy     =     0.0000000252 hartrees
 Guess from superposition of atomic densities
 Warning:  Energy on first SCF cycle will be non-variational
 SAD guess density has 240.000000 electrons

 -----------------------------------------------------------------------
  General SCF calculation program by
  Eric Jon Sundstrom, Paul Horn, Yuezhi Mao, Dmitri Zuev, Alec White,
  David Stuck, Shaama M.S., Shane Yost, Joonho Lee, David Small,
  Daniel Levine, Susi Lehtola, Hugh Burton, Evgeny Epifanovsky,
  Bang C. Huynh
 -----------------------------------------------------------------------
 Hartree-Fock
 using 64 threads for integral computing
 -------------------------------------------------------
 OpenMP Integral computing Module                
 Release: version 1.0, May 2013, Q-Chem Inc. Pittsburgh 
 -------------------------------------------------------
 A restricted SCF calculation will be
 performed using DIIS
 SCF converges when DIIS error is below 1.0e-06
 ---------------------------------------
  Cycle       Energy         DIIS error
 ---------------------------------------
    1   -2767.3401304901      1.77e-02  
    2   -2754.8724599820      1.55e-03  
    3   -2755.2213706715      8.79e-04  
    4   -2755.3126883579      2.54e-04  
    5   -2755.3264062890      7.28e-05  
    6   -2755.3279323746      2.59e-05  
    7   -2755.3283264158      1.35e-05  
    8   -2755.3284458572      5.63e-06  
    9   -2755.3284718326      2.95e-06  
   10   -2755.3284783914      1.42e-06  
   11   -2755.3284804296      7.20e-07  Convergence criterion met
 ---------------------------------------
 SCF time:   CPU 7567.81s  wall 277.00s 

************** Final PCM Free Energy Summary **************
 G_electrostatic  =      -0.02124958 hartree =     -13.33431143 kcal/mol
 G_cavitation     =       0.00000000 hartree =       0.00000000 kcal/mol
 G_dispersion     =       0.00000000 hartree =       0.00000000 kcal/mol
 G_repulsion      =       0.00000000 hartree =       0.00000000 kcal/mol
 --------------------------------------------------
 Non-electrostatic Free Energy =       0.00000000 hartree =       0.00000000 kcal/mol
 Total                         =      -0.02124958 hartree =     -13.33431143 kcal/mol
 --------------------------------------------------
 SCF Energy (H0 + V/2)                       =   -2755.32848043 
 Solute Internal Energy (H0)                 =   -2755.30723085 
 Total Free Energy (H0 + V/2 + non-elec)     =   -2755.32848043 hartree
                                             = -1728994.71718560 kcal/mol
***********************************************************

 SCF   energy in the final basis set =    -2755.3284804296
 Total energy in the final basis set =    -2755.3284804296


 --------------------------------------------------------------
  Generalized many-body perturbation theory program
  by Joonho Lee, Fazle Rob, Xintian Feng, Evgeny Epifanovsky

 No regularization used 
 (reg. param. = 0.0000e+00)
  (P|Q)^-1/2 Time:  CPU 132.89 s  wall 2.10 s

 In RI-MP2 calculation: 
 # of frozen core orbitals: 45

 Components of the RIMP2 correlation energy:
        aaaa    correlation energy =        -0.6700745335 a.u.
        abab    correlation energy =        -3.7505537889 a.u.
        bbbb    correlation energy =        -0.6700745335 a.u.
        non-Brillouin singles      =        -0.0000000000 a.u.
        total same-spin energy     =        -1.3401490671 a.u.
        total opposite-spin energy =        -3.7505537889 a.u.

 Total  RIMP2   correlation energy =        -5.0907028559 a.u.
        RIMP2         total energy =     -2760.4191832855 a.u.

 RI-MP2 Energy Time:  CPU 3003.50 s  wall 48.58 s
 
 --------------------------------------------------------------
 
                    Orbital Energies (a.u.)
 --------------------------------------------------------------
 
 Alpha MOs
 -- Occupied --
-92.0154 -91.9941 -91.9822 -91.9592 -26.3384 -20.6118 -20.5889 -20.5872
-20.5490 -11.4096 -11.3795 -11.3229 -11.3105 -11.3097 -11.2975 -11.2949
-11.2884 -11.2864 -11.2858 -11.2858 -11.2849 -11.2826 -11.2795 -11.2744
-11.2732 -11.2605 -11.2595 -11.2508 -11.2398  -9.0138  -8.9982  -8.9843
 -8.9618  -6.6945  -6.6939  -6.6935  -6.6795  -6.6788  -6.6774  -6.6655
 -6.6646  -6.6633  -6.6430  -6.6421  -6.6411  -1.6515  -1.4714  -1.4121
 -1.4091  -1.3666  -1.2385  -1.2105  -1.1768  -1.1435  -1.1011  -1.0509
 -1.0477  -1.0286  -1.0102  -0.9997  -0.9718  -0.9604  -0.9498  -0.9409
 -0.8954  -0.8739  -0.8627  -0.8087  -0.7949  -0.7870  -0.7769  -0.7722
 -0.7625  -0.7344  -0.7201  -0.7190  -0.6989  -0.6945  -0.6861  -0.6784
 -0.6758  -0.6720  -0.6569  -0.6492  -0.6373  -0.6288  -0.6211  -0.6155
 -0.6108  -0.6059  -0.5951  -0.5924  -0.5806  -0.5692  -0.5597  -0.5517
 -0.5483  -0.5371  -0.5304  -0.5231  -0.5137  -0.5085  -0.5057  -0.5024
 -0.4860  -0.4844  -0.4781  -0.4705  -0.4632  -0.4612  -0.4601  -0.4478
 -0.4299  -0.3999  -0.3872  -0.3715  -0.3509  -0.2938  -0.2861  -0.2197
 -- Virtual --
  0.0293   0.0565   0.1166   0.1297   0.1376   0.1441   0.1534   0.1548
  0.1587   0.1596   0.1643   0.1781   0.1819   0.1862   0.1904   0.1953
  0.2018   0.2021   0.2068   0.2074   0.2162   0.2220   0.2225   0.2274
  0.2314   0.2323   0.2407   0.2470   0.2522   0.2586   0.2667   0.2719
  0.2737   0.2971   0.3068   0.3192   0.3299   0.3347   0.3428   0.3456
  0.3473   0.3570   0.3622   0.3665   0.3700   0.3734   0.3803   0.3823
  0.3859   0.3876   0.3924   0.4045   0.4083   0.4161   0.4181   0.4250
  0.4262   0.4312   0.4343   0.4357   0.4387   0.4440   0.4461   0.4535
  0.4553   0.4625   0.4651   0.4685   0.4743   0.4767   0.4785   0.4835
  0.4856   0.4920   0.4974   0.4997   0.5025   0.5109   0.5195   0.5207
  0.5228   0.5282   0.5317   0.5402   0.5416   0.5439   0.5510   0.5525
  0.5541   0.5548   0.5603   0.5633   0.5654   0.5685   0.5729   0.5820
  0.5855   0.5877   0.5897   0.5942   0.5993   0.6034   0.6062   0.6108
  0.6114   0.6156   0.6178   0.6199   0.6245   0.6255   0.6291   0.6321
  0.6362   0.6381   0.6423   0.6432   0.6482   0.6493   0.6550   0.6566
  0.6589   0.6675   0.6689   0.6777   0.6803   0.6851   0.6914   0.6967
  0.7007   0.7041   0.7107   0.7161   0.7176   0.7237   0.7354   0.7398
  0.7526   0.7557   0.7577   0.7642   0.7736   0.7791   0.7865   0.7916
  0.7934   0.7951   0.7963   0.8048   0.8081   0.8139   0.8221   0.8261
  0.8312   0.8345   0.8470   0.8479   0.8637   0.8705   0.8720   0.8823
  0.8916   0.8954   0.8973   0.9004   0.9060   0.9092   0.9171   0.9193
  0.9231   0.9321   0.9355   0.9386   0.9418   0.9453   0.9483   0.9588
  0.9634   0.9650   0.9729   0.9799   0.9826   0.9875   0.9888   0.9937
  0.9973   1.0017   1.0076   1.0092   1.0118   1.0173   1.0225   1.0279
  1.0360   1.0390   1.0454   1.0498   1.0546   1.0596   1.0611   1.0688
  1.0707   1.0754   1.0846   1.0883   1.0944   1.1009   1.1032   1.1090
  1.1131   1.1184   1.1201   1.1286   1.1351   1.1395   1.1432   1.1464
  1.1538   1.1613   1.1627   1.1659   1.1696   1.1754   1.1821   1.1834
  1.1869   1.1884   1.1927   1.1987   1.2009   1.2086   1.2131   1.2165
  1.2230   1.2249   1.2309   1.2410   1.2411   1.2494   1.2542   1.2598
  1.2627   1.2668   1.2758   1.2781   1.2856   1.2900   1.2904   1.2969
  1.3083   1.3142   1.3205   1.3226   1.3287   1.3372   1.3438   1.3452
  1.3473   1.3550   1.3617   1.3703   1.3743   1.3887   1.3900   1.3969
  1.4043   1.4130   1.4140   1.4228   1.4305   1.4424   1.4463   1.4492
  1.4609   1.4670   1.4771   1.4843   1.4878   1.4917   1.4932   1.4994
  1.5057   1.5120   1.5127   1.5129   1.5239   1.5342   1.5384   1.5396
  1.5439   1.5469   1.5501   1.5585   1.5615   1.5626   1.5704   1.5829
  1.5927   1.5933   1.6019   1.6056   1.6214   1.6239   1.6337   1.6415
  1.6433   1.6541   1.6568   1.6638   1.6653   1.6763   1.6781   1.6916
  1.6938   1.6972   1.7027   1.7152   1.7265   1.7356   1.7409   1.7498
  1.7534   1.7664   1.7725   1.7782   1.7875   1.7958   1.8090   1.8148
  1.8238   1.8285   1.8329   1.8455   1.8542   1.8576   1.8651   1.8733
  1.8776   1.8816   1.8967   1.9034   1.9090   1.9233   1.9312   1.9390
  1.9490   1.9508   1.9548   1.9588   1.9709   1.9769   1.9946   2.0013
  2.0178   2.0195   2.0292   2.0368   2.0406   2.0433   2.0478   2.0583
  2.0695   2.0790   2.0943   2.0992   2.1021   2.1180   2.1200   2.1316
  2.1373   2.1538   2.1576   2.1609   2.1731   2.1790   2.1827   2.1947
  2.1954   2.2023   2.2136   2.2196   2.2269   2.2313   2.2353   2.2484
  2.2515   2.2571   2.2693   2.2736   2.2800   2.2821   2.2975   2.3069
  2.3077   2.3227   2.3298   2.3432   2.3486   2.3501   2.3572   2.3732
  2.3748   2.3860   2.3948   2.4005   2.4132   2.4152   2.4240   2.4309
  2.4395   2.4472   2.4620   2.4696   2.4743   2.4817   2.4869   2.5045
  2.5143   2.5243   2.5297   2.5300   2.5406   2.5586   2.5656   2.5672
  2.5785   2.5873   2.5967   2.6020   2.6148   2.6226   2.6235   2.6307
  2.6360   2.6431   2.6454   2.6474   2.6526   2.6648   2.6694   2.6733
  2.6804   2.6885   2.6940   2.6979   2.7028   2.7075   2.7132   2.7238
  2.7299   2.7339   2.7393   2.7451   2.7501   2.7539   2.7636   2.7667
  2.7711   2.7786   2.7906   2.8045   2.8073   2.8100   2.8228   2.8305
  2.8375   2.8452   2.8493   2.8574   2.8622   2.8688   2.8737   2.8755
  2.8840   2.8928   2.8987   2.9020   2.9090   2.9233   2.9336   2.9502
  2.9558   2.9573   2.9633   2.9676   2.9773   2.9834   2.9880   2.9958
  3.0098   3.0140   3.0200   3.0324   3.0350   3.0428   3.0450   3.0455
  3.0510   3.0616   3.0796   3.0840   3.0902   3.0927   3.0942   3.1025
  3.1034   3.1075   3.1154   3.1243   3.1315   3.1374   3.1442   3.1487
  3.1522   3.1549   3.1605   3.1619   3.1717   3.1743   3.1787   3.1796
  3.1875   3.1926   3.1991   3.2020   3.2123   3.2151   3.2184   3.2224
  3.2288   3.2359   3.2421   3.2491   3.2528   3.2595   3.2619   3.2670
  3.2679   3.2783   3.2801   3.2836   3.2888   3.2907   3.2948   3.2996
  3.3026   3.3051   3.3117   3.3146   3.3218   3.3242   3.3351   3.3423
  3.3461   3.3483   3.3532   3.3589   3.3603   3.3624   3.3631   3.3679
  3.3725   3.3753   3.3831   3.3866   3.3923   3.3994   3.4011   3.4086
  3.4114   3.4234   3.4258   3.4329   3.4385   3.4407   3.4425   3.4461
  3.4518   3.4527   3.4579   3.4596   3.4614   3.4780   3.4802   3.4816
  3.4867   3.4939   3.4970   3.5051   3.5134   3.5207   3.5240   3.5383
  3.5466   3.5505   3.5543   3.5631   3.5703   3.5732   3.5787   3.5828
  3.5842   3.5866   3.5975   3.6013   3.6030   3.6043   3.6120   3.6150
  3.6240   3.6285   3.6341   3.6360   3.6462   3.6521   3.6533   3.6595
  3.6613   3.6688   3.6701   3.6721   3.6799   3.6826   3.6881   3.6925
  3.6976   3.7007   3.7103   3.7126   3.7135   3.7215   3.7248   3.7287
  3.7314   3.7349   3.7470   3.7480   3.7574   3.7641   3.7689   3.7761
  3.7811   3.7846   3.7979   3.8049   3.8060   3.8126   3.8196   3.8215
  3.8264   3.8325   3.8376   3.8469   3.8479   3.8516   3.8534   3.8643
  3.8668   3.8717   3.8822   3.8868   3.8908   3.8998   3.9044   3.9125
  3.9261   3.9282   3.9312   3.9407   3.9513   3.9563   3.9575   3.9621
  3.9669   3.9715   3.9830   3.9961   3.9975   4.0027   4.0106   4.0183
  4.0224   4.0362   4.0416   4.0428   4.0474   4.0524   4.0594   4.0660
  4.0690   4.0849   4.0877   4.0945   4.0987   4.1032   4.1136   4.1163
  4.1295   4.1400   4.1495   4.1598   4.1681   4.1707   4.1725   4.1778
  4.1800   4.1880   4.2013   4.2069   4.2161   4.2222   4.2281   4.2381
  4.2451   4.2553   4.2678   4.2726   4.2812   4.2909   4.3045   4.3093
  4.3167   4.3211   4.3270   4.3389   4.3479   4.3522   4.3600   4.3639
  4.3744   4.3774   4.3873   4.3952   4.3965   4.4038   4.4128   4.4177
  4.4222   4.4246   4.4254   4.4342   4.4361   4.4423   4.4521   4.4577
  4.4666   4.4738   4.4837   4.4984   4.4994   4.5145   4.5212   4.5260
  4.5338   4.5383   4.5466   4.5656   4.5663   4.5686   4.5735   4.5919
  4.5995   4.6105   4.6137   4.6303   4.6347   4.6397   4.6448   4.6504
  4.6605   4.6635   4.6706   4.6754   4.6951   4.7065   4.7193   4.7285
  4.7402   4.7444   4.7489   4.7696   4.7784   4.7975   4.8060   4.8114
  4.8196   4.8279   4.8399   4.8564   4.8648   4.8753   4.8790   4.8993
  4.9167   4.9211   4.9385   4.9509   4.9559   4.9640   4.9750   4.9877
  4.9950   5.0038   5.0117   5.0122   5.0223   5.0298   5.0498   5.0594
  5.0703   5.0823   5.0966   5.1021   5.1243   5.1597   5.1707   5.1773
  5.1923   5.1977   5.2017   5.2117   5.2164   5.2204   5.2271   5.2542
  5.2592   5.2666   5.2794   5.2914   5.2983   5.3169   5.3214   5.3266
  5.3362   5.3549   5.3554   5.3635   5.3736   5.3745   5.3870   5.4001
  5.4056   5.4100   5.4347   5.4421   5.4552   5.4732   5.4779   5.5005
  5.5082   5.5200   5.5243   5.5584   5.5655   5.5676   5.5738   5.5859
  5.5979   5.6092   5.6183   5.6314   5.6358   5.6520   5.6739   5.6897
  5.7241   5.7428   5.7661   5.7710   5.8011   5.8182   5.8350   5.8563
  5.8618   5.8810   5.9029   5.9564   5.9704   5.9818   5.9863   6.0071
  6.0387   6.0918   6.1229   6.1297   6.1338   6.1614   6.1712   6.1762
  6.1862   6.1962   6.2462   6.2474   6.2614   6.2672   6.2843   6.2929
  6.3089   6.3476   6.3569   6.4306   6.4852   6.5031   6.5364   6.5569
  6.5670   6.5804   6.6514   6.6774   6.6996   6.7240   6.7473   6.7530
  6.8086   6.8596   6.8612   6.8862   6.8972   6.9936   7.1305   7.1452
  7.1788   7.2127   7.2203   7.2397   7.3264   7.3277   7.3410   7.3701
  7.3739   7.4304   7.4629   7.4830   7.4844   7.4975   7.5198   7.5505
  7.6245   7.7384   7.7665   7.8020   7.8326   7.9187   7.9272   7.9555
  8.0068   8.1271   8.3591   8.7558   8.9313   9.0171   9.3625   9.4998
  9.7047  10.2941  11.2541  11.4306  11.9239  11.9614  12.1230  12.3729
 12.4162  12.5275  12.7736  12.9257  13.0084  13.2459  13.4800  13.6136
 13.7493  13.8824  13.9306  13.9729  14.1921  14.3242  15.1683  15.2976
 --------------------------------------------------------------
 
          Ground-State Mulliken Net Atomic Charges

     Atom                 Charge (a.u.)
  ----------------------------------------
      1 C                    -0.070659
      2 C                    -0.251668
      3 S                    -0.132452
      4 C                    -0.047559
      5 H                     0.194395
      6 C                    -0.051825
      7 C                     0.224327
      8 C                     0.232142
      9 C                    -0.078505
     10 C                    -0.037995
     11 O                    -0.334182
     12 O                    -0.342361
     13 C                    -0.082887
     14 H                     0.120820
     15 H                     0.092139
     16 H                     0.092508
     17 C                    -0.087513
     18 H                     0.124287
     19 H                     0.093434
     20 H                     0.090293
     21 C                    -0.292903
     22 S                    -0.083654
     23 C                     0.105341
     24 H                     0.203925
     25 C                    -0.083653
     26 S                     0.095656
     27 C                    -0.260659
     28 C                    -0.078756
     29 C                    -0.005491
     30 C                     0.396573
     31 C                    -0.149535
     32 S                     0.033652
     33 C                     0.461636
     34 O                    -0.453573
     35 O                    -0.298253
     36 F                    -0.215851
     37 C                    -0.055135
     38 H                     0.116553
     39 H                     0.084420
     40 H                     0.084258
     41 H                     0.213983
     42 H                     0.118561
     43 H                     0.116148
     44 H                     0.200018
  ----------------------------------------
  Sum of atomic charges =     0.000000

 -----------------------------------------------------------------
                    Cartesian Multipole Moments
 -----------------------------------------------------------------
    Charge (ESU x 10^10)
                 0.0000
    Dipole Moment (Debye)
         X      -0.6265      Y       2.2863      Z       3.1376
       Tot       3.9325
    Quadrupole Moments (Debye-Ang)
        XX    -187.7637     XY       2.8302     YY    -170.4250
        XZ      -8.4872     YZ     -13.6804     ZZ    -202.2279
    Octopole Moments (Debye-Ang^2)
       XXX     -33.6818    XXY     323.1461    XYY     -28.3310
       YYY     969.6352    XXZ     184.1765    XYZ      39.3974
       YYZ     165.2393    XZZ     -13.6501    YZZ     481.7540
       ZZZ     590.4531
    Hexadecapole Moments (Debye-Ang^3)
      XXXX   -1331.5403   XXXY     372.8973   XXYY   -3781.0312
      XYYY     537.5672   YYYY  -19577.5581   XXXZ     502.6658
      XXYZ     383.8662   XYYZ      26.9554   YYYZ     627.0837
      XXZZ   -1292.0137   XYZZ     134.0667   YYZZ   -4366.2929
      XZZZ     531.0342   YZZZ     358.8474   ZZZZ   -6832.7549
 -----------------------------------------------------------------
 Total job time:  329.30s(wall), 10685.56s(cpu) 
 Sun Sep 24 18:32:08 2023

        *************************************************************
        *                                                           *
        *  Thank you very much for using Q-Chem.  Have a nice day.  *
        *                                                           *
        *************************************************************


0 sent ACK to 0 
now end server 0 ... 
cleanup process ... done
remove work dirs ./qchem962712.0 -- ./qchem962712.0
rm -rf ./qchem962712.0
rm -rf ./qchem962712
