You are running Q-Chem version: 5.4.0

#
# job setting
#
local host:  exp-8-24
current dir: /expanse/lustre/projects/csd626/rramji/aromodel/PTB7_fin/Hydrogenated_Rotation_Test
input file:  fin_bdt_Phi_50_Theta_270_fin_ftt_Hydrogenated.qcin
output file: 
nprocs     : 1
nthreads   : 64
#
# qchem installation setting
#
QC:          /cm/shared/apps/spack/cpu/opt/spack/linux-centos8-zen2/gcc-10.2.0/qchem-5.4-akfmr7b3t57bfs6qan3padb2wnb2i7cl
QCAUX:       /cm/shared/apps/spack/cpu/opt/spack/linux-centos8-zen2/gcc-10.2.0/qchem-5.4-akfmr7b3t57bfs6qan3padb2wnb2i7cl/qcaux
QCPROG:      /cm/shared/apps/spack/cpu/opt/spack/linux-centos8-zen2/gcc-10.2.0/qchem-5.4-akfmr7b3t57bfs6qan3padb2wnb2i7cl/exe/qcprog.exe
QCPROG_S:    /cm/shared/apps/spack/cpu/opt/spack/linux-centos8-zen2/gcc-10.2.0/qchem-5.4-akfmr7b3t57bfs6qan3padb2wnb2i7cl/exe/qcprog.exe_s
PARALLEL:    -DPARALLEL
QCMPI:       mpich
#
# qchem directory setting
#
qcrun:       qchem951701
QCSCRATCH:   .
QCLOCALSCR:  
QCTMPDIR:    .
QCFILEPREF:  ./qchem951701
QCSAVEDIR:   
workdirs:    ./qchem951701
workdir0:    ./qchem951701
partmpdirs =  
#
# parallel setting
#
QCRSH:           ssh
QCMPI:           mpich
QCMPIRUN:        /cm/shared/apps/spack/cpu/opt/spack/linux-centos8-zen2/gcc-10.2.0/qchem-5.4-akfmr7b3t57bfs6qan3padb2wnb2i7cl/bin/mpi/mpirun_qchem
QCMACHINEFILE:   ./qchem951701/hostfile
exp-8-24

#
# env setting
#
exported envs:   QC QCAUX QCSCRATCH QCRUNNAME QCFILEPREF QCPROG QCPROG_S GUIFILE

Running Job 1 of 1 fin_bdt_Phi_50_Theta_270_fin_ftt_Hydrogenated.qcin
qchem fin_bdt_Phi_50_Theta_270_fin_ftt_Hydrogenated.qcin_951701.0 ./qchem951701/ 1
/cm/shared/apps/spack/cpu/opt/spack/linux-centos8-zen2/gcc-10.2.0/qchem-5.4-akfmr7b3t57bfs6qan3padb2wnb2i7cl/bin/mpi/mpirun_qchem -machinefile ./qchem951701/hostfile -np 1 /cm/shared/apps/spack/cpu/opt/spack/linux-centos8-zen2/gcc-10.2.0/qchem-5.4-akfmr7b3t57bfs6qan3padb2wnb2i7cl/exe/qcprog.exe fin_bdt_Phi_50_Theta_270_fin_ftt_Hydrogenated.qcin_951701.0 ./qchem951701/

Process 0 of 1 is on exp-8-24 - thread support 0
initial socket setup ...start
initial socket setup ...done 
now start server 0 ... 
                  Welcome to Q-Chem
     A Quantum Leap Into The Future Of Chemistry


 Q-Chem 5.4, Q-Chem, Inc., Pleasanton, CA (2021)

 License issued to: University of California, San Diego (site)

 E. Epifanovsky,  A. T. B. Gilbert,  Xintian Feng,  Joonho Lee,  Yuezhi Mao,  
 N. Mardirossian,  P. Pokhilko,  A. White,  M. Wormit,  M. P. Coons,  
 A. L. Dempwolff,  Zhengting Gan,  D. Hait,  P. R. Horn,  L. D. Jacobson,  
 I. Kaliman,  J. Kussmann,  A. W. Lange,  Ka Un Lao,  D. S. Levine,  Jie Liu,  
 S. C. McKenzie,  A. F. Morrison,  K. Nanda,  F. Plasser,  D. R. Rehn,  
 M. L. Vidal,  Zhi-Qiang You,  Ying Zhu,  B. Alam,  B. Albrecht,  
 A. Aldossary,  E. Alguire,  J. H. Andersen,  D. Barton,  K. Begam,  A. Behn,  
 Y. A. Bernard,  E. J. Berquist,  H. Burton,  A. Carreras,  K. Carter-Fenk,  
 R. Chakraborty,  A. D. Chien,  K. D. Closser,  V. Cofer-Shabica,  
 S. Dasgupta,  Jia Deng,  M. de Wergifosse,  M. Diedenhofen,  Hainam Do,  
 S. Ehlert,  Po-Tung Fang,  S. Fatehi,  Qingguo Feng,  J. Gayvert,  
 Qinghui Ge,  G. Gidofalvi,  M. Goldey,  J. Gomes,  C. Gonzalez-Espinoza,  
 S. Gulania,  A. Gunina,  M. W. D. Hanson-Heine,  P. H. P. Harbach,  
 A. W. Hauser,  M. F. Herbst,  M. Hernandez Vera,  M. Hodecker,  
 Z. C. Holden,  S. Houck,  Xunkun Huang,  Kerwin Hui,  B. C. Huynh,  
 M. Ivanov,  Hyunjun Ji,  Hanjie Jiang,  B. Kaduk,  S. Kaehler,  
 K. Khistyaev,  Jaehoon Kim,  P. Klunzinger,  Z. Koczor-Benda,  
 Joong Hoon Koh,  D. Kosenkov,  L. Koulias,  T. Kowalczyk,  C. M. Krauter,  
 K. Kue,  A. Kunitsa,  T. Kus,  A. Landau,  K. V. Lawler,  D. Lefrancois,  
 S. Lehtola,  Rain Li,  Yi-Pei Li,  Jiashu Liang,  M. Liebenthal,  
 Hung-Hsuan Lin,  You-Sheng Lin,  Fenglai Liu,  Kuan-Yu Liu,  
 M. Loipersberger,  A. Luenser,  A. Manjanath,  P. Manohar,  E. Mansoor,  
 S. F. Manzer,  Shan-Ping Mao,  A. V. Marenich,  T. Markovich,  S. Mason,  
 S. A. Maurer,  P. F. McLaughlin,  M. F. S. J. Menger,  J.-M. Mewes,  
 S. A. Mewes,  P. Morgante,  J. W. Mullinax,  T. S. Nguyen-Beck,  
 K. J. Oosterbaan,  G. Paran,  Alexander C. Paul,  Suranjan K. Paul,  
 F. Pavosevic,  Zheng Pei,  S. Prager,  E. I. Proynov,  E. Ramos,  B. Rana,  
 A. E. Rask,  A. Rettig,  R. M. Richard,  F. Rob,  E. Rossomme,  T. Scheele,  
 M. Scheurer,  M. Schneider,  N. Sergueev,  S. M. Sharada,  W. Skomorowski,  
 D. W. Small,  C. J. Stein,  Yu-Chuan Su,  E. J. Sundstrom,  Zhen Tao,  
 J. Thirman,  T. Tsuchimochi,  N. M. Tubman,  S. P. Veccham,  O. Vydrov,  
 J. Wenzel,  J. Witte,  A. Yamada,  Kun Yao,  S. Yeganeh,  S. R. Yost,  
 A. Zech,  Igor Ying Zhang,  Xing Zhang,  Yu Zhang,  D. Zuev,  
 A. Aspuru-Guzik,  A. T. Bell,  N. A. Besley,  K. B. Bravaya,  B. R. Brooks,  
 D. Casanova,  Jeng-Da Chai,  S. Coriani,  C. J. Cramer,  
 A. E. DePrince, III,  R. A. DiStasio Jr.,  A. Dreuw,  B. D. Dunietz,  
 T. R. Furlani,  W. A. Goddard III,  S. Grimme,  S. Hammes-Schiffer,  
 T. Head-Gordon,  W. J. Hehre,  Chao-Ping Hsu,  T.-C. Jagau,  Yousung Jung,  
 A. Klamt,  Jing Kong,  D. S. Lambrecht,  WanZhen Liang,  N. J. Mayhall,  
 C. W. McCurdy,  J. B. Neaton,  C. Ochsenfeld,  J. A. Parkhill,  R. Peverati,  
 V. A. Rassolov,  Yihan Shao,  L. V. Slipchenko,  T. Stauch,  R. P. Steele,  
 J. E. Subotnik,  A. J. W. Thom,  A. Tkatchenko,  D. G. Truhlar,  
 T. Van Voorhis,  T. A. Wesolowski,  K. B. Whaley,  H. L. Woodcock III,  
 P. M. Zimmerman,  S. Faraji,  P. M. W. Gill,  M. Head-Gordon,  
 J. M. Herbert,  A. I. Krylov

 Contributors to earlier versions of Q-Chem not listed above: 
 R. D. Adamson,  B. Austin,  R. Baer,  J. Baker,  G. J. O. Beran,  
 K. Brandhorst,  S. T. Brown,  E. F. C. Byrd,  A. K. Chakraborty,  
 G. K. L. Chan,  Chun-Min Chang,  Yunqing Chen,  C.-L. Cheng,  
 Siu Hung Chien,  D. M. Chipman,  D. L. Crittenden,  H. Dachsel,  
 R. J. Doerksen,  A. D. Dutoi,  R. G. Edgar,  J. Fosso-Tande,  
 L. Fusti-Molnar,  D. Ghosh,  A. Ghysels,  A. Golubeva-Zadorozhnaya,  
 J. Gonthier,  M. S. Gordon,  S. R. Gwaltney,  G. Hawkins,  J. E. Herr,  
 A. Heyden,  S. Hirata,  E. G. Hohenstein,  G. Kedziora,  F. J. Keil,  
 C. Kelley,  Jihan Kim,  R. A. King,  R. Z. Khaliullin,  P. P. Korambath,  
 W. Kurlancheek,  A. Laurent,  A. M. Lee,  M. S. Lee,  S. V. Levchenko,  
 Ching Yeh Lin,  D. Liotard,  E. Livshits,  R. C. Lochan,  I. Lotan,  
 L. A. Martinez-Martinez,  P. E. Maslen,  N. Nair,  D. P. O'Neill,  
 D. Neuhauser,  E. Neuscamman,  C. M. Oana,  R. Olivares-Amaya,  R. Olson,  
 T. M. Perrine,  B. Peters,  P. A. Pieniazek,  A. Prociuk,  Y. M. Rhee,  
 J. Ritchie,  M. A. Rohrdanz,  E. Rosta,  N. J. Russ,  H. F. Schaefer III,  
 M. W. Schmidt,  N. E. Schultz,  S. Sharma,  N. Shenvi,  C. D. Sherrill,  
 A. C. Simmonett,  A. Sodt,  T. Stein,  D. Stuck,  K. S. Thanthiriwatte,  
 V. Vanovschi,  L. Vogt,  Tao Wang,  A. Warshel,  M. A. Watson,  
 C. F. Williams,  Q. Wu,  X. Xu,  Jun Yang,  W. Zhang,  Yan Zhao

 Please cite Q-Chem as follows:
 Y. Shao et al., Mol. Phys. 113, 184-215 (2015)
 DOI: 10.1080/00268976.2014.952696

 Q-Chem 5.4.0 for Intel X86 EM64T Linux

 Parts of Q-Chem use Armadillo 9.800.1 (Horizon Scraper).
 http://arma.sourceforge.net/

 Q-Chem begins on Sun Sep 24 18:55:43 2023  

 Host: 
0

     Scratch files written to ./qchem951701//
 May1621 |scratch|qcdevops|jenkins|workspace|build_RNUM    
 Parallel job on  1  processors
 Processing $rem in /cm/shared/apps/spack/cpu/opt/spack/linux-centos8-zen2/gcc-10.2.0/qchem-5.4-akfmr7b3t57bfs6qan3padb2wnb2i7cl/config/preferences:
 Processing $rem in /home/rramji/.qchemrc:
 Symmetry turned off for PCM/SM12/SMD calculation
 Core orbitals will be frozen

 Checking the input file for inconsistencies... 	...done.

 Q-Chem warning in module forms1/BasisType.C, line 2236:

 You are not using the predefined 5D/6D in this basis set.


--------------------------------------------------------------
User input:
--------------------------------------------------------------
$molecule
0 1
C	0.267851	-8.519741	0.047927
C	-0.801461	-7.635967	0.056157
S	1.822194	-7.651740	0.029285
C	-0.415201	-6.261894	0.054516
H	-1.851431	-7.954738	0.063290
C	1.012650	-6.079985	0.054687
C	1.584194	-4.798382	0.028030
C	-1.309433	-5.153542	0.031399
C	-0.737539	-3.869626	0.000427
C	0.691828	-3.688927	0.003462
O	-2.631211	-5.481075	0.061128
O	2.911907	-4.479871	-0.003021
C	3.854716	-5.356026	0.602710
H	4.803517	-4.790496	0.670671
H	4.034285	-6.268513	-0.006913
H	3.535185	-5.658187	1.623507
C	-3.610841	-4.546999	-0.375708
H	-4.562544	-5.107564	-0.441115
H	-3.364029	-4.131473	-1.376277
H	-3.743566	-3.712085	0.346107
C	1.074491	-2.314326	-0.000458
S	-1.548848	-2.295487	0.013144
C	-0.000000	-1.435180	-0.000000
H	2.123688	-1.993211	-0.004953
C	0.000000	0.000000	0.000000
S	0.690437	0.576430	1.510732
C	1.896512	1.589852	0.727629
C	0.695720	0.583817	-1.064665
C	1.758621	1.477674	-0.678287
C	0.645928	0.539878	-2.486150
C	1.614763	1.352997	-3.106916
S	2.568261	2.157430	-1.965735
C	1.812707	1.512991	-4.559972
O	1.099523	0.910662	-5.350277
O	2.797769	2.335330	-5.004375
F	-0.205024	-0.179266	-3.246290
C	3.079074	2.558124	-6.334976
H	3.925910	3.267919	-6.370268
H	2.208109	2.990367	-6.875609
H	3.358147	1.618843	-6.861878
H	2.601331	2.181180	1.321510
H	0.257688	-9.146471	-0.851509
H	0.271664	-9.150570	0.944542
H	-0.008462	-1.444158	-1.079930
$end

$rem
JOBTYPE		SP
EXCHANGE	HF
CORRELATION	pRIMP2
BASIS		cc-pvtz
METHOD		rimp2
AUX_BASIS	rimp2-cc-pvtz
SOLVENT_METHOD	PCM
PURECART	11111
SYMMETRY	false
MEM_TOTAL	110000
SCF_CONVERGENCE = 6
THRESH=10
GUI = 2
$end



$solvent
dielectric 4.90
$end
--------------------------------------------------------------
 ----------------------------------------------------------------
             Standard Nuclear Orientation (Angstroms)
    I     Atom           X                Y                Z
 ----------------------------------------------------------------
    1      C       0.2678510000    -8.5197410000     0.0479270000
    2      C      -0.8014610000    -7.6359670000     0.0561570000
    3      S       1.8221940000    -7.6517400000     0.0292850000
    4      C      -0.4152010000    -6.2618940000     0.0545160000
    5      H      -1.8514310000    -7.9547380000     0.0632900000
    6      C       1.0126500000    -6.0799850000     0.0546870000
    7      C       1.5841940000    -4.7983820000     0.0280300000
    8      C      -1.3094330000    -5.1535420000     0.0313990000
    9      C      -0.7375390000    -3.8696260000     0.0004270000
   10      C       0.6918280000    -3.6889270000     0.0034620000
   11      O      -2.6312110000    -5.4810750000     0.0611280000
   12      O       2.9119070000    -4.4798710000    -0.0030210000
   13      C       3.8547160000    -5.3560260000     0.6027100000
   14      H       4.8035170000    -4.7904960000     0.6706710000
   15      H       4.0342850000    -6.2685130000    -0.0069130000
   16      H       3.5351850000    -5.6581870000     1.6235070000
   17      C      -3.6108410000    -4.5469990000    -0.3757080000
   18      H      -4.5625440000    -5.1075640000    -0.4411150000
   19      H      -3.3640290000    -4.1314730000    -1.3762770000
   20      H      -3.7435660000    -3.7120850000     0.3461070000
   21      C       1.0744910000    -2.3143260000    -0.0004580000
   22      S      -1.5488480000    -2.2954870000     0.0131440000
   23      C       0.0000000000    -1.4351800000     0.0000000000
   24      H       2.1236880000    -1.9932110000    -0.0049530000
   25      C       0.0000000000     0.0000000000     0.0000000000
   26      S       0.6904370000     0.5764300000     1.5107320000
   27      C       1.8965120000     1.5898520000     0.7276290000
   28      C       0.6957200000     0.5838170000    -1.0646650000
   29      C       1.7586210000     1.4776740000    -0.6782870000
   30      C       0.6459280000     0.5398780000    -2.4861500000
   31      C       1.6147630000     1.3529970000    -3.1069160000
   32      S       2.5682610000     2.1574300000    -1.9657350000
   33      C       1.8127070000     1.5129910000    -4.5599720000
   34      O       1.0995230000     0.9106620000    -5.3502770000
   35      O       2.7977690000     2.3353300000    -5.0043750000
   36      F      -0.2050240000    -0.1792660000    -3.2462900000
   37      C       3.0790740000     2.5581240000    -6.3349760000
   38      H       3.9259100000     3.2679190000    -6.3702680000
   39      H       2.2081090000     2.9903670000    -6.8756090000
   40      H       3.3581470000     1.6188430000    -6.8618780000
   41      H       2.6013310000     2.1811800000     1.3215100000
   42      H       0.2576880000    -9.1464710000    -0.8515090000
   43      H       0.2716640000    -9.1505700000     0.9445420000
   44      H      -0.0084620000    -1.4441580000    -1.0799300000
 ----------------------------------------------------------------
 Nuclear Repulsion Energy =        3404.55335598 hartrees
 There are      120 alpha and      120 beta electrons
 Requested basis set is cc-pVTZ
 There are 388 shells and 1096 basis functions

 Total QAlloc Memory Limit 110000 MB
 Mega-Array Size       188 MB
 MEM_STATIC part       192 MB
 Discretize the solute cavity surface with Lebedev spheres
	Using 110 Lebedev grid points for each H atom
	Using 194 Lebedev grid points for other atoms
	Atomic van der Waals radii will be scaled by 1.20
 Remove points where switching function is < 1.0e-08
 Keep 2949 surface tesserae and discard 4327 interior tesserae
 Molecular Surface Area = 441.015 Angst**2
 Requested basis set is rimp2-cc-pVTZ
 There are 853 shells and 2963 basis functions
 A cutoff of  1.0D-10 yielded  34246 shell pairs
 There are    257808 function pairs (    333218 Cartesian)
 Smallest overlap matrix eigenvalue = 2.16E-05

 Scale SEOQF with 1.000000e-01/1.000000e-02/1.000000e-02

 Standard Electronic Orientation quadrupole field applied
 Nucleus-field energy     =     0.0000000482 hartrees
 Guess from superposition of atomic densities
 Warning:  Energy on first SCF cycle will be non-variational
 SAD guess density has 240.000000 electrons

 -----------------------------------------------------------------------
  General SCF calculation program by
  Eric Jon Sundstrom, Paul Horn, Yuezhi Mao, Dmitri Zuev, Alec White,
  David Stuck, Shaama M.S., Shane Yost, Joonho Lee, David Small,
  Daniel Levine, Susi Lehtola, Hugh Burton, Evgeny Epifanovsky,
  Bang C. Huynh
 -----------------------------------------------------------------------
 Hartree-Fock
 using 64 threads for integral computing
 -------------------------------------------------------
 OpenMP Integral computing Module                
 Release: version 1.0, May 2013, Q-Chem Inc. Pittsburgh 
 -------------------------------------------------------
 A restricted SCF calculation will be
 performed using DIIS
 SCF converges when DIIS error is below 1.0e-06
 ---------------------------------------
  Cycle       Energy         DIIS error
 ---------------------------------------
    1   -2767.4244572458      1.77e-02  
    2   -2754.8288233560      1.54e-03  
    3   -2755.1772745569      8.79e-04  
    4   -2755.2673984362      2.57e-04  
    5   -2755.2809761572      7.23e-05  
    6   -2755.2824649521      2.66e-05  
    7   -2755.2828556667      1.36e-05  
    8   -2755.2829902152      6.34e-06  
    9   -2755.2830252965      3.27e-06  
   10   -2755.2830349385      1.70e-06  
   11   -2755.2830376644      7.06e-07  Convergence criterion met
 ---------------------------------------
 SCF time:   CPU 7633.77s  wall 280.00s 

************** Final PCM Free Energy Summary **************
 G_electrostatic  =      -0.02289002 hartree =     -14.36370340 kcal/mol
 G_cavitation     =       0.00000000 hartree =       0.00000000 kcal/mol
 G_dispersion     =       0.00000000 hartree =       0.00000000 kcal/mol
 G_repulsion      =       0.00000000 hartree =       0.00000000 kcal/mol
 --------------------------------------------------
 Non-electrostatic Free Energy =       0.00000000 hartree =       0.00000000 kcal/mol
 Total                         =      -0.02289002 hartree =     -14.36370340 kcal/mol
 --------------------------------------------------
 SCF Energy (H0 + V/2)                       =   -2755.28303766 
 Solute Internal Energy (H0)                 =   -2755.26014765 
 Total Free Energy (H0 + V/2 + non-elec)     =   -2755.28303766 hartree
                                             = -1728966.20142006 kcal/mol
***********************************************************

 SCF   energy in the final basis set =    -2755.2830376644
 Total energy in the final basis set =    -2755.2830376644


 --------------------------------------------------------------
  Generalized many-body perturbation theory program
  by Joonho Lee, Fazle Rob, Xintian Feng, Evgeny Epifanovsky

 No regularization used 
 (reg. param. = 0.0000e+00)
  (P|Q)^-1/2 Time:  CPU 137.45 s  wall 2.49 s

 In RI-MP2 calculation: 
 # of frozen core orbitals: 45

 Components of the RIMP2 correlation energy:
        aaaa    correlation energy =        -0.6728133583 a.u.
        abab    correlation energy =        -3.7596158678 a.u.
        bbbb    correlation energy =        -0.6728133583 a.u.
        non-Brillouin singles      =        -0.0000000000 a.u.
        total same-spin energy     =        -1.3456267165 a.u.
        total opposite-spin energy =        -3.7596158678 a.u.

 Total  RIMP2   correlation energy =        -5.1052425844 a.u.
        RIMP2         total energy =     -2760.3882802488 a.u.

 RI-MP2 Energy Time:  CPU 3016.96 s  wall 49.07 s
 
 --------------------------------------------------------------
 
                    Orbital Energies (a.u.)
 --------------------------------------------------------------
 
 Alpha MOs
 -- Occupied --
-92.0130 -92.0056 -91.9680 -91.9567 -26.3388 -20.6165 -20.5864 -20.5837
-20.5575 -11.4169 -11.3790 -11.3192 -11.3120 -11.3076 -11.3022 -11.3011
-11.2943 -11.2909 -11.2847 -11.2824 -11.2817 -11.2788 -11.2733 -11.2709
-11.2695 -11.2559 -11.2549 -11.2479 -11.2332  -9.0121  -9.0092  -8.9704
 -8.9593  -6.6927  -6.6919  -6.6918  -6.6903  -6.6897  -6.6884  -6.6515
 -6.6507  -6.6494  -6.6405  -6.6396  -6.6386  -1.6520  -1.4767  -1.4085
 -1.4067  -1.3729  -1.2469  -1.2055  -1.1741  -1.1462  -1.0983  -1.0558
 -1.0430  -1.0334  -1.0061  -0.9943  -0.9760  -0.9585  -0.9477  -0.9409
 -0.8905  -0.8781  -0.8581  -0.8102  -0.7970  -0.7836  -0.7822  -0.7699
 -0.7593  -0.7332  -0.7213  -0.7180  -0.6976  -0.6926  -0.6870  -0.6824
 -0.6784  -0.6748  -0.6536  -0.6469  -0.6315  -0.6262  -0.6184  -0.6144
 -0.6118  -0.6099  -0.6025  -0.5944  -0.5785  -0.5649  -0.5557  -0.5551
 -0.5486  -0.5326  -0.5248  -0.5224  -0.5111  -0.5061  -0.5045  -0.4992
 -0.4914  -0.4842  -0.4704  -0.4669  -0.4657  -0.4640  -0.4560  -0.4434
 -0.4184  -0.4009  -0.3815  -0.3680  -0.3493  -0.3023  -0.2862  -0.2177
 -- Virtual --
  0.0051   0.0544   0.1066   0.1336   0.1407   0.1477   0.1538   0.1552
  0.1587   0.1610   0.1647   0.1707   0.1816   0.1846   0.1884   0.1918
  0.2008   0.2040   0.2056   0.2086   0.2174   0.2208   0.2240   0.2256
  0.2278   0.2307   0.2406   0.2436   0.2540   0.2545   0.2630   0.2675
  0.2760   0.2941   0.3009   0.3078   0.3233   0.3296   0.3385   0.3456
  0.3485   0.3553   0.3597   0.3634   0.3649   0.3691   0.3737   0.3787
  0.3853   0.3890   0.3910   0.3965   0.4034   0.4055   0.4116   0.4167
  0.4259   0.4288   0.4299   0.4344   0.4373   0.4413   0.4454   0.4496
  0.4559   0.4581   0.4639   0.4665   0.4696   0.4757   0.4787   0.4799
  0.4908   0.4953   0.4996   0.5001   0.5021   0.5125   0.5167   0.5233
  0.5247   0.5270   0.5314   0.5362   0.5375   0.5421   0.5473   0.5508
  0.5554   0.5583   0.5593   0.5647   0.5693   0.5725   0.5792   0.5813
  0.5862   0.5900   0.5904   0.5935   0.5936   0.6013   0.6057   0.6131
  0.6136   0.6175   0.6182   0.6215   0.6226   0.6261   0.6313   0.6352
  0.6372   0.6418   0.6426   0.6456   0.6481   0.6535   0.6582   0.6612
  0.6644   0.6688   0.6721   0.6798   0.6854   0.6887   0.6942   0.6952
  0.7009   0.7085   0.7120   0.7131   0.7179   0.7287   0.7340   0.7396
  0.7447   0.7526   0.7608   0.7667   0.7731   0.7765   0.7842   0.7884
  0.7914   0.7933   0.7975   0.8008   0.8077   0.8110   0.8260   0.8298
  0.8320   0.8406   0.8471   0.8498   0.8604   0.8725   0.8755   0.8772
  0.8843   0.8899   0.8914   0.8980   0.9003   0.9019   0.9079   0.9120
  0.9202   0.9256   0.9324   0.9353   0.9434   0.9441   0.9478   0.9536
  0.9606   0.9673   0.9690   0.9733   0.9802   0.9852   0.9862   0.9909
  0.9953   0.9970   1.0051   1.0064   1.0143   1.0164   1.0229   1.0268
  1.0314   1.0385   1.0406   1.0493   1.0584   1.0609   1.0618   1.0627
  1.0781   1.0804   1.0838   1.0867   1.0912   1.0933   1.1053   1.1060
  1.1123   1.1190   1.1192   1.1255   1.1310   1.1347   1.1446   1.1552
  1.1603   1.1608   1.1654   1.1668   1.1715   1.1746   1.1824   1.1838
  1.1857   1.1936   1.1959   1.1989   1.2061   1.2102   1.2139   1.2151
  1.2203   1.2235   1.2307   1.2407   1.2458   1.2504   1.2523   1.2576
  1.2629   1.2682   1.2748   1.2797   1.2865   1.2881   1.2971   1.2994
  1.3038   1.3063   1.3104   1.3199   1.3300   1.3359   1.3392   1.3421
  1.3453   1.3517   1.3551   1.3709   1.3730   1.3862   1.3947   1.3977
  1.4064   1.4099   1.4127   1.4173   1.4349   1.4461   1.4494   1.4553
  1.4624   1.4627   1.4747   1.4839   1.4873   1.4950   1.4966   1.5004
  1.5089   1.5102   1.5145   1.5197   1.5211   1.5258   1.5331   1.5357
  1.5420   1.5433   1.5512   1.5541   1.5591   1.5623   1.5750   1.5819
  1.5824   1.5965   1.6020   1.6111   1.6150   1.6223   1.6279   1.6355
  1.6418   1.6555   1.6605   1.6632   1.6689   1.6769   1.6796   1.6899
  1.6973   1.7004   1.7087   1.7163   1.7209   1.7285   1.7337   1.7444
  1.7601   1.7656   1.7798   1.7884   1.7938   1.8028   1.8120   1.8135
  1.8273   1.8287   1.8317   1.8403   1.8544   1.8554   1.8616   1.8701
  1.8809   1.8930   1.8999   1.9053   1.9147   1.9211   1.9254   1.9367
  1.9433   1.9508   1.9597   1.9615   1.9832   1.9911   1.9964   2.0040
  2.0123   2.0198   2.0226   2.0323   2.0363   2.0445   2.0514   2.0647
  2.0742   2.0744   2.0812   2.0944   2.0999   2.1063   2.1147   2.1349
  2.1422   2.1469   2.1540   2.1580   2.1678   2.1820   2.1836   2.1935
  2.1940   2.1996   2.2080   2.2147   2.2211   2.2240   2.2342   2.2396
  2.2473   2.2532   2.2641   2.2717   2.2746   2.2775   2.2876   2.2944
  2.3060   2.3183   2.3252   2.3385   2.3409   2.3593   2.3597   2.3738
  2.3762   2.3842   2.3918   2.3993   2.4060   2.4143   2.4168   2.4274
  2.4427   2.4531   2.4551   2.4662   2.4774   2.4857   2.4902   2.5050
  2.5069   2.5152   2.5262   2.5360   2.5406   2.5520   2.5653   2.5736
  2.5828   2.5878   2.5944   2.6024   2.6125   2.6184   2.6223   2.6276
  2.6343   2.6362   2.6461   2.6477   2.6549   2.6605   2.6655   2.6780
  2.6871   2.6888   2.6933   2.6996   2.7042   2.7051   2.7147   2.7231
  2.7264   2.7306   2.7384   2.7459   2.7535   2.7599   2.7667   2.7750
  2.7814   2.7859   2.7937   2.8041   2.8109   2.8175   2.8258   2.8339
  2.8438   2.8469   2.8520   2.8605   2.8664   2.8709   2.8755   2.8782
  2.8816   2.8865   2.8989   2.9062   2.9220   2.9254   2.9328   2.9465
  2.9531   2.9581   2.9590   2.9745   2.9837   2.9879   2.9977   3.0043
  3.0067   3.0177   3.0237   3.0322   3.0393   3.0413   3.0434   3.0473
  3.0555   3.0663   3.0731   3.0769   3.0879   3.0912   3.0966   3.1044
  3.1056   3.1158   3.1168   3.1237   3.1358   3.1408   3.1470   3.1509
  3.1555   3.1600   3.1639   3.1664   3.1712   3.1735   3.1775   3.1881
  3.1911   3.1965   3.1993   3.2045   3.2080   3.2109   3.2187   3.2249
  3.2297   3.2397   3.2421   3.2505   3.2520   3.2617   3.2676   3.2693
  3.2735   3.2772   3.2850   3.2894   3.2923   3.2975   3.2994   3.3027
  3.3084   3.3118   3.3211   3.3246   3.3345   3.3369   3.3417   3.3475
  3.3507   3.3540   3.3578   3.3586   3.3616   3.3660   3.3707   3.3714
  3.3786   3.3834   3.3865   3.3929   3.3953   3.3986   3.4025   3.4101
  3.4172   3.4268   3.4285   3.4319   3.4343   3.4353   3.4445   3.4526
  3.4552   3.4617   3.4623   3.4650   3.4690   3.4799   3.4830   3.4903
  3.4930   3.5001   3.5030   3.5096   3.5164   3.5232   3.5268   3.5326
  3.5452   3.5540   3.5575   3.5606   3.5656   3.5696   3.5771   3.5820
  3.5907   3.5967   3.5986   3.6016   3.6043   3.6143   3.6223   3.6253
  3.6281   3.6307   3.6388   3.6439   3.6490   3.6522   3.6593   3.6629
  3.6713   3.6721   3.6787   3.6803   3.6890   3.6930   3.7045   3.7076
  3.7097   3.7159   3.7175   3.7199   3.7225   3.7273   3.7313   3.7358
  3.7440   3.7463   3.7491   3.7596   3.7644   3.7672   3.7710   3.7837
  3.7918   3.7980   3.8040   3.8063   3.8111   3.8146   3.8215   3.8236
  3.8263   3.8323   3.8419   3.8437   3.8493   3.8521   3.8571   3.8619
  3.8687   3.8728   3.8759   3.8847   3.8926   3.8938   3.9046   3.9161
  3.9199   3.9291   3.9327   3.9455   3.9571   3.9637   3.9647   3.9705
  3.9738   3.9753   3.9850   3.9932   4.0004   4.0055   4.0147   4.0219
  4.0273   4.0300   4.0501   4.0541   4.0551   4.0637   4.0693   4.0697
  4.0801   4.0809   4.0849   4.0890   4.1044   4.1142   4.1205   4.1335
  4.1387   4.1445   4.1553   4.1619   4.1670   4.1721   4.1753   4.1797
  4.1826   4.1916   4.2013   4.2158   4.2222   4.2263   4.2362   4.2388
  4.2509   4.2563   4.2695   4.2810   4.2856   4.2883   4.3059   4.3233
  4.3271   4.3381   4.3429   4.3454   4.3491   4.3570   4.3681   4.3700
  4.3741   4.3760   4.3845   4.3946   4.3996   4.4103   4.4147   4.4178
  4.4220   4.4236   4.4286   4.4323   4.4380   4.4522   4.4590   4.4634
  4.4714   4.4817   4.4837   4.5017   4.5071   4.5101   4.5164   4.5256
  4.5461   4.5554   4.5569   4.5671   4.5718   4.5720   4.5773   4.5900
  4.6089   4.6125   4.6218   4.6266   4.6357   4.6368   4.6471   4.6552
  4.6625   4.6724   4.6848   4.6872   4.6924   4.7094   4.7165   4.7310
  4.7401   4.7564   4.7600   4.7827   4.7952   4.8004   4.8026   4.8110
  4.8263   4.8390   4.8526   4.8552   4.8750   4.8854   4.8883   4.8981
  4.9232   4.9334   4.9437   4.9564   4.9623   4.9706   4.9780   4.9806
  4.9903   4.9959   5.0096   5.0167   5.0208   5.0426   5.0495   5.0667
  5.0758   5.0881   5.0917   5.1080   5.1291   5.1551   5.1661   5.1674
  5.1826   5.1862   5.1973   5.2029   5.2109   5.2130   5.2278   5.2393
  5.2527   5.2569   5.2832   5.2900   5.2967   5.3108   5.3210   5.3291
  5.3399   5.3470   5.3527   5.3635   5.3732   5.3815   5.3915   5.4014
  5.4059   5.4199   5.4390   5.4468   5.4621   5.4709   5.4731   5.5030
  5.5132   5.5171   5.5219   5.5315   5.5654   5.5692   5.5781   5.5908
  5.5932   5.6118   5.6131   5.6286   5.6355   5.6521   5.6930   5.6956
  5.7176   5.7405   5.7670   5.7870   5.7967   5.8245   5.8368   5.8426
  5.8621   5.8855   5.9081   5.9515   5.9596   5.9642   5.9734   6.0031
  6.0104   6.0450   6.1087   6.1188   6.1302   6.1306   6.1713   6.1784
  6.1827   6.1851   6.2239   6.2480   6.2522   6.2700   6.2859   6.2959
  6.3048   6.3434   6.3686   6.4097   6.4392   6.4861   6.5059   6.5482
  6.5514   6.5708   6.6489   6.6627   6.6715   6.7185   6.7288   6.7372
  6.8099   6.8543   6.8582   6.8773   6.9022   6.9842   7.1344   7.1495
  7.1740   7.2065   7.2251   7.2403   7.3206   7.3286   7.3442   7.3701
  7.3715   7.4213   7.4584   7.4829   7.4895   7.4983   7.5129   7.5427
  7.6044   7.7436   7.7677   7.8049   7.8271   7.9042   7.9291   7.9593
  8.0018   8.1172   8.3514   8.5341   8.9315   9.0116   9.3615   9.4942
  9.6984  10.3344  11.2060  11.4176  11.9277  12.1249  12.1704  12.3428
 12.4098  12.5065  12.6602  12.9474  13.0156  13.2533  13.4838  13.6188
 13.7638  13.8795  13.9482  13.9758  14.1598  14.3190  15.0176  15.2104
 --------------------------------------------------------------
 
          Ground-State Mulliken Net Atomic Charges

     Atom                 Charge (a.u.)
  ----------------------------------------
      1 C                    -0.069464
      2 C                    -0.269316
      3 S                    -0.138804
      4 C                    -0.041201
      5 H                     0.192379
      6 C                    -0.052050
      7 C                     0.222917
      8 C                     0.219680
      9 C                    -0.074487
     10 C                    -0.051750
     11 O                    -0.336319
     12 O                    -0.344097
     13 C                    -0.082476
     14 H                     0.119109
     15 H                     0.092045
     16 H                     0.092520
     17 C                    -0.086282
     18 H                     0.122003
     19 H                     0.091977
     20 H                     0.090053
     21 C                    -0.266465
     22 S                    -0.101052
     23 C                     0.058337
     24 H                     0.207325
     25 C                    -0.135394
     26 S                     0.109141
     27 C                    -0.169926
     28 C                    -0.065780
     29 C                    -0.014252
     30 C                     0.347629
     31 C                    -0.116866
     32 S                     0.070619
     33 C                     0.457921
     34 O                    -0.439135
     35 O                    -0.296544
     36 F                    -0.210011
     37 C                    -0.054612
     38 H                     0.117614
     39 H                     0.085770
     40 H                     0.085865
     41 H                     0.219634
     42 H                     0.116134
     43 H                     0.113565
     44 H                     0.184045
  ----------------------------------------
  Sum of atomic charges =     0.000000

 -----------------------------------------------------------------
                    Cartesian Multipole Moments
 -----------------------------------------------------------------
    Charge (ESU x 10^10)
                 0.0000
    Dipole Moment (Debye)
         X       4.2157      Y       4.4157      Z       2.0020
       Tot       6.4248
    Quadrupole Moments (Debye-Ang)
        XX    -174.0006     XY      12.9669     YY    -187.9616
        XZ      -4.1803     YZ      -8.1871     ZZ    -200.6827
    Octopole Moments (Debye-Ang^2)
       XXX    -403.2285    XXY     413.4450    XYY    -150.0444
       YYY    1201.0433    XXZ     144.8173    XYZ     -55.4077
       YYZ     156.6794    XZZ     -50.5942    YZZ     527.2765
       ZZZ     520.5538
    Hexadecapole Moments (Debye-Ang^3)
      XXXX   -3968.6945   XXXY    -112.6457   XXYY   -3895.1280
      XYYY     126.3525   YYYY  -18733.6405   XXXZ     988.4325
      XXYZ     216.8170   XYYZ     401.9513   YYYZ     899.5381
      XXZZ   -1353.7551   XYZZ     217.2444   YYZZ   -4228.4593
      XZZZ     434.4628   YZZZ     507.3939   ZZZZ   -5450.4722
 -----------------------------------------------------------------
 Total job time:  337.75s(wall), 11026.55s(cpu) 
 Sun Sep 24 19:01:21 2023

        *************************************************************
        *                                                           *
        *  Thank you very much for using Q-Chem.  Have a nice day.  *
        *                                                           *
        *************************************************************


0 sent ACK to 0 
now end server 0 ... 
cleanup process ... done
remove work dirs ./qchem951701.0 -- ./qchem951701.0
rm -rf ./qchem951701.0
rm -rf ./qchem951701
