You are running Q-Chem version: 5.4.0

#
# job setting
#
local host:  exp-6-53
current dir: /expanse/lustre/projects/csd626/rramji/aromodel/PTB7_fin/Hydrogenated_Rotation_Test
input file:  fin_bdt_Phi_30_Theta_230_fin_ftt_Hydrogenated.qcin
output file: 
nprocs     : 1
nthreads   : 64
#
# qchem installation setting
#
QC:          /cm/shared/apps/spack/cpu/opt/spack/linux-centos8-zen2/gcc-10.2.0/qchem-5.4-akfmr7b3t57bfs6qan3padb2wnb2i7cl
QCAUX:       /cm/shared/apps/spack/cpu/opt/spack/linux-centos8-zen2/gcc-10.2.0/qchem-5.4-akfmr7b3t57bfs6qan3padb2wnb2i7cl/qcaux
QCPROG:      /cm/shared/apps/spack/cpu/opt/spack/linux-centos8-zen2/gcc-10.2.0/qchem-5.4-akfmr7b3t57bfs6qan3padb2wnb2i7cl/exe/qcprog.exe
QCPROG_S:    /cm/shared/apps/spack/cpu/opt/spack/linux-centos8-zen2/gcc-10.2.0/qchem-5.4-akfmr7b3t57bfs6qan3padb2wnb2i7cl/exe/qcprog.exe_s
PARALLEL:    -DPARALLEL
QCMPI:       mpich
#
# qchem directory setting
#
qcrun:       qchem2032524
QCSCRATCH:   .
QCLOCALSCR:  
QCTMPDIR:    .
QCFILEPREF:  ./qchem2032524
QCSAVEDIR:   
workdirs:    ./qchem2032524
workdir0:    ./qchem2032524
partmpdirs =  
#
# parallel setting
#
QCRSH:           ssh
QCMPI:           mpich
QCMPIRUN:        /cm/shared/apps/spack/cpu/opt/spack/linux-centos8-zen2/gcc-10.2.0/qchem-5.4-akfmr7b3t57bfs6qan3padb2wnb2i7cl/bin/mpi/mpirun_qchem
QCMACHINEFILE:   ./qchem2032524/hostfile
exp-6-53

#
# env setting
#
exported envs:   QC QCAUX QCSCRATCH QCRUNNAME QCFILEPREF QCPROG QCPROG_S GUIFILE

Running Job 1 of 1 fin_bdt_Phi_30_Theta_230_fin_ftt_Hydrogenated.qcin
qchem fin_bdt_Phi_30_Theta_230_fin_ftt_Hydrogenated.qcin_2032524.0 ./qchem2032524/ 1
/cm/shared/apps/spack/cpu/opt/spack/linux-centos8-zen2/gcc-10.2.0/qchem-5.4-akfmr7b3t57bfs6qan3padb2wnb2i7cl/bin/mpi/mpirun_qchem -machinefile ./qchem2032524/hostfile -np 1 /cm/shared/apps/spack/cpu/opt/spack/linux-centos8-zen2/gcc-10.2.0/qchem-5.4-akfmr7b3t57bfs6qan3padb2wnb2i7cl/exe/qcprog.exe fin_bdt_Phi_30_Theta_230_fin_ftt_Hydrogenated.qcin_2032524.0 ./qchem2032524/

Process 0 of 1 is on exp-6-53 - thread support 0
initial socket setup ...start
initial socket setup ...done 
now start server 0 ... 
                  Welcome to Q-Chem
     A Quantum Leap Into The Future Of Chemistry


 Q-Chem 5.4, Q-Chem, Inc., Pleasanton, CA (2021)

 License issued to: University of California, San Diego (site)

 E. Epifanovsky,  A. T. B. Gilbert,  Xintian Feng,  Joonho Lee,  Yuezhi Mao,  
 N. Mardirossian,  P. Pokhilko,  A. White,  M. Wormit,  M. P. Coons,  
 A. L. Dempwolff,  Zhengting Gan,  D. Hait,  P. R. Horn,  L. D. Jacobson,  
 I. Kaliman,  J. Kussmann,  A. W. Lange,  Ka Un Lao,  D. S. Levine,  Jie Liu,  
 S. C. McKenzie,  A. F. Morrison,  K. Nanda,  F. Plasser,  D. R. Rehn,  
 M. L. Vidal,  Zhi-Qiang You,  Ying Zhu,  B. Alam,  B. Albrecht,  
 A. Aldossary,  E. Alguire,  J. H. Andersen,  D. Barton,  K. Begam,  A. Behn,  
 Y. A. Bernard,  E. J. Berquist,  H. Burton,  A. Carreras,  K. Carter-Fenk,  
 R. Chakraborty,  A. D. Chien,  K. D. Closser,  V. Cofer-Shabica,  
 S. Dasgupta,  Jia Deng,  M. de Wergifosse,  M. Diedenhofen,  Hainam Do,  
 S. Ehlert,  Po-Tung Fang,  S. Fatehi,  Qingguo Feng,  J. Gayvert,  
 Qinghui Ge,  G. Gidofalvi,  M. Goldey,  J. Gomes,  C. Gonzalez-Espinoza,  
 S. Gulania,  A. Gunina,  M. W. D. Hanson-Heine,  P. H. P. Harbach,  
 A. W. Hauser,  M. F. Herbst,  M. Hernandez Vera,  M. Hodecker,  
 Z. C. Holden,  S. Houck,  Xunkun Huang,  Kerwin Hui,  B. C. Huynh,  
 M. Ivanov,  Hyunjun Ji,  Hanjie Jiang,  B. Kaduk,  S. Kaehler,  
 K. Khistyaev,  Jaehoon Kim,  P. Klunzinger,  Z. Koczor-Benda,  
 Joong Hoon Koh,  D. Kosenkov,  L. Koulias,  T. Kowalczyk,  C. M. Krauter,  
 K. Kue,  A. Kunitsa,  T. Kus,  A. Landau,  K. V. Lawler,  D. Lefrancois,  
 S. Lehtola,  Rain Li,  Yi-Pei Li,  Jiashu Liang,  M. Liebenthal,  
 Hung-Hsuan Lin,  You-Sheng Lin,  Fenglai Liu,  Kuan-Yu Liu,  
 M. Loipersberger,  A. Luenser,  A. Manjanath,  P. Manohar,  E. Mansoor,  
 S. F. Manzer,  Shan-Ping Mao,  A. V. Marenich,  T. Markovich,  S. Mason,  
 S. A. Maurer,  P. F. McLaughlin,  M. F. S. J. Menger,  J.-M. Mewes,  
 S. A. Mewes,  P. Morgante,  J. W. Mullinax,  T. S. Nguyen-Beck,  
 K. J. Oosterbaan,  G. Paran,  Alexander C. Paul,  Suranjan K. Paul,  
 F. Pavosevic,  Zheng Pei,  S. Prager,  E. I. Proynov,  E. Ramos,  B. Rana,  
 A. E. Rask,  A. Rettig,  R. M. Richard,  F. Rob,  E. Rossomme,  T. Scheele,  
 M. Scheurer,  M. Schneider,  N. Sergueev,  S. M. Sharada,  W. Skomorowski,  
 D. W. Small,  C. J. Stein,  Yu-Chuan Su,  E. J. Sundstrom,  Zhen Tao,  
 J. Thirman,  T. Tsuchimochi,  N. M. Tubman,  S. P. Veccham,  O. Vydrov,  
 J. Wenzel,  J. Witte,  A. Yamada,  Kun Yao,  S. Yeganeh,  S. R. Yost,  
 A. Zech,  Igor Ying Zhang,  Xing Zhang,  Yu Zhang,  D. Zuev,  
 A. Aspuru-Guzik,  A. T. Bell,  N. A. Besley,  K. B. Bravaya,  B. R. Brooks,  
 D. Casanova,  Jeng-Da Chai,  S. Coriani,  C. J. Cramer,  
 A. E. DePrince, III,  R. A. DiStasio Jr.,  A. Dreuw,  B. D. Dunietz,  
 T. R. Furlani,  W. A. Goddard III,  S. Grimme,  S. Hammes-Schiffer,  
 T. Head-Gordon,  W. J. Hehre,  Chao-Ping Hsu,  T.-C. Jagau,  Yousung Jung,  
 A. Klamt,  Jing Kong,  D. S. Lambrecht,  WanZhen Liang,  N. J. Mayhall,  
 C. W. McCurdy,  J. B. Neaton,  C. Ochsenfeld,  J. A. Parkhill,  R. Peverati,  
 V. A. Rassolov,  Yihan Shao,  L. V. Slipchenko,  T. Stauch,  R. P. Steele,  
 J. E. Subotnik,  A. J. W. Thom,  A. Tkatchenko,  D. G. Truhlar,  
 T. Van Voorhis,  T. A. Wesolowski,  K. B. Whaley,  H. L. Woodcock III,  
 P. M. Zimmerman,  S. Faraji,  P. M. W. Gill,  M. Head-Gordon,  
 J. M. Herbert,  A. I. Krylov

 Contributors to earlier versions of Q-Chem not listed above: 
 R. D. Adamson,  B. Austin,  R. Baer,  J. Baker,  G. J. O. Beran,  
 K. Brandhorst,  S. T. Brown,  E. F. C. Byrd,  A. K. Chakraborty,  
 G. K. L. Chan,  Chun-Min Chang,  Yunqing Chen,  C.-L. Cheng,  
 Siu Hung Chien,  D. M. Chipman,  D. L. Crittenden,  H. Dachsel,  
 R. J. Doerksen,  A. D. Dutoi,  R. G. Edgar,  J. Fosso-Tande,  
 L. Fusti-Molnar,  D. Ghosh,  A. Ghysels,  A. Golubeva-Zadorozhnaya,  
 J. Gonthier,  M. S. Gordon,  S. R. Gwaltney,  G. Hawkins,  J. E. Herr,  
 A. Heyden,  S. Hirata,  E. G. Hohenstein,  G. Kedziora,  F. J. Keil,  
 C. Kelley,  Jihan Kim,  R. A. King,  R. Z. Khaliullin,  P. P. Korambath,  
 W. Kurlancheek,  A. Laurent,  A. M. Lee,  M. S. Lee,  S. V. Levchenko,  
 Ching Yeh Lin,  D. Liotard,  E. Livshits,  R. C. Lochan,  I. Lotan,  
 L. A. Martinez-Martinez,  P. E. Maslen,  N. Nair,  D. P. O'Neill,  
 D. Neuhauser,  E. Neuscamman,  C. M. Oana,  R. Olivares-Amaya,  R. Olson,  
 T. M. Perrine,  B. Peters,  P. A. Pieniazek,  A. Prociuk,  Y. M. Rhee,  
 J. Ritchie,  M. A. Rohrdanz,  E. Rosta,  N. J. Russ,  H. F. Schaefer III,  
 M. W. Schmidt,  N. E. Schultz,  S. Sharma,  N. Shenvi,  C. D. Sherrill,  
 A. C. Simmonett,  A. Sodt,  T. Stein,  D. Stuck,  K. S. Thanthiriwatte,  
 V. Vanovschi,  L. Vogt,  Tao Wang,  A. Warshel,  M. A. Watson,  
 C. F. Williams,  Q. Wu,  X. Xu,  Jun Yang,  W. Zhang,  Yan Zhao

 Please cite Q-Chem as follows:
 Y. Shao et al., Mol. Phys. 113, 184-215 (2015)
 DOI: 10.1080/00268976.2014.952696

 Q-Chem 5.4.0 for Intel X86 EM64T Linux

 Parts of Q-Chem use Armadillo 9.800.1 (Horizon Scraper).
 http://arma.sourceforge.net/

 Q-Chem begins on Sun Sep 24 18:30:24 2023  

 Host: 
0

     Scratch files written to ./qchem2032524//
 May1621 |scratch|qcdevops|jenkins|workspace|build_RNUM    
 Parallel job on  1  processors
 Processing $rem in /cm/shared/apps/spack/cpu/opt/spack/linux-centos8-zen2/gcc-10.2.0/qchem-5.4-akfmr7b3t57bfs6qan3padb2wnb2i7cl/config/preferences:
 Processing $rem in /home/rramji/.qchemrc:
 Symmetry turned off for PCM/SM12/SMD calculation
 Core orbitals will be frozen

 Checking the input file for inconsistencies... 	...done.

 Q-Chem warning in module forms1/BasisType.C, line 2236:

 You are not using the predefined 5D/6D in this basis set.


--------------------------------------------------------------
User input:
--------------------------------------------------------------
$molecule
0 1
C	0.235993	-8.519741	-0.135457
C	-0.577858	-7.635967	0.558188
S	1.414705	-7.651740	-1.148850
C	-0.283020	-6.261894	0.308648
H	-1.377597	-7.954738	1.238560
C	0.810887	-6.079985	-0.609026
C	1.231581	-4.798382	-0.996828
C	-0.982901	-5.153542	0.865740
C	-0.564713	-3.869626	0.474408
C	0.532196	-3.688927	-0.442046
O	-1.976332	-5.481075	1.738137
O	2.228709	-4.479871	-1.874052
C	3.340298	-5.356026	-2.016062
H	4.110807	-4.790496	-2.573877
H	3.085998	-6.268513	-2.598484
H	3.751679	-5.658187	-1.028695
C	-3.007565	-4.546999	2.033195
H	-3.778655	-5.107564	2.594833
H	-3.461650	-4.131473	1.108067
H	-2.645264	-3.712085	2.671451
C	0.822814	-2.314326	-0.691020
S	-1.178037	-2.295487	1.005649
C	-0.000000	-1.435180	-0.000000
H	1.623656	-1.993211	-1.368875
C	0.000000	0.000000	0.000000
S	0.451648	0.777811	1.510732
C	1.238377	2.142617	0.727629
C	0.454085	0.786559	-1.064665
C	1.147169	1.990043	-0.678287
C	0.422325	0.728240	-2.486150
C	1.054629	1.823683	-3.106916
S	1.675491	2.905718	-1.965735
C	1.185914	2.041729	-4.559972
O	0.721749	1.231802	-5.350277
O	1.830313	3.151386	-5.004375
F	-0.131347	-0.238577	-3.246290
C	2.018453	3.456956	-6.334976
H	2.571455	4.413580	-6.370268
H	1.052178	3.565244	-6.875609
H	2.601950	2.669768	-6.861878
H	1.698444	2.939346	1.321510
H	-0.349939	-9.146471	-0.817932
H	0.815247	-9.150570	0.548939
H	-0.700647	-1.444158	-0.821835
$end

$rem
JOBTYPE		SP
EXCHANGE	HF
CORRELATION	pRIMP2
BASIS		cc-pvtz
METHOD		rimp2
AUX_BASIS	rimp2-cc-pvtz
SOLVENT_METHOD	PCM
PURECART	11111
SYMMETRY	false
MEM_TOTAL	110000
SCF_CONVERGENCE = 6
THRESH=10
GUI = 2
$end



$solvent
dielectric 4.90
$end
--------------------------------------------------------------
 ----------------------------------------------------------------
             Standard Nuclear Orientation (Angstroms)
    I     Atom           X                Y                Z
 ----------------------------------------------------------------
    1      C       0.2359930000    -8.5197410000    -0.1354570000
    2      C      -0.5778580000    -7.6359670000     0.5581880000
    3      S       1.4147050000    -7.6517400000    -1.1488500000
    4      C      -0.2830200000    -6.2618940000     0.3086480000
    5      H      -1.3775970000    -7.9547380000     1.2385600000
    6      C       0.8108870000    -6.0799850000    -0.6090260000
    7      C       1.2315810000    -4.7983820000    -0.9968280000
    8      C      -0.9829010000    -5.1535420000     0.8657400000
    9      C      -0.5647130000    -3.8696260000     0.4744080000
   10      C       0.5321960000    -3.6889270000    -0.4420460000
   11      O      -1.9763320000    -5.4810750000     1.7381370000
   12      O       2.2287090000    -4.4798710000    -1.8740520000
   13      C       3.3402980000    -5.3560260000    -2.0160620000
   14      H       4.1108070000    -4.7904960000    -2.5738770000
   15      H       3.0859980000    -6.2685130000    -2.5984840000
   16      H       3.7516790000    -5.6581870000    -1.0286950000
   17      C      -3.0075650000    -4.5469990000     2.0331950000
   18      H      -3.7786550000    -5.1075640000     2.5948330000
   19      H      -3.4616500000    -4.1314730000     1.1080670000
   20      H      -2.6452640000    -3.7120850000     2.6714510000
   21      C       0.8228140000    -2.3143260000    -0.6910200000
   22      S      -1.1780370000    -2.2954870000     1.0056490000
   23      C       0.0000000000    -1.4351800000     0.0000000000
   24      H       1.6236560000    -1.9932110000    -1.3688750000
   25      C       0.0000000000     0.0000000000     0.0000000000
   26      S       0.4516480000     0.7778110000     1.5107320000
   27      C       1.2383770000     2.1426170000     0.7276290000
   28      C       0.4540850000     0.7865590000    -1.0646650000
   29      C       1.1471690000     1.9900430000    -0.6782870000
   30      C       0.4223250000     0.7282400000    -2.4861500000
   31      C       1.0546290000     1.8236830000    -3.1069160000
   32      S       1.6754910000     2.9057180000    -1.9657350000
   33      C       1.1859140000     2.0417290000    -4.5599720000
   34      O       0.7217490000     1.2318020000    -5.3502770000
   35      O       1.8303130000     3.1513860000    -5.0043750000
   36      F      -0.1313470000    -0.2385770000    -3.2462900000
   37      C       2.0184530000     3.4569560000    -6.3349760000
   38      H       2.5714550000     4.4135800000    -6.3702680000
   39      H       1.0521780000     3.5652440000    -6.8756090000
   40      H       2.6019500000     2.6697680000    -6.8618780000
   41      H       1.6984440000     2.9393460000     1.3215100000
   42      H      -0.3499390000    -9.1464710000    -0.8179320000
   43      H       0.8152470000    -9.1505700000     0.5489390000
   44      H      -0.7006470000    -1.4441580000    -0.8218350000
 ----------------------------------------------------------------
 Nuclear Repulsion Energy =        3377.01144966 hartrees
 There are      120 alpha and      120 beta electrons
 Requested basis set is cc-pVTZ
 There are 388 shells and 1096 basis functions

 Total QAlloc Memory Limit 110000 MB
 Mega-Array Size       188 MB
 MEM_STATIC part       192 MB
 Discretize the solute cavity surface with Lebedev spheres
	Using 110 Lebedev grid points for each H atom
	Using 194 Lebedev grid points for other atoms
	Atomic van der Waals radii will be scaled by 1.20
 Remove points where switching function is < 1.0e-08
 Keep 2967 surface tesserae and discard 4309 interior tesserae
 Molecular Surface Area = 440.632 Angst**2
 Requested basis set is rimp2-cc-pVTZ
 There are 853 shells and 2963 basis functions
 A cutoff of  1.0D-10 yielded  33800 shell pairs
 There are    254938 function pairs (    329642 Cartesian)
 Smallest overlap matrix eigenvalue = 2.11E-05

 Scale SEOQF with 1.000000e-01/1.000000e-02/1.000000e-02

 Standard Electronic Orientation quadrupole field applied
 Nucleus-field energy     =     0.0000000338 hartrees
 Guess from superposition of atomic densities
 Warning:  Energy on first SCF cycle will be non-variational
 SAD guess density has 240.000000 electrons

 -----------------------------------------------------------------------
  General SCF calculation program by
  Eric Jon Sundstrom, Paul Horn, Yuezhi Mao, Dmitri Zuev, Alec White,
  David Stuck, Shaama M.S., Shane Yost, Joonho Lee, David Small,
  Daniel Levine, Susi Lehtola, Hugh Burton, Evgeny Epifanovsky,
  Bang C. Huynh
 -----------------------------------------------------------------------
 Hartree-Fock
 using 64 threads for integral computing
 -------------------------------------------------------
 OpenMP Integral computing Module                
 Release: version 1.0, May 2013, Q-Chem Inc. Pittsburgh 
 -------------------------------------------------------
 A restricted SCF calculation will be
 performed using DIIS
 SCF converges when DIIS error is below 1.0e-06
 ---------------------------------------
  Cycle       Energy         DIIS error
 ---------------------------------------
    1   -2767.3547517348      1.77e-02  
    2   -2754.8580196678      1.54e-03  
    3   -2755.2063541286      8.77e-04  
    4   -2755.2967036009      2.55e-04  
    5   -2755.3102630530      7.23e-05  
    6   -2755.3117535307      2.57e-05  
    7   -2755.3121391425      1.34e-05  
    8   -2755.3122613074      5.69e-06  
    9   -2755.3122903840      3.05e-06  
   10   -2755.3122977705      1.45e-06  
   11   -2755.3122999783      7.32e-07  Convergence criterion met
 ---------------------------------------
 SCF time:   CPU 7424.65s  wall 274.00s 

************** Final PCM Free Energy Summary **************
 G_electrostatic  =      -0.02142434 hartree =     -13.44397396 kcal/mol
 G_cavitation     =       0.00000000 hartree =       0.00000000 kcal/mol
 G_dispersion     =       0.00000000 hartree =       0.00000000 kcal/mol
 G_repulsion      =       0.00000000 hartree =       0.00000000 kcal/mol
 --------------------------------------------------
 Non-electrostatic Free Energy =       0.00000000 hartree =       0.00000000 kcal/mol
 Total                         =      -0.02142434 hartree =     -13.44397396 kcal/mol
 --------------------------------------------------
 SCF Energy (H0 + V/2)                       =   -2755.31229998 
 Solute Internal Energy (H0)                 =   -2755.29087564 
 Total Free Energy (H0 + V/2 + non-elec)     =   -2755.31229998 hartree
                                             = -1728984.56379916 kcal/mol
***********************************************************

 SCF   energy in the final basis set =    -2755.3122999783
 Total energy in the final basis set =    -2755.3122999783


 --------------------------------------------------------------
  Generalized many-body perturbation theory program
  by Joonho Lee, Fazle Rob, Xintian Feng, Evgeny Epifanovsky

 No regularization used 
 (reg. param. = 0.0000e+00)
  (P|Q)^-1/2 Time:  CPU 127.52 s  wall 2.02 s

 In RI-MP2 calculation: 
 # of frozen core orbitals: 45

 Components of the RIMP2 correlation energy:
        aaaa    correlation energy =        -0.6713017758 a.u.
        abab    correlation energy =        -3.7549688508 a.u.
        bbbb    correlation energy =        -0.6713017758 a.u.
        non-Brillouin singles      =        -0.0000000000 a.u.
        total same-spin energy     =        -1.3426035516 a.u.
        total opposite-spin energy =        -3.7549688508 a.u.

 Total  RIMP2   correlation energy =        -5.0975724024 a.u.
        RIMP2         total energy =     -2760.4098723807 a.u.

 RI-MP2 Energy Time:  CPU 2854.10 s  wall 46.44 s
 
 --------------------------------------------------------------
 
                    Orbital Energies (a.u.)
 --------------------------------------------------------------
 
 Alpha MOs
 -- Occupied --
-92.0128 -91.9984 -91.9783 -91.9578 -26.3385 -20.6137 -20.5870 -20.5868
-20.5525 -11.4126 -11.3795 -11.3090 -11.3082 -11.3074 -11.3017 -11.3000
-11.2988 -11.2894 -11.2868 -11.2845 -11.2831 -11.2824 -11.2806 -11.2733
-11.2725 -11.2580 -11.2578 -11.2493 -11.2365  -9.0117  -9.0023  -8.9804
 -8.9604  -6.6924  -6.6917  -6.6913  -6.6835  -6.6829  -6.6815  -6.6616
 -6.6607  -6.6594  -6.6417  -6.6407  -6.6397  -1.6515  -1.4736  -1.4103
 -1.4086  -1.3691  -1.2410  -1.2088  -1.1752  -1.1444  -1.0997  -1.0528
 -1.0460  -1.0302  -1.0087  -0.9979  -0.9732  -0.9597  -0.9488  -0.9413
 -0.8937  -0.8748  -0.8618  -0.8080  -0.7955  -0.7856  -0.7789  -0.7729
 -0.7616  -0.7336  -0.7207  -0.7186  -0.6979  -0.6931  -0.6864  -0.6800
 -0.6756  -0.6735  -0.6557  -0.6484  -0.6358  -0.6271  -0.6197  -0.6147
 -0.6113  -0.6081  -0.5976  -0.5943  -0.5816  -0.5677  -0.5581  -0.5549
 -0.5447  -0.5337  -0.5298  -0.5230  -0.5125  -0.5074  -0.5049  -0.5017
 -0.4877  -0.4843  -0.4745  -0.4697  -0.4628  -0.4627  -0.4603  -0.4459
 -0.4253  -0.4010  -0.3852  -0.3698  -0.3509  -0.2946  -0.2881  -0.2184
 -- Virtual --
  0.0201   0.0542   0.1125   0.1295   0.1398   0.1454   0.1535   0.1550
  0.1590   0.1602   0.1629   0.1733   0.1820   0.1862   0.1877   0.1976
  0.2023   0.2029   0.2038   0.2070   0.2163   0.2212   0.2231   0.2277
  0.2296   0.2326   0.2387   0.2466   0.2533   0.2575   0.2638   0.2694
  0.2749   0.2918   0.3091   0.3137   0.3284   0.3365   0.3425   0.3456
  0.3489   0.3575   0.3600   0.3648   0.3679   0.3714   0.3793   0.3814
  0.3880   0.3893   0.3907   0.4047   0.4127   0.4128   0.4186   0.4215
  0.4267   0.4277   0.4310   0.4339   0.4374   0.4390   0.4456   0.4483
  0.4557   0.4608   0.4639   0.4663   0.4699   0.4729   0.4770   0.4812
  0.4835   0.4927   0.4971   0.4977   0.5074   0.5103   0.5155   0.5195
  0.5268   0.5278   0.5311   0.5377   0.5392   0.5429   0.5464   0.5499
  0.5560   0.5586   0.5601   0.5629   0.5682   0.5699   0.5763   0.5812
  0.5854   0.5874   0.5905   0.5932   0.5980   0.6017   0.6074   0.6135
  0.6158   0.6173   0.6181   0.6199   0.6214   0.6259   0.6305   0.6333
  0.6380   0.6390   0.6433   0.6452   0.6479   0.6506   0.6541   0.6558
  0.6596   0.6638   0.6684   0.6750   0.6782   0.6802   0.6923   0.6963
  0.7018   0.7046   0.7096   0.7142   0.7198   0.7239   0.7335   0.7424
  0.7478   0.7551   0.7584   0.7616   0.7705   0.7776   0.7831   0.7873
  0.7926   0.7950   0.7967   0.8036   0.8086   0.8115   0.8172   0.8236
  0.8313   0.8360   0.8430   0.8568   0.8639   0.8662   0.8705   0.8797
  0.8876   0.8931   0.8964   0.9011   0.9039   0.9058   0.9121   0.9183
  0.9215   0.9256   0.9341   0.9359   0.9420   0.9471   0.9513   0.9568
  0.9593   0.9647   0.9668   0.9725   0.9787   0.9874   0.9886   0.9919
  0.9999   1.0011   1.0066   1.0087   1.0153   1.0215   1.0241   1.0333
  1.0351   1.0407   1.0425   1.0486   1.0557   1.0588   1.0631   1.0684
  1.0709   1.0729   1.0803   1.0825   1.0948   1.0956   1.0996   1.1136
  1.1166   1.1176   1.1275   1.1286   1.1337   1.1408   1.1491   1.1508
  1.1580   1.1617   1.1647   1.1687   1.1717   1.1738   1.1766   1.1782
  1.1835   1.1901   1.1924   1.1998   1.2004   1.2081   1.2142   1.2162
  1.2211   1.2266   1.2337   1.2389   1.2430   1.2478   1.2527   1.2587
  1.2629   1.2659   1.2731   1.2824   1.2867   1.2898   1.2934   1.3002
  1.3029   1.3122   1.3188   1.3213   1.3294   1.3382   1.3391   1.3427
  1.3460   1.3531   1.3572   1.3666   1.3774   1.3841   1.3966   1.4011
  1.4084   1.4127   1.4139   1.4209   1.4299   1.4354   1.4453   1.4611
  1.4631   1.4704   1.4765   1.4802   1.4862   1.4900   1.4956   1.5003
  1.5071   1.5112   1.5129   1.5205   1.5252   1.5270   1.5315   1.5398
  1.5408   1.5474   1.5501   1.5597   1.5624   1.5703   1.5737   1.5739
  1.5800   1.5902   1.6015   1.6091   1.6185   1.6259   1.6292   1.6335
  1.6437   1.6518   1.6567   1.6581   1.6643   1.6709   1.6761   1.6847
  1.6927   1.6994   1.7055   1.7153   1.7203   1.7281   1.7374   1.7415
  1.7574   1.7614   1.7678   1.7851   1.7920   1.8009   1.8039   1.8154
  1.8266   1.8321   1.8373   1.8405   1.8508   1.8641   1.8662   1.8741
  1.8803   1.8892   1.9040   1.9133   1.9158   1.9241   1.9294   1.9376
  1.9445   1.9550   1.9603   1.9702   1.9729   1.9805   1.9925   2.0024
  2.0163   2.0194   2.0270   2.0309   2.0395   2.0412   2.0504   2.0562
  2.0721   2.0773   2.0858   2.0952   2.1057   2.1100   2.1273   2.1320
  2.1431   2.1511   2.1530   2.1586   2.1721   2.1804   2.1866   2.1951
  2.1955   2.2009   2.2140   2.2188   2.2286   2.2320   2.2364   2.2398
  2.2507   2.2528   2.2605   2.2724   2.2766   2.2820   2.2948   2.2972
  2.3007   2.3089   2.3177   2.3281   2.3305   2.3441   2.3565   2.3618
  2.3700   2.3881   2.3952   2.4015   2.4051   2.4113   2.4184   2.4344
  2.4413   2.4436   2.4580   2.4701   2.4737   2.4821   2.4902   2.5052
  2.5123   2.5235   2.5275   2.5330   2.5400   2.5536   2.5643   2.5773
  2.5861   2.5956   2.5997   2.6027   2.6094   2.6215   2.6244   2.6270
  2.6278   2.6368   2.6430   2.6489   2.6506   2.6581   2.6615   2.6730
  2.6837   2.6910   2.6953   2.6972   2.7017   2.7031   2.7187   2.7240
  2.7283   2.7354   2.7400   2.7476   2.7506   2.7642   2.7663   2.7700
  2.7755   2.7883   2.7932   2.7992   2.8084   2.8141   2.8278   2.8310
  2.8358   2.8472   2.8564   2.8609   2.8631   2.8667   2.8731   2.8759
  2.8791   2.8855   2.9016   2.9098   2.9211   2.9233   2.9392   2.9470
  2.9496   2.9534   2.9585   2.9661   2.9801   2.9827   2.9943   3.0064
  3.0116   3.0143   3.0213   3.0312   3.0360   3.0422   3.0442   3.0464
  3.0557   3.0640   3.0670   3.0822   3.0895   3.0928   3.0933   3.1024
  3.1072   3.1091   3.1200   3.1264   3.1310   3.1382   3.1426   3.1484
  3.1516   3.1580   3.1632   3.1646   3.1679   3.1727   3.1799   3.1821
  3.1864   3.1940   3.2018   3.2037   3.2076   3.2150   3.2199   3.2242
  3.2351   3.2378   3.2443   3.2478   3.2523   3.2542   3.2608   3.2687
  3.2735   3.2747   3.2787   3.2808   3.2886   3.2935   3.2947   3.3015
  3.3066   3.3090   3.3133   3.3183   3.3191   3.3313   3.3409   3.3471
  3.3504   3.3521   3.3555   3.3586   3.3601   3.3640   3.3662   3.3701
  3.3750   3.3803   3.3864   3.3946   3.3975   3.4027   3.4066   3.4113
  3.4166   3.4192   3.4249   3.4276   3.4335   3.4369   3.4428   3.4449
  3.4513   3.4516   3.4584   3.4609   3.4703   3.4774   3.4797   3.4846
  3.4911   3.4990   3.5021   3.5109   3.5192   3.5210   3.5245   3.5356
  3.5464   3.5511   3.5533   3.5580   3.5640   3.5728   3.5832   3.5873
  3.5893   3.5936   3.5969   3.6015   3.6057   3.6107   3.6144   3.6203
  3.6289   3.6305   3.6378   3.6402   3.6437   3.6486   3.6530   3.6604
  3.6624   3.6672   3.6766   3.6785   3.6823   3.6848   3.6941   3.6953
  3.7043   3.7088   3.7097   3.7169   3.7237   3.7253   3.7286   3.7324
  3.7334   3.7405   3.7498   3.7521   3.7626   3.7647   3.7688   3.7837
  3.7907   3.7912   3.7950   3.8051   3.8063   3.8124   3.8158   3.8238
  3.8291   3.8353   3.8390   3.8440   3.8472   3.8506   3.8524   3.8617
  3.8667   3.8762   3.8815   3.8872   3.8888   3.8979   3.9054   3.9149
  3.9191   3.9314   3.9346   3.9375   3.9455   3.9508   3.9527   3.9591
  3.9663   3.9684   3.9835   3.9893   3.9942   3.9996   4.0149   4.0170
  4.0223   4.0277   4.0298   4.0444   4.0500   4.0576   4.0615   4.0683
  4.0730   4.0776   4.0845   4.0878   4.0945   4.1036   4.1128   4.1184
  4.1365   4.1422   4.1546   4.1616   4.1693   4.1733   4.1784   4.1817
  4.1831   4.1861   4.2006   4.2067   4.2147   4.2233   4.2372   4.2436
  4.2482   4.2505   4.2618   4.2716   4.2835   4.2941   4.3027   4.3100
  4.3184   4.3273   4.3297   4.3422   4.3476   4.3532   4.3580   4.3645
  4.3753   4.3771   4.3800   4.3868   4.3963   4.4051   4.4124   4.4186
  4.4256   4.4260   4.4279   4.4328   4.4446   4.4459   4.4514   4.4659
  4.4679   4.4753   4.4851   4.4929   4.4985   4.5158   4.5176   4.5247
  4.5398   4.5474   4.5537   4.5587   4.5680   4.5759   4.5832   4.5933
  4.5980   4.6132   4.6157   4.6237   4.6361   4.6392   4.6425   4.6561
  4.6639   4.6657   4.6779   4.6825   4.6862   4.6971   4.7158   4.7254
  4.7331   4.7446   4.7514   4.7803   4.7827   4.7963   4.8036   4.8186
  4.8202   4.8351   4.8371   4.8459   4.8695   4.8750   4.8788   4.8933
  4.9176   4.9232   4.9390   4.9434   4.9575   4.9653   4.9700   4.9843
  4.9880   5.0041   5.0089   5.0107   5.0167   5.0278   5.0427   5.0470
  5.0714   5.0796   5.0969   5.1071   5.1214   5.1612   5.1665   5.1713
  5.1858   5.1934   5.1991   5.2028   5.2145   5.2215   5.2259   5.2388
  5.2541   5.2583   5.2724   5.2874   5.2945   5.3157   5.3264   5.3349
  5.3352   5.3509   5.3543   5.3602   5.3680   5.3777   5.3895   5.4000
  5.4022   5.4063   5.4203   5.4440   5.4722   5.4745   5.4952   5.4982
  5.5092   5.5200   5.5223   5.5482   5.5626   5.5670   5.5786   5.5849
  5.5973   5.6101   5.6157   5.6202   5.6329   5.6449   5.6690   5.6914
  5.7191   5.7358   5.7651   5.7813   5.7993   5.8276   5.8319   5.8508
  5.8592   5.8854   5.9039   5.9569   5.9665   5.9687   5.9804   6.0038
  6.0355   6.0629   6.1158   6.1262   6.1325   6.1438   6.1724   6.1768
  6.1845   6.2018   6.2269   6.2404   6.2516   6.2688   6.2855   6.2939
  6.3072   6.3418   6.3666   6.4312   6.4747   6.4941   6.5287   6.5547
  6.5565   6.5704   6.6509   6.6748   6.6850   6.7196   6.7389   6.7451
  6.8095   6.8584   6.8586   6.8811   6.8993   6.9898   7.1315   7.1468
  7.1769   7.2097   7.2221   7.2400   7.3244   7.3276   7.3418   7.3699
  7.3725   7.4265   7.4610   7.4828   7.4864   7.4979   7.5187   7.5472
  7.6120   7.7369   7.7673   7.8034   7.8301   7.9083   7.9279   7.9570
  8.0030   8.1212   8.3504   8.5793   8.9313   9.0081   9.3623   9.4978
  9.6995  10.3128  11.2438  11.3983  11.9379  12.0053  12.1254  12.3576
 12.4174  12.4914  12.7041  12.9348  13.0010  13.2581  13.4754  13.5211
 13.7090  13.8740  13.9246  13.9530  14.1812  14.3161  15.1343  15.2607
 --------------------------------------------------------------
 
          Ground-State Mulliken Net Atomic Charges

     Atom                 Charge (a.u.)
  ----------------------------------------
      1 C                    -0.070210
      2 C                    -0.261070
      3 S                    -0.135581
      4 C                    -0.046514
      5 H                     0.193248
      6 C                    -0.052991
      7 C                     0.222559
      8 C                     0.231473
      9 C                    -0.075755
     10 C                    -0.035522
     11 O                    -0.334871
     12 O                    -0.343067
     13 C                    -0.082703
     14 H                     0.120086
     15 H                     0.092334
     16 H                     0.092445
     17 C                    -0.087109
     18 H                     0.123823
     19 H                     0.092735
     20 H                     0.089867
     21 C                    -0.301807
     22 S                    -0.081735
     23 C                     0.087193
     24 H                     0.207798
     25 C                    -0.069855
     26 S                     0.107393
     27 C                    -0.222310
     28 C                    -0.119317
     29 C                    -0.008254
     30 C                     0.380409
     31 C                    -0.139587
     32 S                     0.048071
     33 C                     0.460464
     34 O                    -0.447520
     35 O                    -0.297674
     36 F                    -0.214213
     37 C                    -0.054950
     38 H                     0.117008
     39 H                     0.084983
     40 H                     0.084964
     41 H                     0.215141
     42 H                     0.117331
     43 H                     0.114767
     44 H                     0.198523
  ----------------------------------------
  Sum of atomic charges =     0.000000

 -----------------------------------------------------------------
                    Cartesian Multipole Moments
 -----------------------------------------------------------------
    Charge (ESU x 10^10)
                 0.0000
    Dipole Moment (Debye)
         X       1.5149      Y       3.4454      Z       2.6279
       Tot       4.5904
    Quadrupole Moments (Debye-Ang)
        XX    -181.0918     XY      10.2491     YY    -177.9601
        XZ     -12.1208     YZ     -12.2390     ZZ    -203.2411
    Octopole Moments (Debye-Ang^2)
       XXX    -288.3272    XXY     354.0861    XYY     -93.2108
       YYY    1064.1699    XXZ     169.5405    XYZ       6.0204
       YYZ     169.5353    XZZ     -43.8162    YZZ     508.3177
       ZZZ     571.4789
    Hexadecapole Moments (Debye-Ang^3)
      XXXX   -2395.4734   XXXY    -185.6728   XXYY   -3741.7005
      XYYY      95.2187   YYYY  -19292.8178   XXXZ    1146.9662
      XXYZ     282.9091   XYYZ     223.2468   YYYZ     619.3279
      XXZZ   -1298.3118   XYZZ     186.7475   YYZZ   -4363.5965
      XZZZ     907.4809   YZZZ     314.4740   ZZZZ   -6396.3195
 -----------------------------------------------------------------
 Total job time:  325.91s(wall), 10384.42s(cpu) 
 Sun Sep 24 18:35:50 2023

        *************************************************************
        *                                                           *
        *  Thank you very much for using Q-Chem.  Have a nice day.  *
        *                                                           *
        *************************************************************


0 sent ACK to 0 
now end server 0 ... 
cleanup process ... done
remove work dirs ./qchem2032524.0 -- ./qchem2032524.0
rm -rf ./qchem2032524.0
rm -rf ./qchem2032524
