You are running Q-Chem version: 5.4.0

#
# job setting
#
local host:  exp-2-55
current dir: /expanse/lustre/projects/csd626/rramji/aromodel/PTB7_fin/Hydrogenated_Rotation_Test
input file:  fin_bdt_Phi_10_Theta_30_fin_ftt_Hydrogenated.qcin
output file: 
nprocs     : 1
nthreads   : 64
#
# qchem installation setting
#
QC:          /cm/shared/apps/spack/cpu/opt/spack/linux-centos8-zen2/gcc-10.2.0/qchem-5.4-akfmr7b3t57bfs6qan3padb2wnb2i7cl
QCAUX:       /cm/shared/apps/spack/cpu/opt/spack/linux-centos8-zen2/gcc-10.2.0/qchem-5.4-akfmr7b3t57bfs6qan3padb2wnb2i7cl/qcaux
QCPROG:      /cm/shared/apps/spack/cpu/opt/spack/linux-centos8-zen2/gcc-10.2.0/qchem-5.4-akfmr7b3t57bfs6qan3padb2wnb2i7cl/exe/qcprog.exe
QCPROG_S:    /cm/shared/apps/spack/cpu/opt/spack/linux-centos8-zen2/gcc-10.2.0/qchem-5.4-akfmr7b3t57bfs6qan3padb2wnb2i7cl/exe/qcprog.exe_s
PARALLEL:    -DPARALLEL
QCMPI:       mpich
#
# qchem directory setting
#
qcrun:       qchem3487268
QCSCRATCH:   .
QCLOCALSCR:  
QCTMPDIR:    .
QCFILEPREF:  ./qchem3487268
QCSAVEDIR:   
workdirs:    ./qchem3487268
workdir0:    ./qchem3487268
partmpdirs =  
#
# parallel setting
#
QCRSH:           ssh
QCMPI:           mpich
QCMPIRUN:        /cm/shared/apps/spack/cpu/opt/spack/linux-centos8-zen2/gcc-10.2.0/qchem-5.4-akfmr7b3t57bfs6qan3padb2wnb2i7cl/bin/mpi/mpirun_qchem
QCMACHINEFILE:   ./qchem3487268/hostfile
exp-2-55

#
# env setting
#
exported envs:   QC QCAUX QCSCRATCH QCRUNNAME QCFILEPREF QCPROG QCPROG_S GUIFILE

Running Job 1 of 1 fin_bdt_Phi_10_Theta_30_fin_ftt_Hydrogenated.qcin
qchem fin_bdt_Phi_10_Theta_30_fin_ftt_Hydrogenated.qcin_3487268.0 ./qchem3487268/ 1
/cm/shared/apps/spack/cpu/opt/spack/linux-centos8-zen2/gcc-10.2.0/qchem-5.4-akfmr7b3t57bfs6qan3padb2wnb2i7cl/bin/mpi/mpirun_qchem -machinefile ./qchem3487268/hostfile -np 1 /cm/shared/apps/spack/cpu/opt/spack/linux-centos8-zen2/gcc-10.2.0/qchem-5.4-akfmr7b3t57bfs6qan3padb2wnb2i7cl/exe/qcprog.exe fin_bdt_Phi_10_Theta_30_fin_ftt_Hydrogenated.qcin_3487268.0 ./qchem3487268/

Process 0 of 1 is on exp-2-55 - thread support 0
initial socket setup ...start
initial socket setup ...done 
now start server 0 ... 
                  Welcome to Q-Chem
     A Quantum Leap Into The Future Of Chemistry


 Q-Chem 5.4, Q-Chem, Inc., Pleasanton, CA (2021)

 License issued to: University of California, San Diego (site)

 E. Epifanovsky,  A. T. B. Gilbert,  Xintian Feng,  Joonho Lee,  Yuezhi Mao,  
 N. Mardirossian,  P. Pokhilko,  A. White,  M. Wormit,  M. P. Coons,  
 A. L. Dempwolff,  Zhengting Gan,  D. Hait,  P. R. Horn,  L. D. Jacobson,  
 I. Kaliman,  J. Kussmann,  A. W. Lange,  Ka Un Lao,  D. S. Levine,  Jie Liu,  
 S. C. McKenzie,  A. F. Morrison,  K. Nanda,  F. Plasser,  D. R. Rehn,  
 M. L. Vidal,  Zhi-Qiang You,  Ying Zhu,  B. Alam,  B. Albrecht,  
 A. Aldossary,  E. Alguire,  J. H. Andersen,  D. Barton,  K. Begam,  A. Behn,  
 Y. A. Bernard,  E. J. Berquist,  H. Burton,  A. Carreras,  K. Carter-Fenk,  
 R. Chakraborty,  A. D. Chien,  K. D. Closser,  V. Cofer-Shabica,  
 S. Dasgupta,  Jia Deng,  M. de Wergifosse,  M. Diedenhofen,  Hainam Do,  
 S. Ehlert,  Po-Tung Fang,  S. Fatehi,  Qingguo Feng,  J. Gayvert,  
 Qinghui Ge,  G. Gidofalvi,  M. Goldey,  J. Gomes,  C. Gonzalez-Espinoza,  
 S. Gulania,  A. Gunina,  M. W. D. Hanson-Heine,  P. H. P. Harbach,  
 A. W. Hauser,  M. F. Herbst,  M. Hernandez Vera,  M. Hodecker,  
 Z. C. Holden,  S. Houck,  Xunkun Huang,  Kerwin Hui,  B. C. Huynh,  
 M. Ivanov,  Hyunjun Ji,  Hanjie Jiang,  B. Kaduk,  S. Kaehler,  
 K. Khistyaev,  Jaehoon Kim,  P. Klunzinger,  Z. Koczor-Benda,  
 Joong Hoon Koh,  D. Kosenkov,  L. Koulias,  T. Kowalczyk,  C. M. Krauter,  
 K. Kue,  A. Kunitsa,  T. Kus,  A. Landau,  K. V. Lawler,  D. Lefrancois,  
 S. Lehtola,  Rain Li,  Yi-Pei Li,  Jiashu Liang,  M. Liebenthal,  
 Hung-Hsuan Lin,  You-Sheng Lin,  Fenglai Liu,  Kuan-Yu Liu,  
 M. Loipersberger,  A. Luenser,  A. Manjanath,  P. Manohar,  E. Mansoor,  
 S. F. Manzer,  Shan-Ping Mao,  A. V. Marenich,  T. Markovich,  S. Mason,  
 S. A. Maurer,  P. F. McLaughlin,  M. F. S. J. Menger,  J.-M. Mewes,  
 S. A. Mewes,  P. Morgante,  J. W. Mullinax,  T. S. Nguyen-Beck,  
 K. J. Oosterbaan,  G. Paran,  Alexander C. Paul,  Suranjan K. Paul,  
 F. Pavosevic,  Zheng Pei,  S. Prager,  E. I. Proynov,  E. Ramos,  B. Rana,  
 A. E. Rask,  A. Rettig,  R. M. Richard,  F. Rob,  E. Rossomme,  T. Scheele,  
 M. Scheurer,  M. Schneider,  N. Sergueev,  S. M. Sharada,  W. Skomorowski,  
 D. W. Small,  C. J. Stein,  Yu-Chuan Su,  E. J. Sundstrom,  Zhen Tao,  
 J. Thirman,  T. Tsuchimochi,  N. M. Tubman,  S. P. Veccham,  O. Vydrov,  
 J. Wenzel,  J. Witte,  A. Yamada,  Kun Yao,  S. Yeganeh,  S. R. Yost,  
 A. Zech,  Igor Ying Zhang,  Xing Zhang,  Yu Zhang,  D. Zuev,  
 A. Aspuru-Guzik,  A. T. Bell,  N. A. Besley,  K. B. Bravaya,  B. R. Brooks,  
 D. Casanova,  Jeng-Da Chai,  S. Coriani,  C. J. Cramer,  
 A. E. DePrince, III,  R. A. DiStasio Jr.,  A. Dreuw,  B. D. Dunietz,  
 T. R. Furlani,  W. A. Goddard III,  S. Grimme,  S. Hammes-Schiffer,  
 T. Head-Gordon,  W. J. Hehre,  Chao-Ping Hsu,  T.-C. Jagau,  Yousung Jung,  
 A. Klamt,  Jing Kong,  D. S. Lambrecht,  WanZhen Liang,  N. J. Mayhall,  
 C. W. McCurdy,  J. B. Neaton,  C. Ochsenfeld,  J. A. Parkhill,  R. Peverati,  
 V. A. Rassolov,  Yihan Shao,  L. V. Slipchenko,  T. Stauch,  R. P. Steele,  
 J. E. Subotnik,  A. J. W. Thom,  A. Tkatchenko,  D. G. Truhlar,  
 T. Van Voorhis,  T. A. Wesolowski,  K. B. Whaley,  H. L. Woodcock III,  
 P. M. Zimmerman,  S. Faraji,  P. M. W. Gill,  M. Head-Gordon,  
 J. M. Herbert,  A. I. Krylov

 Contributors to earlier versions of Q-Chem not listed above: 
 R. D. Adamson,  B. Austin,  R. Baer,  J. Baker,  G. J. O. Beran,  
 K. Brandhorst,  S. T. Brown,  E. F. C. Byrd,  A. K. Chakraborty,  
 G. K. L. Chan,  Chun-Min Chang,  Yunqing Chen,  C.-L. Cheng,  
 Siu Hung Chien,  D. M. Chipman,  D. L. Crittenden,  H. Dachsel,  
 R. J. Doerksen,  A. D. Dutoi,  R. G. Edgar,  J. Fosso-Tande,  
 L. Fusti-Molnar,  D. Ghosh,  A. Ghysels,  A. Golubeva-Zadorozhnaya,  
 J. Gonthier,  M. S. Gordon,  S. R. Gwaltney,  G. Hawkins,  J. E. Herr,  
 A. Heyden,  S. Hirata,  E. G. Hohenstein,  G. Kedziora,  F. J. Keil,  
 C. Kelley,  Jihan Kim,  R. A. King,  R. Z. Khaliullin,  P. P. Korambath,  
 W. Kurlancheek,  A. Laurent,  A. M. Lee,  M. S. Lee,  S. V. Levchenko,  
 Ching Yeh Lin,  D. Liotard,  E. Livshits,  R. C. Lochan,  I. Lotan,  
 L. A. Martinez-Martinez,  P. E. Maslen,  N. Nair,  D. P. O'Neill,  
 D. Neuhauser,  E. Neuscamman,  C. M. Oana,  R. Olivares-Amaya,  R. Olson,  
 T. M. Perrine,  B. Peters,  P. A. Pieniazek,  A. Prociuk,  Y. M. Rhee,  
 J. Ritchie,  M. A. Rohrdanz,  E. Rosta,  N. J. Russ,  H. F. Schaefer III,  
 M. W. Schmidt,  N. E. Schultz,  S. Sharma,  N. Shenvi,  C. D. Sherrill,  
 A. C. Simmonett,  A. Sodt,  T. Stein,  D. Stuck,  K. S. Thanthiriwatte,  
 V. Vanovschi,  L. Vogt,  Tao Wang,  A. Warshel,  M. A. Watson,  
 C. F. Williams,  Q. Wu,  X. Xu,  Jun Yang,  W. Zhang,  Yan Zhao

 Please cite Q-Chem as follows:
 Y. Shao et al., Mol. Phys. 113, 184-215 (2015)
 DOI: 10.1080/00268976.2014.952696

 Q-Chem 5.4.0 for Intel X86 EM64T Linux

 Parts of Q-Chem use Armadillo 9.800.1 (Horizon Scraper).
 http://arma.sourceforge.net/

 Q-Chem begins on Sun Sep 24 16:38:47 2023  

 Host: 
0

     Scratch files written to ./qchem3487268//
 May1621 |scratch|qcdevops|jenkins|workspace|build_RNUM    
 Parallel job on  1  processors
 Processing $rem in /cm/shared/apps/spack/cpu/opt/spack/linux-centos8-zen2/gcc-10.2.0/qchem-5.4-akfmr7b3t57bfs6qan3padb2wnb2i7cl/config/preferences:
 Processing $rem in /home/rramji/.qchemrc:
 Symmetry turned off for PCM/SM12/SMD calculation
 Core orbitals will be frozen

 Checking the input file for inconsistencies... 	...done.

 Q-Chem warning in module forms1/BasisType.C, line 2236:

 You are not using the predefined 5D/6D in this basis set.


--------------------------------------------------------------
User input:
--------------------------------------------------------------
$molecule
0 1
C	-0.175432	-8.519741	0.208002
C	0.352097	-7.635967	-0.722164
S	-0.936458	-7.651740	1.563424
C	0.160388	-6.261894	-0.386833
H	0.870905	-7.954738	-1.635031
C	-0.553685	-6.079985	0.849637
C	-0.816372	-4.798382	1.357938
C	0.627524	-5.153542	-1.149702
C	0.368399	-3.869626	-0.638941
C	-0.348912	-3.688927	0.597409
O	1.262667	-5.481075	-2.309260
O	-1.453338	-4.479871	2.523296
C	-2.449320	-5.356026	3.036927
H	-2.982577	-4.790496	3.824632
H	-2.011155	-6.268513	3.497250
H	-3.173591	-5.658187	2.249807
C	2.130793	-4.546999	-2.939226
H	2.663289	-5.107564	-3.730721
H	2.873906	-4.131473	-2.225196
H	1.572045	-3.712085	-3.415077
C	-0.536849	-2.314326	0.930765
S	0.763041	-2.295487	-1.347913
C	-0.000000	-1.435180	-0.000000
H	-1.057554	-1.993211	1.841645
C	0.000000	0.000000	0.000000
S	0.158383	0.885376	1.510732
C	0.430876	2.436951	0.727629
C	0.157682	0.894430	-1.064665
C	0.397351	2.262384	-0.678287
C	0.147783	0.828765	-2.486150
C	0.367291	2.074406	-3.106916
S	0.580633	3.303533	-1.965735
C	0.416083	2.324204	-4.559972
O	0.256921	1.404367	-5.350277
O	0.642094	3.587338	-5.004375
F	-0.041828	-0.269113	-3.246290
C	0.714377	3.938827	-6.334976
H	0.906844	5.026898	-6.370268
H	-0.230661	3.710099	-6.875609
H	1.531918	3.398681	-6.861878
H	0.590699	3.342984	1.321510
H	0.608584	-9.146471	0.648918
H	-0.953830	-9.150570	-0.237003
H	0.939477	-1.444158	0.532637
$end

$rem
JOBTYPE		SP
EXCHANGE	HF
CORRELATION	pRIMP2
BASIS		cc-pvtz
METHOD		rimp2
AUX_BASIS	rimp2-cc-pvtz
SOLVENT_METHOD	PCM
PURECART	11111
SYMMETRY	false
MEM_TOTAL	110000
SCF_CONVERGENCE = 6
THRESH=10
GUI = 2
$end



$solvent
dielectric 4.90
$end
--------------------------------------------------------------
 ----------------------------------------------------------------
             Standard Nuclear Orientation (Angstroms)
    I     Atom           X                Y                Z
 ----------------------------------------------------------------
    1      C      -0.1754320000    -8.5197410000     0.2080020000
    2      C       0.3520970000    -7.6359670000    -0.7221640000
    3      S      -0.9364580000    -7.6517400000     1.5634240000
    4      C       0.1603880000    -6.2618940000    -0.3868330000
    5      H       0.8709050000    -7.9547380000    -1.6350310000
    6      C      -0.5536850000    -6.0799850000     0.8496370000
    7      C      -0.8163720000    -4.7983820000     1.3579380000
    8      C       0.6275240000    -5.1535420000    -1.1497020000
    9      C       0.3683990000    -3.8696260000    -0.6389410000
   10      C      -0.3489120000    -3.6889270000     0.5974090000
   11      O       1.2626670000    -5.4810750000    -2.3092600000
   12      O      -1.4533380000    -4.4798710000     2.5232960000
   13      C      -2.4493200000    -5.3560260000     3.0369270000
   14      H      -2.9825770000    -4.7904960000     3.8246320000
   15      H      -2.0111550000    -6.2685130000     3.4972500000
   16      H      -3.1735910000    -5.6581870000     2.2498070000
   17      C       2.1307930000    -4.5469990000    -2.9392260000
   18      H       2.6632890000    -5.1075640000    -3.7307210000
   19      H       2.8739060000    -4.1314730000    -2.2251960000
   20      H       1.5720450000    -3.7120850000    -3.4150770000
   21      C      -0.5368490000    -2.3143260000     0.9307650000
   22      S       0.7630410000    -2.2954870000    -1.3479130000
   23      C       0.0000000000    -1.4351800000     0.0000000000
   24      H      -1.0575540000    -1.9932110000     1.8416450000
   25      C       0.0000000000     0.0000000000     0.0000000000
   26      S       0.1583830000     0.8853760000     1.5107320000
   27      C       0.4308760000     2.4369510000     0.7276290000
   28      C       0.1576820000     0.8944300000    -1.0646650000
   29      C       0.3973510000     2.2623840000    -0.6782870000
   30      C       0.1477830000     0.8287650000    -2.4861500000
   31      C       0.3672910000     2.0744060000    -3.1069160000
   32      S       0.5806330000     3.3035330000    -1.9657350000
   33      C       0.4160830000     2.3242040000    -4.5599720000
   34      O       0.2569210000     1.4043670000    -5.3502770000
   35      O       0.6420940000     3.5873380000    -5.0043750000
   36      F      -0.0418280000    -0.2691130000    -3.2462900000
   37      C       0.7143770000     3.9388270000    -6.3349760000
   38      H       0.9068440000     5.0268980000    -6.3702680000
   39      H      -0.2306610000     3.7100990000    -6.8756090000
   40      H       1.5319180000     3.3986810000    -6.8618780000
   41      H       0.5906990000     3.3429840000     1.3215100000
   42      H       0.6085840000    -9.1464710000     0.6489180000
   43      H      -0.9538300000    -9.1505700000    -0.2370030000
   44      H       0.9394770000    -1.4441580000     0.5326370000
 ----------------------------------------------------------------
 Nuclear Repulsion Energy =        3376.57458844 hartrees
 There are      120 alpha and      120 beta electrons
 Requested basis set is cc-pVTZ
 There are 388 shells and 1096 basis functions

 Total QAlloc Memory Limit 110000 MB
 Mega-Array Size       188 MB
 MEM_STATIC part       192 MB
 Discretize the solute cavity surface with Lebedev spheres
	Using 110 Lebedev grid points for each H atom
	Using 194 Lebedev grid points for other atoms
	Atomic van der Waals radii will be scaled by 1.20
 Remove points where switching function is < 1.0e-08
 Keep 2930 surface tesserae and discard 4346 interior tesserae
 Molecular Surface Area = 436.161 Angst**2
 Requested basis set is rimp2-cc-pVTZ
 There are 853 shells and 2963 basis functions
 A cutoff of  1.0D-10 yielded  33477 shell pairs
 There are    252541 function pairs (    326626 Cartesian)
 Smallest overlap matrix eigenvalue = 2.11E-05

 Scale SEOQF with 1.000000e-01/1.000000e-02/1.000000e-02

 Standard Electronic Orientation quadrupole field applied
 Nucleus-field energy     =     0.0000000215 hartrees
 Guess from superposition of atomic densities
 Warning:  Energy on first SCF cycle will be non-variational
 SAD guess density has 240.000000 electrons

 -----------------------------------------------------------------------
  General SCF calculation program by
  Eric Jon Sundstrom, Paul Horn, Yuezhi Mao, Dmitri Zuev, Alec White,
  David Stuck, Shaama M.S., Shane Yost, Joonho Lee, David Small,
  Daniel Levine, Susi Lehtola, Hugh Burton, Evgeny Epifanovsky,
  Bang C. Huynh
 -----------------------------------------------------------------------
 Hartree-Fock
 using 64 threads for integral computing
 -------------------------------------------------------
 OpenMP Integral computing Module                
 Release: version 1.0, May 2013, Q-Chem Inc. Pittsburgh 
 -------------------------------------------------------
 A restricted SCF calculation will be
 performed using DIIS
 SCF converges when DIIS error is below 1.0e-06
 ---------------------------------------
  Cycle       Energy         DIIS error
 ---------------------------------------
    1   -2767.3574064505      1.77e-02  
    2   -2754.8658566839      1.55e-03  
    3   -2755.2152029412      8.79e-04  
    4   -2755.3068019733      2.54e-04  
    5   -2755.3206717721      7.28e-05  
    6   -2755.3222476378      2.64e-05  
    7   -2755.3226701650      1.37e-05  
    8   -2755.3227974005      5.65e-06  
    9   -2755.3228243819      2.94e-06  
   10   -2755.3228309917      1.44e-06  
   11   -2755.3228332125      7.62e-07  Convergence criterion met
 ---------------------------------------
 SCF time:   CPU 7271.83s  wall 273.00s 

************** Final PCM Free Energy Summary **************
 G_electrostatic  =      -0.02196065 hartree =     -13.78051600 kcal/mol
 G_cavitation     =       0.00000000 hartree =       0.00000000 kcal/mol
 G_dispersion     =       0.00000000 hartree =       0.00000000 kcal/mol
 G_repulsion      =       0.00000000 hartree =       0.00000000 kcal/mol
 --------------------------------------------------
 Non-electrostatic Free Energy =       0.00000000 hartree =       0.00000000 kcal/mol
 Total                         =      -0.02196065 hartree =     -13.78051600 kcal/mol
 --------------------------------------------------
 SCF Energy (H0 + V/2)                       =   -2755.32283321 
 Solute Internal Energy (H0)                 =   -2755.30087256 
 Total Free Energy (H0 + V/2 + non-elec)     =   -2755.32283321 hartree
                                             = -1728991.17350342 kcal/mol
***********************************************************

 SCF   energy in the final basis set =    -2755.3228332125
 Total energy in the final basis set =    -2755.3228332125


 --------------------------------------------------------------
  Generalized many-body perturbation theory program
  by Joonho Lee, Fazle Rob, Xintian Feng, Evgeny Epifanovsky

 No regularization used 
 (reg. param. = 0.0000e+00)
  (P|Q)^-1/2 Time:  CPU 171.02 s  wall 3.29 s

 In RI-MP2 calculation: 
 # of frozen core orbitals: 45

 Components of the RIMP2 correlation energy:
        aaaa    correlation energy =        -0.6700093694 a.u.
        abab    correlation energy =        -3.7505331698 a.u.
        bbbb    correlation energy =        -0.6700093694 a.u.
        non-Brillouin singles      =        -0.0000000000 a.u.
        total same-spin energy     =        -1.3400187388 a.u.
        total opposite-spin energy =        -3.7505331698 a.u.

 Total  RIMP2   correlation energy =        -5.0905519085 a.u.
        RIMP2         total energy =     -2760.4133851211 a.u.

 RI-MP2 Energy Time:  CPU 2785.54 s  wall 45.80 s
 
 --------------------------------------------------------------
 
                    Orbital Energies (a.u.)
 --------------------------------------------------------------
 
 Alpha MOs
 -- Occupied --
-92.0130 -91.9917 -91.9772 -91.9602 -26.3340 -20.6110 -20.5881 -20.5879
-20.5477 -11.4084 -11.3788 -11.3242 -11.3098 -11.3097 -11.2962 -11.2929
-11.2879 -11.2860 -11.2858 -11.2843 -11.2836 -11.2836 -11.2778 -11.2760
-11.2721 -11.2623 -11.2597 -11.2516 -11.2414  -9.0119  -8.9959  -8.9796
 -8.9628  -6.6928  -6.6922  -6.6916  -6.6772  -6.6765  -6.6752  -6.6607
 -6.6598  -6.6585  -6.6440  -6.6431  -6.6421  -1.6483  -1.4705  -1.4113
 -1.4099  -1.3655  -1.2381  -1.2101  -1.1776  -1.1434  -1.1005  -1.0504
 -1.0468  -1.0300  -1.0085  -0.9997  -0.9712  -0.9602  -0.9495  -0.9405
 -0.8948  -0.8709  -0.8643  -0.8117  -0.7936  -0.7860  -0.7763  -0.7671
 -0.7659  -0.7334  -0.7208  -0.7158  -0.6975  -0.6935  -0.6838  -0.6776
 -0.6710  -0.6694  -0.6568  -0.6493  -0.6389  -0.6293  -0.6219  -0.6156
 -0.6108  -0.6049  -0.5960  -0.5918  -0.5789  -0.5672  -0.5644  -0.5589
 -0.5493  -0.5339  -0.5281  -0.5213  -0.5135  -0.5087  -0.5040  -0.5007
 -0.4851  -0.4828  -0.4792  -0.4683  -0.4623  -0.4604  -0.4592  -0.4481
 -0.4292  -0.4009  -0.3851  -0.3724  -0.3513  -0.2933  -0.2841  -0.2191
 -- Virtual --
  0.0279   0.0585   0.1130   0.1337   0.1375   0.1470   0.1532   0.1558
  0.1585   0.1599   0.1708   0.1733   0.1808   0.1848   0.1915   0.1935
  0.1999   0.2024   0.2044   0.2110   0.2163   0.2218   0.2233   0.2279
  0.2308   0.2334   0.2386   0.2461   0.2555   0.2589   0.2686   0.2737
  0.2840   0.2937   0.3103   0.3211   0.3299   0.3370   0.3433   0.3460
  0.3554   0.3583   0.3638   0.3665   0.3718   0.3793   0.3818   0.3851
  0.3882   0.3951   0.3969   0.4025   0.4064   0.4136   0.4174   0.4214
  0.4241   0.4272   0.4333   0.4380   0.4402   0.4448   0.4542   0.4553
  0.4557   0.4604   0.4659   0.4687   0.4734   0.4768   0.4812   0.4829
  0.4911   0.4961   0.4985   0.5042   0.5075   0.5145   0.5171   0.5206
  0.5246   0.5285   0.5329   0.5343   0.5418   0.5480   0.5502   0.5531
  0.5540   0.5575   0.5623   0.5644   0.5690   0.5736   0.5754   0.5844
  0.5865   0.5881   0.5935   0.5954   0.5970   0.6032   0.6057   0.6101
  0.6123   0.6147   0.6181   0.6196   0.6225   0.6250   0.6270   0.6300
  0.6334   0.6364   0.6397   0.6433   0.6472   0.6476   0.6558   0.6572
  0.6648   0.6657   0.6706   0.6752   0.6824   0.6893   0.6910   0.6940
  0.7014   0.7112   0.7127   0.7156   0.7201   0.7250   0.7348   0.7417
  0.7467   0.7528   0.7610   0.7667   0.7740   0.7816   0.7877   0.7937
  0.7961   0.7994   0.8048   0.8090   0.8142   0.8151   0.8222   0.8307
  0.8383   0.8477   0.8525   0.8613   0.8676   0.8727   0.8777   0.8859
  0.8906   0.8928   0.8998   0.9018   0.9064   0.9092   0.9155   0.9179
  0.9237   0.9319   0.9343   0.9377   0.9440   0.9442   0.9485   0.9543
  0.9611   0.9632   0.9738   0.9762   0.9805   0.9849   0.9934   0.9947
  0.9972   1.0012   1.0079   1.0100   1.0127   1.0159   1.0224   1.0335
  1.0385   1.0406   1.0455   1.0482   1.0541   1.0619   1.0692   1.0701
  1.0773   1.0796   1.0856   1.0884   1.0934   1.0983   1.1074   1.1099
  1.1123   1.1210   1.1256   1.1313   1.1367   1.1434   1.1461   1.1506
  1.1550   1.1589   1.1629   1.1687   1.1706   1.1792   1.1800   1.1870
  1.1897   1.1917   1.1968   1.1983   1.2039   1.2066   1.2108   1.2203
  1.2243   1.2295   1.2367   1.2370   1.2439   1.2456   1.2527   1.2573
  1.2636   1.2709   1.2731   1.2828   1.2873   1.2894   1.2956   1.3025
  1.3081   1.3159   1.3238   1.3253   1.3305   1.3356   1.3384   1.3439
  1.3486   1.3546   1.3658   1.3725   1.3847   1.3870   1.3916   1.3940
  1.4052   1.4136   1.4181   1.4203   1.4346   1.4415   1.4508   1.4544
  1.4596   1.4659   1.4725   1.4774   1.4875   1.4895   1.4940   1.5005
  1.5041   1.5080   1.5130   1.5146   1.5230   1.5291   1.5348   1.5406
  1.5420   1.5477   1.5498   1.5557   1.5612   1.5653   1.5725   1.5804
  1.5880   1.5943   1.5993   1.6126   1.6151   1.6222   1.6387   1.6420
  1.6491   1.6567   1.6603   1.6638   1.6718   1.6731   1.6825   1.6838
  1.6941   1.6967   1.7129   1.7229   1.7265   1.7315   1.7368   1.7510
  1.7616   1.7657   1.7717   1.7755   1.7878   1.7971   1.8059   1.8177
  1.8291   1.8311   1.8361   1.8419   1.8566   1.8614   1.8687   1.8726
  1.8821   1.8850   1.8938   1.9024   1.9178   1.9276   1.9305   1.9336
  1.9448   1.9484   1.9626   1.9706   1.9743   1.9861   1.9914   2.0022
  2.0144   2.0208   2.0281   2.0345   2.0361   2.0401   2.0470   2.0628
  2.0682   2.0732   2.0887   2.0978   2.1011   2.1078   2.1258   2.1324
  2.1460   2.1474   2.1600   2.1654   2.1750   2.1827   2.1850   2.1954
  2.1979   2.2058   2.2111   2.2181   2.2232   2.2333   2.2466   2.2474
  2.2589   2.2634   2.2669   2.2808   2.2839   2.2888   2.2990   2.3023
  2.3058   2.3203   2.3256   2.3400   2.3533   2.3579   2.3645   2.3656
  2.3757   2.3864   2.3931   2.3997   2.4140   2.4150   2.4171   2.4225
  2.4397   2.4524   2.4632   2.4659   2.4762   2.4840   2.4910   2.5057
  2.5145   2.5207   2.5297   2.5362   2.5443   2.5612   2.5651   2.5698
  2.5857   2.5922   2.5942   2.6032   2.6117   2.6137   2.6222   2.6248
  2.6368   2.6402   2.6457   2.6484   2.6532   2.6647   2.6667   2.6746
  2.6808   2.6896   2.6942   2.7005   2.7014   2.7095   2.7152   2.7215
  2.7304   2.7349   2.7367   2.7425   2.7488   2.7583   2.7642   2.7654
  2.7749   2.7856   2.7898   2.7953   2.8065   2.8101   2.8171   2.8357
  2.8407   2.8461   2.8546   2.8569   2.8590   2.8655   2.8700   2.8771
  2.8820   2.8886   2.9015   2.9061   2.9116   2.9312   2.9398   2.9443
  2.9520   2.9559   2.9671   2.9679   2.9773   2.9822   2.9871   2.9986
  3.0109   3.0129   3.0229   3.0302   3.0360   3.0444   3.0456   3.0493
  3.0551   3.0653   3.0718   3.0838   3.0904   3.0916   3.0959   3.1061
  3.1103   3.1112   3.1193   3.1249   3.1306   3.1356   3.1425   3.1491
  3.1512   3.1530   3.1578   3.1609   3.1665   3.1733   3.1804   3.1810
  3.1862   3.1955   3.2024   3.2078   3.2113   3.2170   3.2196   3.2227
  3.2334   3.2382   3.2434   3.2474   3.2520   3.2543   3.2635   3.2668
  3.2705   3.2742   3.2795   3.2829   3.2866   3.2905   3.2931   3.3004
  3.3024   3.3054   3.3129   3.3166   3.3245   3.3321   3.3366   3.3419
  3.3462   3.3481   3.3538   3.3591   3.3625   3.3661   3.3676   3.3701
  3.3736   3.3800   3.3827   3.3892   3.3916   3.3962   3.3976   3.4057
  3.4114   3.4170   3.4208   3.4263   3.4332   3.4381   3.4449   3.4479
  3.4508   3.4534   3.4584   3.4609   3.4694   3.4758   3.4826   3.4888
  3.4963   3.5002   3.5078   3.5103   3.5165   3.5239   3.5268   3.5365
  3.5388   3.5427   3.5515   3.5565   3.5685   3.5721   3.5794   3.5840
  3.5878   3.5930   3.5985   3.6005   3.6024   3.6078   3.6092   3.6190
  3.6287   3.6318   3.6351   3.6402   3.6434   3.6495   3.6568   3.6596
  3.6672   3.6690   3.6724   3.6781   3.6812   3.6880   3.6942   3.6962
  3.7038   3.7080   3.7120   3.7151   3.7189   3.7220   3.7260   3.7300
  3.7353   3.7394   3.7489   3.7506   3.7548   3.7663   3.7717   3.7737
  3.7816   3.7873   3.7907   3.7986   3.8067   3.8104   3.8194   3.8247
  3.8290   3.8309   3.8381   3.8451   3.8481   3.8544   3.8564   3.8635
  3.8676   3.8725   3.8777   3.8837   3.8886   3.9017   3.9058   3.9152
  3.9245   3.9298   3.9357   3.9368   3.9411   3.9474   3.9587   3.9611
  3.9686   3.9731   3.9742   3.9844   3.9940   4.0020   4.0088   4.0158
  4.0191   4.0285   4.0397   4.0447   4.0537   4.0581   4.0596   4.0674
  4.0715   4.0840   4.0948   4.0954   4.0979   4.1038   4.1155   4.1274
  4.1337   4.1453   4.1499   4.1625   4.1669   4.1706   4.1725   4.1788
  4.1843   4.1910   4.1981   4.2092   4.2113   4.2189   4.2279   4.2393
  4.2466   4.2637   4.2668   4.2731   4.2867   4.2928   4.2975   4.3135
  4.3172   4.3186   4.3337   4.3414   4.3480   4.3484   4.3597   4.3623
  4.3715   4.3775   4.3826   4.3929   4.3989   4.4081   4.4135   4.4156
  4.4209   4.4262   4.4317   4.4357   4.4378   4.4405   4.4493   4.4626
  4.4682   4.4747   4.4803   4.4978   4.5007   4.5106   4.5175   4.5236
  4.5265   4.5481   4.5539   4.5563   4.5692   4.5712   4.5813   4.5892
  4.5970   4.6050   4.6119   4.6208   4.6273   4.6382   4.6434   4.6471
  4.6554   4.6627   4.6678   4.6827   4.6909   4.7106   4.7161   4.7270
  4.7314   4.7434   4.7589   4.7767   4.7872   4.7984   4.8062   4.8121
  4.8196   4.8271   4.8373   4.8493   4.8554   4.8721   4.8843   4.9005
  4.9068   4.9243   4.9383   4.9456   4.9538   4.9565   4.9664   4.9736
  4.9892   5.0012   5.0119   5.0129   5.0137   5.0365   5.0451   5.0654
  5.0742   5.0937   5.1040   5.1246   5.1377   5.1548   5.1608   5.1713
  5.1827   5.1924   5.2005   5.2113   5.2209   5.2265   5.2329   5.2551
  5.2598   5.2642   5.2904   5.2911   5.3057   5.3165   5.3234   5.3330
  5.3427   5.3484   5.3558   5.3609   5.3708   5.3838   5.3870   5.3991
  5.4022   5.4122   5.4277   5.4420   5.4669   5.4736   5.4915   5.5015
  5.5108   5.5182   5.5197   5.5449   5.5558   5.5674   5.5787   5.5817
  5.6038   5.6095   5.6169   5.6197   5.6344   5.6484   5.6810   5.6887
  5.7233   5.7407   5.7651   5.7890   5.8020   5.8208   5.8429   5.8582
  5.8747   5.8883   5.9042   5.9359   5.9715   5.9762   5.9896   6.0115
  6.0429   6.0627   6.1233   6.1251   6.1345   6.1594   6.1747   6.1795
  6.1868   6.2053   6.2217   6.2502   6.2628   6.2752   6.2904   6.3035
  6.3097   6.3533   6.3773   6.4405   6.4777   6.4943   6.5481   6.5492
  6.5579   6.5802   6.6446   6.6784   6.6922   6.7185   6.7450   6.7559
  6.8080   6.8593   6.8625   6.8845   6.8987   6.9947   7.1307   7.1458
  7.1796   7.2130   7.2214   7.2388   7.3267   7.3285   7.3423   7.3752
  7.3772   7.4315   7.4638   7.4853   7.4873   7.4962   7.5225   7.5518
  7.6226   7.7421   7.7705   7.8023   7.8333   7.9148   7.9256   7.9556
  8.0084   8.1297   8.3879   8.7037   8.9431   9.0162   9.3680   9.5095
  9.7120  10.3755  11.2692  11.4560  11.8750  11.9481  12.1238  12.3642
 12.4121  12.5043  12.7066  12.9407  13.0165  13.2241  13.4824  13.6109
 13.7719  13.8984  13.9319  14.0175  14.2810  14.4039  14.9834  15.2131
 --------------------------------------------------------------
 
          Ground-State Mulliken Net Atomic Charges

     Atom                 Charge (a.u.)
  ----------------------------------------
      1 C                    -0.070779
      2 C                    -0.246683
      3 S                    -0.131071
      4 C                    -0.051009
      5 H                     0.195354
      6 C                    -0.046617
      7 C                     0.217938
      8 C                     0.231045
      9 C                    -0.077090
     10 C                    -0.006112
     11 O                    -0.334442
     12 O                    -0.343771
     13 C                    -0.082687
     14 H                     0.120080
     15 H                     0.092054
     16 H                     0.093243
     17 C                    -0.089347
     18 H                     0.124272
     19 H                     0.092228
     20 H                     0.092916
     21 C                    -0.345854
     22 S                    -0.085045
     23 C                     0.160639
     24 H                     0.198716
     25 C                    -0.041261
     26 S                     0.086022
     27 C                    -0.262133
     28 C                    -0.142179
     29 C                    -0.007437
     30 C                     0.392892
     31 C                    -0.151339
     32 S                     0.028475
     33 C                     0.461427
     34 O                    -0.454178
     35 O                    -0.298531
     36 F                    -0.207512
     37 C                    -0.055110
     38 H                     0.116351
     39 H                     0.084306
     40 H                     0.083996
     41 H                     0.213709
     42 H                     0.119207
     43 H                     0.117081
     44 H                     0.208236
  ----------------------------------------
  Sum of atomic charges =     0.000000

 -----------------------------------------------------------------
                    Cartesian Multipole Moments
 -----------------------------------------------------------------
    Charge (ESU x 10^10)
                -0.0000
    Dipole Moment (Debye)
         X       1.1826      Y       1.7109      Z       3.3168
       Tot       3.9150
    Quadrupole Moments (Debye-Ang)
        XX    -190.6016     XY       0.4450     YY    -169.0011
        XZ     -11.1535     YZ      -5.9946     ZZ    -199.1612
    Octopole Moments (Debye-Ang^2)
       XXX     -63.0537    XXY     342.2971    XYY       1.1656
       YYY     950.6929    XXZ     168.4695    XYZ      35.9682
       YYZ      86.9034    XZZ      -0.3437    YZZ     465.1561
       ZZZ     520.0808
    Hexadecapole Moments (Debye-Ang^3)
      XXXX   -1073.7683   XXXY    -573.6779   XXYY   -3766.3298
      XYYY    -624.4901   YYYY  -19333.1817   XXXZ     752.0251
      XXYZ     591.9051   XYYZ      31.0890   YYYZ    1896.0372
      XXZZ   -1296.0907   XYZZ     -91.3794   YYZZ   -4371.9779
      XZZZ     568.9896   YZZZ    1167.8940   ZZZZ   -7184.0847
 -----------------------------------------------------------------
 Total job time:  323.60s(wall), 10194.07s(cpu) 
 Sun Sep 24 16:44:10 2023

        *************************************************************
        *                                                           *
        *  Thank you very much for using Q-Chem.  Have a nice day.  *
        *                                                           *
        *************************************************************


0 sent ACK to 0 
now end server 0 ... 
cleanup process ... done
remove work dirs ./qchem3487268.0 -- ./qchem3487268.0
rm -rf ./qchem3487268.0
rm -rf ./qchem3487268
