You are running Q-Chem version: 5.4.0

#
# job setting
#
local host:  exp-2-55
current dir: /expanse/lustre/projects/csd626/rramji/aromodel/PTB7_fin/Hydrogenated_Rotation_Test
input file:  fin_bdt_Phi_10_Theta_20_fin_ftt_Hydrogenated.qcin
output file: 
nprocs     : 1
nthreads   : 64
#
# qchem installation setting
#
QC:          /cm/shared/apps/spack/cpu/opt/spack/linux-centos8-zen2/gcc-10.2.0/qchem-5.4-akfmr7b3t57bfs6qan3padb2wnb2i7cl
QCAUX:       /cm/shared/apps/spack/cpu/opt/spack/linux-centos8-zen2/gcc-10.2.0/qchem-5.4-akfmr7b3t57bfs6qan3padb2wnb2i7cl/qcaux
QCPROG:      /cm/shared/apps/spack/cpu/opt/spack/linux-centos8-zen2/gcc-10.2.0/qchem-5.4-akfmr7b3t57bfs6qan3padb2wnb2i7cl/exe/qcprog.exe
QCPROG_S:    /cm/shared/apps/spack/cpu/opt/spack/linux-centos8-zen2/gcc-10.2.0/qchem-5.4-akfmr7b3t57bfs6qan3padb2wnb2i7cl/exe/qcprog.exe_s
PARALLEL:    -DPARALLEL
QCMPI:       mpich
#
# qchem directory setting
#
qcrun:       qchem3486390
QCSCRATCH:   .
QCLOCALSCR:  
QCTMPDIR:    .
QCFILEPREF:  ./qchem3486390
QCSAVEDIR:   
workdirs:    ./qchem3486390
workdir0:    ./qchem3486390
partmpdirs =  
#
# parallel setting
#
QCRSH:           ssh
QCMPI:           mpich
QCMPIRUN:        /cm/shared/apps/spack/cpu/opt/spack/linux-centos8-zen2/gcc-10.2.0/qchem-5.4-akfmr7b3t57bfs6qan3padb2wnb2i7cl/bin/mpi/mpirun_qchem
QCMACHINEFILE:   ./qchem3486390/hostfile
exp-2-55

#
# env setting
#
exported envs:   QC QCAUX QCSCRATCH QCRUNNAME QCFILEPREF QCPROG QCPROG_S GUIFILE

Running Job 1 of 1 fin_bdt_Phi_10_Theta_20_fin_ftt_Hydrogenated.qcin
qchem fin_bdt_Phi_10_Theta_20_fin_ftt_Hydrogenated.qcin_3486390.0 ./qchem3486390/ 1
/cm/shared/apps/spack/cpu/opt/spack/linux-centos8-zen2/gcc-10.2.0/qchem-5.4-akfmr7b3t57bfs6qan3padb2wnb2i7cl/bin/mpi/mpirun_qchem -machinefile ./qchem3486390/hostfile -np 1 /cm/shared/apps/spack/cpu/opt/spack/linux-centos8-zen2/gcc-10.2.0/qchem-5.4-akfmr7b3t57bfs6qan3padb2wnb2i7cl/exe/qcprog.exe fin_bdt_Phi_10_Theta_20_fin_ftt_Hydrogenated.qcin_3486390.0 ./qchem3486390/

Process 0 of 1 is on exp-2-55 - thread support 0
initial socket setup ...start
initial socket setup ...done 
now start server 0 ... 
                  Welcome to Q-Chem
     A Quantum Leap Into The Future Of Chemistry


 Q-Chem 5.4, Q-Chem, Inc., Pleasanton, CA (2021)

 License issued to: University of California, San Diego (site)

 E. Epifanovsky,  A. T. B. Gilbert,  Xintian Feng,  Joonho Lee,  Yuezhi Mao,  
 N. Mardirossian,  P. Pokhilko,  A. White,  M. Wormit,  M. P. Coons,  
 A. L. Dempwolff,  Zhengting Gan,  D. Hait,  P. R. Horn,  L. D. Jacobson,  
 I. Kaliman,  J. Kussmann,  A. W. Lange,  Ka Un Lao,  D. S. Levine,  Jie Liu,  
 S. C. McKenzie,  A. F. Morrison,  K. Nanda,  F. Plasser,  D. R. Rehn,  
 M. L. Vidal,  Zhi-Qiang You,  Ying Zhu,  B. Alam,  B. Albrecht,  
 A. Aldossary,  E. Alguire,  J. H. Andersen,  D. Barton,  K. Begam,  A. Behn,  
 Y. A. Bernard,  E. J. Berquist,  H. Burton,  A. Carreras,  K. Carter-Fenk,  
 R. Chakraborty,  A. D. Chien,  K. D. Closser,  V. Cofer-Shabica,  
 S. Dasgupta,  Jia Deng,  M. de Wergifosse,  M. Diedenhofen,  Hainam Do,  
 S. Ehlert,  Po-Tung Fang,  S. Fatehi,  Qingguo Feng,  J. Gayvert,  
 Qinghui Ge,  G. Gidofalvi,  M. Goldey,  J. Gomes,  C. Gonzalez-Espinoza,  
 S. Gulania,  A. Gunina,  M. W. D. Hanson-Heine,  P. H. P. Harbach,  
 A. W. Hauser,  M. F. Herbst,  M. Hernandez Vera,  M. Hodecker,  
 Z. C. Holden,  S. Houck,  Xunkun Huang,  Kerwin Hui,  B. C. Huynh,  
 M. Ivanov,  Hyunjun Ji,  Hanjie Jiang,  B. Kaduk,  S. Kaehler,  
 K. Khistyaev,  Jaehoon Kim,  P. Klunzinger,  Z. Koczor-Benda,  
 Joong Hoon Koh,  D. Kosenkov,  L. Koulias,  T. Kowalczyk,  C. M. Krauter,  
 K. Kue,  A. Kunitsa,  T. Kus,  A. Landau,  K. V. Lawler,  D. Lefrancois,  
 S. Lehtola,  Rain Li,  Yi-Pei Li,  Jiashu Liang,  M. Liebenthal,  
 Hung-Hsuan Lin,  You-Sheng Lin,  Fenglai Liu,  Kuan-Yu Liu,  
 M. Loipersberger,  A. Luenser,  A. Manjanath,  P. Manohar,  E. Mansoor,  
 S. F. Manzer,  Shan-Ping Mao,  A. V. Marenich,  T. Markovich,  S. Mason,  
 S. A. Maurer,  P. F. McLaughlin,  M. F. S. J. Menger,  J.-M. Mewes,  
 S. A. Mewes,  P. Morgante,  J. W. Mullinax,  T. S. Nguyen-Beck,  
 K. J. Oosterbaan,  G. Paran,  Alexander C. Paul,  Suranjan K. Paul,  
 F. Pavosevic,  Zheng Pei,  S. Prager,  E. I. Proynov,  E. Ramos,  B. Rana,  
 A. E. Rask,  A. Rettig,  R. M. Richard,  F. Rob,  E. Rossomme,  T. Scheele,  
 M. Scheurer,  M. Schneider,  N. Sergueev,  S. M. Sharada,  W. Skomorowski,  
 D. W. Small,  C. J. Stein,  Yu-Chuan Su,  E. J. Sundstrom,  Zhen Tao,  
 J. Thirman,  T. Tsuchimochi,  N. M. Tubman,  S. P. Veccham,  O. Vydrov,  
 J. Wenzel,  J. Witte,  A. Yamada,  Kun Yao,  S. Yeganeh,  S. R. Yost,  
 A. Zech,  Igor Ying Zhang,  Xing Zhang,  Yu Zhang,  D. Zuev,  
 A. Aspuru-Guzik,  A. T. Bell,  N. A. Besley,  K. B. Bravaya,  B. R. Brooks,  
 D. Casanova,  Jeng-Da Chai,  S. Coriani,  C. J. Cramer,  
 A. E. DePrince, III,  R. A. DiStasio Jr.,  A. Dreuw,  B. D. Dunietz,  
 T. R. Furlani,  W. A. Goddard III,  S. Grimme,  S. Hammes-Schiffer,  
 T. Head-Gordon,  W. J. Hehre,  Chao-Ping Hsu,  T.-C. Jagau,  Yousung Jung,  
 A. Klamt,  Jing Kong,  D. S. Lambrecht,  WanZhen Liang,  N. J. Mayhall,  
 C. W. McCurdy,  J. B. Neaton,  C. Ochsenfeld,  J. A. Parkhill,  R. Peverati,  
 V. A. Rassolov,  Yihan Shao,  L. V. Slipchenko,  T. Stauch,  R. P. Steele,  
 J. E. Subotnik,  A. J. W. Thom,  A. Tkatchenko,  D. G. Truhlar,  
 T. Van Voorhis,  T. A. Wesolowski,  K. B. Whaley,  H. L. Woodcock III,  
 P. M. Zimmerman,  S. Faraji,  P. M. W. Gill,  M. Head-Gordon,  
 J. M. Herbert,  A. I. Krylov

 Contributors to earlier versions of Q-Chem not listed above: 
 R. D. Adamson,  B. Austin,  R. Baer,  J. Baker,  G. J. O. Beran,  
 K. Brandhorst,  S. T. Brown,  E. F. C. Byrd,  A. K. Chakraborty,  
 G. K. L. Chan,  Chun-Min Chang,  Yunqing Chen,  C.-L. Cheng,  
 Siu Hung Chien,  D. M. Chipman,  D. L. Crittenden,  H. Dachsel,  
 R. J. Doerksen,  A. D. Dutoi,  R. G. Edgar,  J. Fosso-Tande,  
 L. Fusti-Molnar,  D. Ghosh,  A. Ghysels,  A. Golubeva-Zadorozhnaya,  
 J. Gonthier,  M. S. Gordon,  S. R. Gwaltney,  G. Hawkins,  J. E. Herr,  
 A. Heyden,  S. Hirata,  E. G. Hohenstein,  G. Kedziora,  F. J. Keil,  
 C. Kelley,  Jihan Kim,  R. A. King,  R. Z. Khaliullin,  P. P. Korambath,  
 W. Kurlancheek,  A. Laurent,  A. M. Lee,  M. S. Lee,  S. V. Levchenko,  
 Ching Yeh Lin,  D. Liotard,  E. Livshits,  R. C. Lochan,  I. Lotan,  
 L. A. Martinez-Martinez,  P. E. Maslen,  N. Nair,  D. P. O'Neill,  
 D. Neuhauser,  E. Neuscamman,  C. M. Oana,  R. Olivares-Amaya,  R. Olson,  
 T. M. Perrine,  B. Peters,  P. A. Pieniazek,  A. Prociuk,  Y. M. Rhee,  
 J. Ritchie,  M. A. Rohrdanz,  E. Rosta,  N. J. Russ,  H. F. Schaefer III,  
 M. W. Schmidt,  N. E. Schultz,  S. Sharma,  N. Shenvi,  C. D. Sherrill,  
 A. C. Simmonett,  A. Sodt,  T. Stein,  D. Stuck,  K. S. Thanthiriwatte,  
 V. Vanovschi,  L. Vogt,  Tao Wang,  A. Warshel,  M. A. Watson,  
 C. F. Williams,  Q. Wu,  X. Xu,  Jun Yang,  W. Zhang,  Yan Zhao

 Please cite Q-Chem as follows:
 Y. Shao et al., Mol. Phys. 113, 184-215 (2015)
 DOI: 10.1080/00268976.2014.952696

 Q-Chem 5.4.0 for Intel X86 EM64T Linux

 Parts of Q-Chem use Armadillo 9.800.1 (Horizon Scraper).
 http://arma.sourceforge.net/

 Q-Chem begins on Sun Sep 24 16:33:08 2023  

 Host: 
0

     Scratch files written to ./qchem3486390//
 May1621 |scratch|qcdevops|jenkins|workspace|build_RNUM    
 Parallel job on  1  processors
 Processing $rem in /cm/shared/apps/spack/cpu/opt/spack/linux-centos8-zen2/gcc-10.2.0/qchem-5.4-akfmr7b3t57bfs6qan3padb2wnb2i7cl/config/preferences:
 Processing $rem in /home/rramji/.qchemrc:
 Symmetry turned off for PCM/SM12/SMD calculation
 Core orbitals will be frozen

 Checking the input file for inconsistencies... 	...done.

 Q-Chem warning in module forms1/BasisType.C, line 2236:

 You are not using the predefined 5D/6D in this basis set.


--------------------------------------------------------------
User input:
--------------------------------------------------------------
$molecule
0 1
C	-0.136647	-8.519741	0.235306
C	0.221346	-7.635967	-0.772334
S	-0.650746	-7.651740	1.702286
C	0.090779	-6.261894	-0.408807
H	0.573754	-7.954738	-1.761423
C	-0.397735	-6.079985	0.932876
C	-0.568166	-4.798382	1.479069
C	0.418347	-5.153542	-1.241204
C	0.251852	-3.869626	-0.693206
C	-0.239872	-3.688927	0.648921
O	0.842486	-5.481075	-2.493437
O	-0.993092	-4.479871	2.737331
C	-1.884752	-5.356026	3.416110
H	-2.273124	-4.790496	4.284447
H	-1.373310	-6.268513	3.793352
H	-2.734702	-5.658187	2.766716
C	1.588030	-4.546999	-3.264581
H	1.974995	-5.107564	-4.136519
H	2.443843	-4.131473	-2.690439
H	0.955140	-3.712085	-3.636177
C	-0.367068	-2.314326	1.009848
S	0.517386	-2.295487	-1.459936
C	-0.000000	-1.435180	-0.000000
H	-0.721689	-1.993211	1.997308
C	0.000000	0.000000	0.000000
S	0.158383	0.885376	1.510732
C	0.430876	2.436951	0.727629
C	0.157682	0.894430	-1.064665
C	0.397351	2.262384	-0.678287
C	0.147783	0.828765	-2.486150
C	0.367291	2.074406	-3.106916
S	0.580633	3.303533	-1.965735
C	0.416083	2.324204	-4.559972
O	0.256921	1.404367	-5.350277
O	0.642094	3.587338	-5.004375
F	-0.041828	-0.269113	-3.246290
C	0.714377	3.938827	-6.334976
H	0.906844	5.026898	-6.370268
H	-0.230661	3.710099	-6.875609
H	1.531918	3.398681	-6.861878
H	0.590699	3.342984	1.321510
H	0.712022	-9.146471	0.533380
H	-0.980494	-9.150570	-0.067771
H	1.017696	-1.444158	0.361406
$end

$rem
JOBTYPE		SP
EXCHANGE	HF
CORRELATION	pRIMP2
BASIS		cc-pvtz
METHOD		rimp2
AUX_BASIS	rimp2-cc-pvtz
SOLVENT_METHOD	PCM
PURECART	11111
SYMMETRY	false
MEM_TOTAL	110000
SCF_CONVERGENCE = 6
THRESH=10
GUI = 2
$end



$solvent
dielectric 4.90
$end
--------------------------------------------------------------
 ----------------------------------------------------------------
             Standard Nuclear Orientation (Angstroms)
    I     Atom           X                Y                Z
 ----------------------------------------------------------------
    1      C      -0.1366470000    -8.5197410000     0.2353060000
    2      C       0.2213460000    -7.6359670000    -0.7723340000
    3      S      -0.6507460000    -7.6517400000     1.7022860000
    4      C       0.0907790000    -6.2618940000    -0.4088070000
    5      H       0.5737540000    -7.9547380000    -1.7614230000
    6      C      -0.3977350000    -6.0799850000     0.9328760000
    7      C      -0.5681660000    -4.7983820000     1.4790690000
    8      C       0.4183470000    -5.1535420000    -1.2412040000
    9      C       0.2518520000    -3.8696260000    -0.6932060000
   10      C      -0.2398720000    -3.6889270000     0.6489210000
   11      O       0.8424860000    -5.4810750000    -2.4934370000
   12      O      -0.9930920000    -4.4798710000     2.7373310000
   13      C      -1.8847520000    -5.3560260000     3.4161100000
   14      H      -2.2731240000    -4.7904960000     4.2844470000
   15      H      -1.3733100000    -6.2685130000     3.7933520000
   16      H      -2.7347020000    -5.6581870000     2.7667160000
   17      C       1.5880300000    -4.5469990000    -3.2645810000
   18      H       1.9749950000    -5.1075640000    -4.1365190000
   19      H       2.4438430000    -4.1314730000    -2.6904390000
   20      H       0.9551400000    -3.7120850000    -3.6361770000
   21      C      -0.3670680000    -2.3143260000     1.0098480000
   22      S       0.5173860000    -2.2954870000    -1.4599360000
   23      C       0.0000000000    -1.4351800000     0.0000000000
   24      H      -0.7216890000    -1.9932110000     1.9973080000
   25      C       0.0000000000     0.0000000000     0.0000000000
   26      S       0.1583830000     0.8853760000     1.5107320000
   27      C       0.4308760000     2.4369510000     0.7276290000
   28      C       0.1576820000     0.8944300000    -1.0646650000
   29      C       0.3973510000     2.2623840000    -0.6782870000
   30      C       0.1477830000     0.8287650000    -2.4861500000
   31      C       0.3672910000     2.0744060000    -3.1069160000
   32      S       0.5806330000     3.3035330000    -1.9657350000
   33      C       0.4160830000     2.3242040000    -4.5599720000
   34      O       0.2569210000     1.4043670000    -5.3502770000
   35      O       0.6420940000     3.5873380000    -5.0043750000
   36      F      -0.0418280000    -0.2691130000    -3.2462900000
   37      C       0.7143770000     3.9388270000    -6.3349760000
   38      H       0.9068440000     5.0268980000    -6.3702680000
   39      H      -0.2306610000     3.7100990000    -6.8756090000
   40      H       1.5319180000     3.3986810000    -6.8618780000
   41      H       0.5906990000     3.3429840000     1.3215100000
   42      H       0.7120220000    -9.1464710000     0.5333800000
   43      H      -0.9804940000    -9.1505700000    -0.0677710000
   44      H       1.0176960000    -1.4441580000     0.3614060000
 ----------------------------------------------------------------
 Nuclear Repulsion Energy =        3379.88379966 hartrees
 There are      120 alpha and      120 beta electrons
 Requested basis set is cc-pVTZ
 There are 388 shells and 1096 basis functions

 Total QAlloc Memory Limit 110000 MB
 Mega-Array Size       188 MB
 MEM_STATIC part       192 MB
 Discretize the solute cavity surface with Lebedev spheres
	Using 110 Lebedev grid points for each H atom
	Using 194 Lebedev grid points for other atoms
	Atomic van der Waals radii will be scaled by 1.20
 Remove points where switching function is < 1.0e-08
 Keep 2954 surface tesserae and discard 4322 interior tesserae
 Molecular Surface Area = 434.800 Angst**2
 Requested basis set is rimp2-cc-pVTZ
 There are 853 shells and 2963 basis functions
 A cutoff of  1.0D-10 yielded  33555 shell pairs
 There are    253041 function pairs (    327208 Cartesian)
 Smallest overlap matrix eigenvalue = 2.09E-05

 Scale SEOQF with 1.000000e-01/1.000000e-02/1.000000e-02

 Standard Electronic Orientation quadrupole field applied
 Nucleus-field energy     =     0.0000000179 hartrees
 Guess from superposition of atomic densities
 Warning:  Energy on first SCF cycle will be non-variational
 SAD guess density has 240.000000 electrons

 -----------------------------------------------------------------------
  General SCF calculation program by
  Eric Jon Sundstrom, Paul Horn, Yuezhi Mao, Dmitri Zuev, Alec White,
  David Stuck, Shaama M.S., Shane Yost, Joonho Lee, David Small,
  Daniel Levine, Susi Lehtola, Hugh Burton, Evgeny Epifanovsky,
  Bang C. Huynh
 -----------------------------------------------------------------------
 Hartree-Fock
 using 64 threads for integral computing
 -------------------------------------------------------
 OpenMP Integral computing Module                
 Release: version 1.0, May 2013, Q-Chem Inc. Pittsburgh 
 -------------------------------------------------------
 A restricted SCF calculation will be
 performed using DIIS
 SCF converges when DIIS error is below 1.0e-06
 ---------------------------------------
  Cycle       Energy         DIIS error
 ---------------------------------------
    1   -2767.3655920427      1.77e-02  
    2   -2754.8653738478      1.55e-03  
    3   -2755.2144938166      8.78e-04  
    4   -2755.3059947613      2.54e-04  
    5   -2755.3199022389      7.27e-05  
    6   -2755.3214808087      2.64e-05  
    7   -2755.3219030432      1.36e-05  
    8   -2755.3220269620      5.54e-06  
    9   -2755.3220520685      2.82e-06  
   10   -2755.3220580218      1.38e-06  
   11   -2755.3220600015      7.27e-07  Convergence criterion met
 ---------------------------------------
 SCF time:   CPU 7444.16s  wall 284.00s 

************** Final PCM Free Energy Summary **************
 G_electrostatic  =      -0.02167473 hartree =     -13.60109753 kcal/mol
 G_cavitation     =       0.00000000 hartree =       0.00000000 kcal/mol
 G_dispersion     =       0.00000000 hartree =       0.00000000 kcal/mol
 G_repulsion      =       0.00000000 hartree =       0.00000000 kcal/mol
 --------------------------------------------------
 Non-electrostatic Free Energy =       0.00000000 hartree =       0.00000000 kcal/mol
 Total                         =      -0.02167473 hartree =     -13.60109753 kcal/mol
 --------------------------------------------------
 SCF Energy (H0 + V/2)                       =   -2755.32206000 
 Solute Internal Energy (H0)                 =   -2755.30038527 
 Total Free Energy (H0 + V/2 + non-elec)     =   -2755.32206000 hartree
                                             = -1728990.68830616 kcal/mol
***********************************************************

 SCF   energy in the final basis set =    -2755.3220600015
 Total energy in the final basis set =    -2755.3220600015


 --------------------------------------------------------------
  Generalized many-body perturbation theory program
  by Joonho Lee, Fazle Rob, Xintian Feng, Evgeny Epifanovsky

 No regularization used 
 (reg. param. = 0.0000e+00)
  (P|Q)^-1/2 Time:  CPU 161.38 s  wall 3.25 s

 In RI-MP2 calculation: 
 # of frozen core orbitals: 45

 Components of the RIMP2 correlation energy:
        aaaa    correlation energy =        -0.6701677882 a.u.
        abab    correlation energy =        -3.7505398495 a.u.
        bbbb    correlation energy =        -0.6701677882 a.u.
        non-Brillouin singles      =        -0.0000000000 a.u.
        total same-spin energy     =        -1.3403355763 a.u.
        total opposite-spin energy =        -3.7505398495 a.u.

 Total  RIMP2   correlation energy =        -5.0908754258 a.u.
        RIMP2         total energy =     -2760.4129354273 a.u.

 RI-MP2 Energy Time:  CPU 2821.66 s  wall 46.31 s
 
 --------------------------------------------------------------
 
                    Orbital Energies (a.u.)
 --------------------------------------------------------------
 
 Alpha MOs
 -- Occupied --
-92.0124 -91.9911 -91.9767 -91.9609 -26.3346 -20.6106 -20.5884 -20.5882
-20.5471 -11.4079 -11.3791 -11.3261 -11.3107 -11.3100 -11.2960 -11.2915
-11.2878 -11.2869 -11.2843 -11.2838 -11.2835 -11.2831 -11.2769 -11.2766
-11.2716 -11.2633 -11.2602 -11.2524 -11.2431  -9.0113  -8.9953  -8.9792
 -8.9635  -6.6922  -6.6916  -6.6910  -6.6766  -6.6759  -6.6746  -6.6602
 -6.6594  -6.6580  -6.6447  -6.6438  -6.6427  -1.6496  -1.4701  -1.4117
 -1.4101  -1.3650  -1.2380  -1.2102  -1.1782  -1.1432  -1.1008  -1.0505
 -1.0471  -1.0296  -1.0085  -1.0003  -0.9710  -0.9603  -0.9498  -0.9404
 -0.8952  -0.8713  -0.8641  -0.8124  -0.7947  -0.7861  -0.7764  -0.7666
 -0.7647  -0.7337  -0.7211  -0.7167  -0.6978  -0.6946  -0.6841  -0.6773
 -0.6713  -0.6708  -0.6570  -0.6495  -0.6389  -0.6297  -0.6225  -0.6159
 -0.6108  -0.6044  -0.5966  -0.5914  -0.5780  -0.5680  -0.5647  -0.5594
 -0.5492  -0.5338  -0.5284  -0.5212  -0.5137  -0.5090  -0.5044  -0.5002
 -0.4846  -0.4820  -0.4799  -0.4674  -0.4620  -0.4602  -0.4586  -0.4486
 -0.4303  -0.4007  -0.3851  -0.3729  -0.3511  -0.2934  -0.2835  -0.2193
 -- Virtual --
  0.0276   0.0602   0.1142   0.1357   0.1372   0.1470   0.1528   0.1560
  0.1587   0.1596   0.1701   0.1741   0.1803   0.1841   0.1915   0.1935
  0.1985   0.2020   0.2040   0.2124   0.2164   0.2223   0.2239   0.2276
  0.2315   0.2326   0.2404   0.2465   0.2559   0.2612   0.2685   0.2741
  0.2879   0.2978   0.3110   0.3226   0.3328   0.3386   0.3434   0.3482
  0.3557   0.3590   0.3638   0.3680   0.3719   0.3799   0.3822   0.3851
  0.3879   0.3949   0.3981   0.4029   0.4062   0.4136   0.4174   0.4217
  0.4256   0.4272   0.4343   0.4382   0.4411   0.4457   0.4530   0.4562
  0.4565   0.4610   0.4665   0.4684   0.4724   0.4766   0.4822   0.4851
  0.4906   0.4955   0.4988   0.5040   0.5096   0.5138   0.5179   0.5212
  0.5257   0.5284   0.5329   0.5370   0.5442   0.5474   0.5501   0.5530
  0.5552   0.5570   0.5627   0.5669   0.5697   0.5733   0.5748   0.5852
  0.5870   0.5880   0.5944   0.5958   0.5983   0.6030   0.6064   0.6100
  0.6144   0.6148   0.6186   0.6196   0.6220   0.6241   0.6283   0.6294
  0.6326   0.6361   0.6395   0.6435   0.6472   0.6487   0.6559   0.6573
  0.6635   0.6650   0.6708   0.6753   0.6823   0.6883   0.6896   0.6941
  0.7036   0.7113   0.7137   0.7151   0.7219   0.7261   0.7370   0.7441
  0.7497   0.7537   0.7603   0.7662   0.7749   0.7816   0.7913   0.7934
  0.7990   0.7992   0.8076   0.8112   0.8138   0.8173   0.8228   0.8331
  0.8427   0.8523   0.8558   0.8615   0.8719   0.8741   0.8787   0.8886
  0.8897   0.8938   0.8992   0.9014   0.9074   0.9098   0.9158   0.9192
  0.9248   0.9338   0.9373   0.9386   0.9435   0.9489   0.9502   0.9586
  0.9636   0.9664   0.9720   0.9769   0.9818   0.9855   0.9912   0.9955
  0.9977   1.0020   1.0066   1.0092   1.0123   1.0156   1.0234   1.0334
  1.0390   1.0393   1.0465   1.0490   1.0528   1.0622   1.0693   1.0729
  1.0771   1.0805   1.0875   1.0925   1.0965   1.1000   1.1056   1.1122
  1.1155   1.1229   1.1278   1.1339   1.1382   1.1438   1.1474   1.1545
  1.1561   1.1627   1.1643   1.1677   1.1712   1.1799   1.1815   1.1871
  1.1903   1.1924   1.1945   1.2016   1.2045   1.2084   1.2110   1.2216
  1.2259   1.2319   1.2358   1.2380   1.2457   1.2467   1.2514   1.2577
  1.2623   1.2693   1.2738   1.2843   1.2855   1.2907   1.2962   1.3046
  1.3091   1.3150   1.3233   1.3253   1.3329   1.3371   1.3383   1.3448
  1.3470   1.3572   1.3640   1.3732   1.3819   1.3827   1.3903   1.3929
  1.4050   1.4116   1.4171   1.4196   1.4384   1.4435   1.4510   1.4556
  1.4583   1.4649   1.4684   1.4757   1.4882   1.4889   1.4953   1.5005
  1.5049   1.5096   1.5132   1.5159   1.5186   1.5287   1.5356   1.5379
  1.5418   1.5487   1.5512   1.5551   1.5623   1.5685   1.5747   1.5807
  1.5894   1.5923   1.6016   1.6126   1.6160   1.6233   1.6378   1.6449
  1.6484   1.6580   1.6629   1.6643   1.6724   1.6751   1.6815   1.6852
  1.6955   1.6985   1.7103   1.7173   1.7273   1.7315   1.7372   1.7499
  1.7562   1.7659   1.7726   1.7773   1.7927   1.8005   1.8039   1.8190
  1.8313   1.8325   1.8377   1.8452   1.8581   1.8608   1.8697   1.8760
  1.8817   1.8830   1.8909   1.9031   1.9165   1.9261   1.9327   1.9347
  1.9412   1.9457   1.9589   1.9722   1.9757   1.9835   1.9929   2.0071
  2.0145   2.0190   2.0305   2.0327   2.0362   2.0421   2.0443   2.0625
  2.0720   2.0801   2.0898   2.0971   2.1020   2.1092   2.1275   2.1358
  2.1465   2.1491   2.1607   2.1663   2.1745   2.1849   2.1873   2.1959
  2.2008   2.2041   2.2129   2.2175   2.2243   2.2356   2.2440   2.2506
  2.2583   2.2642   2.2722   2.2770   2.2881   2.2904   2.2954   2.3021
  2.3069   2.3220   2.3274   2.3406   2.3522   2.3585   2.3621   2.3659
  2.3836   2.3858   2.3943   2.4014   2.4121   2.4141   2.4193   2.4245
  2.4401   2.4526   2.4635   2.4688   2.4755   2.4847   2.4916   2.5027
  2.5130   2.5241   2.5299   2.5362   2.5444   2.5554   2.5619   2.5719
  2.5870   2.5907   2.5950   2.6073   2.6119   2.6142   2.6215   2.6242
  2.6382   2.6414   2.6451   2.6493   2.6510   2.6652   2.6673   2.6724
  2.6825   2.6912   2.6954   2.7010   2.7033   2.7098   2.7158   2.7223
  2.7297   2.7322   2.7382   2.7433   2.7496   2.7573   2.7631   2.7645
  2.7775   2.7830   2.7915   2.7983   2.8089   2.8128   2.8172   2.8361
  2.8416   2.8464   2.8516   2.8573   2.8604   2.8656   2.8746   2.8769
  2.8819   2.8899   2.9032   2.9088   2.9097   2.9314   2.9371   2.9469
  2.9542   2.9558   2.9661   2.9705   2.9761   2.9839   2.9881   2.9975
  3.0094   3.0125   3.0229   3.0296   3.0342   3.0443   3.0465   3.0503
  3.0535   3.0638   3.0717   3.0862   3.0870   3.0907   3.0969   3.1034
  3.1084   3.1128   3.1188   3.1233   3.1306   3.1383   3.1451   3.1492
  3.1508   3.1539   3.1606   3.1612   3.1666   3.1754   3.1801   3.1816
  3.1848   3.1948   3.2021   3.2043   3.2097   3.2161   3.2188   3.2218
  3.2334   3.2389   3.2430   3.2482   3.2519   3.2563   3.2628   3.2674
  3.2703   3.2760   3.2812   3.2855   3.2857   3.2928   3.2960   3.3000
  3.3033   3.3055   3.3139   3.3161   3.3257   3.3308   3.3351   3.3436
  3.3453   3.3488   3.3560   3.3585   3.3620   3.3662   3.3682   3.3707
  3.3726   3.3808   3.3830   3.3900   3.3956   3.3978   3.3994   3.4064
  3.4097   3.4197   3.4228   3.4275   3.4318   3.4385   3.4457   3.4473
  3.4525   3.4548   3.4598   3.4614   3.4664   3.4766   3.4827   3.4885
  3.4954   3.4996   3.5087   3.5114   3.5161   3.5219   3.5280   3.5336
  3.5377   3.5418   3.5509   3.5589   3.5685   3.5724   3.5797   3.5825
  3.5874   3.5942   3.5966   3.6024   3.6038   3.6071   3.6102   3.6203
  3.6276   3.6304   3.6340   3.6391   3.6428   3.6497   3.6563   3.6579
  3.6618   3.6672   3.6739   3.6781   3.6789   3.6847   3.6895   3.6964
  3.7006   3.7096   3.7125   3.7135   3.7180   3.7227   3.7277   3.7287
  3.7363   3.7372   3.7468   3.7507   3.7546   3.7660   3.7703   3.7789
  3.7821   3.7877   3.7922   3.7987   3.8083   3.8104   3.8217   3.8247
  3.8255   3.8317   3.8392   3.8461   3.8493   3.8537   3.8556   3.8639
  3.8695   3.8744   3.8785   3.8862   3.8886   3.9038   3.9072   3.9134
  3.9247   3.9318   3.9365   3.9399   3.9424   3.9444   3.9610   3.9637
  3.9715   3.9729   3.9764   3.9873   3.9984   4.0056   4.0086   4.0164
  4.0231   4.0318   4.0407   4.0457   4.0531   4.0588   4.0617   4.0697
  4.0716   4.0853   4.0941   4.0963   4.0980   4.1056   4.1159   4.1291
  4.1332   4.1423   4.1488   4.1619   4.1677   4.1705   4.1726   4.1785
  4.1837   4.1929   4.1951   4.2101   4.2117   4.2187   4.2287   4.2376
  4.2480   4.2663   4.2691   4.2748   4.2869   4.2930   4.2976   4.3103
  4.3174   4.3238   4.3355   4.3462   4.3481   4.3490   4.3589   4.3662
  4.3706   4.3774   4.3800   4.3934   4.4031   4.4095   4.4116   4.4171
  4.4213   4.4246   4.4316   4.4368   4.4424   4.4435   4.4522   4.4627
  4.4664   4.4753   4.4825   4.4963   4.5005   4.5120   4.5176   4.5224
  4.5293   4.5467   4.5534   4.5570   4.5700   4.5704   4.5834   4.5879
  4.5992   4.6068   4.6143   4.6185   4.6299   4.6392   4.6452   4.6493
  4.6561   4.6661   4.6668   4.6814   4.6917   4.7109   4.7150   4.7291
  4.7322   4.7455   4.7631   4.7794   4.7886   4.7963   4.8052   4.8093
  4.8210   4.8320   4.8405   4.8452   4.8538   4.8715   4.8847   4.8977
  4.9151   4.9324   4.9435   4.9466   4.9564   4.9603   4.9678   4.9717
  4.9884   5.0030   5.0094   5.0130   5.0143   5.0385   5.0457   5.0661
  5.0791   5.0900   5.1058   5.1272   5.1325   5.1526   5.1606   5.1699
  5.1827   5.1924   5.2000   5.2132   5.2213   5.2303   5.2338   5.2553
  5.2600   5.2643   5.2898   5.2901   5.3107   5.3161   5.3231   5.3339
  5.3420   5.3525   5.3561   5.3594   5.3739   5.3841   5.3934   5.3996
  5.4027   5.4128   5.4255   5.4410   5.4693   5.4738   5.4837   5.5008
  5.5094   5.5171   5.5187   5.5455   5.5565   5.5673   5.5796   5.5834
  5.6024   5.6094   5.6158   5.6202   5.6360   5.6489   5.6818   5.6878
  5.7279   5.7428   5.7658   5.7903   5.8023   5.8239   5.8442   5.8580
  5.8751   5.8913   5.9059   5.9436   5.9720   5.9786   5.9919   6.0140
  6.0444   6.0683   6.1245   6.1272   6.1347   6.1599   6.1756   6.1808
  6.1872   6.2079   6.2214   6.2497   6.2622   6.2751   6.2921   6.3046
  6.3100   6.3540   6.3812   6.4428   6.4770   6.4969   6.5485   6.5518
  6.5583   6.5849   6.6446   6.6789   6.6920   6.7202   6.7464   6.7613
  6.8084   6.8603   6.8631   6.8858   6.8994   6.9950   7.1309   7.1455
  7.1800   7.2136   7.2212   7.2388   7.3267   7.3291   7.3420   7.3741
  7.3799   7.4325   7.4642   7.4852   7.4866   7.4962   7.5246   7.5525
  7.6259   7.7425   7.7699   7.8021   7.8338   7.9156   7.9256   7.9555
  8.0107   8.1293   8.4024   8.7080   8.9475   9.0234   9.3668   9.5117
  9.7221  10.3923  11.2839  11.4504  11.8779  11.9550  12.1253  12.3939
 12.4215  12.5053  12.7092  12.9435  13.0213  13.2269  13.4854  13.6173
 13.7674  13.8994  13.9334  14.0248  14.2877  14.4503  15.0344  15.2242
 --------------------------------------------------------------
 
          Ground-State Mulliken Net Atomic Charges

     Atom                 Charge (a.u.)
  ----------------------------------------
      1 C                    -0.071050
      2 C                    -0.241848
      3 S                    -0.129648
      4 C                    -0.053183
      5 H                     0.195983
      6 C                    -0.046491
      7 C                     0.218241
      8 C                     0.234788
      9 C                    -0.078532
     10 C                    -0.004746
     11 O                    -0.334201
     12 O                    -0.343810
     13 C                    -0.082764
     14 H                     0.120197
     15 H                     0.091993
     16 H                     0.093249
     17 C                    -0.090171
     18 H                     0.124673
     19 H                     0.092426
     20 H                     0.093547
     21 C                    -0.356103
     22 S                    -0.089824
     23 C                     0.168037
     24 H                     0.196628
     25 C                    -0.023455
     26 S                     0.081129
     27 C                    -0.269109
     28 C                    -0.146350
     29 C                    -0.011157
     30 C                     0.391223
     31 C                    -0.150087
     32 S                     0.027453
     33 C                     0.461403
     34 O                    -0.455720
     35 O                    -0.298702
     36 F                    -0.207707
     37 C                    -0.055141
     38 H                     0.116304
     39 H                     0.084164
     40 H                     0.083841
     41 H                     0.213549
     42 H                     0.119876
     43 H                     0.117715
     44 H                     0.213380
  ----------------------------------------
  Sum of atomic charges =     0.000000

 -----------------------------------------------------------------
                    Cartesian Multipole Moments
 -----------------------------------------------------------------
    Charge (ESU x 10^10)
                -0.0000
    Dipole Moment (Debye)
         X       1.1822      Y       1.2101      Z       3.1918
       Tot       3.6124
    Quadrupole Moments (Debye-Ang)
        XX    -193.8612     XY       0.9899     YY    -166.8722
        XZ     -10.9521     YZ      -5.3541     ZZ    -196.1896
    Octopole Moments (Debye-Ang^2)
       XXX     -67.5105    XXY     357.2450    XYY      -6.5776
       YYY     928.9064    XXZ     166.6549    XYZ      35.8495
       YYZ      83.6421    XZZ      -4.8165    YZZ     447.2649
       ZZZ     517.4894
    Hexadecapole Moments (Debye-Ang^3)
      XXXX    -748.6259   XXXY    -505.3525   XXYY   -3775.3807
      XYYY    -501.6903   YYYY  -19170.2577   XXXZ     679.2601
      XXYZ     612.4719   XYYZ     -10.0256   YYYZ    1964.0948
      XXZZ   -1328.5925   XYZZ     -57.5372   YYZZ   -4356.8385
      XZZZ     435.9200   YZZZ    1218.4208   ZZZZ   -7455.7948
 -----------------------------------------------------------------
 Total job time:  335.50s(wall), 10426.59s(cpu) 
 Sun Sep 24 16:38:44 2023

        *************************************************************
        *                                                           *
        *  Thank you very much for using Q-Chem.  Have a nice day.  *
        *                                                           *
        *************************************************************


0 sent ACK to 0 
now end server 0 ... 
cleanup process ... done
remove work dirs ./qchem3486390.0 -- ./qchem3486390.0
rm -rf ./qchem3486390.0
rm -rf ./qchem3486390
