You are running Q-Chem version: 5.4.0

#
# job setting
#
local host:  exp-6-02
current dir: /expanse/lustre/projects/csd626/rramji/aromodel/PTB7_fin/Hydrogenated_Rotation_Test
input file:  fin_bdt_Phi_15_Theta_130_fin_ftt_Hydrogenated.qcin
output file: 
nprocs     : 1
nthreads   : 64
#
# qchem installation setting
#
QC:          /cm/shared/apps/spack/cpu/opt/spack/linux-centos8-zen2/gcc-10.2.0/qchem-5.4-akfmr7b3t57bfs6qan3padb2wnb2i7cl
QCAUX:       /cm/shared/apps/spack/cpu/opt/spack/linux-centos8-zen2/gcc-10.2.0/qchem-5.4-akfmr7b3t57bfs6qan3padb2wnb2i7cl/qcaux
QCPROG:      /cm/shared/apps/spack/cpu/opt/spack/linux-centos8-zen2/gcc-10.2.0/qchem-5.4-akfmr7b3t57bfs6qan3padb2wnb2i7cl/exe/qcprog.exe
QCPROG_S:    /cm/shared/apps/spack/cpu/opt/spack/linux-centos8-zen2/gcc-10.2.0/qchem-5.4-akfmr7b3t57bfs6qan3padb2wnb2i7cl/exe/qcprog.exe_s
PARALLEL:    -DPARALLEL
QCMPI:       mpich
#
# qchem directory setting
#
qcrun:       qchem407348
QCSCRATCH:   .
QCLOCALSCR:  
QCTMPDIR:    .
QCFILEPREF:  ./qchem407348
QCSAVEDIR:   
workdirs:    ./qchem407348
workdir0:    ./qchem407348
partmpdirs =  
#
# parallel setting
#
QCRSH:           ssh
QCMPI:           mpich
QCMPIRUN:        /cm/shared/apps/spack/cpu/opt/spack/linux-centos8-zen2/gcc-10.2.0/qchem-5.4-akfmr7b3t57bfs6qan3padb2wnb2i7cl/bin/mpi/mpirun_qchem
QCMACHINEFILE:   ./qchem407348/hostfile
exp-6-02

#
# env setting
#
exported envs:   QC QCAUX QCSCRATCH QCRUNNAME QCFILEPREF QCPROG QCPROG_S GUIFILE

Running Job 1 of 1 fin_bdt_Phi_15_Theta_130_fin_ftt_Hydrogenated.qcin
qchem fin_bdt_Phi_15_Theta_130_fin_ftt_Hydrogenated.qcin_407348.0 ./qchem407348/ 1
/cm/shared/apps/spack/cpu/opt/spack/linux-centos8-zen2/gcc-10.2.0/qchem-5.4-akfmr7b3t57bfs6qan3padb2wnb2i7cl/bin/mpi/mpirun_qchem -machinefile ./qchem407348/hostfile -np 1 /cm/shared/apps/spack/cpu/opt/spack/linux-centos8-zen2/gcc-10.2.0/qchem-5.4-akfmr7b3t57bfs6qan3padb2wnb2i7cl/exe/qcprog.exe fin_bdt_Phi_15_Theta_130_fin_ftt_Hydrogenated.qcin_407348.0 ./qchem407348/

Process 0 of 1 is on exp-6-02 - thread support 0
initial socket setup ...start
initial socket setup ...done 
now start server 0 ... 
                  Welcome to Q-Chem
     A Quantum Leap Into The Future Of Chemistry


 Q-Chem 5.4, Q-Chem, Inc., Pleasanton, CA (2021)

 License issued to: University of California, San Diego (site)

 E. Epifanovsky,  A. T. B. Gilbert,  Xintian Feng,  Joonho Lee,  Yuezhi Mao,  
 N. Mardirossian,  P. Pokhilko,  A. White,  M. Wormit,  M. P. Coons,  
 A. L. Dempwolff,  Zhengting Gan,  D. Hait,  P. R. Horn,  L. D. Jacobson,  
 I. Kaliman,  J. Kussmann,  A. W. Lange,  Ka Un Lao,  D. S. Levine,  Jie Liu,  
 S. C. McKenzie,  A. F. Morrison,  K. Nanda,  F. Plasser,  D. R. Rehn,  
 M. L. Vidal,  Zhi-Qiang You,  Ying Zhu,  B. Alam,  B. Albrecht,  
 A. Aldossary,  E. Alguire,  J. H. Andersen,  D. Barton,  K. Begam,  A. Behn,  
 Y. A. Bernard,  E. J. Berquist,  H. Burton,  A. Carreras,  K. Carter-Fenk,  
 R. Chakraborty,  A. D. Chien,  K. D. Closser,  V. Cofer-Shabica,  
 S. Dasgupta,  Jia Deng,  M. de Wergifosse,  M. Diedenhofen,  Hainam Do,  
 S. Ehlert,  Po-Tung Fang,  S. Fatehi,  Qingguo Feng,  J. Gayvert,  
 Qinghui Ge,  G. Gidofalvi,  M. Goldey,  J. Gomes,  C. Gonzalez-Espinoza,  
 S. Gulania,  A. Gunina,  M. W. D. Hanson-Heine,  P. H. P. Harbach,  
 A. W. Hauser,  M. F. Herbst,  M. Hernandez Vera,  M. Hodecker,  
 Z. C. Holden,  S. Houck,  Xunkun Huang,  Kerwin Hui,  B. C. Huynh,  
 M. Ivanov,  Hyunjun Ji,  Hanjie Jiang,  B. Kaduk,  S. Kaehler,  
 K. Khistyaev,  Jaehoon Kim,  P. Klunzinger,  Z. Koczor-Benda,  
 Joong Hoon Koh,  D. Kosenkov,  L. Koulias,  T. Kowalczyk,  C. M. Krauter,  
 K. Kue,  A. Kunitsa,  T. Kus,  A. Landau,  K. V. Lawler,  D. Lefrancois,  
 S. Lehtola,  Rain Li,  Yi-Pei Li,  Jiashu Liang,  M. Liebenthal,  
 Hung-Hsuan Lin,  You-Sheng Lin,  Fenglai Liu,  Kuan-Yu Liu,  
 M. Loipersberger,  A. Luenser,  A. Manjanath,  P. Manohar,  E. Mansoor,  
 S. F. Manzer,  Shan-Ping Mao,  A. V. Marenich,  T. Markovich,  S. Mason,  
 S. A. Maurer,  P. F. McLaughlin,  M. F. S. J. Menger,  J.-M. Mewes,  
 S. A. Mewes,  P. Morgante,  J. W. Mullinax,  T. S. Nguyen-Beck,  
 K. J. Oosterbaan,  G. Paran,  Alexander C. Paul,  Suranjan K. Paul,  
 F. Pavosevic,  Zheng Pei,  S. Prager,  E. I. Proynov,  E. Ramos,  B. Rana,  
 A. E. Rask,  A. Rettig,  R. M. Richard,  F. Rob,  E. Rossomme,  T. Scheele,  
 M. Scheurer,  M. Schneider,  N. Sergueev,  S. M. Sharada,  W. Skomorowski,  
 D. W. Small,  C. J. Stein,  Yu-Chuan Su,  E. J. Sundstrom,  Zhen Tao,  
 J. Thirman,  T. Tsuchimochi,  N. M. Tubman,  S. P. Veccham,  O. Vydrov,  
 J. Wenzel,  J. Witte,  A. Yamada,  Kun Yao,  S. Yeganeh,  S. R. Yost,  
 A. Zech,  Igor Ying Zhang,  Xing Zhang,  Yu Zhang,  D. Zuev,  
 A. Aspuru-Guzik,  A. T. Bell,  N. A. Besley,  K. B. Bravaya,  B. R. Brooks,  
 D. Casanova,  Jeng-Da Chai,  S. Coriani,  C. J. Cramer,  
 A. E. DePrince, III,  R. A. DiStasio Jr.,  A. Dreuw,  B. D. Dunietz,  
 T. R. Furlani,  W. A. Goddard III,  S. Grimme,  S. Hammes-Schiffer,  
 T. Head-Gordon,  W. J. Hehre,  Chao-Ping Hsu,  T.-C. Jagau,  Yousung Jung,  
 A. Klamt,  Jing Kong,  D. S. Lambrecht,  WanZhen Liang,  N. J. Mayhall,  
 C. W. McCurdy,  J. B. Neaton,  C. Ochsenfeld,  J. A. Parkhill,  R. Peverati,  
 V. A. Rassolov,  Yihan Shao,  L. V. Slipchenko,  T. Stauch,  R. P. Steele,  
 J. E. Subotnik,  A. J. W. Thom,  A. Tkatchenko,  D. G. Truhlar,  
 T. Van Voorhis,  T. A. Wesolowski,  K. B. Whaley,  H. L. Woodcock III,  
 P. M. Zimmerman,  S. Faraji,  P. M. W. Gill,  M. Head-Gordon,  
 J. M. Herbert,  A. I. Krylov

 Contributors to earlier versions of Q-Chem not listed above: 
 R. D. Adamson,  B. Austin,  R. Baer,  J. Baker,  G. J. O. Beran,  
 K. Brandhorst,  S. T. Brown,  E. F. C. Byrd,  A. K. Chakraborty,  
 G. K. L. Chan,  Chun-Min Chang,  Yunqing Chen,  C.-L. Cheng,  
 Siu Hung Chien,  D. M. Chipman,  D. L. Crittenden,  H. Dachsel,  
 R. J. Doerksen,  A. D. Dutoi,  R. G. Edgar,  J. Fosso-Tande,  
 L. Fusti-Molnar,  D. Ghosh,  A. Ghysels,  A. Golubeva-Zadorozhnaya,  
 J. Gonthier,  M. S. Gordon,  S. R. Gwaltney,  G. Hawkins,  J. E. Herr,  
 A. Heyden,  S. Hirata,  E. G. Hohenstein,  G. Kedziora,  F. J. Keil,  
 C. Kelley,  Jihan Kim,  R. A. King,  R. Z. Khaliullin,  P. P. Korambath,  
 W. Kurlancheek,  A. Laurent,  A. M. Lee,  M. S. Lee,  S. V. Levchenko,  
 Ching Yeh Lin,  D. Liotard,  E. Livshits,  R. C. Lochan,  I. Lotan,  
 L. A. Martinez-Martinez,  P. E. Maslen,  N. Nair,  D. P. O'Neill,  
 D. Neuhauser,  E. Neuscamman,  C. M. Oana,  R. Olivares-Amaya,  R. Olson,  
 T. M. Perrine,  B. Peters,  P. A. Pieniazek,  A. Prociuk,  Y. M. Rhee,  
 J. Ritchie,  M. A. Rohrdanz,  E. Rosta,  N. J. Russ,  H. F. Schaefer III,  
 M. W. Schmidt,  N. E. Schultz,  S. Sharma,  N. Shenvi,  C. D. Sherrill,  
 A. C. Simmonett,  A. Sodt,  T. Stein,  D. Stuck,  K. S. Thanthiriwatte,  
 V. Vanovschi,  L. Vogt,  Tao Wang,  A. Warshel,  M. A. Watson,  
 C. F. Williams,  Q. Wu,  X. Xu,  Jun Yang,  W. Zhang,  Yan Zhao

 Please cite Q-Chem as follows:
 Y. Shao et al., Mol. Phys. 113, 184-215 (2015)
 DOI: 10.1080/00268976.2014.952696

 Q-Chem 5.4.0 for Intel X86 EM64T Linux

 Parts of Q-Chem use Armadillo 9.800.1 (Horizon Scraper).
 http://arma.sourceforge.net/

 Q-Chem begins on Tue Sep 26 18:26:03 2023  

 Host: 
0

     Scratch files written to ./qchem407348//
 May1621 |scratch|qcdevops|jenkins|workspace|build_RNUM    
 Parallel job on  1  processors
 Processing $rem in /cm/shared/apps/spack/cpu/opt/spack/linux-centos8-zen2/gcc-10.2.0/qchem-5.4-akfmr7b3t57bfs6qan3padb2wnb2i7cl/config/preferences:
 Processing $rem in /home/rramji/.qchemrc:
 Symmetry turned off for PCM/SM12/SMD calculation
 Core orbitals will be frozen

 Checking the input file for inconsistencies... 	...done.

 Q-Chem warning in module forms1/BasisType.C, line 2236:

 You are not using the predefined 5D/6D in this basis set.


--------------------------------------------------------------
User input:
--------------------------------------------------------------
$molecule
0 1
C	-0.174379	-8.519741	-0.208886
C	0.650052	-7.635967	0.472151
S	-1.377058	-7.651740	-1.193717
C	0.353105	-6.261894	0.225125
H	1.458961	-7.954738	1.141594
C	-0.740583	-6.079985	-0.692811
C	-1.195546	-4.798382	-1.039773
C	1.023267	-5.153542	0.817634
C	0.565262	-3.869626	0.473754
C	-0.527745	-3.688927	-0.447350
O	2.054917	-5.481075	1.644483
O	-2.232592	-4.479871	-1.869424
C	-2.565470	-5.356026	-2.939466
H	-3.248608	-4.790496	-3.601405
H	-3.094885	-6.268513	-2.587892
H	-1.664539	-5.658187	-3.516052
C	2.524564	-4.546999	2.608813
H	3.211568	-5.107564	3.270661
H	1.692342	-4.131473	3.216646
H	3.090211	-3.712085	2.141184
C	-0.823402	-2.314326	-0.690319
S	1.194935	-2.295487	0.985511
C	0.000000	-1.435180	0.000000
H	-1.630024	-1.993211	-1.361286
C	0.000000	0.000000	0.000000
S	0.234946	0.868203	1.510732
C	0.641630	2.390125	0.727629
C	0.235036	0.877284	-1.064665
C	0.593019	2.219143	-0.678287
C	0.219452	0.812732	-2.486150
C	0.546689	2.034501	-3.106916
S	0.866345	3.240357	-1.965735
C	0.617067	2.279095	-4.559972
O	0.378342	1.376631	-5.350277
O	0.952308	3.517725	-5.004375
F	-0.065123	-0.264443	-3.246290
C	1.054950	3.861577	-6.334976
H	1.341516	4.928732	-6.370268
H	0.093573	3.716085	-6.875609
H	1.822303	3.252232	-6.861878
H	0.879812	3.278780	1.321510
H	-0.744739	-9.146471	0.486655
H	0.399033	-9.150570	-0.898184
H	-0.687683	-1.444158	0.832713
$end

$rem
JOBTYPE		SP
EXCHANGE	HF
CORRELATION	pRIMP2
BASIS		cc-pvtz
METHOD		rimp2
AUX_BASIS	rimp2-cc-pvtz
SOLVENT_METHOD	PCM
PURECART	11111
SYMMETRY	false
MEM_TOTAL	110000
SCF_CONVERGENCE = 6
THRESH=10
GUI = 2
$end



$solvent
dielectric 4.90
$end
--------------------------------------------------------------
 ----------------------------------------------------------------
             Standard Nuclear Orientation (Angstroms)
    I     Atom           X                Y                Z
 ----------------------------------------------------------------
    1      C      -0.1743790000    -8.5197410000    -0.2088860000
    2      C       0.6500520000    -7.6359670000     0.4721510000
    3      S      -1.3770580000    -7.6517400000    -1.1937170000
    4      C       0.3531050000    -6.2618940000     0.2251250000
    5      H       1.4589610000    -7.9547380000     1.1415940000
    6      C      -0.7405830000    -6.0799850000    -0.6928110000
    7      C      -1.1955460000    -4.7983820000    -1.0397730000
    8      C       1.0232670000    -5.1535420000     0.8176340000
    9      C       0.5652620000    -3.8696260000     0.4737540000
   10      C      -0.5277450000    -3.6889270000    -0.4473500000
   11      O       2.0549170000    -5.4810750000     1.6444830000
   12      O      -2.2325920000    -4.4798710000    -1.8694240000
   13      C      -2.5654700000    -5.3560260000    -2.9394660000
   14      H      -3.2486080000    -4.7904960000    -3.6014050000
   15      H      -3.0948850000    -6.2685130000    -2.5878920000
   16      H      -1.6645390000    -5.6581870000    -3.5160520000
   17      C       2.5245640000    -4.5469990000     2.6088130000
   18      H       3.2115680000    -5.1075640000     3.2706610000
   19      H       1.6923420000    -4.1314730000     3.2166460000
   20      H       3.0902110000    -3.7120850000     2.1411840000
   21      C      -0.8234020000    -2.3143260000    -0.6903190000
   22      S       1.1949350000    -2.2954870000     0.9855110000
   23      C       0.0000000000    -1.4351800000     0.0000000000
   24      H      -1.6300240000    -1.9932110000    -1.3612860000
   25      C       0.0000000000     0.0000000000     0.0000000000
   26      S       0.2349460000     0.8682030000     1.5107320000
   27      C       0.6416300000     2.3901250000     0.7276290000
   28      C       0.2350360000     0.8772840000    -1.0646650000
   29      C       0.5930190000     2.2191430000    -0.6782870000
   30      C       0.2194520000     0.8127320000    -2.4861500000
   31      C       0.5466890000     2.0345010000    -3.1069160000
   32      S       0.8663450000     3.2403570000    -1.9657350000
   33      C       0.6170670000     2.2790950000    -4.5599720000
   34      O       0.3783420000     1.3766310000    -5.3502770000
   35      O       0.9523080000     3.5177250000    -5.0043750000
   36      F      -0.0651230000    -0.2644430000    -3.2462900000
   37      C       1.0549500000     3.8615770000    -6.3349760000
   38      H       1.3415160000     4.9287320000    -6.3702680000
   39      H       0.0935730000     3.7160850000    -6.8756090000
   40      H       1.8223030000     3.2522320000    -6.8618780000
   41      H       0.8798120000     3.2787800000     1.3215100000
   42      H      -0.7447390000    -9.1464710000     0.4866550000
   43      H       0.3990330000    -9.1505700000    -0.8981840000
   44      H      -0.6876830000    -1.4441580000     0.8327130000
 ----------------------------------------------------------------
 Nuclear Repulsion Energy =        3365.22544653 hartrees
 There are      120 alpha and      120 beta electrons
 Requested basis set is cc-pVTZ
 There are 388 shells and 1096 basis functions

 Total QAlloc Memory Limit 110000 MB
 Mega-Array Size       188 MB
 MEM_STATIC part       192 MB
 Discretize the solute cavity surface with Lebedev spheres
	Using 110 Lebedev grid points for each H atom
	Using 194 Lebedev grid points for other atoms
	Atomic van der Waals radii will be scaled by 1.20
 Remove points where switching function is < 1.0e-08
 Keep 2966 surface tesserae and discard 4310 interior tesserae
 Molecular Surface Area = 440.576 Angst**2
 Requested basis set is rimp2-cc-pVTZ
 There are 853 shells and 2963 basis functions
 A cutoff of  1.0D-10 yielded  33375 shell pairs
 There are    251939 function pairs (    325930 Cartesian)
 Smallest overlap matrix eigenvalue = 2.19E-05

 Scale SEOQF with 1.000000e-01/1.000000e-02/1.000000e-02

 Standard Electronic Orientation quadrupole field applied
 Nucleus-field energy     =     0.0000000274 hartrees
 Guess from superposition of atomic densities
 Warning:  Energy on first SCF cycle will be non-variational
 SAD guess density has 240.000000 electrons

 -----------------------------------------------------------------------
  General SCF calculation program by
  Eric Jon Sundstrom, Paul Horn, Yuezhi Mao, Dmitri Zuev, Alec White,
  David Stuck, Shaama M.S., Shane Yost, Joonho Lee, David Small,
  Daniel Levine, Susi Lehtola, Hugh Burton, Evgeny Epifanovsky,
  Bang C. Huynh
 -----------------------------------------------------------------------
 Hartree-Fock
 using 64 threads for integral computing
 -------------------------------------------------------
 OpenMP Integral computing Module                
 Release: version 1.0, May 2013, Q-Chem Inc. Pittsburgh 
 -------------------------------------------------------
 A restricted SCF calculation will be
 performed using DIIS
 SCF converges when DIIS error is below 1.0e-06
 ---------------------------------------
  Cycle       Energy         DIIS error
 ---------------------------------------
    1   -2767.3453913560      1.77e-02  
    2   -2754.8670697444      1.54e-03  
    3   -2755.2169752547      8.75e-04  
    4   -2755.3068114363      2.54e-04  
    5   -2755.3204004991      7.30e-05  
    6   -2755.3219305114      2.61e-05  
    7   -2755.3223370216      1.37e-05  
    8   -2755.3224681427      5.83e-06  
    9   -2755.3224998242      3.12e-06  
   10   -2755.3225078386      1.50e-06  
   11   -2755.3225102735      7.78e-07  Convergence criterion met
 ---------------------------------------
 SCF time:   CPU 7406.01s  wall 271.00s 

************** Final PCM Free Energy Summary **************
 G_electrostatic  =      -0.02204216 hartree =     -13.83166717 kcal/mol
 G_cavitation     =       0.00000000 hartree =       0.00000000 kcal/mol
 G_dispersion     =       0.00000000 hartree =       0.00000000 kcal/mol
 G_repulsion      =       0.00000000 hartree =       0.00000000 kcal/mol
 --------------------------------------------------
 Non-electrostatic Free Energy =       0.00000000 hartree =       0.00000000 kcal/mol
 Total                         =      -0.02204216 hartree =     -13.83166717 kcal/mol
 --------------------------------------------------
 SCF Energy (H0 + V/2)                       =   -2755.32251027 
 Solute Internal Energy (H0)                 =   -2755.30046811 
 Total Free Energy (H0 + V/2 + non-elec)     =   -2755.32251027 hartree
                                             = -1728990.97085610 kcal/mol
***********************************************************

 SCF   energy in the final basis set =    -2755.3225102735
 Total energy in the final basis set =    -2755.3225102735


 --------------------------------------------------------------
  Generalized many-body perturbation theory program
  by Joonho Lee, Fazle Rob, Xintian Feng, Evgeny Epifanovsky

 No regularization used 
 (reg. param. = 0.0000e+00)
  (P|Q)^-1/2 Time:  CPU 129.53 s  wall 2.04 s

 In RI-MP2 calculation: 
 # of frozen core orbitals: 45

 Components of the RIMP2 correlation energy:
        aaaa    correlation energy =        -0.6700222637 a.u.
        abab    correlation energy =        -3.7515102518 a.u.
        bbbb    correlation energy =        -0.6700222637 a.u.
        non-Brillouin singles      =        -0.0000000000 a.u.
        total same-spin energy     =        -1.3400445274 a.u.
        total opposite-spin energy =        -3.7515102518 a.u.

 Total  RIMP2   correlation energy =        -5.0915547792 a.u.
        RIMP2         total energy =     -2760.4140650527 a.u.

 RI-MP2 Energy Time:  CPU 2876.42 s  wall 46.51 s
 
 --------------------------------------------------------------
 
                    Orbital Energies (a.u.)
 --------------------------------------------------------------
 
 Alpha MOs
 -- Occupied --
-92.0175 -91.9949 -91.9800 -91.9579 -26.3363 -20.6125 -20.5873 -20.5867
-20.5505 -11.4108 -11.3783 -11.3145 -11.3089 -11.3076 -11.2979 -11.2974
-11.2946 -11.2887 -11.2850 -11.2836 -11.2820 -11.2820 -11.2805 -11.2729
-11.2727 -11.2582 -11.2579 -11.2494 -11.2365  -9.0160  -8.9990  -8.9823
 -8.9605  -6.6967  -6.6962  -6.6957  -6.6802  -6.6796  -6.6782  -6.6633
 -6.6624  -6.6611  -6.6418  -6.6408  -6.6398  -1.6492  -1.4722  -1.4106
 -1.4085  -1.3676  -1.2383  -1.2096  -1.1754  -1.1441  -1.0994  -1.0502
 -1.0463  -1.0306  -1.0090  -0.9982  -0.9725  -0.9597  -0.9487  -0.9403
 -0.8940  -0.8717  -0.8644  -0.8076  -0.7957  -0.7856  -0.7776  -0.7719
 -0.7649  -0.7327  -0.7219  -0.7172  -0.6974  -0.6925  -0.6822  -0.6789
 -0.6726  -0.6653  -0.6565  -0.6484  -0.6355  -0.6301  -0.6198  -0.6144
 -0.6109  -0.6068  -0.5954  -0.5929  -0.5795  -0.5673  -0.5587  -0.5522
 -0.5486  -0.5366  -0.5306  -0.5228  -0.5138  -0.5077  -0.5046  -0.5005
 -0.4865  -0.4852  -0.4781  -0.4727  -0.4623  -0.4616  -0.4599  -0.4459
 -0.4271  -0.4007  -0.3856  -0.3704  -0.3515  -0.2933  -0.2867  -0.2190
 -- Virtual --
  0.0259   0.0542   0.1108   0.1228   0.1402   0.1487   0.1534   0.1550
  0.1580   0.1612   0.1735   0.1774   0.1813   0.1860   0.1888   0.1953
  0.2004   0.2038   0.2044   0.2084   0.2182   0.2217   0.2228   0.2263
  0.2300   0.2336   0.2389   0.2451   0.2511   0.2571   0.2683   0.2727
  0.2738   0.2917   0.3063   0.3191   0.3333   0.3379   0.3399   0.3436
  0.3489   0.3543   0.3582   0.3645   0.3695   0.3746   0.3792   0.3835
  0.3845   0.3903   0.3951   0.4013   0.4056   0.4103   0.4194   0.4218
  0.4259   0.4285   0.4318   0.4326   0.4390   0.4424   0.4438   0.4520
  0.4560   0.4595   0.4638   0.4666   0.4731   0.4761   0.4817   0.4836
  0.4858   0.4912   0.4978   0.5024   0.5054   0.5096   0.5128   0.5213
  0.5250   0.5290   0.5308   0.5350   0.5379   0.5435   0.5495   0.5529
  0.5563   0.5579   0.5621   0.5650   0.5695   0.5759   0.5789   0.5808
  0.5840   0.5887   0.5914   0.5923   0.5967   0.5994   0.6041   0.6098
  0.6134   0.6147   0.6175   0.6237   0.6253   0.6262   0.6275   0.6287
  0.6352   0.6381   0.6426   0.6454   0.6473   0.6487   0.6540   0.6577
  0.6619   0.6649   0.6719   0.6761   0.6814   0.6883   0.6887   0.6929
  0.6985   0.7063   0.7147   0.7158   0.7171   0.7180   0.7246   0.7429
  0.7447   0.7562   0.7581   0.7685   0.7729   0.7777   0.7804   0.7858
  0.7930   0.7949   0.8003   0.8035   0.8084   0.8149   0.8185   0.8237
  0.8346   0.8354   0.8453   0.8496   0.8585   0.8658   0.8727   0.8800
  0.8927   0.8937   0.8962   0.9005   0.9045   0.9087   0.9138   0.9161
  0.9238   0.9269   0.9342   0.9383   0.9416   0.9476   0.9507   0.9583
  0.9641   0.9659   0.9755   0.9770   0.9799   0.9832   0.9900   0.9941
  0.9967   1.0003   1.0066   1.0109   1.0157   1.0163   1.0223   1.0248
  1.0290   1.0349   1.0445   1.0496   1.0529   1.0567   1.0603   1.0674
  1.0728   1.0761   1.0801   1.0888   1.0960   1.0964   1.1035   1.1078
  1.1125   1.1203   1.1255   1.1326   1.1366   1.1393   1.1414   1.1503
  1.1554   1.1598   1.1616   1.1686   1.1709   1.1745   1.1800   1.1842
  1.1878   1.1918   1.1922   1.1985   1.2024   1.2095   1.2146   1.2188
  1.2207   1.2253   1.2350   1.2427   1.2469   1.2493   1.2515   1.2537
  1.2600   1.2714   1.2767   1.2796   1.2819   1.2871   1.2894   1.2985
  1.3024   1.3047   1.3142   1.3243   1.3330   1.3347   1.3371   1.3418
  1.3439   1.3523   1.3609   1.3637   1.3728   1.3876   1.3933   1.3955
  1.4041   1.4137   1.4173   1.4239   1.4321   1.4398   1.4452   1.4463
  1.4571   1.4720   1.4800   1.4843   1.4882   1.4945   1.4975   1.5006
  1.5058   1.5121   1.5148   1.5190   1.5251   1.5297   1.5357   1.5400
  1.5406   1.5446   1.5510   1.5555   1.5580   1.5622   1.5677   1.5729
  1.5773   1.5906   1.6033   1.6088   1.6212   1.6237   1.6308   1.6340
  1.6472   1.6552   1.6571   1.6637   1.6693   1.6731   1.6777   1.6917
  1.6954   1.6973   1.7151   1.7171   1.7226   1.7270   1.7344   1.7470
  1.7603   1.7658   1.7730   1.7840   1.7859   1.7896   1.8024   1.8152
  1.8175   1.8284   1.8319   1.8419   1.8548   1.8667   1.8696   1.8735
  1.8759   1.8792   1.8897   1.9085   1.9177   1.9279   1.9322   1.9395
  1.9459   1.9494   1.9533   1.9586   1.9772   1.9849   1.9995   2.0052
  2.0111   2.0189   2.0251   2.0266   2.0369   2.0394   2.0402   2.0595
  2.0678   2.0725   2.0933   2.0944   2.1030   2.1072   2.1251   2.1314
  2.1389   2.1460   2.1561   2.1610   2.1673   2.1814   2.1860   2.1938
  2.1964   2.1980   2.2063   2.2148   2.2231   2.2237   2.2409   2.2452
  2.2473   2.2611   2.2694   2.2780   2.2818   2.2918   2.2981   2.3014
  2.3080   2.3203   2.3277   2.3312   2.3450   2.3463   2.3613   2.3620
  2.3826   2.3860   2.3901   2.4044   2.4132   2.4159   2.4212   2.4297
  2.4359   2.4455   2.4637   2.4674   2.4816   2.4842   2.4998   2.5076
  2.5093   2.5139   2.5290   2.5331   2.5426   2.5593   2.5637   2.5687
  2.5836   2.5838   2.5996   2.6023   2.6159   2.6205   2.6253   2.6282
  2.6307   2.6388   2.6464   2.6497   2.6546   2.6624   2.6671   2.6706
  2.6827   2.6887   2.6923   2.6968   2.7032   2.7124   2.7185   2.7261
  2.7303   2.7369   2.7387   2.7423   2.7450   2.7607   2.7680   2.7743
  2.7770   2.7902   2.7977   2.8053   2.8120   2.8135   2.8258   2.8310
  2.8393   2.8440   2.8502   2.8559   2.8612   2.8691   2.8705   2.8833
  2.8854   2.8945   2.8970   2.9033   2.9172   2.9216   2.9270   2.9451
  2.9582   2.9631   2.9651   2.9713   2.9779   2.9839   2.9891   2.9987
  3.0053   3.0163   3.0250   3.0279   3.0422   3.0434   3.0453   3.0473
  3.0591   3.0653   3.0697   3.0825   3.0895   3.0911   3.0994   3.1045
  3.1128   3.1128   3.1182   3.1227   3.1302   3.1368   3.1421   3.1465
  3.1496   3.1564   3.1593   3.1668   3.1712   3.1737   3.1810   3.1848
  3.1855   3.1970   3.2019   3.2040   3.2087   3.2134   3.2174   3.2233
  3.2319   3.2363   3.2469   3.2509   3.2587   3.2614   3.2638   3.2686
  3.2699   3.2759   3.2839   3.2855   3.2872   3.2911   3.2959   3.2985
  3.3084   3.3098   3.3147   3.3166   3.3250   3.3276   3.3284   3.3431
  3.3434   3.3466   3.3534   3.3566   3.3598   3.3616   3.3637   3.3653
  3.3705   3.3752   3.3826   3.3970   3.3989   3.4007   3.4021   3.4067
  3.4133   3.4238   3.4256   3.4286   3.4312   3.4378   3.4441   3.4479
  3.4521   3.4543   3.4575   3.4625   3.4740   3.4773   3.4803   3.4831
  3.4930   3.4954   3.5007   3.5065   3.5137   3.5219   3.5314   3.5350
  3.5455   3.5504   3.5551   3.5662   3.5687   3.5693   3.5763   3.5814
  3.5872   3.5896   3.5993   3.6009   3.6042   3.6123   3.6140   3.6153
  3.6253   3.6287   3.6353   3.6364   3.6407   3.6472   3.6540   3.6571
  3.6633   3.6697   3.6722   3.6780   3.6815   3.6843   3.6893   3.6962
  3.7010   3.7058   3.7085   3.7121   3.7174   3.7221   3.7235   3.7294
  3.7312   3.7361   3.7436   3.7530   3.7563   3.7573   3.7680   3.7746
  3.7825   3.7896   3.7936   3.8000   3.8088   3.8184   3.8199   3.8218
  3.8265   3.8297   3.8392   3.8419   3.8458   3.8491   3.8558   3.8567
  3.8664   3.8755   3.8762   3.8821   3.8873   3.8941   3.9030   3.9132
  3.9158   3.9297   3.9330   3.9400   3.9466   3.9475   3.9589   3.9624
  3.9661   3.9672   3.9838   3.9940   3.9983   4.0054   4.0101   4.0192
  4.0246   4.0319   4.0386   4.0436   4.0528   4.0535   4.0582   4.0678
  4.0704   4.0751   4.0837   4.0865   4.0928   4.1088   4.1173   4.1277
  4.1359   4.1403   4.1519   4.1581   4.1629   4.1701   4.1712   4.1774
  4.1886   4.1902   4.1991   4.2030   4.2117   4.2179   4.2287   4.2290
  4.2474   4.2522   4.2606   4.2697   4.2803   4.2849   4.2987   4.3138
  4.3220   4.3291   4.3342   4.3455   4.3472   4.3482   4.3594   4.3646
  4.3696   4.3764   4.3800   4.3912   4.4003   4.4069   4.4093   4.4134
  4.4237   4.4252   4.4287   4.4321   4.4376   4.4439   4.4477   4.4620
  4.4690   4.4842   4.4945   4.4977   4.5060   4.5136   4.5216   4.5273
  4.5301   4.5406   4.5497   4.5656   4.5687   4.5719   4.5791   4.5912
  4.5967   4.6124   4.6169   4.6207   4.6321   4.6435   4.6446   4.6481
  4.6580   4.6647   4.6706   4.6765   4.6959   4.7104   4.7138   4.7244
  4.7376   4.7424   4.7480   4.7577   4.7669   4.7895   4.7976   4.8074
  4.8257   4.8273   4.8347   4.8583   4.8646   4.8815   4.8849   4.8975
  4.9067   4.9209   4.9328   4.9382   4.9590   4.9640   4.9689   4.9730
  4.9950   4.9994   5.0110   5.0123   5.0182   5.0318   5.0402   5.0447
  5.0707   5.0864   5.0975   5.1199   5.1426   5.1581   5.1646   5.1730
  5.1926   5.1977   5.2006   5.2066   5.2109   5.2188   5.2304   5.2538
  5.2589   5.2666   5.2828   5.2877   5.2945   5.3113   5.3188   5.3268
  5.3364   5.3509   5.3550   5.3666   5.3787   5.3799   5.3903   5.4033
  5.4101   5.4125   5.4419   5.4485   5.4528   5.4729   5.4818   5.5020
  5.5066   5.5187   5.5219   5.5468   5.5665   5.5761   5.5780   5.5878
  5.6005   5.6123   5.6173   5.6344   5.6439   5.6618   5.6783   5.6914
  5.7152   5.7348   5.7639   5.7889   5.8005   5.8218   5.8359   5.8561
  5.8600   5.8806   5.9029   5.9503   5.9582   5.9694   5.9821   6.0031
  6.0409   6.0832   6.1202   6.1287   6.1334   6.1465   6.1728   6.1787
  6.1857   6.1916   6.2361   6.2452   6.2604   6.2748   6.2881   6.2925
  6.3083   6.3374   6.3584   6.4300   6.4638   6.4964   6.5348   6.5516
  6.5560   6.5669   6.6486   6.6764   6.6885   6.7186   6.7418   6.7437
  6.8079   6.8570   6.8600   6.8838   6.8984   6.9914   7.1315   7.1457
  7.1781   7.2117   7.2219   7.2397   7.3260   7.3271   7.3418   7.3718
  7.3752   7.4292   7.4622   7.4848   7.4863   7.4974   7.5197   7.5494
  7.6185   7.7399   7.7690   7.8031   7.8317   7.9116   7.9281   7.9563
  8.0036   8.1263   8.3523   8.6590   8.9293   9.0143   9.3625   9.5030
  9.6984  10.3211  11.2421  11.4179  11.9354  11.9653  12.1251  12.3200
 12.3908  12.5197  12.7306  12.9317  13.0207  13.2429  13.4774  13.6083
 13.8146  13.8975  13.9487  13.9623  14.1897  14.3160  14.9445  15.2090
 --------------------------------------------------------------
 
          Ground-State Mulliken Net Atomic Charges

     Atom                 Charge (a.u.)
  ----------------------------------------
      1 C                    -0.070069
      2 C                    -0.261212
      3 S                    -0.135461
      4 C                    -0.043674
      5 H                     0.193247
      6 C                    -0.051774
      7 C                     0.224218
      8 C                     0.223977
      9 C                    -0.076742
     10 C                    -0.051480
     11 O                    -0.334530
     12 O                    -0.343418
     13 C                    -0.082315
     14 H                     0.120489
     15 H                     0.091454
     16 H                     0.093305
     17 C                    -0.087358
     18 H                     0.123619
     19 H                     0.092054
     20 H                     0.090024
     21 C                    -0.257649
     22 S                    -0.070524
     23 C                     0.071458
     24 H                     0.205826
     25 C                    -0.105171
     26 S                     0.092109
     27 C                    -0.232343
     28 C                    -0.045378
     29 C                    -0.010187
     30 C                     0.376055
     31 C                    -0.147460
     32 S                     0.036989
     33 C                     0.459063
     34 O                    -0.449941
     35 O                    -0.297790
     36 F                    -0.212295
     37 C                    -0.054997
     38 H                     0.116670
     39 H                     0.084546
     40 H                     0.084676
     41 H                     0.216087
     42 H                     0.117073
     43 H                     0.115039
     44 H                     0.193794
  ----------------------------------------
  Sum of atomic charges =     0.000000

 -----------------------------------------------------------------
                    Cartesian Multipole Moments
 -----------------------------------------------------------------
    Charge (ESU x 10^10)
                -0.0000
    Dipole Moment (Debye)
         X       0.6332      Y       3.3926      Z       3.7736
       Tot       5.1138
    Quadrupole Moments (Debye-Ang)
        XX    -195.4668     XY       1.0340     YY    -175.7480
        XZ       5.4479     YZ     -12.6828     ZZ    -192.6249
    Octopole Moments (Debye-Ang^2)
       XXX    -103.7570    XXY     379.9110    XYY       9.1550
       YYY    1025.5828    XXZ     187.6626    XYZ     -51.9889
       YYZ     157.3601    XZZ      -8.5283    YZZ     444.4545
       ZZZ     585.5167
    Hexadecapole Moments (Debye-Ang^3)
      XXXX   -1723.3692   XXXY    -744.0957   XXYY   -4005.2853
      XYYY    -883.6770   YYYY  -19742.0877   XXXZ    -153.5641
      XXYZ     319.7921   XYYZ      35.2508   YYYZ     664.5249
      XXZZ   -1287.2485   XYZZ     -84.1866   YYZZ   -4139.1791
      XZZZ    -311.1789   YZZZ     322.8881   ZZZZ   -6615.6311
 -----------------------------------------------------------------
 Total job time:  323.49s(wall), 10518.16s(cpu) 
 Tue Sep 26 18:31:26 2023

        *************************************************************
        *                                                           *
        *  Thank you very much for using Q-Chem.  Have a nice day.  *
        *                                                           *
        *************************************************************


0 sent ACK to 0 
now end server 0 ... 
cleanup process ... done
remove work dirs ./qchem407348.0 -- ./qchem407348.0
rm -rf ./qchem407348.0
rm -rf ./qchem407348
