You are running Q-Chem version: 5.4.0

#
# job setting
#
local host:  exp-8-24
current dir: /expanse/lustre/projects/csd626/rramji/aromodel/PTB7_fin/Hydrogenated_Rotation_Test
input file:  fin_bdt_Phi_40_Theta_280_fin_ftt_Hydrogenated.qcin
output file: 
nprocs     : 1
nthreads   : 64
#
# qchem installation setting
#
QC:          /cm/shared/apps/spack/cpu/opt/spack/linux-centos8-zen2/gcc-10.2.0/qchem-5.4-akfmr7b3t57bfs6qan3padb2wnb2i7cl
QCAUX:       /cm/shared/apps/spack/cpu/opt/spack/linux-centos8-zen2/gcc-10.2.0/qchem-5.4-akfmr7b3t57bfs6qan3padb2wnb2i7cl/qcaux
QCPROG:      /cm/shared/apps/spack/cpu/opt/spack/linux-centos8-zen2/gcc-10.2.0/qchem-5.4-akfmr7b3t57bfs6qan3padb2wnb2i7cl/exe/qcprog.exe
QCPROG_S:    /cm/shared/apps/spack/cpu/opt/spack/linux-centos8-zen2/gcc-10.2.0/qchem-5.4-akfmr7b3t57bfs6qan3padb2wnb2i7cl/exe/qcprog.exe_s
PARALLEL:    -DPARALLEL
QCMPI:       mpich
#
# qchem directory setting
#
qcrun:       qchem953324
QCSCRATCH:   .
QCLOCALSCR:  
QCTMPDIR:    .
QCFILEPREF:  ./qchem953324
QCSAVEDIR:   
workdirs:    ./qchem953324
workdir0:    ./qchem953324
partmpdirs =  
#
# parallel setting
#
QCRSH:           ssh
QCMPI:           mpich
QCMPIRUN:        /cm/shared/apps/spack/cpu/opt/spack/linux-centos8-zen2/gcc-10.2.0/qchem-5.4-akfmr7b3t57bfs6qan3padb2wnb2i7cl/bin/mpi/mpirun_qchem
QCMACHINEFILE:   ./qchem953324/hostfile
exp-8-24

#
# env setting
#
exported envs:   QC QCAUX QCSCRATCH QCRUNNAME QCFILEPREF QCPROG QCPROG_S GUIFILE

Running Job 1 of 1 fin_bdt_Phi_40_Theta_280_fin_ftt_Hydrogenated.qcin
qchem fin_bdt_Phi_40_Theta_280_fin_ftt_Hydrogenated.qcin_953324.0 ./qchem953324/ 1
/cm/shared/apps/spack/cpu/opt/spack/linux-centos8-zen2/gcc-10.2.0/qchem-5.4-akfmr7b3t57bfs6qan3padb2wnb2i7cl/bin/mpi/mpirun_qchem -machinefile ./qchem953324/hostfile -np 1 /cm/shared/apps/spack/cpu/opt/spack/linux-centos8-zen2/gcc-10.2.0/qchem-5.4-akfmr7b3t57bfs6qan3padb2wnb2i7cl/exe/qcprog.exe fin_bdt_Phi_40_Theta_280_fin_ftt_Hydrogenated.qcin_953324.0 ./qchem953324/

Process 0 of 1 is on exp-8-24 - thread support 0
initial socket setup ...start
initial socket setup ...done 
now start server 0 ... 
                  Welcome to Q-Chem
     A Quantum Leap Into The Future Of Chemistry


 Q-Chem 5.4, Q-Chem, Inc., Pleasanton, CA (2021)

 License issued to: University of California, San Diego (site)

 E. Epifanovsky,  A. T. B. Gilbert,  Xintian Feng,  Joonho Lee,  Yuezhi Mao,  
 N. Mardirossian,  P. Pokhilko,  A. White,  M. Wormit,  M. P. Coons,  
 A. L. Dempwolff,  Zhengting Gan,  D. Hait,  P. R. Horn,  L. D. Jacobson,  
 I. Kaliman,  J. Kussmann,  A. W. Lange,  Ka Un Lao,  D. S. Levine,  Jie Liu,  
 S. C. McKenzie,  A. F. Morrison,  K. Nanda,  F. Plasser,  D. R. Rehn,  
 M. L. Vidal,  Zhi-Qiang You,  Ying Zhu,  B. Alam,  B. Albrecht,  
 A. Aldossary,  E. Alguire,  J. H. Andersen,  D. Barton,  K. Begam,  A. Behn,  
 Y. A. Bernard,  E. J. Berquist,  H. Burton,  A. Carreras,  K. Carter-Fenk,  
 R. Chakraborty,  A. D. Chien,  K. D. Closser,  V. Cofer-Shabica,  
 S. Dasgupta,  Jia Deng,  M. de Wergifosse,  M. Diedenhofen,  Hainam Do,  
 S. Ehlert,  Po-Tung Fang,  S. Fatehi,  Qingguo Feng,  J. Gayvert,  
 Qinghui Ge,  G. Gidofalvi,  M. Goldey,  J. Gomes,  C. Gonzalez-Espinoza,  
 S. Gulania,  A. Gunina,  M. W. D. Hanson-Heine,  P. H. P. Harbach,  
 A. W. Hauser,  M. F. Herbst,  M. Hernandez Vera,  M. Hodecker,  
 Z. C. Holden,  S. Houck,  Xunkun Huang,  Kerwin Hui,  B. C. Huynh,  
 M. Ivanov,  Hyunjun Ji,  Hanjie Jiang,  B. Kaduk,  S. Kaehler,  
 K. Khistyaev,  Jaehoon Kim,  P. Klunzinger,  Z. Koczor-Benda,  
 Joong Hoon Koh,  D. Kosenkov,  L. Koulias,  T. Kowalczyk,  C. M. Krauter,  
 K. Kue,  A. Kunitsa,  T. Kus,  A. Landau,  K. V. Lawler,  D. Lefrancois,  
 S. Lehtola,  Rain Li,  Yi-Pei Li,  Jiashu Liang,  M. Liebenthal,  
 Hung-Hsuan Lin,  You-Sheng Lin,  Fenglai Liu,  Kuan-Yu Liu,  
 M. Loipersberger,  A. Luenser,  A. Manjanath,  P. Manohar,  E. Mansoor,  
 S. F. Manzer,  Shan-Ping Mao,  A. V. Marenich,  T. Markovich,  S. Mason,  
 S. A. Maurer,  P. F. McLaughlin,  M. F. S. J. Menger,  J.-M. Mewes,  
 S. A. Mewes,  P. Morgante,  J. W. Mullinax,  T. S. Nguyen-Beck,  
 K. J. Oosterbaan,  G. Paran,  Alexander C. Paul,  Suranjan K. Paul,  
 F. Pavosevic,  Zheng Pei,  S. Prager,  E. I. Proynov,  E. Ramos,  B. Rana,  
 A. E. Rask,  A. Rettig,  R. M. Richard,  F. Rob,  E. Rossomme,  T. Scheele,  
 M. Scheurer,  M. Schneider,  N. Sergueev,  S. M. Sharada,  W. Skomorowski,  
 D. W. Small,  C. J. Stein,  Yu-Chuan Su,  E. J. Sundstrom,  Zhen Tao,  
 J. Thirman,  T. Tsuchimochi,  N. M. Tubman,  S. P. Veccham,  O. Vydrov,  
 J. Wenzel,  J. Witte,  A. Yamada,  Kun Yao,  S. Yeganeh,  S. R. Yost,  
 A. Zech,  Igor Ying Zhang,  Xing Zhang,  Yu Zhang,  D. Zuev,  
 A. Aspuru-Guzik,  A. T. Bell,  N. A. Besley,  K. B. Bravaya,  B. R. Brooks,  
 D. Casanova,  Jeng-Da Chai,  S. Coriani,  C. J. Cramer,  
 A. E. DePrince, III,  R. A. DiStasio Jr.,  A. Dreuw,  B. D. Dunietz,  
 T. R. Furlani,  W. A. Goddard III,  S. Grimme,  S. Hammes-Schiffer,  
 T. Head-Gordon,  W. J. Hehre,  Chao-Ping Hsu,  T.-C. Jagau,  Yousung Jung,  
 A. Klamt,  Jing Kong,  D. S. Lambrecht,  WanZhen Liang,  N. J. Mayhall,  
 C. W. McCurdy,  J. B. Neaton,  C. Ochsenfeld,  J. A. Parkhill,  R. Peverati,  
 V. A. Rassolov,  Yihan Shao,  L. V. Slipchenko,  T. Stauch,  R. P. Steele,  
 J. E. Subotnik,  A. J. W. Thom,  A. Tkatchenko,  D. G. Truhlar,  
 T. Van Voorhis,  T. A. Wesolowski,  K. B. Whaley,  H. L. Woodcock III,  
 P. M. Zimmerman,  S. Faraji,  P. M. W. Gill,  M. Head-Gordon,  
 J. M. Herbert,  A. I. Krylov

 Contributors to earlier versions of Q-Chem not listed above: 
 R. D. Adamson,  B. Austin,  R. Baer,  J. Baker,  G. J. O. Beran,  
 K. Brandhorst,  S. T. Brown,  E. F. C. Byrd,  A. K. Chakraborty,  
 G. K. L. Chan,  Chun-Min Chang,  Yunqing Chen,  C.-L. Cheng,  
 Siu Hung Chien,  D. M. Chipman,  D. L. Crittenden,  H. Dachsel,  
 R. J. Doerksen,  A. D. Dutoi,  R. G. Edgar,  J. Fosso-Tande,  
 L. Fusti-Molnar,  D. Ghosh,  A. Ghysels,  A. Golubeva-Zadorozhnaya,  
 J. Gonthier,  M. S. Gordon,  S. R. Gwaltney,  G. Hawkins,  J. E. Herr,  
 A. Heyden,  S. Hirata,  E. G. Hohenstein,  G. Kedziora,  F. J. Keil,  
 C. Kelley,  Jihan Kim,  R. A. King,  R. Z. Khaliullin,  P. P. Korambath,  
 W. Kurlancheek,  A. Laurent,  A. M. Lee,  M. S. Lee,  S. V. Levchenko,  
 Ching Yeh Lin,  D. Liotard,  E. Livshits,  R. C. Lochan,  I. Lotan,  
 L. A. Martinez-Martinez,  P. E. Maslen,  N. Nair,  D. P. O'Neill,  
 D. Neuhauser,  E. Neuscamman,  C. M. Oana,  R. Olivares-Amaya,  R. Olson,  
 T. M. Perrine,  B. Peters,  P. A. Pieniazek,  A. Prociuk,  Y. M. Rhee,  
 J. Ritchie,  M. A. Rohrdanz,  E. Rosta,  N. J. Russ,  H. F. Schaefer III,  
 M. W. Schmidt,  N. E. Schultz,  S. Sharma,  N. Shenvi,  C. D. Sherrill,  
 A. C. Simmonett,  A. Sodt,  T. Stein,  D. Stuck,  K. S. Thanthiriwatte,  
 V. Vanovschi,  L. Vogt,  Tao Wang,  A. Warshel,  M. A. Watson,  
 C. F. Williams,  Q. Wu,  X. Xu,  Jun Yang,  W. Zhang,  Yan Zhao

 Please cite Q-Chem as follows:
 Y. Shao et al., Mol. Phys. 113, 184-215 (2015)
 DOI: 10.1080/00268976.2014.952696

 Q-Chem 5.4.0 for Intel X86 EM64T Linux

 Parts of Q-Chem use Armadillo 9.800.1 (Horizon Scraper).
 http://arma.sourceforge.net/

 Q-Chem begins on Sun Sep 24 19:03:50 2023  

 Host: 
0

     Scratch files written to ./qchem953324//
 May1621 |scratch|qcdevops|jenkins|workspace|build_RNUM    
 Parallel job on  1  processors
 Processing $rem in /cm/shared/apps/spack/cpu/opt/spack/linux-centos8-zen2/gcc-10.2.0/qchem-5.4-akfmr7b3t57bfs6qan3padb2wnb2i7cl/config/preferences:
 Processing $rem in /home/rramji/.qchemrc:
 Symmetry turned off for PCM/SM12/SMD calculation
 Core orbitals will be frozen

 Checking the input file for inconsistencies... 	...done.

 Q-Chem warning in module forms1/BasisType.C, line 2236:

 You are not using the predefined 5D/6D in this basis set.


--------------------------------------------------------------
User input:
--------------------------------------------------------------
$molecule
0 1
C	0.255459	-8.519741	0.093711
C	-0.799036	-7.635967	-0.083869
S	1.789425	-7.651740	0.345260
C	-0.418360	-6.261894	-0.018411
H	-1.834294	-7.954738	-0.259169
C	0.987769	-6.079985	0.229701
C	1.555260	-4.798382	0.302697
C	-1.294992	-5.153542	-0.196459
C	-0.726408	-3.869626	-0.127651
C	0.680716	-3.688927	0.123544
O	-2.601852	-5.481075	-0.396706
O	2.868193	-4.479871	0.502673
C	3.691495	-5.356026	1.262918
H	4.614080	-4.790496	1.494604
H	3.974195	-6.268513	0.693738
H	3.199559	-5.658187	2.212720
C	-3.490743	-4.546999	-0.997016
H	-4.416630	-5.107564	-1.226691
H	-3.073934	-4.131473	-1.939526
H	-3.746794	-3.712085	-0.309214
C	1.058247	-2.314326	0.186133
S	-1.527599	-2.295487	-0.256010
C	-0.000000	-1.435180	-0.000000
H	2.092285	-1.993211	0.363896
C	0.000000	0.000000	0.000000
S	0.579852	0.687566	1.510732
C	1.591625	1.895024	0.727629
C	0.583771	0.695758	-1.064665
C	1.475308	1.760606	-0.678287
C	0.542366	0.643841	-2.486150
C	1.355286	1.612843	-3.106916
S	2.154609	2.570627	-1.965735
C	1.522440	1.804778	-4.559972
O	0.924684	1.087757	-5.350277
O	2.349739	2.785679	-5.004375
F	-0.170780	-0.212144	-3.246290
C	2.588082	3.053936	-6.334976
H	3.298799	3.899999	-6.370268
H	1.655291	3.328371	-6.875609
H	3.026021	2.177385	-6.861878
H	2.183053	2.599759	1.321510
H	0.401636	-9.146471	-0.793825
H	0.103519	-9.150570	0.977367
H	0.179195	-1.444158	-1.064992
$end

$rem
JOBTYPE		SP
EXCHANGE	HF
CORRELATION	pRIMP2
BASIS		cc-pvtz
METHOD		rimp2
AUX_BASIS	rimp2-cc-pvtz
SOLVENT_METHOD	PCM
PURECART	11111
SYMMETRY	false
MEM_TOTAL	110000
SCF_CONVERGENCE = 6
THRESH=10
GUI = 2
$end



$solvent
dielectric 4.90
$end
--------------------------------------------------------------
 ----------------------------------------------------------------
             Standard Nuclear Orientation (Angstroms)
    I     Atom           X                Y                Z
 ----------------------------------------------------------------
    1      C       0.2554590000    -8.5197410000     0.0937110000
    2      C      -0.7990360000    -7.6359670000    -0.0838690000
    3      S       1.7894250000    -7.6517400000     0.3452600000
    4      C      -0.4183600000    -6.2618940000    -0.0184110000
    5      H      -1.8342940000    -7.9547380000    -0.2591690000
    6      C       0.9877690000    -6.0799850000     0.2297010000
    7      C       1.5552600000    -4.7983820000     0.3026970000
    8      C      -1.2949920000    -5.1535420000    -0.1964590000
    9      C      -0.7264080000    -3.8696260000    -0.1276510000
   10      C       0.6807160000    -3.6889270000     0.1235440000
   11      O      -2.6018520000    -5.4810750000    -0.3967060000
   12      O       2.8681930000    -4.4798710000     0.5026730000
   13      C       3.6914950000    -5.3560260000     1.2629180000
   14      H       4.6140800000    -4.7904960000     1.4946040000
   15      H       3.9741950000    -6.2685130000     0.6937380000
   16      H       3.1995590000    -5.6581870000     2.2127200000
   17      C      -3.4907430000    -4.5469990000    -0.9970160000
   18      H      -4.4166300000    -5.1075640000    -1.2266910000
   19      H      -3.0739340000    -4.1314730000    -1.9395260000
   20      H      -3.7467940000    -3.7120850000    -0.3092140000
   21      C       1.0582470000    -2.3143260000     0.1861330000
   22      S      -1.5275990000    -2.2954870000    -0.2560100000
   23      C       0.0000000000    -1.4351800000     0.0000000000
   24      H       2.0922850000    -1.9932110000     0.3638960000
   25      C       0.0000000000     0.0000000000     0.0000000000
   26      S       0.5798520000     0.6875660000     1.5107320000
   27      C       1.5916250000     1.8950240000     0.7276290000
   28      C       0.5837710000     0.6957580000    -1.0646650000
   29      C       1.4753080000     1.7606060000    -0.6782870000
   30      C       0.5423660000     0.6438410000    -2.4861500000
   31      C       1.3552860000     1.6128430000    -3.1069160000
   32      S       2.1546090000     2.5706270000    -1.9657350000
   33      C       1.5224400000     1.8047780000    -4.5599720000
   34      O       0.9246840000     1.0877570000    -5.3502770000
   35      O       2.3497390000     2.7856790000    -5.0043750000
   36      F      -0.1707800000    -0.2121440000    -3.2462900000
   37      C       2.5880820000     3.0539360000    -6.3349760000
   38      H       3.2987990000     3.8999990000    -6.3702680000
   39      H       1.6552910000     3.3283710000    -6.8756090000
   40      H       3.0260210000     2.1773850000    -6.8618780000
   41      H       2.1830530000     2.5997590000     1.3215100000
   42      H       0.4016360000    -9.1464710000    -0.7938250000
   43      H       0.1035190000    -9.1505700000     0.9773670000
   44      H       0.1791950000    -1.4441580000    -1.0649920000
 ----------------------------------------------------------------
 Nuclear Repulsion Energy =        3386.32723866 hartrees
 There are      120 alpha and      120 beta electrons
 Requested basis set is cc-pVTZ
 There are 388 shells and 1096 basis functions

 Total QAlloc Memory Limit 110000 MB
 Mega-Array Size       188 MB
 MEM_STATIC part       192 MB
 Discretize the solute cavity surface with Lebedev spheres
	Using 110 Lebedev grid points for each H atom
	Using 194 Lebedev grid points for other atoms
	Atomic van der Waals radii will be scaled by 1.20
 Remove points where switching function is < 1.0e-08
 Keep 2969 surface tesserae and discard 4307 interior tesserae
 Molecular Surface Area = 441.892 Angst**2
 Requested basis set is rimp2-cc-pVTZ
 There are 853 shells and 2963 basis functions
 A cutoff of  1.0D-10 yielded  33845 shell pairs
 There are    254959 function pairs (    329622 Cartesian)
 Smallest overlap matrix eigenvalue = 2.16E-05

 Scale SEOQF with 1.000000e-01/1.000000e-02/1.000000e-02

 Standard Electronic Orientation quadrupole field applied
 Nucleus-field energy     =     0.0000000439 hartrees
 Guess from superposition of atomic densities
 Warning:  Energy on first SCF cycle will be non-variational
 SAD guess density has 240.000000 electrons

 -----------------------------------------------------------------------
  General SCF calculation program by
  Eric Jon Sundstrom, Paul Horn, Yuezhi Mao, Dmitri Zuev, Alec White,
  David Stuck, Shaama M.S., Shane Yost, Joonho Lee, David Small,
  Daniel Levine, Susi Lehtola, Hugh Burton, Evgeny Epifanovsky,
  Bang C. Huynh
 -----------------------------------------------------------------------
 Hartree-Fock
 using 64 threads for integral computing
 -------------------------------------------------------
 OpenMP Integral computing Module                
 Release: version 1.0, May 2013, Q-Chem Inc. Pittsburgh 
 -------------------------------------------------------
 A restricted SCF calculation will be
 performed using DIIS
 SCF converges when DIIS error is below 1.0e-06
 ---------------------------------------
  Cycle       Energy         DIIS error
 ---------------------------------------
    1   -2767.3922652163      1.77e-02  
    2   -2754.8449594993      1.54e-03  
    3   -2755.1931849245      8.76e-04  
    4   -2755.2826905020      2.56e-04  
    5   -2755.2962130579      7.20e-05  
    6   -2755.2976933069      2.61e-05  
    7   -2755.2980845550      1.35e-05  
    8   -2755.2982158764      6.01e-06  
    9   -2755.2982497165      3.11e-06  
   10   -2755.2982582827      1.56e-06  
   11   -2755.2982606505      6.78e-07  Convergence criterion met
 ---------------------------------------
 SCF time:   CPU 7786.53s  wall 281.00s 

************** Final PCM Free Energy Summary **************
 G_electrostatic  =      -0.02229303 hartree =     -13.98908652 kcal/mol
 G_cavitation     =       0.00000000 hartree =       0.00000000 kcal/mol
 G_dispersion     =       0.00000000 hartree =       0.00000000 kcal/mol
 G_repulsion      =       0.00000000 hartree =       0.00000000 kcal/mol
 --------------------------------------------------
 Non-electrostatic Free Energy =       0.00000000 hartree =       0.00000000 kcal/mol
 Total                         =      -0.02229303 hartree =     -13.98908652 kcal/mol
 --------------------------------------------------
 SCF Energy (H0 + V/2)                       =   -2755.29826065 
 Solute Internal Energy (H0)                 =   -2755.27596762 
 Total Free Energy (H0 + V/2 + non-elec)     =   -2755.29826065 hartree
                                             = -1728975.75398805 kcal/mol
***********************************************************

 SCF   energy in the final basis set =    -2755.2982606505
 Total energy in the final basis set =    -2755.2982606505


 --------------------------------------------------------------
  Generalized many-body perturbation theory program
  by Joonho Lee, Fazle Rob, Xintian Feng, Evgeny Epifanovsky

 No regularization used 
 (reg. param. = 0.0000e+00)
  (P|Q)^-1/2 Time:  CPU 148.57 s  wall 3.04 s

 In RI-MP2 calculation: 
 # of frozen core orbitals: 45

 Components of the RIMP2 correlation energy:
        aaaa    correlation energy =        -0.6719614100 a.u.
        abab    correlation energy =        -3.7573108098 a.u.
        bbbb    correlation energy =        -0.6719614100 a.u.
        non-Brillouin singles      =        -0.0000000000 a.u.
        total same-spin energy     =        -1.3439228201 a.u.
        total opposite-spin energy =        -3.7573108098 a.u.

 Total  RIMP2   correlation energy =        -5.1012336298 a.u.
        RIMP2         total energy =     -2760.3994942804 a.u.

 RI-MP2 Energy Time:  CPU 2996.27 s  wall 49.16 s
 
 --------------------------------------------------------------
 
                    Orbital Energies (a.u.)
 --------------------------------------------------------------
 
 Alpha MOs
 -- Occupied --
-92.0140 -92.0022 -91.9703 -91.9572 -26.3386 -20.6154 -20.5867 -20.5845
-20.5555 -11.4151 -11.3790 -11.3101 -11.3080 -11.3078 -11.3036 -11.2998
-11.2960 -11.2906 -11.2903 -11.2826 -11.2823 -11.2800 -11.2758 -11.2716
-11.2710 -11.2566 -11.2560 -11.2484 -11.2343  -9.0128  -9.0060  -8.9728
 -8.9598  -6.6935  -6.6928  -6.6925  -6.6872  -6.6865  -6.6852  -6.6539
 -6.6530  -6.6517  -6.6410  -6.6401  -6.6391  -1.6518  -1.4754  -1.4089
 -1.4074  -1.3714  -1.2439  -1.2063  -1.1743  -1.1453  -1.0986  -1.0545
 -1.0438  -1.0321  -1.0068  -0.9954  -0.9749  -0.9586  -0.9478  -0.9410
 -0.8911  -0.8766  -0.8597  -0.8104  -0.7955  -0.7838  -0.7819  -0.7694
 -0.7605  -0.7330  -0.7207  -0.7188  -0.6974  -0.6921  -0.6877  -0.6814
 -0.6770  -0.6749  -0.6540  -0.6474  -0.6305  -0.6271  -0.6188  -0.6144
 -0.6104  -0.6099  -0.6003  -0.5946  -0.5798  -0.5645  -0.5560  -0.5547
 -0.5510  -0.5318  -0.5261  -0.5216  -0.5116  -0.5065  -0.5042  -0.4996
 -0.4901  -0.4853  -0.4732  -0.4664  -0.4655  -0.4636  -0.4576  -0.4442
 -0.4216  -0.4010  -0.3828  -0.3685  -0.3496  -0.2983  -0.2870  -0.2185
 -- Virtual --
  0.0120   0.0534   0.1090   0.1335   0.1403   0.1477   0.1544   0.1549
  0.1605   0.1607   0.1660   0.1718   0.1791   0.1846   0.1884   0.1904
  0.2011   0.2036   0.2056   0.2089   0.2175   0.2208   0.2239   0.2259
  0.2275   0.2307   0.2417   0.2432   0.2535   0.2560   0.2635   0.2674
  0.2764   0.2953   0.3053   0.3113   0.3245   0.3290   0.3385   0.3458
  0.3498   0.3559   0.3594   0.3642   0.3661   0.3693   0.3772   0.3791
  0.3851   0.3890   0.3909   0.3972   0.4027   0.4056   0.4130   0.4142
  0.4271   0.4286   0.4309   0.4359   0.4376   0.4403   0.4443   0.4501
  0.4563   0.4587   0.4604   0.4655   0.4682   0.4773   0.4787   0.4801
  0.4909   0.4946   0.5007   0.5017   0.5022   0.5119   0.5139   0.5222
  0.5248   0.5271   0.5308   0.5357   0.5359   0.5430   0.5499   0.5532
  0.5559   0.5591   0.5613   0.5659   0.5686   0.5727   0.5784   0.5821
  0.5834   0.5879   0.5900   0.5926   0.5957   0.6014   0.6051   0.6106
  0.6150   0.6171   0.6180   0.6212   0.6242   0.6264   0.6324   0.6348
  0.6368   0.6388   0.6418   0.6452   0.6472   0.6524   0.6567   0.6581
  0.6645   0.6682   0.6724   0.6758   0.6847   0.6885   0.6923   0.6946
  0.6993   0.7078   0.7114   0.7151   0.7180   0.7258   0.7294   0.7388
  0.7442   0.7554   0.7596   0.7640   0.7734   0.7768   0.7772   0.7873
  0.7909   0.7954   0.7961   0.8016   0.8093   0.8113   0.8237   0.8269
  0.8345   0.8406   0.8441   0.8538   0.8563   0.8709   0.8754   0.8811
  0.8877   0.8915   0.8934   0.8957   0.9015   0.9055   0.9062   0.9147
  0.9218   0.9247   0.9310   0.9361   0.9409   0.9439   0.9458   0.9521
  0.9574   0.9642   0.9703   0.9720   0.9752   0.9844   0.9863   0.9910
  0.9947   0.9991   1.0037   1.0060   1.0114   1.0158   1.0226   1.0249
  1.0339   1.0353   1.0414   1.0483   1.0512   1.0595   1.0627   1.0647
  1.0738   1.0783   1.0811   1.0856   1.0875   1.0921   1.0998   1.1061
  1.1127   1.1141   1.1203   1.1277   1.1300   1.1349   1.1474   1.1543
  1.1592   1.1610   1.1647   1.1667   1.1680   1.1762   1.1837   1.1839
  1.1859   1.1912   1.1934   1.1992   1.2035   1.2075   1.2102   1.2149
  1.2205   1.2252   1.2325   1.2386   1.2437   1.2501   1.2516   1.2567
  1.2624   1.2672   1.2692   1.2788   1.2838   1.2892   1.2973   1.3002
  1.3008   1.3070   1.3099   1.3167   1.3325   1.3360   1.3411   1.3417
  1.3454   1.3549   1.3592   1.3727   1.3750   1.3823   1.3919   1.3979
  1.4024   1.4074   1.4145   1.4163   1.4318   1.4370   1.4491   1.4514
  1.4589   1.4616   1.4740   1.4794   1.4884   1.4961   1.4978   1.5021
  1.5085   1.5088   1.5107   1.5122   1.5239   1.5254   1.5366   1.5372
  1.5393   1.5435   1.5487   1.5527   1.5592   1.5601   1.5742   1.5767
  1.5837   1.5988   1.6019   1.6093   1.6153   1.6251   1.6284   1.6325
  1.6441   1.6559   1.6586   1.6623   1.6684   1.6764   1.6794   1.6897
  1.6957   1.7027   1.7056   1.7159   1.7198   1.7260   1.7336   1.7436
  1.7592   1.7649   1.7734   1.7815   1.7948   1.7995   1.8114   1.8165
  1.8236   1.8301   1.8326   1.8405   1.8523   1.8538   1.8642   1.8680
  1.8763   1.8873   1.8950   1.9075   1.9189   1.9230   1.9288   1.9317
  1.9432   1.9508   1.9551   1.9604   1.9821   1.9923   1.9950   2.0066
  2.0135   2.0202   2.0242   2.0314   2.0398   2.0449   2.0458   2.0617
  2.0717   2.0738   2.0886   2.0977   2.1015   2.1062   2.1206   2.1290
  2.1402   2.1485   2.1537   2.1561   2.1778   2.1811   2.1875   2.1927
  2.1976   2.2011   2.2089   2.2138   2.2204   2.2263   2.2350   2.2388
  2.2496   2.2527   2.2687   2.2713   2.2768   2.2812   2.2942   2.3040
  2.3067   2.3123   2.3226   2.3333   2.3370   2.3569   2.3587   2.3621
  2.3765   2.3862   2.3882   2.3997   2.4062   2.4149   2.4170   2.4320
  2.4404   2.4501   2.4603   2.4703   2.4748   2.4836   2.4870   2.5041
  2.5096   2.5144   2.5267   2.5362   2.5419   2.5517   2.5617   2.5758
  2.5853   2.5882   2.5969   2.6052   2.6114   2.6192   2.6240   2.6294
  2.6307   2.6376   2.6439   2.6467   2.6524   2.6631   2.6639   2.6760
  2.6851   2.6870   2.6909   2.6972   2.7018   2.7043   2.7160   2.7176
  2.7268   2.7297   2.7374   2.7471   2.7505   2.7605   2.7695   2.7722
  2.7783   2.7815   2.7944   2.8038   2.8122   2.8169   2.8255   2.8323
  2.8382   2.8447   2.8525   2.8539   2.8651   2.8699   2.8739   2.8777
  2.8781   2.8822   2.8983   2.9062   2.9151   2.9209   2.9324   2.9431
  2.9555   2.9564   2.9585   2.9707   2.9807   2.9883   2.9980   3.0054
  3.0076   3.0168   3.0270   3.0329   3.0372   3.0424   3.0449   3.0469
  3.0548   3.0632   3.0711   3.0743   3.0848   3.0906   3.0952   3.0994
  3.1065   3.1115   3.1162   3.1212   3.1353   3.1387   3.1464   3.1517
  3.1543   3.1578   3.1621   3.1648   3.1695   3.1735   3.1822   3.1864
  3.1903   3.1965   3.2001   3.2051   3.2094   3.2137   3.2185   3.2257
  3.2276   3.2405   3.2432   3.2475   3.2509   3.2616   3.2662   3.2707
  3.2727   3.2770   3.2864   3.2885   3.2939   3.2959   3.2965   3.3002
  3.3074   3.3097   3.3128   3.3218   3.3330   3.3357   3.3398   3.3438
  3.3473   3.3518   3.3576   3.3589   3.3610   3.3629   3.3686   3.3707
  3.3759   3.3783   3.3855   3.3910   3.3966   3.4009   3.4039   3.4062
  3.4137   3.4219   3.4287   3.4292   3.4325   3.4386   3.4421   3.4491
  3.4533   3.4553   3.4616   3.4673   3.4708   3.4780   3.4826   3.4909
  3.4936   3.4946   3.5012   3.5086   3.5201   3.5224   3.5305   3.5349
  3.5479   3.5525   3.5550   3.5572   3.5598   3.5712   3.5793   3.5806
  3.5895   3.5934   3.5996   3.5997   3.6040   3.6115   3.6146   3.6204
  3.6301   3.6329   3.6378   3.6434   3.6442   3.6511   3.6583   3.6628
  3.6700   3.6727   3.6764   3.6793   3.6864   3.6903   3.7015   3.7079
  3.7093   3.7146   3.7169   3.7206   3.7213   3.7263   3.7312   3.7338
  3.7406   3.7464   3.7500   3.7538   3.7597   3.7638   3.7701   3.7767
  3.7822   3.7976   3.7998   3.8107   3.8114   3.8147   3.8201   3.8230
  3.8249   3.8316   3.8353   3.8399   3.8433   3.8511   3.8535   3.8604
  3.8660   3.8720   3.8740   3.8819   3.8912   3.8945   3.9040   3.9129
  3.9213   3.9287   3.9324   3.9486   3.9525   3.9568   3.9610   3.9670
  3.9692   3.9725   3.9835   3.9951   3.9956   4.0028   4.0119   4.0170
  4.0197   4.0367   4.0448   4.0547   4.0555   4.0588   4.0636   4.0687
  4.0767   4.0814   4.0820   4.0856   4.1041   4.1079   4.1148   4.1194
  4.1305   4.1413   4.1513   4.1672   4.1674   4.1699   4.1767   4.1789
  4.1841   4.1919   4.2084   4.2151   4.2207   4.2230   4.2353   4.2371
  4.2518   4.2538   4.2681   4.2756   4.2771   4.2870   4.3099   4.3168
  4.3189   4.3265   4.3378   4.3414   4.3466   4.3572   4.3614   4.3647
  4.3708   4.3754   4.3874   4.3897   4.3971   4.4058   4.4127   4.4167
  4.4213   4.4232   4.4295   4.4317   4.4378   4.4424   4.4576   4.4674
  4.4679   4.4830   4.4876   4.4979   4.5035   4.5090   4.5231   4.5281
  4.5417   4.5464   4.5596   4.5640   4.5681   4.5737   4.5787   4.5934
  4.6063   4.6083   4.6223   4.6284   4.6328   4.6401   4.6448   4.6546
  4.6640   4.6694   4.6793   4.6845   4.6970   4.7091   4.7145   4.7329
  4.7407   4.7518   4.7597   4.7667   4.7833   4.7968   4.8023   4.8093
  4.8265   4.8349   4.8477   4.8584   4.8746   4.8841   4.8881   4.8983
  4.9154   4.9262   4.9416   4.9525   4.9627   4.9671   4.9721   4.9777
  4.9851   4.9954   5.0100   5.0139   5.0200   5.0399   5.0474   5.0634
  5.0803   5.0862   5.0968   5.1067   5.1302   5.1599   5.1656   5.1731
  5.1845   5.1872   5.1966   5.2033   5.2097   5.2139   5.2264   5.2406
  5.2533   5.2574   5.2811   5.2847   5.2959   5.3075   5.3214   5.3288
  5.3375   5.3475   5.3534   5.3592   5.3707   5.3823   5.3922   5.4023
  5.4047   5.4179   5.4369   5.4464   5.4569   5.4714   5.4743   5.4924
  5.5075   5.5132   5.5214   5.5317   5.5634   5.5682   5.5784   5.5896
  5.5921   5.6123   5.6135   5.6327   5.6367   5.6564   5.6923   5.6965
  5.7182   5.7441   5.7638   5.7857   5.7978   5.8294   5.8323   5.8482
  5.8613   5.8858   5.9057   5.9413   5.9615   5.9657   5.9730   6.0031
  6.0146   6.0471   6.1126   6.1194   6.1314   6.1326   6.1715   6.1782
  6.1833   6.1863   6.2237   6.2413   6.2508   6.2692   6.2852   6.2925
  6.3058   6.3364   6.3715   6.4170   6.4383   6.4787   6.5061   6.5478
  6.5527   6.5673   6.6480   6.6677   6.6729   6.7157   6.7301   6.7383
  6.8086   6.8558   6.8574   6.8789   6.9013   6.9859   7.1336   7.1484
  7.1752   7.2077   7.2244   7.2399   7.3222   7.3279   7.3430   7.3702
  7.3718   7.4233   7.4594   7.4829   7.4887   7.4979   7.5137   7.5445
  7.6084   7.7416   7.7679   7.8043   7.8284   7.9063   7.9283   7.9584
  8.0014   8.1194   8.3552   8.5216   8.9311   9.0088   9.3613   9.4951
  9.6999  10.3094  11.2106  11.4125  11.9301  12.0789  12.1252  12.3287
 12.4085  12.4957  12.6840  12.9478  13.0054  13.2294  13.4829  13.6043
 13.7457  13.8788  13.9408  13.9562  14.1598  14.3141  14.9427  15.2135
 --------------------------------------------------------------
 
          Ground-State Mulliken Net Atomic Charges

     Atom                 Charge (a.u.)
  ----------------------------------------
      1 C                    -0.069841
      2 C                    -0.266155
      3 S                    -0.137547
      4 C                    -0.042359
      5 H                     0.192729
      6 C                    -0.052491
      7 C                     0.224011
      8 C                     0.221808
      9 C                    -0.076099
     10 C                    -0.046145
     11 O                    -0.336212
     12 O                    -0.343974
     13 C                    -0.082414
     14 H                     0.119365
     15 H                     0.092111
     16 H                     0.092548
     17 C                    -0.086191
     18 H                     0.122096
     19 H                     0.092537
     20 H                     0.089780
     21 C                    -0.271254
     22 S                    -0.088586
     23 C                     0.049992
     24 H                     0.208155
     25 C                    -0.092917
     26 S                     0.105742
     27 C                    -0.196305
     28 C                    -0.073938
     29 C                    -0.008472
     30 C                     0.342361
     31 C                    -0.122407
     32 S                     0.061168
     33 C                     0.457665
     34 O                    -0.442486
     35 O                    -0.296958
     36 F                    -0.210740
     37 C                    -0.054680
     38 H                     0.117369
     39 H                     0.085473
     40 H                     0.085412
     41 H                     0.217751
     42 H                     0.116662
     43 H                     0.114070
     44 H                     0.189367
  ----------------------------------------
  Sum of atomic charges =     0.000000

 -----------------------------------------------------------------
                    Cartesian Multipole Moments
 -----------------------------------------------------------------
    Charge (ESU x 10^10)
                 0.0000
    Dipole Moment (Debye)
         X       3.1834      Y       4.2788      Z       2.2224
       Tot       5.7777
    Quadrupole Moments (Debye-Ang)
        XX    -180.1977     XY      12.3204     YY    -183.4272
        XZ      -0.1829     YZ      -8.7755     ZZ    -199.4812
    Octopole Moments (Debye-Ang^2)
       XXX    -357.0474    XXY     395.6036    XYY    -125.8038
       YYY    1133.2240    XXZ     152.1976    XYZ     -64.4841
       YYZ     140.4369    XZZ     -44.3113    YZZ     506.9867
       ZZZ     520.0871
    Hexadecapole Moments (Debye-Ang^3)
      XXXX   -3465.7671   XXXY    -158.1892   XXYY   -3923.7275
      XYYY     136.6147   YYYY  -19072.6658   XXXZ     711.0136
      XXYZ     322.1759   XYYZ     301.1587   YYYZ    1170.7979
      XXZZ   -1337.9941   XYZZ     198.4376   YYZZ   -4183.2114
      XZZZ     162.0075   YZZZ     690.1259   ZZZZ   -5611.9625
 -----------------------------------------------------------------
 Total job time:  334.22s(wall), 10883.45s(cpu) 
 Sun Sep 24 19:09:24 2023

        *************************************************************
        *                                                           *
        *  Thank you very much for using Q-Chem.  Have a nice day.  *
        *                                                           *
        *************************************************************


0 sent ACK to 0 
now end server 0 ... 
cleanup process ... done
remove work dirs ./qchem953324.0 -- ./qchem953324.0
rm -rf ./qchem953324.0
rm -rf ./qchem953324
