You are running Q-Chem version: 5.4.0

#
# job setting
#
local host:  exp-6-53
current dir: /expanse/lustre/projects/csd626/rramji/aromodel/PTB7_fin/Hydrogenated_Rotation_Test
input file:  fin_bdt_Phi_30_Theta_220_fin_ftt_Hydrogenated.qcin
output file: 
nprocs     : 1
nthreads   : 64
#
# qchem installation setting
#
QC:          /cm/shared/apps/spack/cpu/opt/spack/linux-centos8-zen2/gcc-10.2.0/qchem-5.4-akfmr7b3t57bfs6qan3padb2wnb2i7cl
QCAUX:       /cm/shared/apps/spack/cpu/opt/spack/linux-centos8-zen2/gcc-10.2.0/qchem-5.4-akfmr7b3t57bfs6qan3padb2wnb2i7cl/qcaux
QCPROG:      /cm/shared/apps/spack/cpu/opt/spack/linux-centos8-zen2/gcc-10.2.0/qchem-5.4-akfmr7b3t57bfs6qan3padb2wnb2i7cl/exe/qcprog.exe
QCPROG_S:    /cm/shared/apps/spack/cpu/opt/spack/linux-centos8-zen2/gcc-10.2.0/qchem-5.4-akfmr7b3t57bfs6qan3padb2wnb2i7cl/exe/qcprog.exe_s
PARALLEL:    -DPARALLEL
QCMPI:       mpich
#
# qchem directory setting
#
qcrun:       qchem2031701
QCSCRATCH:   .
QCLOCALSCR:  
QCTMPDIR:    .
QCFILEPREF:  ./qchem2031701
QCSAVEDIR:   
workdirs:    ./qchem2031701
workdir0:    ./qchem2031701
partmpdirs =  
#
# parallel setting
#
QCRSH:           ssh
QCMPI:           mpich
QCMPIRUN:        /cm/shared/apps/spack/cpu/opt/spack/linux-centos8-zen2/gcc-10.2.0/qchem-5.4-akfmr7b3t57bfs6qan3padb2wnb2i7cl/bin/mpi/mpirun_qchem
QCMACHINEFILE:   ./qchem2031701/hostfile
exp-6-53

#
# env setting
#
exported envs:   QC QCAUX QCSCRATCH QCRUNNAME QCFILEPREF QCPROG QCPROG_S GUIFILE

Running Job 1 of 1 fin_bdt_Phi_30_Theta_220_fin_ftt_Hydrogenated.qcin
qchem fin_bdt_Phi_30_Theta_220_fin_ftt_Hydrogenated.qcin_2031701.0 ./qchem2031701/ 1
/cm/shared/apps/spack/cpu/opt/spack/linux-centos8-zen2/gcc-10.2.0/qchem-5.4-akfmr7b3t57bfs6qan3padb2wnb2i7cl/bin/mpi/mpirun_qchem -machinefile ./qchem2031701/hostfile -np 1 /cm/shared/apps/spack/cpu/opt/spack/linux-centos8-zen2/gcc-10.2.0/qchem-5.4-akfmr7b3t57bfs6qan3padb2wnb2i7cl/exe/qcprog.exe fin_bdt_Phi_30_Theta_220_fin_ftt_Hydrogenated.qcin_2031701.0 ./qchem2031701/

Process 0 of 1 is on exp-6-53 - thread support 0
initial socket setup ...start
initial socket setup ...done 
now start server 0 ... 
                  Welcome to Q-Chem
     A Quantum Leap Into The Future Of Chemistry


 Q-Chem 5.4, Q-Chem, Inc., Pleasanton, CA (2021)

 License issued to: University of California, San Diego (site)

 E. Epifanovsky,  A. T. B. Gilbert,  Xintian Feng,  Joonho Lee,  Yuezhi Mao,  
 N. Mardirossian,  P. Pokhilko,  A. White,  M. Wormit,  M. P. Coons,  
 A. L. Dempwolff,  Zhengting Gan,  D. Hait,  P. R. Horn,  L. D. Jacobson,  
 I. Kaliman,  J. Kussmann,  A. W. Lange,  Ka Un Lao,  D. S. Levine,  Jie Liu,  
 S. C. McKenzie,  A. F. Morrison,  K. Nanda,  F. Plasser,  D. R. Rehn,  
 M. L. Vidal,  Zhi-Qiang You,  Ying Zhu,  B. Alam,  B. Albrecht,  
 A. Aldossary,  E. Alguire,  J. H. Andersen,  D. Barton,  K. Begam,  A. Behn,  
 Y. A. Bernard,  E. J. Berquist,  H. Burton,  A. Carreras,  K. Carter-Fenk,  
 R. Chakraborty,  A. D. Chien,  K. D. Closser,  V. Cofer-Shabica,  
 S. Dasgupta,  Jia Deng,  M. de Wergifosse,  M. Diedenhofen,  Hainam Do,  
 S. Ehlert,  Po-Tung Fang,  S. Fatehi,  Qingguo Feng,  J. Gayvert,  
 Qinghui Ge,  G. Gidofalvi,  M. Goldey,  J. Gomes,  C. Gonzalez-Espinoza,  
 S. Gulania,  A. Gunina,  M. W. D. Hanson-Heine,  P. H. P. Harbach,  
 A. W. Hauser,  M. F. Herbst,  M. Hernandez Vera,  M. Hodecker,  
 Z. C. Holden,  S. Houck,  Xunkun Huang,  Kerwin Hui,  B. C. Huynh,  
 M. Ivanov,  Hyunjun Ji,  Hanjie Jiang,  B. Kaduk,  S. Kaehler,  
 K. Khistyaev,  Jaehoon Kim,  P. Klunzinger,  Z. Koczor-Benda,  
 Joong Hoon Koh,  D. Kosenkov,  L. Koulias,  T. Kowalczyk,  C. M. Krauter,  
 K. Kue,  A. Kunitsa,  T. Kus,  A. Landau,  K. V. Lawler,  D. Lefrancois,  
 S. Lehtola,  Rain Li,  Yi-Pei Li,  Jiashu Liang,  M. Liebenthal,  
 Hung-Hsuan Lin,  You-Sheng Lin,  Fenglai Liu,  Kuan-Yu Liu,  
 M. Loipersberger,  A. Luenser,  A. Manjanath,  P. Manohar,  E. Mansoor,  
 S. F. Manzer,  Shan-Ping Mao,  A. V. Marenich,  T. Markovich,  S. Mason,  
 S. A. Maurer,  P. F. McLaughlin,  M. F. S. J. Menger,  J.-M. Mewes,  
 S. A. Mewes,  P. Morgante,  J. W. Mullinax,  T. S. Nguyen-Beck,  
 K. J. Oosterbaan,  G. Paran,  Alexander C. Paul,  Suranjan K. Paul,  
 F. Pavosevic,  Zheng Pei,  S. Prager,  E. I. Proynov,  E. Ramos,  B. Rana,  
 A. E. Rask,  A. Rettig,  R. M. Richard,  F. Rob,  E. Rossomme,  T. Scheele,  
 M. Scheurer,  M. Schneider,  N. Sergueev,  S. M. Sharada,  W. Skomorowski,  
 D. W. Small,  C. J. Stein,  Yu-Chuan Su,  E. J. Sundstrom,  Zhen Tao,  
 J. Thirman,  T. Tsuchimochi,  N. M. Tubman,  S. P. Veccham,  O. Vydrov,  
 J. Wenzel,  J. Witte,  A. Yamada,  Kun Yao,  S. Yeganeh,  S. R. Yost,  
 A. Zech,  Igor Ying Zhang,  Xing Zhang,  Yu Zhang,  D. Zuev,  
 A. Aspuru-Guzik,  A. T. Bell,  N. A. Besley,  K. B. Bravaya,  B. R. Brooks,  
 D. Casanova,  Jeng-Da Chai,  S. Coriani,  C. J. Cramer,  
 A. E. DePrince, III,  R. A. DiStasio Jr.,  A. Dreuw,  B. D. Dunietz,  
 T. R. Furlani,  W. A. Goddard III,  S. Grimme,  S. Hammes-Schiffer,  
 T. Head-Gordon,  W. J. Hehre,  Chao-Ping Hsu,  T.-C. Jagau,  Yousung Jung,  
 A. Klamt,  Jing Kong,  D. S. Lambrecht,  WanZhen Liang,  N. J. Mayhall,  
 C. W. McCurdy,  J. B. Neaton,  C. Ochsenfeld,  J. A. Parkhill,  R. Peverati,  
 V. A. Rassolov,  Yihan Shao,  L. V. Slipchenko,  T. Stauch,  R. P. Steele,  
 J. E. Subotnik,  A. J. W. Thom,  A. Tkatchenko,  D. G. Truhlar,  
 T. Van Voorhis,  T. A. Wesolowski,  K. B. Whaley,  H. L. Woodcock III,  
 P. M. Zimmerman,  S. Faraji,  P. M. W. Gill,  M. Head-Gordon,  
 J. M. Herbert,  A. I. Krylov

 Contributors to earlier versions of Q-Chem not listed above: 
 R. D. Adamson,  B. Austin,  R. Baer,  J. Baker,  G. J. O. Beran,  
 K. Brandhorst,  S. T. Brown,  E. F. C. Byrd,  A. K. Chakraborty,  
 G. K. L. Chan,  Chun-Min Chang,  Yunqing Chen,  C.-L. Cheng,  
 Siu Hung Chien,  D. M. Chipman,  D. L. Crittenden,  H. Dachsel,  
 R. J. Doerksen,  A. D. Dutoi,  R. G. Edgar,  J. Fosso-Tande,  
 L. Fusti-Molnar,  D. Ghosh,  A. Ghysels,  A. Golubeva-Zadorozhnaya,  
 J. Gonthier,  M. S. Gordon,  S. R. Gwaltney,  G. Hawkins,  J. E. Herr,  
 A. Heyden,  S. Hirata,  E. G. Hohenstein,  G. Kedziora,  F. J. Keil,  
 C. Kelley,  Jihan Kim,  R. A. King,  R. Z. Khaliullin,  P. P. Korambath,  
 W. Kurlancheek,  A. Laurent,  A. M. Lee,  M. S. Lee,  S. V. Levchenko,  
 Ching Yeh Lin,  D. Liotard,  E. Livshits,  R. C. Lochan,  I. Lotan,  
 L. A. Martinez-Martinez,  P. E. Maslen,  N. Nair,  D. P. O'Neill,  
 D. Neuhauser,  E. Neuscamman,  C. M. Oana,  R. Olivares-Amaya,  R. Olson,  
 T. M. Perrine,  B. Peters,  P. A. Pieniazek,  A. Prociuk,  Y. M. Rhee,  
 J. Ritchie,  M. A. Rohrdanz,  E. Rosta,  N. J. Russ,  H. F. Schaefer III,  
 M. W. Schmidt,  N. E. Schultz,  S. Sharma,  N. Shenvi,  C. D. Sherrill,  
 A. C. Simmonett,  A. Sodt,  T. Stein,  D. Stuck,  K. S. Thanthiriwatte,  
 V. Vanovschi,  L. Vogt,  Tao Wang,  A. Warshel,  M. A. Watson,  
 C. F. Williams,  Q. Wu,  X. Xu,  Jun Yang,  W. Zhang,  Yan Zhao

 Please cite Q-Chem as follows:
 Y. Shao et al., Mol. Phys. 113, 184-215 (2015)
 DOI: 10.1080/00268976.2014.952696

 Q-Chem 5.4.0 for Intel X86 EM64T Linux

 Parts of Q-Chem use Armadillo 9.800.1 (Horizon Scraper).
 http://arma.sourceforge.net/

 Q-Chem begins on Sun Sep 24 18:24:57 2023  

 Host: 
0

     Scratch files written to ./qchem2031701//
 May1621 |scratch|qcdevops|jenkins|workspace|build_RNUM    
 Parallel job on  1  processors
 Processing $rem in /cm/shared/apps/spack/cpu/opt/spack/linux-centos8-zen2/gcc-10.2.0/qchem-5.4-akfmr7b3t57bfs6qan3padb2wnb2i7cl/config/preferences:
 Processing $rem in /home/rramji/.qchemrc:
 Symmetry turned off for PCM/SM12/SMD calculation
 Core orbitals will be frozen

 Checking the input file for inconsistencies... 	...done.

 Q-Chem warning in module forms1/BasisType.C, line 2236:

 You are not using the predefined 5D/6D in this basis set.


--------------------------------------------------------------
User input:
--------------------------------------------------------------
$molecule
0 1
C	0.208886	-8.519741	-0.174379
C	-0.472151	-7.635967	0.650052
S	1.193717	-7.651740	-1.377058
C	-0.225125	-6.261894	0.353105
H	-1.141594	-7.954738	1.458961
C	0.692811	-6.079985	-0.740583
C	1.039773	-4.798382	-1.195546
C	-0.817634	-5.153542	1.023267
C	-0.473754	-3.869626	0.565262
C	0.447350	-3.688927	-0.527745
O	-1.644483	-5.481075	2.054917
O	1.869424	-4.479871	-2.232592
C	2.939466	-5.356026	-2.565470
H	3.601405	-4.790496	-3.248608
H	2.587892	-6.268513	-3.094885
H	3.516052	-5.658187	-1.664539
C	-2.608813	-4.546999	2.524564
H	-3.270661	-5.107564	3.211568
H	-3.216646	-4.131473	1.692342
H	-2.141184	-3.712085	3.090211
C	0.690319	-2.314326	-0.823402
S	-0.985511	-2.295487	1.194935
C	-0.000000	-1.435180	-0.000000
H	1.361286	-1.993211	-1.630024
C	0.000000	0.000000	0.000000
S	0.451648	0.777811	1.510732
C	1.238377	2.142617	0.727629
C	0.454085	0.786559	-1.064665
C	1.147169	1.990043	-0.678287
C	0.422325	0.728240	-2.486150
C	1.054629	1.823683	-3.106916
S	1.675491	2.905718	-1.965735
C	1.185914	2.041729	-4.559972
O	0.721749	1.231802	-5.350277
O	1.830313	3.151386	-5.004375
F	-0.131347	-0.238577	-3.246290
C	2.018453	3.456956	-6.334976
H	2.571455	4.413580	-6.370268
H	1.052178	3.565244	-6.875609
H	2.601950	2.669768	-6.861878
H	1.698444	2.939346	1.321510
H	-0.486655	-9.146471	-0.744739
H	0.898184	-9.150570	0.399033
H	-0.832713	-1.444158	-0.687683
$end

$rem
JOBTYPE		SP
EXCHANGE	HF
CORRELATION	pRIMP2
BASIS		cc-pvtz
METHOD		rimp2
AUX_BASIS	rimp2-cc-pvtz
SOLVENT_METHOD	PCM
PURECART	11111
SYMMETRY	false
MEM_TOTAL	110000
SCF_CONVERGENCE = 6
THRESH=10
GUI = 2
$end



$solvent
dielectric 4.90
$end
--------------------------------------------------------------
 ----------------------------------------------------------------
             Standard Nuclear Orientation (Angstroms)
    I     Atom           X                Y                Z
 ----------------------------------------------------------------
    1      C       0.2088860000    -8.5197410000    -0.1743790000
    2      C      -0.4721510000    -7.6359670000     0.6500520000
    3      S       1.1937170000    -7.6517400000    -1.3770580000
    4      C      -0.2251250000    -6.2618940000     0.3531050000
    5      H      -1.1415940000    -7.9547380000     1.4589610000
    6      C       0.6928110000    -6.0799850000    -0.7405830000
    7      C       1.0397730000    -4.7983820000    -1.1955460000
    8      C      -0.8176340000    -5.1535420000     1.0232670000
    9      C      -0.4737540000    -3.8696260000     0.5652620000
   10      C       0.4473500000    -3.6889270000    -0.5277450000
   11      O      -1.6444830000    -5.4810750000     2.0549170000
   12      O       1.8694240000    -4.4798710000    -2.2325920000
   13      C       2.9394660000    -5.3560260000    -2.5654700000
   14      H       3.6014050000    -4.7904960000    -3.2486080000
   15      H       2.5878920000    -6.2685130000    -3.0948850000
   16      H       3.5160520000    -5.6581870000    -1.6645390000
   17      C      -2.6088130000    -4.5469990000     2.5245640000
   18      H      -3.2706610000    -5.1075640000     3.2115680000
   19      H      -3.2166460000    -4.1314730000     1.6923420000
   20      H      -2.1411840000    -3.7120850000     3.0902110000
   21      C       0.6903190000    -2.3143260000    -0.8234020000
   22      S      -0.9855110000    -2.2954870000     1.1949350000
   23      C       0.0000000000    -1.4351800000     0.0000000000
   24      H       1.3612860000    -1.9932110000    -1.6300240000
   25      C       0.0000000000     0.0000000000     0.0000000000
   26      S       0.4516480000     0.7778110000     1.5107320000
   27      C       1.2383770000     2.1426170000     0.7276290000
   28      C       0.4540850000     0.7865590000    -1.0646650000
   29      C       1.1471690000     1.9900430000    -0.6782870000
   30      C       0.4223250000     0.7282400000    -2.4861500000
   31      C       1.0546290000     1.8236830000    -3.1069160000
   32      S       1.6754910000     2.9057180000    -1.9657350000
   33      C       1.1859140000     2.0417290000    -4.5599720000
   34      O       0.7217490000     1.2318020000    -5.3502770000
   35      O       1.8303130000     3.1513860000    -5.0043750000
   36      F      -0.1313470000    -0.2385770000    -3.2462900000
   37      C       2.0184530000     3.4569560000    -6.3349760000
   38      H       2.5714550000     4.4135800000    -6.3702680000
   39      H       1.0521780000     3.5652440000    -6.8756090000
   40      H       2.6019500000     2.6697680000    -6.8618780000
   41      H       1.6984440000     2.9393460000     1.3215100000
   42      H      -0.4866550000    -9.1464710000    -0.7447390000
   43      H       0.8981840000    -9.1505700000     0.3990330000
   44      H      -0.8327130000    -1.4441580000    -0.6876830000
 ----------------------------------------------------------------
 Nuclear Repulsion Energy =        3379.86785287 hartrees
 There are      120 alpha and      120 beta electrons
 Requested basis set is cc-pVTZ
 There are 388 shells and 1096 basis functions

 Total QAlloc Memory Limit 110000 MB
 Mega-Array Size       188 MB
 MEM_STATIC part       192 MB
 Discretize the solute cavity surface with Lebedev spheres
	Using 110 Lebedev grid points for each H atom
	Using 194 Lebedev grid points for other atoms
	Atomic van der Waals radii will be scaled by 1.20
 Remove points where switching function is < 1.0e-08
 Keep 2956 surface tesserae and discard 4320 interior tesserae
 Molecular Surface Area = 438.663 Angst**2
 Requested basis set is rimp2-cc-pVTZ
 There are 853 shells and 2963 basis functions
 A cutoff of  1.0D-10 yielded  33831 shell pairs
 There are    255111 function pairs (    329869 Cartesian)
 Smallest overlap matrix eigenvalue = 2.09E-05

 Scale SEOQF with 1.000000e-01/1.000000e-02/1.000000e-02

 Standard Electronic Orientation quadrupole field applied
 Nucleus-field energy     =     0.0000000296 hartrees
 Guess from superposition of atomic densities
 Warning:  Energy on first SCF cycle will be non-variational
 SAD guess density has 240.000000 electrons

 -----------------------------------------------------------------------
  General SCF calculation program by
  Eric Jon Sundstrom, Paul Horn, Yuezhi Mao, Dmitri Zuev, Alec White,
  David Stuck, Shaama M.S., Shane Yost, Joonho Lee, David Small,
  Daniel Levine, Susi Lehtola, Hugh Burton, Evgeny Epifanovsky,
  Bang C. Huynh
 -----------------------------------------------------------------------
 Hartree-Fock
 using 64 threads for integral computing
 -------------------------------------------------------
 OpenMP Integral computing Module                
 Release: version 1.0, May 2013, Q-Chem Inc. Pittsburgh 
 -------------------------------------------------------
 A restricted SCF calculation will be
 performed using DIIS
 SCF converges when DIIS error is below 1.0e-06
 ---------------------------------------
  Cycle       Energy         DIIS error
 ---------------------------------------
    1   -2767.3583507850      1.77e-02  
    2   -2754.8557571767      1.54e-03  
    3   -2755.2042532055      8.78e-04  
    4   -2755.2948745935      2.55e-04  
    5   -2755.3085451999      7.27e-05  
    6   -2755.3100707892      2.59e-05  
    7   -2755.3104682913      1.35e-05  
    8   -2755.3105920852      5.68e-06  
    9   -2755.3106201582      3.05e-06  
   10   -2755.3106272462      1.44e-06  
   11   -2755.3106294127      7.40e-07  Convergence criterion met
 ---------------------------------------
 SCF time:   CPU 7387.53s  wall 271.00s 

************** Final PCM Free Energy Summary **************
 G_electrostatic  =      -0.02132493 hartree =     -13.38159260 kcal/mol
 G_cavitation     =       0.00000000 hartree =       0.00000000 kcal/mol
 G_dispersion     =       0.00000000 hartree =       0.00000000 kcal/mol
 G_repulsion      =       0.00000000 hartree =       0.00000000 kcal/mol
 --------------------------------------------------
 Non-electrostatic Free Energy =       0.00000000 hartree =       0.00000000 kcal/mol
 Total                         =      -0.02132493 hartree =     -13.38159260 kcal/mol
 --------------------------------------------------
 SCF Energy (H0 + V/2)                       =   -2755.31062941 
 Solute Internal Energy (H0)                 =   -2755.28930449 
 Total Free Energy (H0 + V/2 + non-elec)     =   -2755.31062941 hartree
                                             = -1728983.51550344 kcal/mol
***********************************************************

 SCF   energy in the final basis set =    -2755.3106294127
 Total energy in the final basis set =    -2755.3106294127


 --------------------------------------------------------------
  Generalized many-body perturbation theory program
  by Joonho Lee, Fazle Rob, Xintian Feng, Evgeny Epifanovsky

 No regularization used 
 (reg. param. = 0.0000e+00)
  (P|Q)^-1/2 Time:  CPU 141.24 s  wall 2.67 s

 In RI-MP2 calculation: 
 # of frozen core orbitals: 45

 Components of the RIMP2 correlation energy:
        aaaa    correlation energy =        -0.6714920822 a.u.
        abab    correlation energy =        -3.7552102788 a.u.
        bbbb    correlation energy =        -0.6714920822 a.u.
        non-Brillouin singles      =        -0.0000000000 a.u.
        total same-spin energy     =        -1.3429841644 a.u.
        total opposite-spin energy =        -3.7552102788 a.u.

 Total  RIMP2   correlation energy =        -5.0981944432 a.u.
        RIMP2         total energy =     -2760.4088238559 a.u.

 RI-MP2 Energy Time:  CPU 3000.24 s  wall 48.94 s
 
 --------------------------------------------------------------
 
                    Orbital Energies (a.u.)
 --------------------------------------------------------------
 
 Alpha MOs
 -- Occupied --
-92.0133 -91.9975 -91.9798 -91.9581 -26.3384 -20.6132 -20.5876 -20.5869
-20.5515 -11.4118 -11.3794 -11.3107 -11.3093 -11.3084 -11.3000 -11.2991
-11.2968 -11.2892 -11.2849 -11.2849 -11.2840 -11.2824 -11.2816 -11.2738
-11.2729 -11.2584 -11.2584 -11.2497 -11.2373  -9.0121  -9.0015  -8.9819
 -8.9607  -6.6928  -6.6921  -6.6917  -6.6827  -6.6821  -6.6807  -6.6630
 -6.6622  -6.6609  -6.6420  -6.6410  -6.6400  -1.6515  -1.4730  -1.4109
 -1.4088  -1.3685  -1.2407  -1.2094  -1.1757  -1.1443  -1.1000  -1.0525
 -1.0466  -1.0299  -1.0090  -0.9986  -0.9729  -0.9599  -0.9491  -0.9413
 -0.8943  -0.8744  -0.8619  -0.8080  -0.7959  -0.7862  -0.7780  -0.7729
 -0.7618  -0.7338  -0.7211  -0.7185  -0.6982  -0.6934  -0.6860  -0.6796
 -0.6749  -0.6731  -0.6563  -0.6486  -0.6372  -0.6276  -0.6201  -0.6148
 -0.6112  -0.6076  -0.5969  -0.5944  -0.5809  -0.5685  -0.5587  -0.5549
 -0.5442  -0.5343  -0.5302  -0.5232  -0.5128  -0.5078  -0.5058  -0.5019
 -0.4871  -0.4842  -0.4755  -0.4696  -0.4625  -0.4620  -0.4608  -0.4464
 -0.4276  -0.3995  -0.3860  -0.3702  -0.3509  -0.2943  -0.2876  -0.2179
 -- Virtual --
  0.0203   0.0554   0.1133   0.1273   0.1391   0.1452   0.1534   0.1550
  0.1591   0.1594   0.1628   0.1739   0.1818   0.1863   0.1886   0.1969
  0.2003   0.2026   0.2061   0.2078   0.2163   0.2219   0.2229   0.2282
  0.2290   0.2327   0.2412   0.2462   0.2538   0.2580   0.2644   0.2704
  0.2754   0.2933   0.3114   0.3148   0.3257   0.3362   0.3440   0.3464
  0.3497   0.3578   0.3606   0.3663   0.3682   0.3725   0.3797   0.3819
  0.3876   0.3889   0.3911   0.4051   0.4124   0.4143   0.4187   0.4204
  0.4268   0.4277   0.4312   0.4356   0.4369   0.4427   0.4447   0.4478
  0.4551   0.4629   0.4668   0.4690   0.4712   0.4750   0.4771   0.4831
  0.4855   0.4915   0.4957   0.4977   0.5057   0.5111   0.5167   0.5193
  0.5256   0.5282   0.5310   0.5376   0.5388   0.5436   0.5474   0.5501
  0.5546   0.5585   0.5601   0.5640   0.5677   0.5706   0.5762   0.5807
  0.5866   0.5877   0.5904   0.5950   0.5990   0.6003   0.6079   0.6121
  0.6159   0.6166   0.6205   0.6208   0.6231   0.6263   0.6313   0.6332
  0.6376   0.6408   0.6420   0.6438   0.6485   0.6501   0.6548   0.6563
  0.6599   0.6644   0.6712   0.6769   0.6789   0.6804   0.6931   0.6995
  0.7025   0.7037   0.7090   0.7140   0.7198   0.7236   0.7322   0.7408
  0.7466   0.7530   0.7584   0.7600   0.7700   0.7773   0.7837   0.7876
  0.7952   0.7977   0.8005   0.8043   0.8092   0.8107   0.8149   0.8272
  0.8296   0.8366   0.8426   0.8587   0.8642   0.8675   0.8700   0.8801
  0.8887   0.8943   0.8980   0.8991   0.9041   0.9047   0.9129   0.9190
  0.9221   0.9275   0.9357   0.9367   0.9412   0.9473   0.9520   0.9576
  0.9591   0.9650   0.9671   0.9752   0.9784   0.9862   0.9884   0.9943
  0.9976   1.0026   1.0075   1.0099   1.0152   1.0211   1.0226   1.0331
  1.0359   1.0441   1.0465   1.0513   1.0549   1.0578   1.0625   1.0677
  1.0699   1.0748   1.0818   1.0880   1.0928   1.0962   1.1032   1.1125
  1.1157   1.1196   1.1265   1.1336   1.1342   1.1396   1.1470   1.1504
  1.1587   1.1634   1.1651   1.1663   1.1703   1.1759   1.1766   1.1839
  1.1874   1.1910   1.1968   1.1979   1.2021   1.2108   1.2141   1.2165
  1.2209   1.2263   1.2358   1.2382   1.2431   1.2485   1.2537   1.2590
  1.2622   1.2683   1.2735   1.2806   1.2853   1.2917   1.2938   1.2999
  1.3040   1.3124   1.3191   1.3232   1.3323   1.3382   1.3420   1.3437
  1.3474   1.3527   1.3576   1.3663   1.3787   1.3869   1.3921   1.3983
  1.4055   1.4126   1.4129   1.4214   1.4220   1.4358   1.4434   1.4538
  1.4614   1.4719   1.4767   1.4799   1.4859   1.4901   1.4916   1.5000
  1.5063   1.5116   1.5140   1.5203   1.5255   1.5304   1.5363   1.5406
  1.5428   1.5472   1.5518   1.5580   1.5614   1.5701   1.5713   1.5792
  1.5868   1.5988   1.6036   1.6070   1.6170   1.6250   1.6316   1.6342
  1.6426   1.6491   1.6569   1.6578   1.6639   1.6711   1.6772   1.6881
  1.6949   1.7015   1.7029   1.7195   1.7230   1.7307   1.7335   1.7449
  1.7569   1.7636   1.7652   1.7784   1.7906   1.7982   1.8068   1.8150
  1.8263   1.8313   1.8339   1.8373   1.8580   1.8636   1.8663   1.8728
  1.8798   1.8858   1.8999   1.9116   1.9153   1.9251   1.9294   1.9367
  1.9437   1.9521   1.9626   1.9689   1.9745   1.9824   1.9898   1.9975
  2.0168   2.0205   2.0287   2.0351   2.0397   2.0439   2.0493   2.0572
  2.0726   2.0789   2.0910   2.0966   2.1060   2.1111   2.1253   2.1362
  2.1423   2.1492   2.1554   2.1630   2.1734   2.1797   2.1865   2.1943
  2.1960   2.1993   2.2156   2.2189   2.2297   2.2315   2.2377   2.2424
  2.2514   2.2570   2.2621   2.2702   2.2773   2.2851   2.2951   2.2969
  2.3010   2.3089   2.3156   2.3291   2.3322   2.3469   2.3566   2.3631
  2.3719   2.3885   2.3971   2.4027   2.4066   2.4116   2.4187   2.4306
  2.4398   2.4456   2.4589   2.4683   2.4716   2.4821   2.4906   2.5039
  2.5127   2.5244   2.5275   2.5331   2.5399   2.5473   2.5643   2.5767
  2.5847   2.5936   2.5959   2.6033   2.6121   2.6216   2.6234   2.6268
  2.6283   2.6371   2.6405   2.6486   2.6512   2.6587   2.6644   2.6721
  2.6821   2.6899   2.6939   2.6956   2.7007   2.7024   2.7199   2.7268
  2.7272   2.7374   2.7402   2.7447   2.7549   2.7627   2.7669   2.7694
  2.7744   2.7861   2.7929   2.7996   2.8074   2.8160   2.8301   2.8315
  2.8401   2.8462   2.8558   2.8601   2.8656   2.8671   2.8752   2.8758
  2.8801   2.8864   2.9039   2.9100   2.9156   2.9262   2.9366   2.9476
  2.9490   2.9541   2.9600   2.9669   2.9799   2.9838   2.9952   3.0028
  3.0111   3.0156   3.0224   3.0324   3.0360   3.0425   3.0442   3.0458
  3.0564   3.0634   3.0725   3.0824   3.0893   3.0916   3.0953   3.1030
  3.1079   3.1097   3.1211   3.1252   3.1322   3.1373   3.1395   3.1489
  3.1534   3.1572   3.1638   3.1648   3.1679   3.1729   3.1786   3.1831
  3.1879   3.1935   3.2018   3.2029   3.2111   3.2136   3.2213   3.2239
  3.2333   3.2354   3.2422   3.2456   3.2525   3.2561   3.2613   3.2694
  3.2724   3.2753   3.2786   3.2816   3.2894   3.2925   3.2944   3.3033
  3.3059   3.3087   3.3120   3.3176   3.3200   3.3305   3.3403   3.3459
  3.3491   3.3521   3.3550   3.3592   3.3607   3.3628   3.3687   3.3718
  3.3764   3.3801   3.3836   3.3938   3.3970   3.4008   3.4033   3.4093
  3.4146   3.4208   3.4251   3.4278   3.4355   3.4410   3.4430   3.4463
  3.4496   3.4544   3.4597   3.4616   3.4709   3.4726   3.4798   3.4812
  3.4894   3.4999   3.5022   3.5111   3.5176   3.5201   3.5218   3.5324
  3.5463   3.5494   3.5518   3.5583   3.5636   3.5740   3.5854   3.5877
  3.5888   3.5931   3.5956   3.6008   3.6026   3.6077   3.6133   3.6177
  3.6276   3.6326   3.6348   3.6387   3.6456   3.6484   3.6536   3.6565
  3.6637   3.6662   3.6765   3.6768   3.6795   3.6853   3.6943   3.6961
  3.7051   3.7091   3.7104   3.7142   3.7236   3.7253   3.7290   3.7328
  3.7340   3.7393   3.7516   3.7532   3.7630   3.7663   3.7704   3.7830
  3.7869   3.7901   3.7955   3.8051   3.8083   3.8119   3.8159   3.8253
  3.8282   3.8337   3.8398   3.8459   3.8504   3.8508   3.8533   3.8599
  3.8661   3.8745   3.8797   3.8827   3.8887   3.8972   3.9044   3.9145
  3.9231   3.9267   3.9340   3.9387   3.9423   3.9536   3.9541   3.9662
  3.9669   3.9705   3.9868   3.9894   3.9931   4.0003   4.0125   4.0165
  4.0220   4.0248   4.0327   4.0456   4.0496   4.0571   4.0634   4.0679
  4.0746   4.0770   4.0852   4.0880   4.0948   4.1019   4.1147   4.1197
  4.1314   4.1436   4.1557   4.1613   4.1691   4.1733   4.1794   4.1813
  4.1827   4.1855   4.1959   4.2087   4.2150   4.2226   4.2414   4.2429
  4.2504   4.2532   4.2625   4.2710   4.2837   4.2914   4.3044   4.3112
  4.3142   4.3215   4.3285   4.3460   4.3486   4.3501   4.3566   4.3661
  4.3744   4.3765   4.3810   4.3929   4.3956   4.4063   4.4129   4.4189
  4.4242   4.4263   4.4287   4.4327   4.4428   4.4487   4.4550   4.4673
  4.4740   4.4755   4.4860   4.4963   4.5039   4.5161   4.5168   4.5259
  4.5384   4.5492   4.5514   4.5591   4.5680   4.5731   4.5822   4.5938
  4.5982   4.6117   4.6171   4.6246   4.6351   4.6408   4.6416   4.6566
  4.6599   4.6716   4.6783   4.6799   4.6877   4.6993   4.7132   4.7234
  4.7332   4.7431   4.7471   4.7804   4.7831   4.7971   4.8066   4.8180
  4.8234   4.8341   4.8355   4.8455   4.8672   4.8741   4.8823   4.8942
  4.9185   4.9271   4.9410   4.9446   4.9564   4.9622   4.9710   4.9829
  4.9878   5.0020   5.0088   5.0109   5.0133   5.0252   5.0435   5.0471
  5.0734   5.0766   5.1001   5.1083   5.1196   5.1598   5.1675   5.1726
  5.1871   5.1931   5.1994   5.2049   5.2171   5.2217   5.2257   5.2418
  5.2554   5.2586   5.2733   5.2872   5.2942   5.3156   5.3258   5.3298
  5.3349   5.3492   5.3545   5.3614   5.3679   5.3823   5.3930   5.4015
  5.4033   5.4064   5.4202   5.4435   5.4725   5.4743   5.4937   5.4999
  5.5088   5.5198   5.5235   5.5474   5.5649   5.5673   5.5761   5.5864
  5.5972   5.6091   5.6164   5.6168   5.6349   5.6442   5.6692   5.6909
  5.7241   5.7358   5.7649   5.7810   5.7998   5.8278   5.8298   5.8518
  5.8588   5.8849   5.9037   5.9555   5.9603   5.9688   5.9821   6.0045
  6.0363   6.0701   6.1150   6.1259   6.1329   6.1447   6.1720   6.1764
  6.1849   6.2018   6.2320   6.2411   6.2517   6.2686   6.2854   6.2940
  6.3077   6.3418   6.3638   6.4319   6.4741   6.4941   6.5295   6.5553
  6.5587   6.5699   6.6502   6.6755   6.6893   6.7190   6.7406   6.7474
  6.8096   6.8586   6.8593   6.8822   6.8986   6.9905   7.1310   7.1461
  7.1774   7.2104   7.2216   7.2402   7.3251   7.3280   7.3415   7.3706
  7.3733   7.4270   7.4615   7.4831   7.4858   7.4979   7.5187   7.5478
  7.6134   7.7370   7.7673   7.8032   7.8308   7.9088   7.9279   7.9566
  8.0041   8.1211   8.3510   8.5932   8.9370   9.0094   9.3630   9.4986
  9.6994  10.3164  11.2439  11.3986  11.9374  12.0028  12.1263  12.3623
 12.4435  12.4986  12.7071  12.9327  12.9980  13.2550  13.4740  13.5061
 13.7156  13.8721  13.9204  13.9569  14.1745  14.3166  15.1447  15.2841
 --------------------------------------------------------------
 
          Ground-State Mulliken Net Atomic Charges

     Atom                 Charge (a.u.)
  ----------------------------------------
      1 C                    -0.070305
      2 C                    -0.259147
      3 S                    -0.135121
      4 C                    -0.047513
      5 H                     0.193510
      6 C                    -0.052763
      7 C                     0.223430
      8 C                     0.232475
      9 C                    -0.074079
     10 C                    -0.036264
     11 O                    -0.334550
     12 O                    -0.342934
     13 C                    -0.082749
     14 H                     0.120424
     15 H                     0.092233
     16 H                     0.092524
     17 C                    -0.087362
     18 H                     0.124263
     19 H                     0.093010
     20 H                     0.089853
     21 C                    -0.307761
     22 S                    -0.087682
     23 C                     0.102986
     24 H                     0.204943
     25 C                    -0.066041
     26 S                     0.109056
     27 C                    -0.232682
     28 C                    -0.110394
     29 C                    -0.007487
     30 C                     0.370172
     31 C                    -0.142493
     32 S                     0.046797
     33 C                     0.460685
     34 O                    -0.449016
     35 O                    -0.297929
     36 F                    -0.214520
     37 C                    -0.054943
     38 H                     0.116906
     39 H                     0.084826
     40 H                     0.084772
     41 H                     0.214582
     42 H                     0.117581
     43 H                     0.115169
     44 H                     0.203538
  ----------------------------------------
  Sum of atomic charges =     0.000000

 -----------------------------------------------------------------
                    Cartesian Multipole Moments
 -----------------------------------------------------------------
    Charge (ESU x 10^10)
                 0.0000
    Dipole Moment (Debye)
         X       1.3117      Y       3.0627      Z       2.8326
       Tot       4.3732
    Quadrupole Moments (Debye-Ang)
        XX    -183.6976     XY       9.7005     YY    -176.9689
        XZ     -14.0499     YZ     -12.6201     ZZ    -201.0826
    Octopole Moments (Debye-Ang^2)
       XXX    -285.7394    XXY     364.9690    XYY     -88.1561
       YYY    1052.7929    XXZ     170.4825    XYZ      16.4020
       YYZ     175.9858    XZZ     -41.8219    YZZ     494.5672
       ZZZ     582.4082
    Hexadecapole Moments (Debye-Ang^3)
      XXXX   -2061.7123   XXXY    -234.2517   XXYY   -3720.6926
      XYYY       1.8558   YYYY  -19218.1624   XXXZ    1198.4807
      XXYZ     264.1805   XYYZ     183.7638   YYYZ     515.3367
      XXZZ   -1274.6068   XYZZ     158.8560   YYZZ   -4381.6418
      XZZZ     888.5300   YZZZ     243.9581   ZZZZ   -6793.2665
 -----------------------------------------------------------------
 Total job time:  323.75s(wall), 10504.74s(cpu) 
 Sun Sep 24 18:30:21 2023

        *************************************************************
        *                                                           *
        *  Thank you very much for using Q-Chem.  Have a nice day.  *
        *                                                           *
        *************************************************************


0 sent ACK to 0 
now end server 0 ... 
cleanup process ... done
remove work dirs ./qchem2031701.0 -- ./qchem2031701.0
rm -rf ./qchem2031701.0
rm -rf ./qchem2031701
