You are running Q-Chem version: 5.4.0

#
# job setting
#
local host:  exp-6-02
current dir: /expanse/lustre/projects/csd626/rramji/aromodel/PTB7_fin/Hydrogenated_Rotation_Test
input file:  fin_bdt_Phi_15_Theta_300_fin_ftt_Hydrogenated.qcin
output file: 
nprocs     : 1
nthreads   : 64
#
# qchem installation setting
#
QC:          /cm/shared/apps/spack/cpu/opt/spack/linux-centos8-zen2/gcc-10.2.0/qchem-5.4-akfmr7b3t57bfs6qan3padb2wnb2i7cl
QCAUX:       /cm/shared/apps/spack/cpu/opt/spack/linux-centos8-zen2/gcc-10.2.0/qchem-5.4-akfmr7b3t57bfs6qan3padb2wnb2i7cl/qcaux
QCPROG:      /cm/shared/apps/spack/cpu/opt/spack/linux-centos8-zen2/gcc-10.2.0/qchem-5.4-akfmr7b3t57bfs6qan3padb2wnb2i7cl/exe/qcprog.exe
QCPROG_S:    /cm/shared/apps/spack/cpu/opt/spack/linux-centos8-zen2/gcc-10.2.0/qchem-5.4-akfmr7b3t57bfs6qan3padb2wnb2i7cl/exe/qcprog.exe_s
PARALLEL:    -DPARALLEL
QCMPI:       mpich
#
# qchem directory setting
#
qcrun:       qchem424272
QCSCRATCH:   .
QCLOCALSCR:  
QCTMPDIR:    .
QCFILEPREF:  ./qchem424272
QCSAVEDIR:   
workdirs:    ./qchem424272
workdir0:    ./qchem424272
partmpdirs =  
#
# parallel setting
#
QCRSH:           ssh
QCMPI:           mpich
QCMPIRUN:        /cm/shared/apps/spack/cpu/opt/spack/linux-centos8-zen2/gcc-10.2.0/qchem-5.4-akfmr7b3t57bfs6qan3padb2wnb2i7cl/bin/mpi/mpirun_qchem
QCMACHINEFILE:   ./qchem424272/hostfile
exp-6-02

#
# env setting
#
exported envs:   QC QCAUX QCSCRATCH QCRUNNAME QCFILEPREF QCPROG QCPROG_S GUIFILE

Running Job 1 of 1 fin_bdt_Phi_15_Theta_300_fin_ftt_Hydrogenated.qcin
qchem fin_bdt_Phi_15_Theta_300_fin_ftt_Hydrogenated.qcin_424272.0 ./qchem424272/ 1
/cm/shared/apps/spack/cpu/opt/spack/linux-centos8-zen2/gcc-10.2.0/qchem-5.4-akfmr7b3t57bfs6qan3padb2wnb2i7cl/bin/mpi/mpirun_qchem -machinefile ./qchem424272/hostfile -np 1 /cm/shared/apps/spack/cpu/opt/spack/linux-centos8-zen2/gcc-10.2.0/qchem-5.4-akfmr7b3t57bfs6qan3padb2wnb2i7cl/exe/qcprog.exe fin_bdt_Phi_15_Theta_300_fin_ftt_Hydrogenated.qcin_424272.0 ./qchem424272/

Process 0 of 1 is on exp-6-02 - thread support 0
initial socket setup ...start
initial socket setup ...done 
now start server 0 ... 
                  Welcome to Q-Chem
     A Quantum Leap Into The Future Of Chemistry


 Q-Chem 5.4, Q-Chem, Inc., Pleasanton, CA (2021)

 License issued to: University of California, San Diego (site)

 E. Epifanovsky,  A. T. B. Gilbert,  Xintian Feng,  Joonho Lee,  Yuezhi Mao,  
 N. Mardirossian,  P. Pokhilko,  A. White,  M. Wormit,  M. P. Coons,  
 A. L. Dempwolff,  Zhengting Gan,  D. Hait,  P. R. Horn,  L. D. Jacobson,  
 I. Kaliman,  J. Kussmann,  A. W. Lange,  Ka Un Lao,  D. S. Levine,  Jie Liu,  
 S. C. McKenzie,  A. F. Morrison,  K. Nanda,  F. Plasser,  D. R. Rehn,  
 M. L. Vidal,  Zhi-Qiang You,  Ying Zhu,  B. Alam,  B. Albrecht,  
 A. Aldossary,  E. Alguire,  J. H. Andersen,  D. Barton,  K. Begam,  A. Behn,  
 Y. A. Bernard,  E. J. Berquist,  H. Burton,  A. Carreras,  K. Carter-Fenk,  
 R. Chakraborty,  A. D. Chien,  K. D. Closser,  V. Cofer-Shabica,  
 S. Dasgupta,  Jia Deng,  M. de Wergifosse,  M. Diedenhofen,  Hainam Do,  
 S. Ehlert,  Po-Tung Fang,  S. Fatehi,  Qingguo Feng,  J. Gayvert,  
 Qinghui Ge,  G. Gidofalvi,  M. Goldey,  J. Gomes,  C. Gonzalez-Espinoza,  
 S. Gulania,  A. Gunina,  M. W. D. Hanson-Heine,  P. H. P. Harbach,  
 A. W. Hauser,  M. F. Herbst,  M. Hernandez Vera,  M. Hodecker,  
 Z. C. Holden,  S. Houck,  Xunkun Huang,  Kerwin Hui,  B. C. Huynh,  
 M. Ivanov,  Hyunjun Ji,  Hanjie Jiang,  B. Kaduk,  S. Kaehler,  
 K. Khistyaev,  Jaehoon Kim,  P. Klunzinger,  Z. Koczor-Benda,  
 Joong Hoon Koh,  D. Kosenkov,  L. Koulias,  T. Kowalczyk,  C. M. Krauter,  
 K. Kue,  A. Kunitsa,  T. Kus,  A. Landau,  K. V. Lawler,  D. Lefrancois,  
 S. Lehtola,  Rain Li,  Yi-Pei Li,  Jiashu Liang,  M. Liebenthal,  
 Hung-Hsuan Lin,  You-Sheng Lin,  Fenglai Liu,  Kuan-Yu Liu,  
 M. Loipersberger,  A. Luenser,  A. Manjanath,  P. Manohar,  E. Mansoor,  
 S. F. Manzer,  Shan-Ping Mao,  A. V. Marenich,  T. Markovich,  S. Mason,  
 S. A. Maurer,  P. F. McLaughlin,  M. F. S. J. Menger,  J.-M. Mewes,  
 S. A. Mewes,  P. Morgante,  J. W. Mullinax,  T. S. Nguyen-Beck,  
 K. J. Oosterbaan,  G. Paran,  Alexander C. Paul,  Suranjan K. Paul,  
 F. Pavosevic,  Zheng Pei,  S. Prager,  E. I. Proynov,  E. Ramos,  B. Rana,  
 A. E. Rask,  A. Rettig,  R. M. Richard,  F. Rob,  E. Rossomme,  T. Scheele,  
 M. Scheurer,  M. Schneider,  N. Sergueev,  S. M. Sharada,  W. Skomorowski,  
 D. W. Small,  C. J. Stein,  Yu-Chuan Su,  E. J. Sundstrom,  Zhen Tao,  
 J. Thirman,  T. Tsuchimochi,  N. M. Tubman,  S. P. Veccham,  O. Vydrov,  
 J. Wenzel,  J. Witte,  A. Yamada,  Kun Yao,  S. Yeganeh,  S. R. Yost,  
 A. Zech,  Igor Ying Zhang,  Xing Zhang,  Yu Zhang,  D. Zuev,  
 A. Aspuru-Guzik,  A. T. Bell,  N. A. Besley,  K. B. Bravaya,  B. R. Brooks,  
 D. Casanova,  Jeng-Da Chai,  S. Coriani,  C. J. Cramer,  
 A. E. DePrince, III,  R. A. DiStasio Jr.,  A. Dreuw,  B. D. Dunietz,  
 T. R. Furlani,  W. A. Goddard III,  S. Grimme,  S. Hammes-Schiffer,  
 T. Head-Gordon,  W. J. Hehre,  Chao-Ping Hsu,  T.-C. Jagau,  Yousung Jung,  
 A. Klamt,  Jing Kong,  D. S. Lambrecht,  WanZhen Liang,  N. J. Mayhall,  
 C. W. McCurdy,  J. B. Neaton,  C. Ochsenfeld,  J. A. Parkhill,  R. Peverati,  
 V. A. Rassolov,  Yihan Shao,  L. V. Slipchenko,  T. Stauch,  R. P. Steele,  
 J. E. Subotnik,  A. J. W. Thom,  A. Tkatchenko,  D. G. Truhlar,  
 T. Van Voorhis,  T. A. Wesolowski,  K. B. Whaley,  H. L. Woodcock III,  
 P. M. Zimmerman,  S. Faraji,  P. M. W. Gill,  M. Head-Gordon,  
 J. M. Herbert,  A. I. Krylov

 Contributors to earlier versions of Q-Chem not listed above: 
 R. D. Adamson,  B. Austin,  R. Baer,  J. Baker,  G. J. O. Beran,  
 K. Brandhorst,  S. T. Brown,  E. F. C. Byrd,  A. K. Chakraborty,  
 G. K. L. Chan,  Chun-Min Chang,  Yunqing Chen,  C.-L. Cheng,  
 Siu Hung Chien,  D. M. Chipman,  D. L. Crittenden,  H. Dachsel,  
 R. J. Doerksen,  A. D. Dutoi,  R. G. Edgar,  J. Fosso-Tande,  
 L. Fusti-Molnar,  D. Ghosh,  A. Ghysels,  A. Golubeva-Zadorozhnaya,  
 J. Gonthier,  M. S. Gordon,  S. R. Gwaltney,  G. Hawkins,  J. E. Herr,  
 A. Heyden,  S. Hirata,  E. G. Hohenstein,  G. Kedziora,  F. J. Keil,  
 C. Kelley,  Jihan Kim,  R. A. King,  R. Z. Khaliullin,  P. P. Korambath,  
 W. Kurlancheek,  A. Laurent,  A. M. Lee,  M. S. Lee,  S. V. Levchenko,  
 Ching Yeh Lin,  D. Liotard,  E. Livshits,  R. C. Lochan,  I. Lotan,  
 L. A. Martinez-Martinez,  P. E. Maslen,  N. Nair,  D. P. O'Neill,  
 D. Neuhauser,  E. Neuscamman,  C. M. Oana,  R. Olivares-Amaya,  R. Olson,  
 T. M. Perrine,  B. Peters,  P. A. Pieniazek,  A. Prociuk,  Y. M. Rhee,  
 J. Ritchie,  M. A. Rohrdanz,  E. Rosta,  N. J. Russ,  H. F. Schaefer III,  
 M. W. Schmidt,  N. E. Schultz,  S. Sharma,  N. Shenvi,  C. D. Sherrill,  
 A. C. Simmonett,  A. Sodt,  T. Stein,  D. Stuck,  K. S. Thanthiriwatte,  
 V. Vanovschi,  L. Vogt,  Tao Wang,  A. Warshel,  M. A. Watson,  
 C. F. Williams,  Q. Wu,  X. Xu,  Jun Yang,  W. Zhang,  Yan Zhao

 Please cite Q-Chem as follows:
 Y. Shao et al., Mol. Phys. 113, 184-215 (2015)
 DOI: 10.1080/00268976.2014.952696

 Q-Chem 5.4.0 for Intel X86 EM64T Linux

 Parts of Q-Chem use Armadillo 9.800.1 (Horizon Scraper).
 http://arma.sourceforge.net/

 Q-Chem begins on Tue Sep 26 20:00:07 2023  

 Host: 
0

     Scratch files written to ./qchem424272//
 May1621 |scratch|qcdevops|jenkins|workspace|build_RNUM    
 Parallel job on  1  processors
 Processing $rem in /cm/shared/apps/spack/cpu/opt/spack/linux-centos8-zen2/gcc-10.2.0/qchem-5.4-akfmr7b3t57bfs6qan3padb2wnb2i7cl/config/preferences:
 Processing $rem in /home/rramji/.qchemrc:
 Symmetry turned off for PCM/SM12/SMD calculation
 Core orbitals will be frozen

 Checking the input file for inconsistencies... 	...done.

 Q-Chem warning in module forms1/BasisType.C, line 2236:

 You are not using the predefined 5D/6D in this basis set.


--------------------------------------------------------------
User input:
--------------------------------------------------------------
$molecule
0 1
C	0.208002	-8.519741	0.175432
C	-0.722164	-7.635967	-0.352097
S	1.563424	-7.651740	0.936458
C	-0.386833	-6.261894	-0.160388
H	-1.635031	-7.954738	-0.870905
C	0.849637	-6.079985	0.553685
C	1.357938	-4.798382	0.816372
C	-1.149702	-5.153542	-0.627524
C	-0.638941	-3.869626	-0.368399
C	0.597409	-3.688927	0.348912
O	-2.309260	-5.481075	-1.262667
O	2.523296	-4.479871	1.453338
C	3.036927	-5.356026	2.449320
H	3.824632	-4.790496	2.982577
H	3.497250	-6.268513	2.011155
H	2.249807	-5.658187	3.173591
C	-2.939226	-4.546999	-2.130793
H	-3.730721	-5.107564	-2.663289
H	-2.225196	-4.131473	-2.873906
H	-3.415077	-3.712085	-1.572045
C	0.930765	-2.314326	0.536849
S	-1.347913	-2.295487	-0.763041
C	0.000000	-1.435180	0.000000
H	1.841645	-1.993211	1.057554
C	0.000000	0.000000	0.000000
S	0.234946	0.868203	1.510732
C	0.641630	2.390125	0.727629
C	0.235036	0.877284	-1.064665
C	0.593019	2.219143	-0.678287
C	0.219452	0.812732	-2.486150
C	0.546689	2.034501	-3.106916
S	0.866345	3.240357	-1.965735
C	0.617067	2.279095	-4.559972
O	0.378342	1.376631	-5.350277
O	0.952308	3.517725	-5.004375
F	-0.065123	-0.264443	-3.246290
C	1.054950	3.861577	-6.334976
H	1.341516	4.928732	-6.370268
H	0.093573	3.716085	-6.875609
H	1.822303	3.252232	-6.861878
H	0.879812	3.278780	1.321510
H	0.648918	-9.146471	-0.608584
H	-0.237003	-9.150570	0.953830
H	0.532637	-1.444158	-0.939477
$end

$rem
JOBTYPE		SP
EXCHANGE	HF
CORRELATION	pRIMP2
BASIS		cc-pvtz
METHOD		rimp2
AUX_BASIS	rimp2-cc-pvtz
SOLVENT_METHOD	PCM
PURECART	11111
SYMMETRY	false
MEM_TOTAL	110000
SCF_CONVERGENCE = 6
THRESH=10
GUI = 2
$end



$solvent
dielectric 4.90
$end
--------------------------------------------------------------
 ----------------------------------------------------------------
             Standard Nuclear Orientation (Angstroms)
    I     Atom           X                Y                Z
 ----------------------------------------------------------------
    1      C       0.2080020000    -8.5197410000     0.1754320000
    2      C      -0.7221640000    -7.6359670000    -0.3520970000
    3      S       1.5634240000    -7.6517400000     0.9364580000
    4      C      -0.3868330000    -6.2618940000    -0.1603880000
    5      H      -1.6350310000    -7.9547380000    -0.8709050000
    6      C       0.8496370000    -6.0799850000     0.5536850000
    7      C       1.3579380000    -4.7983820000     0.8163720000
    8      C      -1.1497020000    -5.1535420000    -0.6275240000
    9      C      -0.6389410000    -3.8696260000    -0.3683990000
   10      C       0.5974090000    -3.6889270000     0.3489120000
   11      O      -2.3092600000    -5.4810750000    -1.2626670000
   12      O       2.5232960000    -4.4798710000     1.4533380000
   13      C       3.0369270000    -5.3560260000     2.4493200000
   14      H       3.8246320000    -4.7904960000     2.9825770000
   15      H       3.4972500000    -6.2685130000     2.0111550000
   16      H       2.2498070000    -5.6581870000     3.1735910000
   17      C      -2.9392260000    -4.5469990000    -2.1307930000
   18      H      -3.7307210000    -5.1075640000    -2.6632890000
   19      H      -2.2251960000    -4.1314730000    -2.8739060000
   20      H      -3.4150770000    -3.7120850000    -1.5720450000
   21      C       0.9307650000    -2.3143260000     0.5368490000
   22      S      -1.3479130000    -2.2954870000    -0.7630410000
   23      C       0.0000000000    -1.4351800000     0.0000000000
   24      H       1.8416450000    -1.9932110000     1.0575540000
   25      C       0.0000000000     0.0000000000     0.0000000000
   26      S       0.2349460000     0.8682030000     1.5107320000
   27      C       0.6416300000     2.3901250000     0.7276290000
   28      C       0.2350360000     0.8772840000    -1.0646650000
   29      C       0.5930190000     2.2191430000    -0.6782870000
   30      C       0.2194520000     0.8127320000    -2.4861500000
   31      C       0.5466890000     2.0345010000    -3.1069160000
   32      S       0.8663450000     3.2403570000    -1.9657350000
   33      C       0.6170670000     2.2790950000    -4.5599720000
   34      O       0.3783420000     1.3766310000    -5.3502770000
   35      O       0.9523080000     3.5177250000    -5.0043750000
   36      F      -0.0651230000    -0.2644430000    -3.2462900000
   37      C       1.0549500000     3.8615770000    -6.3349760000
   38      H       1.3415160000     4.9287320000    -6.3702680000
   39      H       0.0935730000     3.7160850000    -6.8756090000
   40      H       1.8223030000     3.2522320000    -6.8618780000
   41      H       0.8798120000     3.2787800000     1.3215100000
   42      H       0.6489180000    -9.1464710000    -0.6085840000
   43      H      -0.2370030000    -9.1505700000     0.9538300000
   44      H       0.5326370000    -1.4441580000    -0.9394770000
 ----------------------------------------------------------------
 Nuclear Repulsion Energy =        3365.09097210 hartrees
 There are      120 alpha and      120 beta electrons
 Requested basis set is cc-pVTZ
 There are 388 shells and 1096 basis functions

 Total QAlloc Memory Limit 110000 MB
 Mega-Array Size       188 MB
 MEM_STATIC part       192 MB
 Discretize the solute cavity surface with Lebedev spheres
	Using 110 Lebedev grid points for each H atom
	Using 194 Lebedev grid points for other atoms
	Atomic van der Waals radii will be scaled by 1.20
 Remove points where switching function is < 1.0e-08
 Keep 2937 surface tesserae and discard 4339 interior tesserae
 Molecular Surface Area = 441.070 Angst**2
 Requested basis set is rimp2-cc-pVTZ
 There are 853 shells and 2963 basis functions
 A cutoff of  1.0D-10 yielded  33435 shell pairs
 There are    252399 function pairs (    326503 Cartesian)
 Smallest overlap matrix eigenvalue = 2.17E-05

 Scale SEOQF with 1.000000e-01/1.000000e-02/1.000000e-02

 Standard Electronic Orientation quadrupole field applied
 Nucleus-field energy     =     0.0000000316 hartrees
 Guess from superposition of atomic densities
 Warning:  Energy on first SCF cycle will be non-variational
 SAD guess density has 240.000000 electrons

 -----------------------------------------------------------------------
  General SCF calculation program by
  Eric Jon Sundstrom, Paul Horn, Yuezhi Mao, Dmitri Zuev, Alec White,
  David Stuck, Shaama M.S., Shane Yost, Joonho Lee, David Small,
  Daniel Levine, Susi Lehtola, Hugh Burton, Evgeny Epifanovsky,
  Bang C. Huynh
 -----------------------------------------------------------------------
 Hartree-Fock
 using 64 threads for integral computing
 -------------------------------------------------------
 OpenMP Integral computing Module                
 Release: version 1.0, May 2013, Q-Chem Inc. Pittsburgh 
 -------------------------------------------------------
 A restricted SCF calculation will be
 performed using DIIS
 SCF converges when DIIS error is below 1.0e-06
 ---------------------------------------
  Cycle       Energy         DIIS error
 ---------------------------------------
    1   -2767.3451542670      1.77e-02  
    2   -2754.8696418535      1.54e-03  
    3   -2755.2177431412      8.77e-04  
    4   -2755.3082458914      2.54e-04  
    5   -2755.3218104156      7.20e-05  
    6   -2755.3232955309      2.57e-05  
    7   -2755.3236855825      1.35e-05  
    8   -2755.3238100446      5.75e-06  
    9   -2755.3238401585      3.05e-06  
   10   -2755.3238475994      1.44e-06  
   11   -2755.3238497907      7.34e-07  Convergence criterion met
 ---------------------------------------
 SCF time:   CPU 7458.69s  wall 270.00s 

************** Final PCM Free Energy Summary **************
 G_electrostatic  =      -0.02161726 hartree =     -13.56503245 kcal/mol
 G_cavitation     =       0.00000000 hartree =       0.00000000 kcal/mol
 G_dispersion     =       0.00000000 hartree =       0.00000000 kcal/mol
 G_repulsion      =       0.00000000 hartree =       0.00000000 kcal/mol
 --------------------------------------------------
 Non-electrostatic Free Energy =       0.00000000 hartree =       0.00000000 kcal/mol
 Total                         =      -0.02161726 hartree =     -13.56503245 kcal/mol
 --------------------------------------------------
 SCF Energy (H0 + V/2)                       =   -2755.32384979 
 Solute Internal Energy (H0)                 =   -2755.30223254 
 Total Free Energy (H0 + V/2 + non-elec)     =   -2755.32384979 hartree
                                             = -1728991.81141583 kcal/mol
***********************************************************

 SCF   energy in the final basis set =    -2755.3238497907
 Total energy in the final basis set =    -2755.3238497907


 --------------------------------------------------------------
  Generalized many-body perturbation theory program
  by Joonho Lee, Fazle Rob, Xintian Feng, Evgeny Epifanovsky

 No regularization used 
 (reg. param. = 0.0000e+00)
  (P|Q)^-1/2 Time:  CPU 180.90 s  wall 3.36 s

 In RI-MP2 calculation: 
 # of frozen core orbitals: 45

 Components of the RIMP2 correlation energy:
        aaaa    correlation energy =        -0.6704074141 a.u.
        abab    correlation energy =        -3.7521650614 a.u.
        bbbb    correlation energy =        -0.6704074141 a.u.
        non-Brillouin singles      =        -0.0000000000 a.u.
        total same-spin energy     =        -1.3408148283 a.u.
        total opposite-spin energy =        -3.7521650614 a.u.

 Total  RIMP2   correlation energy =        -5.0929798896 a.u.
        RIMP2         total energy =     -2760.4168296803 a.u.

 RI-MP2 Energy Time:  CPU 2943.12 s  wall 48.40 s
 
 --------------------------------------------------------------
 
                    Orbital Energies (a.u.)
 --------------------------------------------------------------
 
 Alpha MOs
 -- Occupied --
-92.0150 -91.9964 -91.9760 -91.9585 -26.3375 -20.6130 -20.5874 -20.5865
-20.5512 -11.4115 -11.3791 -11.3151 -11.3091 -11.3071 -11.2993 -11.2979
-11.2938 -11.2890 -11.2837 -11.2836 -11.2831 -11.2827 -11.2817 -11.2736
-11.2727 -11.2589 -11.2582 -11.2499 -11.2375  -9.0134  -9.0004  -8.9784
 -8.9611  -6.6941  -6.6936  -6.6932  -6.6817  -6.6810  -6.6796  -6.6595
 -6.6586  -6.6573  -6.6424  -6.6415  -6.6404  -1.6507  -1.4727  -1.4101
 -1.4090  -1.3682  -1.2394  -1.2086  -1.1755  -1.1437  -1.1000  -1.0519
 -1.0458  -1.0297  -1.0085  -0.9979  -0.9727  -0.9595  -0.9486  -0.9410
 -0.8931  -0.8743  -0.8624  -0.8110  -0.7926  -0.7855  -0.7804  -0.7681
 -0.7627  -0.7335  -0.7192  -0.7188  -0.6978  -0.6925  -0.6874  -0.6794
 -0.6762  -0.6731  -0.6552  -0.6484  -0.6312  -0.6298  -0.6202  -0.6150
 -0.6105  -0.6072  -0.5962  -0.5938  -0.5818  -0.5651  -0.5582  -0.5564
 -0.5516  -0.5316  -0.5281  -0.5211  -0.5131  -0.5077  -0.5038  -0.5004
 -0.4881  -0.4854  -0.4781  -0.4685  -0.4624  -0.4620  -0.4603  -0.4460
 -0.4266  -0.4010  -0.3851  -0.3701  -0.3504  -0.2930  -0.2877  -0.2197
 -- Virtual --
  0.0264   0.0519   0.1143   0.1325   0.1402   0.1470   0.1541   0.1554
  0.1590   0.1611   0.1664   0.1722   0.1823   0.1862   0.1872   0.1912
  0.2013   0.2025   0.2054   0.2088   0.2174   0.2212   0.2230   0.2263
  0.2290   0.2311   0.2405   0.2455   0.2528   0.2575   0.2650   0.2710
  0.2793   0.2932   0.3080   0.3190   0.3267   0.3358   0.3404   0.3478
  0.3537   0.3578   0.3605   0.3639   0.3682   0.3733   0.3792   0.3806
  0.3849   0.3887   0.3946   0.3978   0.4049   0.4116   0.4143   0.4207
  0.4276   0.4284   0.4330   0.4362   0.4393   0.4407   0.4471   0.4482
  0.4505   0.4587   0.4611   0.4660   0.4715   0.4765   0.4789   0.4827
  0.4873   0.4921   0.4985   0.5008   0.5037   0.5121   0.5133   0.5149
  0.5245   0.5260   0.5312   0.5346   0.5392   0.5460   0.5521   0.5532
  0.5547   0.5560   0.5579   0.5662   0.5702   0.5745   0.5790   0.5804
  0.5818   0.5862   0.5900   0.5943   0.5974   0.6011   0.6064   0.6087
  0.6141   0.6152   0.6173   0.6226   0.6246   0.6259   0.6279   0.6305
  0.6365   0.6392   0.6438   0.6452   0.6482   0.6521   0.6540   0.6605
  0.6619   0.6648   0.6732   0.6792   0.6835   0.6862   0.6907   0.6939
  0.7031   0.7064   0.7132   0.7146   0.7169   0.7220   0.7257   0.7374
  0.7466   0.7557   0.7602   0.7639   0.7726   0.7785   0.7802   0.7862
  0.7881   0.7980   0.8000   0.8012   0.8083   0.8139   0.8173   0.8213
  0.8311   0.8381   0.8463   0.8513   0.8627   0.8701   0.8763   0.8829
  0.8904   0.8920   0.8962   0.9008   0.9061   0.9070   0.9131   0.9182
  0.9215   0.9278   0.9326   0.9358   0.9390   0.9411   0.9518   0.9545
  0.9620   0.9687   0.9744   0.9792   0.9821   0.9849   0.9879   0.9934
  0.9950   1.0000   1.0037   1.0122   1.0140   1.0175   1.0195   1.0283
  1.0324   1.0394   1.0411   1.0470   1.0503   1.0540   1.0620   1.0643
  1.0739   1.0787   1.0852   1.0892   1.0932   1.0976   1.0982   1.1074
  1.1119   1.1179   1.1217   1.1276   1.1350   1.1365   1.1485   1.1532
  1.1568   1.1589   1.1661   1.1676   1.1699   1.1745   1.1771   1.1825
  1.1851   1.1884   1.1954   1.1999   1.2053   1.2069   1.2147   1.2147
  1.2253   1.2259   1.2387   1.2415   1.2434   1.2491   1.2508   1.2559
  1.2620   1.2679   1.2706   1.2737   1.2810   1.2888   1.2914   1.2952
  1.2997   1.3109   1.3147   1.3184   1.3311   1.3330   1.3391   1.3414
  1.3473   1.3498   1.3594   1.3659   1.3756   1.3863   1.3914   1.3988
  1.4039   1.4063   1.4199   1.4269   1.4307   1.4376   1.4440   1.4478
  1.4589   1.4726   1.4760   1.4805   1.4882   1.4913   1.4922   1.5001
  1.5047   1.5075   1.5118   1.5174   1.5217   1.5242   1.5342   1.5405
  1.5409   1.5474   1.5498   1.5545   1.5602   1.5642   1.5697   1.5840
  1.5917   1.5935   1.5979   1.6117   1.6203   1.6295   1.6353   1.6381
  1.6479   1.6525   1.6561   1.6609   1.6704   1.6751   1.6853   1.6890
  1.6908   1.7026   1.7086   1.7138   1.7197   1.7235   1.7340   1.7446
  1.7564   1.7631   1.7673   1.7834   1.7901   1.8036   1.8122   1.8131
  1.8267   1.8327   1.8370   1.8391   1.8514   1.8640   1.8673   1.8725
  1.8745   1.8795   1.8879   1.9031   1.9148   1.9254   1.9264   1.9277
  1.9394   1.9465   1.9491   1.9593   1.9696   1.9909   1.9960   2.0123
  2.0165   2.0234   2.0329   2.0364   2.0379   2.0421   2.0453   2.0558
  2.0684   2.0735   2.0851   2.0973   2.1029   2.1158   2.1229   2.1299
  2.1436   2.1551   2.1599   2.1659   2.1778   2.1810   2.1874   2.1929
  2.1955   2.2005   2.2071   2.2175   2.2227   2.2266   2.2354   2.2446
  2.2501   2.2564   2.2670   2.2765   2.2840   2.2948   2.2952   2.3027
  2.3128   2.3258   2.3320   2.3405   2.3442   2.3599   2.3710   2.3746
  2.3807   2.3860   2.3914   2.3989   2.4037   2.4159   2.4191   2.4349
  2.4381   2.4460   2.4658   2.4685   2.4810   2.4841   2.4895   2.5000
  2.5118   2.5141   2.5285   2.5356   2.5443   2.5586   2.5690   2.5780
  2.5828   2.5903   2.5945   2.6038   2.6138   2.6194   2.6261   2.6288
  2.6358   2.6419   2.6453   2.6497   2.6521   2.6621   2.6680   2.6792
  2.6803   2.6872   2.6962   2.6969   2.7022   2.7066   2.7155   2.7221
  2.7291   2.7350   2.7372   2.7426   2.7474   2.7615   2.7646   2.7728
  2.7798   2.7818   2.7935   2.7988   2.8057   2.8134   2.8197   2.8300
  2.8344   2.8437   2.8471   2.8536   2.8615   2.8690   2.8720   2.8754
  2.8809   2.8899   2.8945   2.8996   2.9084   2.9211   2.9364   2.9406
  2.9575   2.9611   2.9657   2.9669   2.9767   2.9840   2.9877   2.9994
  3.0115   3.0164   3.0265   3.0291   3.0400   3.0433   3.0442   3.0461
  3.0514   3.0657   3.0704   3.0756   3.0886   3.0903   3.0957   3.1049
  3.1087   3.1120   3.1159   3.1219   3.1289   3.1390   3.1430   3.1462
  3.1500   3.1582   3.1599   3.1658   3.1663   3.1770   3.1812   3.1881
  3.1894   3.1932   3.2017   3.2067   3.2093   3.2106   3.2175   3.2202
  3.2306   3.2320   3.2456   3.2515   3.2520   3.2602   3.2610   3.2644
  3.2692   3.2756   3.2812   3.2850   3.2888   3.2929   3.2945   3.2978
  3.3035   3.3099   3.3113   3.3184   3.3237   3.3334   3.3353   3.3400
  3.3421   3.3500   3.3535   3.3567   3.3613   3.3632   3.3651   3.3700
  3.3704   3.3768   3.3869   3.3925   3.3936   3.3970   3.4016   3.4033
  3.4137   3.4192   3.4282   3.4299   3.4336   3.4368   3.4421   3.4442
  3.4474   3.4498   3.4612   3.4650   3.4728   3.4737   3.4796   3.4844
  3.4921   3.5001   3.5018   3.5053   3.5149   3.5180   3.5247   3.5332
  3.5351   3.5508   3.5568   3.5608   3.5658   3.5726   3.5783   3.5817
  3.5862   3.5899   3.5909   3.5994   3.6028   3.6057   3.6119   3.6227
  3.6266   3.6293   3.6359   3.6377   3.6442   3.6514   3.6555   3.6602
  3.6655   3.6688   3.6698   3.6756   3.6806   3.6840   3.6894   3.6929
  3.7002   3.7070   3.7112   3.7162   3.7167   3.7268   3.7299   3.7310
  3.7349   3.7360   3.7503   3.7540   3.7596   3.7626   3.7677   3.7771
  3.7850   3.7903   3.7960   3.8041   3.8096   3.8112   3.8168   3.8201
  3.8241   3.8314   3.8377   3.8411   3.8463   3.8491   3.8561   3.8589
  3.8720   3.8730   3.8755   3.8877   3.8900   3.8992   3.9037   3.9058
  3.9219   3.9283   3.9344   3.9364   3.9446   3.9567   3.9605   3.9624
  3.9653   3.9752   3.9798   3.9912   4.0008   4.0022   4.0043   4.0171
  4.0228   4.0303   4.0433   4.0467   4.0540   4.0553   4.0679   4.0698
  4.0742   4.0798   4.0840   4.0873   4.1021   4.1025   4.1127   4.1213
  4.1247   4.1454   4.1473   4.1600   4.1652   4.1689   4.1729   4.1773
  4.1808   4.1888   4.1956   4.2052   4.2122   4.2178   4.2332   4.2367
  4.2489   4.2575   4.2653   4.2755   4.2835   4.2870   4.2985   4.3099
  4.3195   4.3260   4.3323   4.3460   4.3470   4.3490   4.3508   4.3630
  4.3762   4.3784   4.3876   4.3933   4.3956   4.4005   4.4088   4.4169
  4.4204   4.4251   4.4280   4.4345   4.4358   4.4425   4.4577   4.4635
  4.4647   4.4763   4.4950   4.4984   4.5036   4.5174   4.5212   4.5248
  4.5311   4.5498   4.5592   4.5636   4.5669   4.5719   4.5765   4.5830
  4.6003   4.6019   4.6184   4.6289   4.6311   4.6389   4.6415   4.6449
  4.6509   4.6674   4.6714   4.6861   4.7037   4.7052   4.7147   4.7244
  4.7375   4.7457   4.7503   4.7666   4.7835   4.7946   4.8022   4.8146
  4.8219   4.8281   4.8359   4.8452   4.8710   4.8851   4.8918   4.9051
  4.9133   4.9194   4.9368   4.9452   4.9581   4.9601   4.9666   4.9711
  4.9874   5.0080   5.0111   5.0119   5.0333   5.0404   5.0451   5.0484
  5.0752   5.0877   5.1038   5.1136   5.1380   5.1484   5.1571   5.1766
  5.1795   5.1945   5.1979   5.2074   5.2117   5.2238   5.2292   5.2488
  5.2564   5.2586   5.2831   5.2849   5.2955   5.3028   5.3182   5.3271
  5.3350   5.3467   5.3546   5.3581   5.3713   5.3801   5.3907   5.3965
  5.4044   5.4094   5.4359   5.4431   5.4547   5.4662   5.4726   5.4978
  5.5099   5.5133   5.5209   5.5377   5.5644   5.5685   5.5809   5.5896
  5.6026   5.6117   5.6169   5.6345   5.6396   5.6656   5.6896   5.6934
  5.7019   5.7407   5.7655   5.7832   5.8000   5.8206   5.8344   5.8593
  5.8694   5.8875   5.9060   5.9529   5.9687   5.9702   5.9804   6.0034
  6.0423   6.0726   6.1220   6.1243   6.1330   6.1464   6.1719   6.1799
  6.1851   6.1938   6.2248   6.2405   6.2584   6.2694   6.2849   6.2984
  6.3079   6.3359   6.3685   6.4328   6.4555   6.4869   6.5207   6.5472
  6.5555   6.5656   6.6469   6.6758   6.6904   6.7141   6.7385   6.7441
  6.8066   6.8564   6.8594   6.8824   6.8998   6.9905   7.1322   7.1468
  7.1776   7.2107   7.2225   7.2392   7.3255   7.3266   7.3414   7.3704
  7.3739   7.4286   7.4617   7.4835   7.4871   7.4969   7.5185   7.5487
  7.6195   7.7389   7.7679   7.8030   7.8310   7.9152   7.9269   7.9569
  8.0045   8.1258   8.3586   8.6318   8.9295   9.0100   9.3615   9.4982
  9.7060  10.2706  11.2467  11.4033  11.8910  11.9452  12.1217  12.3370
 12.4163  12.5003  12.7271  12.9532  12.9963  13.2161  13.4784  13.5680
 13.6485  13.8708  13.9325  13.9915  14.2469  14.3215  14.9853  15.2204
 --------------------------------------------------------------
 
          Ground-State Mulliken Net Atomic Charges

     Atom                 Charge (a.u.)
  ----------------------------------------
      1 C                    -0.070349
      2 C                    -0.257120
      3 S                    -0.134387
      4 C                    -0.045925
      5 H                     0.193847
      6 C                    -0.050960
      7 C                     0.221267
      8 C                     0.232259
      9 C                    -0.083394
     10 C                    -0.053096
     11 O                    -0.335480
     12 O                    -0.343794
     13 C                    -0.082439
     14 H                     0.119838
     15 H                     0.092053
     16 H                     0.092710
     17 C                    -0.086861
     18 H                     0.122809
     19 H                     0.093870
     20 H                     0.089696
     21 C                    -0.250038
     22 S                    -0.067573
     23 C                     0.045030
     24 H                     0.209763
     25 C                    -0.065830
     26 S                     0.099489
     27 C                    -0.239280
     28 C                    -0.090355
     29 C                    -0.004064
     30 C                     0.368130
     31 C                    -0.134327
     32 S                     0.042487
     33 C                     0.458707
     34 O                    -0.449482
     35 O                    -0.297698
     36 F                    -0.212686
     37 C                    -0.055008
     38 H                     0.116817
     39 H                     0.084752
     40 H                     0.084625
     41 H                     0.214723
     42 H                     0.117856
     43 H                     0.115297
     44 H                     0.194122
  ----------------------------------------
  Sum of atomic charges =     0.000000

 -----------------------------------------------------------------
                    Cartesian Multipole Moments
 -----------------------------------------------------------------
    Charge (ESU x 10^10)
                -0.0000
    Dipole Moment (Debye)
         X       1.0952      Y       3.2774      Z       2.5600
       Tot       4.3005
    Quadrupole Moments (Debye-Ang)
        XX    -192.4811     XY       7.2688     YY    -174.0910
        XZ       6.3070     YZ      -8.7770     ZZ    -195.5561
    Octopole Moments (Debye-Ang^2)
       XXX    -173.0322    XXY     365.5191    XYY     -69.1618
       YYY    1012.8503    XXZ     163.7364    XYZ     -57.1043
       YYZ     108.5510    XZZ     -22.6602    YZZ     459.6080
       ZZZ     522.5385
    Hexadecapole Moments (Debye-Ang^3)
      XXXX   -2066.3695   XXXY      62.7846   XXYY   -4007.6400
      XYYY     375.7968   YYYY  -19617.8303   XXXZ     -63.3567
      XXYZ     551.2843   XYYZ      76.1725   YYYZ    1614.1260
      XXZZ   -1292.4880   XYZZ     137.9324   YYZZ   -4131.8595
      XZZZ    -308.8432   YZZZ    1007.3447   ZZZZ   -6257.2556
 -----------------------------------------------------------------
 Total job time:  574.28s(wall), 11117.36s(cpu) 
 Tue Sep 26 20:09:41 2023

        *************************************************************
        *                                                           *
        *  Thank you very much for using Q-Chem.  Have a nice day.  *
        *                                                           *
        *************************************************************


0 sent ACK to 0 
now end server 0 ... 
cleanup process ... done
remove work dirs ./qchem424272.0 -- ./qchem424272.0
rm -rf ./qchem424272.0
rm -rf ./qchem424272
