You are running Q-Chem version: 5.4.0

#
# job setting
#
local host:  exp-8-24
current dir: /expanse/lustre/projects/csd626/rramji/aromodel/PTB7_fin/Hydrogenated_Rotation_Test
input file:  fin_bdt_Phi_40_Theta_190_fin_ftt_Hydrogenated.qcin
output file: 
nprocs     : 1
nthreads   : 64
#
# qchem installation setting
#
QC:          /cm/shared/apps/spack/cpu/opt/spack/linux-centos8-zen2/gcc-10.2.0/qchem-5.4-akfmr7b3t57bfs6qan3padb2wnb2i7cl
QCAUX:       /cm/shared/apps/spack/cpu/opt/spack/linux-centos8-zen2/gcc-10.2.0/qchem-5.4-akfmr7b3t57bfs6qan3padb2wnb2i7cl/qcaux
QCPROG:      /cm/shared/apps/spack/cpu/opt/spack/linux-centos8-zen2/gcc-10.2.0/qchem-5.4-akfmr7b3t57bfs6qan3padb2wnb2i7cl/exe/qcprog.exe
QCPROG_S:    /cm/shared/apps/spack/cpu/opt/spack/linux-centos8-zen2/gcc-10.2.0/qchem-5.4-akfmr7b3t57bfs6qan3padb2wnb2i7cl/exe/qcprog.exe_s
PARALLEL:    -DPARALLEL
QCMPI:       mpich
#
# qchem directory setting
#
qcrun:       qchem944390
QCSCRATCH:   .
QCLOCALSCR:  
QCTMPDIR:    .
QCFILEPREF:  ./qchem944390
QCSAVEDIR:   
workdirs:    ./qchem944390
workdir0:    ./qchem944390
partmpdirs =  
#
# parallel setting
#
QCRSH:           ssh
QCMPI:           mpich
QCMPIRUN:        /cm/shared/apps/spack/cpu/opt/spack/linux-centos8-zen2/gcc-10.2.0/qchem-5.4-akfmr7b3t57bfs6qan3padb2wnb2i7cl/bin/mpi/mpirun_qchem
QCMACHINEFILE:   ./qchem944390/hostfile
exp-8-24

#
# env setting
#
exported envs:   QC QCAUX QCSCRATCH QCRUNNAME QCFILEPREF QCPROG QCPROG_S GUIFILE

Running Job 1 of 1 fin_bdt_Phi_40_Theta_190_fin_ftt_Hydrogenated.qcin
qchem fin_bdt_Phi_40_Theta_190_fin_ftt_Hydrogenated.qcin_944390.0 ./qchem944390/ 1
/cm/shared/apps/spack/cpu/opt/spack/linux-centos8-zen2/gcc-10.2.0/qchem-5.4-akfmr7b3t57bfs6qan3padb2wnb2i7cl/bin/mpi/mpirun_qchem -machinefile ./qchem944390/hostfile -np 1 /cm/shared/apps/spack/cpu/opt/spack/linux-centos8-zen2/gcc-10.2.0/qchem-5.4-akfmr7b3t57bfs6qan3padb2wnb2i7cl/exe/qcprog.exe fin_bdt_Phi_40_Theta_190_fin_ftt_Hydrogenated.qcin_944390.0 ./qchem944390/

Process 0 of 1 is on exp-8-24 - thread support 0
initial socket setup ...start
initial socket setup ...done 
now start server 0 ... 
                  Welcome to Q-Chem
     A Quantum Leap Into The Future Of Chemistry


 Q-Chem 5.4, Q-Chem, Inc., Pleasanton, CA (2021)

 License issued to: University of California, San Diego (site)

 E. Epifanovsky,  A. T. B. Gilbert,  Xintian Feng,  Joonho Lee,  Yuezhi Mao,  
 N. Mardirossian,  P. Pokhilko,  A. White,  M. Wormit,  M. P. Coons,  
 A. L. Dempwolff,  Zhengting Gan,  D. Hait,  P. R. Horn,  L. D. Jacobson,  
 I. Kaliman,  J. Kussmann,  A. W. Lange,  Ka Un Lao,  D. S. Levine,  Jie Liu,  
 S. C. McKenzie,  A. F. Morrison,  K. Nanda,  F. Plasser,  D. R. Rehn,  
 M. L. Vidal,  Zhi-Qiang You,  Ying Zhu,  B. Alam,  B. Albrecht,  
 A. Aldossary,  E. Alguire,  J. H. Andersen,  D. Barton,  K. Begam,  A. Behn,  
 Y. A. Bernard,  E. J. Berquist,  H. Burton,  A. Carreras,  K. Carter-Fenk,  
 R. Chakraborty,  A. D. Chien,  K. D. Closser,  V. Cofer-Shabica,  
 S. Dasgupta,  Jia Deng,  M. de Wergifosse,  M. Diedenhofen,  Hainam Do,  
 S. Ehlert,  Po-Tung Fang,  S. Fatehi,  Qingguo Feng,  J. Gayvert,  
 Qinghui Ge,  G. Gidofalvi,  M. Goldey,  J. Gomes,  C. Gonzalez-Espinoza,  
 S. Gulania,  A. Gunina,  M. W. D. Hanson-Heine,  P. H. P. Harbach,  
 A. W. Hauser,  M. F. Herbst,  M. Hernandez Vera,  M. Hodecker,  
 Z. C. Holden,  S. Houck,  Xunkun Huang,  Kerwin Hui,  B. C. Huynh,  
 M. Ivanov,  Hyunjun Ji,  Hanjie Jiang,  B. Kaduk,  S. Kaehler,  
 K. Khistyaev,  Jaehoon Kim,  P. Klunzinger,  Z. Koczor-Benda,  
 Joong Hoon Koh,  D. Kosenkov,  L. Koulias,  T. Kowalczyk,  C. M. Krauter,  
 K. Kue,  A. Kunitsa,  T. Kus,  A. Landau,  K. V. Lawler,  D. Lefrancois,  
 S. Lehtola,  Rain Li,  Yi-Pei Li,  Jiashu Liang,  M. Liebenthal,  
 Hung-Hsuan Lin,  You-Sheng Lin,  Fenglai Liu,  Kuan-Yu Liu,  
 M. Loipersberger,  A. Luenser,  A. Manjanath,  P. Manohar,  E. Mansoor,  
 S. F. Manzer,  Shan-Ping Mao,  A. V. Marenich,  T. Markovich,  S. Mason,  
 S. A. Maurer,  P. F. McLaughlin,  M. F. S. J. Menger,  J.-M. Mewes,  
 S. A. Mewes,  P. Morgante,  J. W. Mullinax,  T. S. Nguyen-Beck,  
 K. J. Oosterbaan,  G. Paran,  Alexander C. Paul,  Suranjan K. Paul,  
 F. Pavosevic,  Zheng Pei,  S. Prager,  E. I. Proynov,  E. Ramos,  B. Rana,  
 A. E. Rask,  A. Rettig,  R. M. Richard,  F. Rob,  E. Rossomme,  T. Scheele,  
 M. Scheurer,  M. Schneider,  N. Sergueev,  S. M. Sharada,  W. Skomorowski,  
 D. W. Small,  C. J. Stein,  Yu-Chuan Su,  E. J. Sundstrom,  Zhen Tao,  
 J. Thirman,  T. Tsuchimochi,  N. M. Tubman,  S. P. Veccham,  O. Vydrov,  
 J. Wenzel,  J. Witte,  A. Yamada,  Kun Yao,  S. Yeganeh,  S. R. Yost,  
 A. Zech,  Igor Ying Zhang,  Xing Zhang,  Yu Zhang,  D. Zuev,  
 A. Aspuru-Guzik,  A. T. Bell,  N. A. Besley,  K. B. Bravaya,  B. R. Brooks,  
 D. Casanova,  Jeng-Da Chai,  S. Coriani,  C. J. Cramer,  
 A. E. DePrince, III,  R. A. DiStasio Jr.,  A. Dreuw,  B. D. Dunietz,  
 T. R. Furlani,  W. A. Goddard III,  S. Grimme,  S. Hammes-Schiffer,  
 T. Head-Gordon,  W. J. Hehre,  Chao-Ping Hsu,  T.-C. Jagau,  Yousung Jung,  
 A. Klamt,  Jing Kong,  D. S. Lambrecht,  WanZhen Liang,  N. J. Mayhall,  
 C. W. McCurdy,  J. B. Neaton,  C. Ochsenfeld,  J. A. Parkhill,  R. Peverati,  
 V. A. Rassolov,  Yihan Shao,  L. V. Slipchenko,  T. Stauch,  R. P. Steele,  
 J. E. Subotnik,  A. J. W. Thom,  A. Tkatchenko,  D. G. Truhlar,  
 T. Van Voorhis,  T. A. Wesolowski,  K. B. Whaley,  H. L. Woodcock III,  
 P. M. Zimmerman,  S. Faraji,  P. M. W. Gill,  M. Head-Gordon,  
 J. M. Herbert,  A. I. Krylov

 Contributors to earlier versions of Q-Chem not listed above: 
 R. D. Adamson,  B. Austin,  R. Baer,  J. Baker,  G. J. O. Beran,  
 K. Brandhorst,  S. T. Brown,  E. F. C. Byrd,  A. K. Chakraborty,  
 G. K. L. Chan,  Chun-Min Chang,  Yunqing Chen,  C.-L. Cheng,  
 Siu Hung Chien,  D. M. Chipman,  D. L. Crittenden,  H. Dachsel,  
 R. J. Doerksen,  A. D. Dutoi,  R. G. Edgar,  J. Fosso-Tande,  
 L. Fusti-Molnar,  D. Ghosh,  A. Ghysels,  A. Golubeva-Zadorozhnaya,  
 J. Gonthier,  M. S. Gordon,  S. R. Gwaltney,  G. Hawkins,  J. E. Herr,  
 A. Heyden,  S. Hirata,  E. G. Hohenstein,  G. Kedziora,  F. J. Keil,  
 C. Kelley,  Jihan Kim,  R. A. King,  R. Z. Khaliullin,  P. P. Korambath,  
 W. Kurlancheek,  A. Laurent,  A. M. Lee,  M. S. Lee,  S. V. Levchenko,  
 Ching Yeh Lin,  D. Liotard,  E. Livshits,  R. C. Lochan,  I. Lotan,  
 L. A. Martinez-Martinez,  P. E. Maslen,  N. Nair,  D. P. O'Neill,  
 D. Neuhauser,  E. Neuscamman,  C. M. Oana,  R. Olivares-Amaya,  R. Olson,  
 T. M. Perrine,  B. Peters,  P. A. Pieniazek,  A. Prociuk,  Y. M. Rhee,  
 J. Ritchie,  M. A. Rohrdanz,  E. Rosta,  N. J. Russ,  H. F. Schaefer III,  
 M. W. Schmidt,  N. E. Schultz,  S. Sharma,  N. Shenvi,  C. D. Sherrill,  
 A. C. Simmonett,  A. Sodt,  T. Stein,  D. Stuck,  K. S. Thanthiriwatte,  
 V. Vanovschi,  L. Vogt,  Tao Wang,  A. Warshel,  M. A. Watson,  
 C. F. Williams,  Q. Wu,  X. Xu,  Jun Yang,  W. Zhang,  Yan Zhao

 Please cite Q-Chem as follows:
 Y. Shao et al., Mol. Phys. 113, 184-215 (2015)
 DOI: 10.1080/00268976.2014.952696

 Q-Chem 5.4.0 for Intel X86 EM64T Linux

 Parts of Q-Chem use Armadillo 9.800.1 (Horizon Scraper).
 http://arma.sourceforge.net/

 Q-Chem begins on Sun Sep 24 18:13:06 2023  

 Host: 
0

     Scratch files written to ./qchem944390//
 May1621 |scratch|qcdevops|jenkins|workspace|build_RNUM    
 Parallel job on  1  processors
 Processing $rem in /cm/shared/apps/spack/cpu/opt/spack/linux-centos8-zen2/gcc-10.2.0/qchem-5.4-akfmr7b3t57bfs6qan3padb2wnb2i7cl/config/preferences:
 Processing $rem in /home/rramji/.qchemrc:
 Symmetry turned off for PCM/SM12/SMD calculation
 Core orbitals will be frozen

 Checking the input file for inconsistencies... 	...done.

 Q-Chem warning in module forms1/BasisType.C, line 2236:

 You are not using the predefined 5D/6D in this basis set.


--------------------------------------------------------------
User input:
--------------------------------------------------------------
$molecule
0 1
C	0.093711	-8.519741	-0.255459
C	-0.083869	-7.635967	0.799036
S	0.345260	-7.651740	-1.789425
C	-0.018411	-6.261894	0.418360
H	-0.259169	-7.954738	1.834294
C	0.229701	-6.079985	-0.987769
C	0.302697	-4.798382	-1.555260
C	-0.196459	-5.153542	1.294992
C	-0.127651	-3.869626	0.726408
C	0.123544	-3.688927	-0.680716
O	-0.396706	-5.481075	2.601852
O	0.502673	-4.479871	-2.868193
C	1.262918	-5.356026	-3.691495
H	1.494604	-4.790496	-4.614080
H	0.693738	-6.268513	-3.974195
H	2.212720	-5.658187	-3.199559
C	-0.997016	-4.546999	3.490743
H	-1.226691	-5.107564	4.416630
H	-1.939526	-4.131473	3.073934
H	-0.309214	-3.712085	3.746794
C	0.186133	-2.314326	-1.058247
S	-0.256010	-2.295487	1.527599
C	-0.000000	-1.435180	-0.000000
H	0.363896	-1.993211	-2.092285
C	0.000000	0.000000	0.000000
S	0.579852	0.687566	1.510732
C	1.591625	1.895024	0.727629
C	0.583771	0.695758	-1.064665
C	1.475308	1.760606	-0.678287
C	0.542366	0.643841	-2.486150
C	1.355286	1.612843	-3.106916
S	2.154609	2.570627	-1.965735
C	1.522440	1.804778	-4.559972
O	0.924684	1.087757	-5.350277
O	2.349739	2.785679	-5.004375
F	-0.170780	-0.212144	-3.246290
C	2.588082	3.053936	-6.334976
H	3.298799	3.899999	-6.370268
H	1.655291	3.328371	-6.875609
H	3.026021	2.177385	-6.861878
H	2.183053	2.599759	1.321510
H	-0.793825	-9.146471	-0.401636
H	0.977367	-9.150570	-0.103519
H	-1.064992	-1.444158	-0.179195
$end

$rem
JOBTYPE		SP
EXCHANGE	HF
CORRELATION	pRIMP2
BASIS		cc-pvtz
METHOD		rimp2
AUX_BASIS	rimp2-cc-pvtz
SOLVENT_METHOD	PCM
PURECART	11111
SYMMETRY	false
MEM_TOTAL	110000
SCF_CONVERGENCE = 6
THRESH=10
GUI = 2
$end



$solvent
dielectric 4.90
$end
--------------------------------------------------------------
 ----------------------------------------------------------------
             Standard Nuclear Orientation (Angstroms)
    I     Atom           X                Y                Z
 ----------------------------------------------------------------
    1      C       0.0937110000    -8.5197410000    -0.2554590000
    2      C      -0.0838690000    -7.6359670000     0.7990360000
    3      S       0.3452600000    -7.6517400000    -1.7894250000
    4      C      -0.0184110000    -6.2618940000     0.4183600000
    5      H      -0.2591690000    -7.9547380000     1.8342940000
    6      C       0.2297010000    -6.0799850000    -0.9877690000
    7      C       0.3026970000    -4.7983820000    -1.5552600000
    8      C      -0.1964590000    -5.1535420000     1.2949920000
    9      C      -0.1276510000    -3.8696260000     0.7264080000
   10      C       0.1235440000    -3.6889270000    -0.6807160000
   11      O      -0.3967060000    -5.4810750000     2.6018520000
   12      O       0.5026730000    -4.4798710000    -2.8681930000
   13      C       1.2629180000    -5.3560260000    -3.6914950000
   14      H       1.4946040000    -4.7904960000    -4.6140800000
   15      H       0.6937380000    -6.2685130000    -3.9741950000
   16      H       2.2127200000    -5.6581870000    -3.1995590000
   17      C      -0.9970160000    -4.5469990000     3.4907430000
   18      H      -1.2266910000    -5.1075640000     4.4166300000
   19      H      -1.9395260000    -4.1314730000     3.0739340000
   20      H      -0.3092140000    -3.7120850000     3.7467940000
   21      C       0.1861330000    -2.3143260000    -1.0582470000
   22      S      -0.2560100000    -2.2954870000     1.5275990000
   23      C       0.0000000000    -1.4351800000     0.0000000000
   24      H       0.3638960000    -1.9932110000    -2.0922850000
   25      C       0.0000000000     0.0000000000     0.0000000000
   26      S       0.5798520000     0.6875660000     1.5107320000
   27      C       1.5916250000     1.8950240000     0.7276290000
   28      C       0.5837710000     0.6957580000    -1.0646650000
   29      C       1.4753080000     1.7606060000    -0.6782870000
   30      C       0.5423660000     0.6438410000    -2.4861500000
   31      C       1.3552860000     1.6128430000    -3.1069160000
   32      S       2.1546090000     2.5706270000    -1.9657350000
   33      C       1.5224400000     1.8047780000    -4.5599720000
   34      O       0.9246840000     1.0877570000    -5.3502770000
   35      O       2.3497390000     2.7856790000    -5.0043750000
   36      F      -0.1707800000    -0.2121440000    -3.2462900000
   37      C       2.5880820000     3.0539360000    -6.3349760000
   38      H       3.2987990000     3.8999990000    -6.3702680000
   39      H       1.6552910000     3.3283710000    -6.8756090000
   40      H       3.0260210000     2.1773850000    -6.8618780000
   41      H       2.1830530000     2.5997590000     1.3215100000
   42      H      -0.7938250000    -9.1464710000    -0.4016360000
   43      H       0.9773670000    -9.1505700000    -0.1035190000
   44      H      -1.0649920000    -1.4441580000    -0.1791950000
 ----------------------------------------------------------------
 Nuclear Repulsion Energy =        3401.81209764 hartrees
 There are      120 alpha and      120 beta electrons
 Requested basis set is cc-pVTZ
 There are 388 shells and 1096 basis functions

 Total QAlloc Memory Limit 110000 MB
 Mega-Array Size       188 MB
 MEM_STATIC part       192 MB
 Discretize the solute cavity surface with Lebedev spheres
	Using 110 Lebedev grid points for each H atom
	Using 194 Lebedev grid points for other atoms
	Atomic van der Waals radii will be scaled by 1.20
 Remove points where switching function is < 1.0e-08
 Keep 2927 surface tesserae and discard 4349 interior tesserae
 Molecular Surface Area = 433.590 Angst**2
 Requested basis set is rimp2-cc-pVTZ
 There are 853 shells and 2963 basis functions
 A cutoff of  1.0D-10 yielded  34194 shell pairs
 There are    257304 function pairs (    332513 Cartesian)
 Smallest overlap matrix eigenvalue = 2.09E-05

 Scale SEOQF with 1.000000e-01/1.000000e-02/1.000000e-02

 Standard Electronic Orientation quadrupole field applied
 Nucleus-field energy     =     0.0000000220 hartrees
 Guess from superposition of atomic densities
 Warning:  Energy on first SCF cycle will be non-variational
 SAD guess density has 240.000000 electrons

 -----------------------------------------------------------------------
  General SCF calculation program by
  Eric Jon Sundstrom, Paul Horn, Yuezhi Mao, Dmitri Zuev, Alec White,
  David Stuck, Shaama M.S., Shane Yost, Joonho Lee, David Small,
  Daniel Levine, Susi Lehtola, Hugh Burton, Evgeny Epifanovsky,
  Bang C. Huynh
 -----------------------------------------------------------------------
 Hartree-Fock
 using 64 threads for integral computing
 -------------------------------------------------------
 OpenMP Integral computing Module                
 Release: version 1.0, May 2013, Q-Chem Inc. Pittsburgh 
 -------------------------------------------------------
 A restricted SCF calculation will be
 performed using DIIS
 SCF converges when DIIS error is below 1.0e-06
 ---------------------------------------
  Cycle       Energy         DIIS error
 ---------------------------------------
    1   -2767.4096155456      1.77e-02  
    2   -2754.8333360777      1.54e-03  
    3   -2755.1821366481      8.70e-04  
    4   -2755.2716241446      2.56e-04  
    5   -2755.2855959616      7.34e-05  
    6   -2755.2872376931      2.68e-05  
    7   -2755.2876873899      1.37e-05  
    8   -2755.2878236548      5.62e-06  
    9   -2755.2878508552      2.90e-06  
   10   -2755.2878568735      1.33e-06  
   11   -2755.2878586245      6.84e-07  Convergence criterion met
 ---------------------------------------
 SCF time:   CPU 7836.47s  wall 282.00s 

************** Final PCM Free Energy Summary **************
 G_electrostatic  =      -0.02098696 hartree =     -13.16951485 kcal/mol
 G_cavitation     =       0.00000000 hartree =       0.00000000 kcal/mol
 G_dispersion     =       0.00000000 hartree =       0.00000000 kcal/mol
 G_repulsion      =       0.00000000 hartree =       0.00000000 kcal/mol
 --------------------------------------------------
 Non-electrostatic Free Energy =       0.00000000 hartree =       0.00000000 kcal/mol
 Total                         =      -0.02098696 hartree =     -13.16951485 kcal/mol
 --------------------------------------------------
 SCF Energy (H0 + V/2)                       =   -2755.28785862 
 Solute Internal Energy (H0)                 =   -2755.26687167 
 Total Free Energy (H0 + V/2 + non-elec)     =   -2755.28785862 hartree
                                             = -1728969.22661821 kcal/mol
***********************************************************

 SCF   energy in the final basis set =    -2755.2878586245
 Total energy in the final basis set =    -2755.2878586245


 --------------------------------------------------------------
  Generalized many-body perturbation theory program
  by Joonho Lee, Fazle Rob, Xintian Feng, Evgeny Epifanovsky

 No regularization used 
 (reg. param. = 0.0000e+00)
  (P|Q)^-1/2 Time:  CPU 139.83 s  wall 2.64 s

 In RI-MP2 calculation: 
 # of frozen core orbitals: 45

 Components of the RIMP2 correlation energy:
        aaaa    correlation energy =        -0.6732451714 a.u.
        abab    correlation energy =        -3.7595269777 a.u.
        bbbb    correlation energy =        -0.6732451714 a.u.
        non-Brillouin singles      =        -0.0000000000 a.u.
        total same-spin energy     =        -1.3464903428 a.u.
        total opposite-spin energy =        -3.7595269777 a.u.

 Total  RIMP2   correlation energy =        -5.1060173205 a.u.
        RIMP2         total energy =     -2760.3938759450 a.u.

 RI-MP2 Energy Time:  CPU 2988.70 s  wall 48.51 s
 
 --------------------------------------------------------------
 
                    Orbital Energies (a.u.)
 --------------------------------------------------------------
 
 Alpha MOs
 -- Occupied --
-92.0137 -91.9978 -91.9810 -91.9579 -26.3399 -20.6130 -20.5883 -20.5866
-20.5512 -11.4115 -11.3788 -11.3093 -11.3092 -11.3068 -11.2997 -11.2990
-11.2976 -11.2891 -11.2855 -11.2842 -11.2832 -11.2819 -11.2796 -11.2722
-11.2722 -11.2585 -11.2574 -11.2496 -11.2375  -9.0127  -9.0017  -8.9832
 -8.9605  -6.6934  -6.6926  -6.6923  -6.6829  -6.6823  -6.6810  -6.6643
 -6.6635  -6.6622  -6.6417  -6.6408  -6.6398  -1.6541  -1.4728  -1.4115
 -1.4084  -1.3682  -1.2415  -1.2093  -1.1759  -1.1447  -1.0993  -1.0526
 -1.0469  -1.0304  -1.0089  -0.9988  -0.9731  -0.9598  -0.9492  -0.9409
 -0.8950  -0.8740  -0.8618  -0.8089  -0.7988  -0.7870  -0.7759  -0.7722
 -0.7621  -0.7350  -0.7244  -0.7192  -0.6979  -0.6936  -0.6845  -0.6794
 -0.6744  -0.6699  -0.6570  -0.6486  -0.6398  -0.6283  -0.6200  -0.6145
 -0.6096  -0.6075  -0.5975  -0.5942  -0.5775  -0.5698  -0.5586  -0.5553
 -0.5420  -0.5351  -0.5308  -0.5231  -0.5139  -0.5096  -0.5069  -0.5011
 -0.4869  -0.4827  -0.4761  -0.4678  -0.4625  -0.4609  -0.4582  -0.4464
 -0.4320  -0.3952  -0.3874  -0.3700  -0.3494  -0.2946  -0.2861  -0.2148
 -- Virtual --
  0.0129   0.0594   0.1103   0.1249   0.1371   0.1464   0.1535   0.1540
  0.1581   0.1601   0.1631   0.1740   0.1811   0.1859   0.1893   0.1960
  0.2021   0.2033   0.2051   0.2134   0.2178   0.2239   0.2253   0.2267
  0.2292   0.2331   0.2442   0.2521   0.2552   0.2567   0.2679   0.2745
  0.2800   0.2980   0.3103   0.3174   0.3260   0.3317   0.3460   0.3470
  0.3567   0.3587   0.3668   0.3702   0.3714   0.3744   0.3800   0.3829
  0.3864   0.3883   0.3954   0.3967   0.4065   0.4103   0.4152   0.4194
  0.4259   0.4282   0.4304   0.4327   0.4401   0.4417   0.4461   0.4489
  0.4588   0.4636   0.4657   0.4727   0.4739   0.4785   0.4822   0.4866
  0.4911   0.4942   0.4983   0.5019   0.5064   0.5126   0.5173   0.5190
  0.5244   0.5291   0.5313   0.5331   0.5355   0.5452   0.5503   0.5519
  0.5553   0.5600   0.5610   0.5675   0.5688   0.5747   0.5779   0.5804
  0.5869   0.5890   0.5916   0.5949   0.5973   0.6037   0.6062   0.6119
  0.6146   0.6169   0.6209   0.6218   0.6256   0.6271   0.6294   0.6341
  0.6370   0.6408   0.6427   0.6466   0.6506   0.6534   0.6546   0.6560
  0.6605   0.6701   0.6732   0.6838   0.6883   0.6921   0.6929   0.7013
  0.7047   0.7069   0.7083   0.7153   0.7185   0.7258   0.7269   0.7363
  0.7479   0.7544   0.7610   0.7675   0.7750   0.7767   0.7854   0.7921
  0.7971   0.7999   0.8019   0.8044   0.8140   0.8177   0.8201   0.8259
  0.8379   0.8397   0.8504   0.8552   0.8621   0.8643   0.8773   0.8781
  0.8907   0.8943   0.8993   0.8997   0.9014   0.9115   0.9127   0.9187
  0.9211   0.9301   0.9325   0.9352   0.9388   0.9484   0.9513   0.9537
  0.9618   0.9660   0.9740   0.9769   0.9832   0.9846   0.9884   0.9925
  0.9963   1.0032   1.0065   1.0112   1.0157   1.0189   1.0200   1.0290
  1.0320   1.0374   1.0460   1.0501   1.0584   1.0597   1.0638   1.0713
  1.0736   1.0783   1.0843   1.0931   1.0965   1.0998   1.1045   1.1151
  1.1161   1.1186   1.1274   1.1321   1.1334   1.1437   1.1483   1.1548
  1.1571   1.1593   1.1611   1.1691   1.1722   1.1735   1.1788   1.1844
  1.1884   1.1926   1.1961   1.2054   1.2117   1.2150   1.2158   1.2243
  1.2288   1.2300   1.2333   1.2384   1.2467   1.2511   1.2551   1.2579
  1.2627   1.2693   1.2773   1.2791   1.2852   1.2881   1.2956   1.3003
  1.3035   1.3124   1.3194   1.3241   1.3267   1.3358   1.3388   1.3464
  1.3494   1.3528   1.3588   1.3630   1.3747   1.3806   1.3911   1.3957
  1.4024   1.4079   1.4133   1.4334   1.4363   1.4401   1.4498   1.4551
  1.4610   1.4728   1.4747   1.4792   1.4866   1.4931   1.4971   1.5024
  1.5049   1.5068   1.5121   1.5170   1.5216   1.5300   1.5335   1.5364
  1.5423   1.5442   1.5494   1.5541   1.5585   1.5649   1.5676   1.5765
  1.5868   1.5936   1.6098   1.6108   1.6147   1.6256   1.6275   1.6416
  1.6458   1.6517   1.6562   1.6634   1.6653   1.6741   1.6814   1.6922
  1.6937   1.7005   1.7112   1.7230   1.7263   1.7344   1.7429   1.7453
  1.7550   1.7650   1.7654   1.7771   1.7857   1.8122   1.8136   1.8157
  1.8206   1.8280   1.8334   1.8387   1.8455   1.8636   1.8672   1.8702
  1.8793   1.8864   1.9065   1.9109   1.9201   1.9224   1.9308   1.9366
  1.9404   1.9534   1.9557   1.9669   1.9723   1.9899   1.9967   2.0121
  2.0168   2.0208   2.0306   2.0347   2.0371   2.0469   2.0613   2.0678
  2.0738   2.0788   2.0982   2.0991   2.1126   2.1240   2.1285   2.1320
  2.1457   2.1588   2.1597   2.1630   2.1727   2.1768   2.1840   2.1876
  2.1957   2.2000   2.2136   2.2185   2.2249   2.2300   2.2366   2.2442
  2.2516   2.2545   2.2641   2.2705   2.2764   2.2802   2.2899   2.2947
  2.3078   2.3150   2.3195   2.3339   2.3397   2.3545   2.3562   2.3691
  2.3730   2.3892   2.3952   2.4033   2.4103   2.4173   2.4250   2.4292
  2.4421   2.4545   2.4608   2.4647   2.4700   2.4823   2.4937   2.5082
  2.5118   2.5209   2.5255   2.5290   2.5386   2.5466   2.5598   2.5640
  2.5824   2.5891   2.5895   2.6091   2.6141   2.6197   2.6214   2.6249
  2.6345   2.6394   2.6443   2.6491   2.6537   2.6634   2.6695   2.6718
  2.6859   2.6891   2.6917   2.6997   2.7022   2.7054   2.7182   2.7205
  2.7257   2.7369   2.7395   2.7439   2.7505   2.7599   2.7652   2.7676
  2.7742   2.7804   2.7918   2.8009   2.8125   2.8157   2.8233   2.8337
  2.8442   2.8506   2.8535   2.8561   2.8661   2.8719   2.8758   2.8814
  2.8846   2.8898   2.9039   2.9087   2.9151   2.9415   2.9444   2.9514
  2.9545   2.9570   2.9663   2.9732   2.9826   2.9889   2.9961   3.0026
  3.0108   3.0157   3.0221   3.0358   3.0370   3.0425   3.0441   3.0486
  3.0521   3.0566   3.0708   3.0735   3.0884   3.0905   3.0961   3.1050
  3.1074   3.1171   3.1217   3.1249   3.1300   3.1436   3.1493   3.1518
  3.1541   3.1617   3.1639   3.1687   3.1725   3.1747   3.1825   3.1845
  3.1896   3.1980   3.1996   3.2012   3.2097   3.2133   3.2237   3.2251
  3.2308   3.2427   3.2479   3.2523   3.2557   3.2628   3.2659   3.2691
  3.2736   3.2796   3.2817   3.2845   3.2934   3.2950   3.2966   3.2995
  3.3064   3.3094   3.3140   3.3260   3.3287   3.3324   3.3423   3.3432
  3.3460   3.3523   3.3550   3.3582   3.3621   3.3628   3.3685   3.3717
  3.3744   3.3824   3.3867   3.3930   3.3967   3.4011   3.4022   3.4115
  3.4179   3.4268   3.4278   3.4335   3.4359   3.4413   3.4431   3.4471
  3.4515   3.4555   3.4605   3.4641   3.4714   3.4788   3.4821   3.4854
  3.4935   3.4944   3.5022   3.5065   3.5168   3.5210   3.5272   3.5289
  3.5371   3.5501   3.5537   3.5614   3.5685   3.5765   3.5833   3.5855
  3.5904   3.5958   3.5993   3.6021   3.6052   3.6121   3.6151   3.6190
  3.6293   3.6299   3.6343   3.6393   3.6444   3.6503   3.6534   3.6606
  3.6659   3.6684   3.6719   3.6786   3.6835   3.6927   3.6938   3.6974
  3.7088   3.7109   3.7171   3.7219   3.7224   3.7270   3.7294   3.7341
  3.7362   3.7412   3.7478   3.7534   3.7638   3.7701   3.7752   3.7834
  3.7869   3.7965   3.8003   3.8047   3.8119   3.8149   3.8214   3.8277
  3.8303   3.8357   3.8398   3.8458   3.8518   3.8533   3.8623   3.8666
  3.8689   3.8760   3.8785   3.8875   3.8895   3.8984   3.9061   3.9100
  3.9124   3.9235   3.9349   3.9366   3.9460   3.9534   3.9566   3.9643
  3.9709   3.9782   3.9899   3.9992   4.0036   4.0105   4.0130   4.0186
  4.0267   4.0300   4.0397   4.0481   4.0505   4.0605   4.0663   4.0690
  4.0764   4.0782   4.0860   4.0984   4.1056   4.1143   4.1238   4.1249
  4.1319   4.1486   4.1586   4.1624   4.1706   4.1719   4.1772   4.1837
  4.1872   4.1917   4.1957   4.2115   4.2165   4.2183   4.2380   4.2441
  4.2532   4.2559   4.2588   4.2723   4.2781   4.2864   4.3010   4.3184
  4.3229   4.3306   4.3368   4.3429   4.3472   4.3483   4.3561   4.3690
  4.3751   4.3790   4.3841   4.3950   4.3993   4.4060   4.4125   4.4197
  4.4220   4.4251   4.4285   4.4333   4.4386   4.4505   4.4606   4.4613
  4.4716   4.4829   4.4881   4.5081   4.5160   4.5177   4.5197   4.5343
  4.5357   4.5513   4.5574   4.5672   4.5699   4.5754   4.5770   4.5886
  4.6003   4.6032   4.6139   4.6350   4.6393   4.6412   4.6463   4.6544
  4.6563   4.6653   4.6809   4.6846   4.6930   4.7054   4.7153   4.7168
  4.7332   4.7490   4.7538   4.7668   4.7853   4.7957   4.8043   4.8210
  4.8257   4.8316   4.8419   4.8655   4.8678   4.8821   4.8881   4.9041
  4.9199   4.9231   4.9386   4.9456   4.9568   4.9665   4.9730   4.9942
  5.0032   5.0051   5.0115   5.0125   5.0233   5.0361   5.0487   5.0598
  5.0659   5.0937   5.0993   5.1171   5.1227   5.1444   5.1664   5.1694
  5.1888   5.1925   5.2018   5.2095   5.2183   5.2193   5.2321   5.2540
  5.2584   5.2607   5.2868   5.2882   5.2954   5.3151   5.3244   5.3298
  5.3369   5.3547   5.3564   5.3618   5.3816   5.3924   5.4001   5.4022
  5.4097   5.4119   5.4332   5.4434   5.4709   5.4727   5.4945   5.5005
  5.5068   5.5193   5.5223   5.5412   5.5664   5.5766   5.5802   5.5888
  5.6015   5.6118   5.6172   5.6269   5.6416   5.6463   5.6724   5.6908
  5.7150   5.7349   5.7670   5.7859   5.8000   5.8275   5.8354   5.8550
  5.8605   5.8829   5.9050   5.9360   5.9592   5.9690   5.9747   6.0027
  6.0273   6.0421   6.1117   6.1245   6.1331   6.1419   6.1716   6.1760
  6.1850   6.1916   6.2376   6.2398   6.2517   6.2694   6.2850   6.2924
  6.3079   6.3441   6.3569   6.4327   6.4550   6.4870   6.5126   6.5516
  6.5556   6.5674   6.6477   6.6756   6.6854   6.7187   6.7377   6.7471
  6.8090   6.8585   6.8600   6.8836   6.8993   6.9901   7.1328   7.1454
  7.1777   7.2104   7.2214   7.2414   7.3257   7.3302   7.3415   7.3716
  7.3805   7.4271   7.4619   7.4848   7.4859   7.4980   7.5150   7.5478
  7.6127   7.7405   7.7682   7.8036   7.8310   7.9081   7.9286   7.9571
  8.0081   8.1173   8.3410   8.5865   8.9864   9.0117   9.3725   9.5004
  9.7076  10.3525  11.2392  11.4002  11.9369  12.0445  12.1298  12.3881
 12.4366  12.5095  12.6332  12.9513  13.0217  13.2738  13.4724  13.5070
 13.7237  13.8685  13.9125  13.9552  14.1388  14.3144  15.0560  15.2397
 --------------------------------------------------------------
 
          Ground-State Mulliken Net Atomic Charges

     Atom                 Charge (a.u.)
  ----------------------------------------
      1 C                    -0.070247
      2 C                    -0.259315
      3 S                    -0.135930
      4 C                    -0.048193
      5 H                     0.193506
      6 C                    -0.052469
      7 C                     0.228613
      8 C                     0.232953
      9 C                    -0.075313
     10 C                    -0.045002
     11 O                    -0.333868
     12 O                    -0.343660
     13 C                    -0.083250
     14 H                     0.121429
     15 H                     0.092354
     16 H                     0.092394
     17 C                    -0.088417
     18 H                     0.124818
     19 H                     0.093060
     20 H                     0.089654
     21 C                    -0.288868
     22 S                    -0.101063
     23 C                     0.084857
     24 H                     0.213452
     25 C                    -0.057336
     26 S                     0.104523
     27 C                    -0.231513
     28 C                    -0.089515
     29 C                    -0.014372
     30 C                     0.346619
     31 C                    -0.135826
     32 S                     0.052947
     33 C                     0.459424
     34 O                    -0.450068
     35 O                    -0.298070
     36 F                    -0.215101
     37 C                    -0.054695
     38 H                     0.116873
     39 H                     0.084729
     40 H                     0.084512
     41 H                     0.216208
     42 H                     0.117564
     43 H                     0.115233
     44 H                     0.206371
  ----------------------------------------
  Sum of atomic charges =     0.000000

 -----------------------------------------------------------------
                    Cartesian Multipole Moments
 -----------------------------------------------------------------
    Charge (ESU x 10^10)
                 0.0000
    Dipole Moment (Debye)
         X       1.7976      Y       2.6714      Z       3.3039
       Tot       4.6134
    Quadrupole Moments (Debye-Ang)
        XX    -190.3202     XY       8.8945     YY    -179.6528
        XZ     -15.0530     YZ     -12.4611     ZZ    -191.6399
    Octopole Moments (Debye-Ang^2)
       XXX    -336.1582    XXY     434.4800    XYY     -90.6467
       YYY    1092.1049    XXZ     167.7043    XYZ      12.9419
       YYZ     195.0184    XZZ     -38.6638    YZZ     454.3284
       ZZZ     596.9949
    Hexadecapole Moments (Debye-Ang^3)
      XXXX   -1584.2958   XXXY    -494.0418   XXYY   -3733.5522
      XYYY    -465.6908   YYYY  -18818.1741   XXXZ    1150.5184
      XXYZ     131.6735   XYYZ     135.7632   YYYZ     221.2548
      XXZZ   -1345.9443   XYZZ      62.6058   YYZZ   -4358.9314
      XZZZ     617.1624   YZZZ      44.0313   ZZZZ   -7559.9179
 -----------------------------------------------------------------
 Total job time:  334.42s(wall), 10945.23s(cpu) 
 Sun Sep 24 18:18:41 2023

        *************************************************************
        *                                                           *
        *  Thank you very much for using Q-Chem.  Have a nice day.  *
        *                                                           *
        *************************************************************


0 sent ACK to 0 
now end server 0 ... 
cleanup process ... done
remove work dirs ./qchem944390.0 -- ./qchem944390.0
rm -rf ./qchem944390.0
rm -rf ./qchem944390
