You are running Q-Chem version: 5.4.0

#
# job setting
#
local host:  exp-6-53
current dir: /expanse/lustre/projects/csd626/rramji/aromodel/PTB7_fin/Hydrogenated_Rotation_Test
input file:  fin_bdt_Phi_30_Theta_260_fin_ftt_Hydrogenated.qcin
output file: 
nprocs     : 1
nthreads   : 64
#
# qchem installation setting
#
QC:          /cm/shared/apps/spack/cpu/opt/spack/linux-centos8-zen2/gcc-10.2.0/qchem-5.4-akfmr7b3t57bfs6qan3padb2wnb2i7cl
QCAUX:       /cm/shared/apps/spack/cpu/opt/spack/linux-centos8-zen2/gcc-10.2.0/qchem-5.4-akfmr7b3t57bfs6qan3padb2wnb2i7cl/qcaux
QCPROG:      /cm/shared/apps/spack/cpu/opt/spack/linux-centos8-zen2/gcc-10.2.0/qchem-5.4-akfmr7b3t57bfs6qan3padb2wnb2i7cl/exe/qcprog.exe
QCPROG_S:    /cm/shared/apps/spack/cpu/opt/spack/linux-centos8-zen2/gcc-10.2.0/qchem-5.4-akfmr7b3t57bfs6qan3padb2wnb2i7cl/exe/qcprog.exe_s
PARALLEL:    -DPARALLEL
QCMPI:       mpich
#
# qchem directory setting
#
qcrun:       qchem2035015
QCSCRATCH:   .
QCLOCALSCR:  
QCTMPDIR:    .
QCFILEPREF:  ./qchem2035015
QCSAVEDIR:   
workdirs:    ./qchem2035015
workdir0:    ./qchem2035015
partmpdirs =  
#
# parallel setting
#
QCRSH:           ssh
QCMPI:           mpich
QCMPIRUN:        /cm/shared/apps/spack/cpu/opt/spack/linux-centos8-zen2/gcc-10.2.0/qchem-5.4-akfmr7b3t57bfs6qan3padb2wnb2i7cl/bin/mpi/mpirun_qchem
QCMACHINEFILE:   ./qchem2035015/hostfile
exp-6-53

#
# env setting
#
exported envs:   QC QCAUX QCSCRATCH QCRUNNAME QCFILEPREF QCPROG QCPROG_S GUIFILE

Running Job 1 of 1 fin_bdt_Phi_30_Theta_260_fin_ftt_Hydrogenated.qcin
qchem fin_bdt_Phi_30_Theta_260_fin_ftt_Hydrogenated.qcin_2035015.0 ./qchem2035015/ 1
/cm/shared/apps/spack/cpu/opt/spack/linux-centos8-zen2/gcc-10.2.0/qchem-5.4-akfmr7b3t57bfs6qan3padb2wnb2i7cl/bin/mpi/mpirun_qchem -machinefile ./qchem2035015/hostfile -np 1 /cm/shared/apps/spack/cpu/opt/spack/linux-centos8-zen2/gcc-10.2.0/qchem-5.4-akfmr7b3t57bfs6qan3padb2wnb2i7cl/exe/qcprog.exe fin_bdt_Phi_30_Theta_260_fin_ftt_Hydrogenated.qcin_2035015.0 ./qchem2035015/

Process 0 of 1 is on exp-6-53 - thread support 0
initial socket setup ...start
initial socket setup ...done 
now start server 0 ... 
                  Welcome to Q-Chem
     A Quantum Leap Into The Future Of Chemistry


 Q-Chem 5.4, Q-Chem, Inc., Pleasanton, CA (2021)

 License issued to: University of California, San Diego (site)

 E. Epifanovsky,  A. T. B. Gilbert,  Xintian Feng,  Joonho Lee,  Yuezhi Mao,  
 N. Mardirossian,  P. Pokhilko,  A. White,  M. Wormit,  M. P. Coons,  
 A. L. Dempwolff,  Zhengting Gan,  D. Hait,  P. R. Horn,  L. D. Jacobson,  
 I. Kaliman,  J. Kussmann,  A. W. Lange,  Ka Un Lao,  D. S. Levine,  Jie Liu,  
 S. C. McKenzie,  A. F. Morrison,  K. Nanda,  F. Plasser,  D. R. Rehn,  
 M. L. Vidal,  Zhi-Qiang You,  Ying Zhu,  B. Alam,  B. Albrecht,  
 A. Aldossary,  E. Alguire,  J. H. Andersen,  D. Barton,  K. Begam,  A. Behn,  
 Y. A. Bernard,  E. J. Berquist,  H. Burton,  A. Carreras,  K. Carter-Fenk,  
 R. Chakraborty,  A. D. Chien,  K. D. Closser,  V. Cofer-Shabica,  
 S. Dasgupta,  Jia Deng,  M. de Wergifosse,  M. Diedenhofen,  Hainam Do,  
 S. Ehlert,  Po-Tung Fang,  S. Fatehi,  Qingguo Feng,  J. Gayvert,  
 Qinghui Ge,  G. Gidofalvi,  M. Goldey,  J. Gomes,  C. Gonzalez-Espinoza,  
 S. Gulania,  A. Gunina,  M. W. D. Hanson-Heine,  P. H. P. Harbach,  
 A. W. Hauser,  M. F. Herbst,  M. Hernandez Vera,  M. Hodecker,  
 Z. C. Holden,  S. Houck,  Xunkun Huang,  Kerwin Hui,  B. C. Huynh,  
 M. Ivanov,  Hyunjun Ji,  Hanjie Jiang,  B. Kaduk,  S. Kaehler,  
 K. Khistyaev,  Jaehoon Kim,  P. Klunzinger,  Z. Koczor-Benda,  
 Joong Hoon Koh,  D. Kosenkov,  L. Koulias,  T. Kowalczyk,  C. M. Krauter,  
 K. Kue,  A. Kunitsa,  T. Kus,  A. Landau,  K. V. Lawler,  D. Lefrancois,  
 S. Lehtola,  Rain Li,  Yi-Pei Li,  Jiashu Liang,  M. Liebenthal,  
 Hung-Hsuan Lin,  You-Sheng Lin,  Fenglai Liu,  Kuan-Yu Liu,  
 M. Loipersberger,  A. Luenser,  A. Manjanath,  P. Manohar,  E. Mansoor,  
 S. F. Manzer,  Shan-Ping Mao,  A. V. Marenich,  T. Markovich,  S. Mason,  
 S. A. Maurer,  P. F. McLaughlin,  M. F. S. J. Menger,  J.-M. Mewes,  
 S. A. Mewes,  P. Morgante,  J. W. Mullinax,  T. S. Nguyen-Beck,  
 K. J. Oosterbaan,  G. Paran,  Alexander C. Paul,  Suranjan K. Paul,  
 F. Pavosevic,  Zheng Pei,  S. Prager,  E. I. Proynov,  E. Ramos,  B. Rana,  
 A. E. Rask,  A. Rettig,  R. M. Richard,  F. Rob,  E. Rossomme,  T. Scheele,  
 M. Scheurer,  M. Schneider,  N. Sergueev,  S. M. Sharada,  W. Skomorowski,  
 D. W. Small,  C. J. Stein,  Yu-Chuan Su,  E. J. Sundstrom,  Zhen Tao,  
 J. Thirman,  T. Tsuchimochi,  N. M. Tubman,  S. P. Veccham,  O. Vydrov,  
 J. Wenzel,  J. Witte,  A. Yamada,  Kun Yao,  S. Yeganeh,  S. R. Yost,  
 A. Zech,  Igor Ying Zhang,  Xing Zhang,  Yu Zhang,  D. Zuev,  
 A. Aspuru-Guzik,  A. T. Bell,  N. A. Besley,  K. B. Bravaya,  B. R. Brooks,  
 D. Casanova,  Jeng-Da Chai,  S. Coriani,  C. J. Cramer,  
 A. E. DePrince, III,  R. A. DiStasio Jr.,  A. Dreuw,  B. D. Dunietz,  
 T. R. Furlani,  W. A. Goddard III,  S. Grimme,  S. Hammes-Schiffer,  
 T. Head-Gordon,  W. J. Hehre,  Chao-Ping Hsu,  T.-C. Jagau,  Yousung Jung,  
 A. Klamt,  Jing Kong,  D. S. Lambrecht,  WanZhen Liang,  N. J. Mayhall,  
 C. W. McCurdy,  J. B. Neaton,  C. Ochsenfeld,  J. A. Parkhill,  R. Peverati,  
 V. A. Rassolov,  Yihan Shao,  L. V. Slipchenko,  T. Stauch,  R. P. Steele,  
 J. E. Subotnik,  A. J. W. Thom,  A. Tkatchenko,  D. G. Truhlar,  
 T. Van Voorhis,  T. A. Wesolowski,  K. B. Whaley,  H. L. Woodcock III,  
 P. M. Zimmerman,  S. Faraji,  P. M. W. Gill,  M. Head-Gordon,  
 J. M. Herbert,  A. I. Krylov

 Contributors to earlier versions of Q-Chem not listed above: 
 R. D. Adamson,  B. Austin,  R. Baer,  J. Baker,  G. J. O. Beran,  
 K. Brandhorst,  S. T. Brown,  E. F. C. Byrd,  A. K. Chakraborty,  
 G. K. L. Chan,  Chun-Min Chang,  Yunqing Chen,  C.-L. Cheng,  
 Siu Hung Chien,  D. M. Chipman,  D. L. Crittenden,  H. Dachsel,  
 R. J. Doerksen,  A. D. Dutoi,  R. G. Edgar,  J. Fosso-Tande,  
 L. Fusti-Molnar,  D. Ghosh,  A. Ghysels,  A. Golubeva-Zadorozhnaya,  
 J. Gonthier,  M. S. Gordon,  S. R. Gwaltney,  G. Hawkins,  J. E. Herr,  
 A. Heyden,  S. Hirata,  E. G. Hohenstein,  G. Kedziora,  F. J. Keil,  
 C. Kelley,  Jihan Kim,  R. A. King,  R. Z. Khaliullin,  P. P. Korambath,  
 W. Kurlancheek,  A. Laurent,  A. M. Lee,  M. S. Lee,  S. V. Levchenko,  
 Ching Yeh Lin,  D. Liotard,  E. Livshits,  R. C. Lochan,  I. Lotan,  
 L. A. Martinez-Martinez,  P. E. Maslen,  N. Nair,  D. P. O'Neill,  
 D. Neuhauser,  E. Neuscamman,  C. M. Oana,  R. Olivares-Amaya,  R. Olson,  
 T. M. Perrine,  B. Peters,  P. A. Pieniazek,  A. Prociuk,  Y. M. Rhee,  
 J. Ritchie,  M. A. Rohrdanz,  E. Rosta,  N. J. Russ,  H. F. Schaefer III,  
 M. W. Schmidt,  N. E. Schultz,  S. Sharma,  N. Shenvi,  C. D. Sherrill,  
 A. C. Simmonett,  A. Sodt,  T. Stein,  D. Stuck,  K. S. Thanthiriwatte,  
 V. Vanovschi,  L. Vogt,  Tao Wang,  A. Warshel,  M. A. Watson,  
 C. F. Williams,  Q. Wu,  X. Xu,  Jun Yang,  W. Zhang,  Yan Zhao

 Please cite Q-Chem as follows:
 Y. Shao et al., Mol. Phys. 113, 184-215 (2015)
 DOI: 10.1080/00268976.2014.952696

 Q-Chem 5.4.0 for Intel X86 EM64T Linux

 Parts of Q-Chem use Armadillo 9.800.1 (Horizon Scraper).
 http://arma.sourceforge.net/

 Q-Chem begins on Sun Sep 24 18:46:58 2023  

 Host: 
0

     Scratch files written to ./qchem2035015//
 May1621 |scratch|qcdevops|jenkins|workspace|build_RNUM    
 Parallel job on  1  processors
 Processing $rem in /cm/shared/apps/spack/cpu/opt/spack/linux-centos8-zen2/gcc-10.2.0/qchem-5.4-akfmr7b3t57bfs6qan3padb2wnb2i7cl/config/preferences:
 Processing $rem in /home/rramji/.qchemrc:
 Symmetry turned off for PCM/SM12/SMD calculation
 Core orbitals will be frozen

 Checking the input file for inconsistencies... 	...done.

 Q-Chem warning in module forms1/BasisType.C, line 2236:

 You are not using the predefined 5D/6D in this basis set.


--------------------------------------------------------------
User input:
--------------------------------------------------------------
$molecule
0 1
C	0.272104	-8.519741	0.000687
C	-0.779533	-7.635967	0.194476
S	1.799596	-7.651740	-0.287581
C	-0.399427	-6.261894	0.125787
H	-1.812314	-7.954738	0.383826
C	1.006762	-6.079985	-0.121989
C	1.564994	-4.798382	-0.247488
C	-1.284087	-5.153542	0.258303
C	-0.726260	-3.869626	0.128493
C	0.681918	-3.688927	-0.116725
O	-2.580622	-5.481075	0.517104
O	2.867144	-4.479871	-0.508622
C	3.900814	-5.356026	-0.075811
H	4.847002	-4.790496	-0.173640
H	3.971794	-6.268513	-0.707354
H	3.763397	-5.658187	0.984963
C	-3.621225	-4.546999	0.257016
H	-4.569828	-5.107564	0.357864
H	-3.551910	-4.131473	-0.771211
H	-3.626592	-3.712085	0.990913
C	1.058088	-2.314326	-0.187034
S	-1.523035	-2.295487	0.281899
C	-0.000000	-1.435180	-0.000000
H	2.090565	-1.993211	-0.373653
C	0.000000	0.000000	0.000000
S	0.451648	0.777811	1.510732
C	1.238377	2.142617	0.727629
C	0.454085	0.786559	-1.064665
C	1.147169	1.990043	-0.678287
C	0.422325	0.728240	-2.486150
C	1.054629	1.823683	-3.106916
S	1.675491	2.905718	-1.965735
C	1.185914	2.041729	-4.559972
O	0.721749	1.231802	-5.350277
O	1.830313	3.151386	-5.004375
F	-0.131347	-0.238577	-3.246290
C	2.018453	3.456956	-6.334976
H	2.571455	4.413580	-6.370268
H	1.052178	3.565244	-6.875609
H	2.601950	2.669768	-6.861878
H	1.698444	2.939346	1.321510
H	0.105910	-9.146471	-0.883319
H	0.431555	-9.150570	0.883019
H	-0.195861	-1.444158	-1.062054
$end

$rem
JOBTYPE		SP
EXCHANGE	HF
CORRELATION	pRIMP2
BASIS		cc-pvtz
METHOD		rimp2
AUX_BASIS	rimp2-cc-pvtz
SOLVENT_METHOD	PCM
PURECART	11111
SYMMETRY	false
MEM_TOTAL	110000
SCF_CONVERGENCE = 6
THRESH=10
GUI = 2
$end



$solvent
dielectric 4.90
$end
--------------------------------------------------------------
 ----------------------------------------------------------------
             Standard Nuclear Orientation (Angstroms)
    I     Atom           X                Y                Z
 ----------------------------------------------------------------
    1      C       0.2721040000    -8.5197410000     0.0006870000
    2      C      -0.7795330000    -7.6359670000     0.1944760000
    3      S       1.7995960000    -7.6517400000    -0.2875810000
    4      C      -0.3994270000    -6.2618940000     0.1257870000
    5      H      -1.8123140000    -7.9547380000     0.3838260000
    6      C       1.0067620000    -6.0799850000    -0.1219890000
    7      C       1.5649940000    -4.7983820000    -0.2474880000
    8      C      -1.2840870000    -5.1535420000     0.2583030000
    9      C      -0.7262600000    -3.8696260000     0.1284930000
   10      C       0.6819180000    -3.6889270000    -0.1167250000
   11      O      -2.5806220000    -5.4810750000     0.5171040000
   12      O       2.8671440000    -4.4798710000    -0.5086220000
   13      C       3.9008140000    -5.3560260000    -0.0758110000
   14      H       4.8470020000    -4.7904960000    -0.1736400000
   15      H       3.9717940000    -6.2685130000    -0.7073540000
   16      H       3.7633970000    -5.6581870000     0.9849630000
   17      C      -3.6212250000    -4.5469990000     0.2570160000
   18      H      -4.5698280000    -5.1075640000     0.3578640000
   19      H      -3.5519100000    -4.1314730000    -0.7712110000
   20      H      -3.6265920000    -3.7120850000     0.9909130000
   21      C       1.0580880000    -2.3143260000    -0.1870340000
   22      S      -1.5230350000    -2.2954870000     0.2818990000
   23      C       0.0000000000    -1.4351800000     0.0000000000
   24      H       2.0905650000    -1.9932110000    -0.3736530000
   25      C       0.0000000000     0.0000000000     0.0000000000
   26      S       0.4516480000     0.7778110000     1.5107320000
   27      C       1.2383770000     2.1426170000     0.7276290000
   28      C       0.4540850000     0.7865590000    -1.0646650000
   29      C       1.1471690000     1.9900430000    -0.6782870000
   30      C       0.4223250000     0.7282400000    -2.4861500000
   31      C       1.0546290000     1.8236830000    -3.1069160000
   32      S       1.6754910000     2.9057180000    -1.9657350000
   33      C       1.1859140000     2.0417290000    -4.5599720000
   34      O       0.7217490000     1.2318020000    -5.3502770000
   35      O       1.8303130000     3.1513860000    -5.0043750000
   36      F      -0.1313470000    -0.2385770000    -3.2462900000
   37      C       2.0184530000     3.4569560000    -6.3349760000
   38      H       2.5714550000     4.4135800000    -6.3702680000
   39      H       1.0521780000     3.5652440000    -6.8756090000
   40      H       2.6019500000     2.6697680000    -6.8618780000
   41      H       1.6984440000     2.9393460000     1.3215100000
   42      H       0.1059100000    -9.1464710000    -0.8833190000
   43      H       0.4315550000    -9.1505700000     0.8830190000
   44      H      -0.1958610000    -1.4441580000    -1.0620540000
 ----------------------------------------------------------------
 Nuclear Repulsion Energy =        3371.48089251 hartrees
 There are      120 alpha and      120 beta electrons
 Requested basis set is cc-pVTZ
 There are 388 shells and 1096 basis functions

 Total QAlloc Memory Limit 110000 MB
 Mega-Array Size       188 MB
 MEM_STATIC part       192 MB
 Discretize the solute cavity surface with Lebedev spheres
	Using 110 Lebedev grid points for each H atom
	Using 194 Lebedev grid points for other atoms
	Atomic van der Waals radii will be scaled by 1.20
 Remove points where switching function is < 1.0e-08
 Keep 2970 surface tesserae and discard 4306 interior tesserae
 Molecular Surface Area = 443.211 Angst**2
 Requested basis set is rimp2-cc-pVTZ
 There are 853 shells and 2963 basis functions
 A cutoff of  1.0D-10 yielded  33635 shell pairs
 There are    253675 function pairs (    328020 Cartesian)
 Smallest overlap matrix eigenvalue = 2.13E-05

 Scale SEOQF with 1.000000e-01/1.000000e-02/1.000000e-02

 Standard Electronic Orientation quadrupole field applied
 Nucleus-field energy     =     0.0000000421 hartrees
 Guess from superposition of atomic densities
 Warning:  Energy on first SCF cycle will be non-variational
 SAD guess density has 240.000000 electrons

 -----------------------------------------------------------------------
  General SCF calculation program by
  Eric Jon Sundstrom, Paul Horn, Yuezhi Mao, Dmitri Zuev, Alec White,
  David Stuck, Shaama M.S., Shane Yost, Joonho Lee, David Small,
  Daniel Levine, Susi Lehtola, Hugh Burton, Evgeny Epifanovsky,
  Bang C. Huynh
 -----------------------------------------------------------------------
 Hartree-Fock
 using 64 threads for integral computing
 -------------------------------------------------------
 OpenMP Integral computing Module                
 Release: version 1.0, May 2013, Q-Chem Inc. Pittsburgh 
 -------------------------------------------------------
 A restricted SCF calculation will be
 performed using DIIS
 SCF converges when DIIS error is below 1.0e-06
 ---------------------------------------
  Cycle       Energy         DIIS error
 ---------------------------------------
    1   -2767.3592218876      1.77e-02  
    2   -2754.8611130006      1.54e-03  
    3   -2755.2090751615      8.75e-04  
    4   -2755.2984076896      2.55e-04  
    5   -2755.3117930667      7.16e-05  
    6   -2755.3132272302      2.55e-05  
    7   -2755.3135951527      1.32e-05  
    8   -2755.3137151060      5.73e-06  
    9   -2755.3137455187      2.97e-06  
   10   -2755.3137530922      1.44e-06  
   11   -2755.3137551863      6.62e-07  Convergence criterion met
 ---------------------------------------
 SCF time:   CPU 7533.12s  wall 276.00s 

************** Final PCM Free Energy Summary **************
 G_electrostatic  =      -0.02162652 hartree =     -13.57084768 kcal/mol
 G_cavitation     =       0.00000000 hartree =       0.00000000 kcal/mol
 G_dispersion     =       0.00000000 hartree =       0.00000000 kcal/mol
 G_repulsion      =       0.00000000 hartree =       0.00000000 kcal/mol
 --------------------------------------------------
 Non-electrostatic Free Energy =       0.00000000 hartree =       0.00000000 kcal/mol
 Total                         =      -0.02162652 hartree =     -13.57084768 kcal/mol
 --------------------------------------------------
 SCF Energy (H0 + V/2)                       =   -2755.31375519 
 Solute Internal Energy (H0)                 =   -2755.29212866 
 Total Free Energy (H0 + V/2 + non-elec)     =   -2755.31375519 hartree
                                             = -1728985.47695599 kcal/mol
***********************************************************

 SCF   energy in the final basis set =    -2755.3137551863
 Total energy in the final basis set =    -2755.3137551863


 --------------------------------------------------------------
  Generalized many-body perturbation theory program
  by Joonho Lee, Fazle Rob, Xintian Feng, Evgeny Epifanovsky

 No regularization used 
 (reg. param. = 0.0000e+00)
  (P|Q)^-1/2 Time:  CPU 188.49 s  wall 3.53 s

 In RI-MP2 calculation: 
 # of frozen core orbitals: 45

 Components of the RIMP2 correlation energy:
        aaaa    correlation energy =        -0.6709941910 a.u.
        abab    correlation energy =        -3.7545631988 a.u.
        bbbb    correlation energy =        -0.6709941910 a.u.
        non-Brillouin singles      =        -0.0000000000 a.u.
        total same-spin energy     =        -1.3419883819 a.u.
        total opposite-spin energy =        -3.7545631988 a.u.

 Total  RIMP2   correlation energy =        -5.0965515807 a.u.
        RIMP2         total energy =     -2760.4103067670 a.u.

 RI-MP2 Energy Time:  CPU 2923.76 s  wall 47.82 s
 
 --------------------------------------------------------------
 
                    Orbital Energies (a.u.)
 --------------------------------------------------------------
 
 Alpha MOs
 -- Occupied --
-92.0124 -91.9998 -91.9739 -91.9575 -26.3390 -20.6146 -20.5867 -20.5856
-20.5541 -11.4139 -11.3795 -11.3084 -11.3053 -11.3048 -11.3047 -11.3030
-11.2989 -11.2899 -11.2897 -11.2833 -11.2825 -11.2812 -11.2779 -11.2722
-11.2717 -11.2573 -11.2569 -11.2489 -11.2355  -9.0112  -9.0036  -8.9762
 -8.9601  -6.6919  -6.6912  -6.6909  -6.6849  -6.6842  -6.6829  -6.6573
 -6.6564  -6.6552  -6.6414  -6.6404  -6.6394  -1.6521  -1.4746  -1.4093
 -1.4082  -1.3703  -1.2415  -1.2072  -1.1744  -1.1444  -1.0992  -1.0534
 -1.0447  -1.0308  -1.0078  -0.9964  -0.9739  -0.9590  -0.9482  -0.9411
 -0.8921  -0.8754  -0.8613  -0.8091  -0.7952  -0.7841  -0.7814  -0.7713
 -0.7613  -0.7334  -0.7206  -0.7190  -0.6975  -0.6924  -0.6871  -0.6808
 -0.6764  -0.6745  -0.6547  -0.6478  -0.6323  -0.6269  -0.6193  -0.6144
 -0.6106  -0.6091  -0.5989  -0.5941  -0.5821  -0.5657  -0.5569  -0.5546
 -0.5480  -0.5321  -0.5280  -0.5224  -0.5121  -0.5069  -0.5035  -0.5008
 -0.4887  -0.4850  -0.4739  -0.4682  -0.4643  -0.4633  -0.4591  -0.4451
 -0.4200  -0.4044  -0.3839  -0.3692  -0.3502  -0.2959  -0.2882  -0.2197
 -- Virtual --
  0.0186   0.0531   0.1109   0.1335   0.1396   0.1477   0.1544   0.1548
  0.1597   0.1613   0.1653   0.1724   0.1824   0.1837   0.1891   0.1921
  0.2013   0.2038   0.2053   0.2093   0.2181   0.2207   0.2238   0.2262
  0.2296   0.2309   0.2397   0.2441   0.2525   0.2567   0.2644   0.2676
  0.2757   0.2975   0.3059   0.3127   0.3280   0.3348   0.3358   0.3455
  0.3501   0.3570   0.3602   0.3628   0.3686   0.3696   0.3767   0.3800
  0.3864   0.3888   0.3901   0.4014   0.4049   0.4116   0.4146   0.4150
  0.4253   0.4278   0.4298   0.4338   0.4366   0.4389   0.4439   0.4473
  0.4525   0.4582   0.4617   0.4651   0.4692   0.4757   0.4780   0.4804
  0.4856   0.4947   0.4987   0.5029   0.5046   0.5115   0.5144   0.5232
  0.5248   0.5275   0.5330   0.5344   0.5409   0.5448   0.5476   0.5505
  0.5564   0.5582   0.5591   0.5614   0.5673   0.5711   0.5789   0.5808
  0.5842   0.5860   0.5898   0.5938   0.5980   0.5985   0.6079   0.6094
  0.6141   0.6166   0.6173   0.6207   0.6229   0.6237   0.6309   0.6337
  0.6356   0.6406   0.6440   0.6452   0.6481   0.6528   0.6533   0.6579
  0.6603   0.6651   0.6729   0.6792   0.6843   0.6863   0.6892   0.6921
  0.7006   0.7054   0.7119   0.7130   0.7154   0.7246   0.7288   0.7433
  0.7468   0.7576   0.7600   0.7649   0.7716   0.7776   0.7789   0.7862
  0.7903   0.7937   0.7950   0.7996   0.8052   0.8125   0.8216   0.8268
  0.8274   0.8374   0.8455   0.8571   0.8635   0.8712   0.8773   0.8788
  0.8874   0.8931   0.8958   0.8996   0.9029   0.9064   0.9091   0.9150
  0.9228   0.9237   0.9255   0.9387   0.9397   0.9432   0.9492   0.9501
  0.9578   0.9642   0.9713   0.9741   0.9803   0.9850   0.9905   0.9924
  0.9980   1.0012   1.0067   1.0111   1.0128   1.0161   1.0217   1.0266
  1.0302   1.0348   1.0408   1.0496   1.0564   1.0578   1.0630   1.0662
  1.0702   1.0750   1.0815   1.0844   1.0858   1.0925   1.0992   1.1026
  1.1075   1.1186   1.1206   1.1260   1.1304   1.1417   1.1499   1.1518
  1.1570   1.1600   1.1676   1.1689   1.1715   1.1735   1.1785   1.1800
  1.1821   1.1873   1.1923   1.1944   1.1988   1.2069   1.2108   1.2160
  1.2190   1.2216   1.2351   1.2371   1.2428   1.2481   1.2504   1.2549
  1.2610   1.2650   1.2732   1.2790   1.2847   1.2865   1.2924   1.2961
  1.3050   1.3069   1.3184   1.3211   1.3269   1.3310   1.3387   1.3392
  1.3459   1.3493   1.3580   1.3645   1.3771   1.3813   1.3874   1.3933
  1.4017   1.4074   1.4138   1.4189   1.4275   1.4346   1.4454   1.4519
  1.4620   1.4720   1.4735   1.4852   1.4896   1.4934   1.4960   1.4997
  1.5064   1.5083   1.5112   1.5193   1.5249   1.5302   1.5311   1.5355
  1.5417   1.5427   1.5469   1.5543   1.5572   1.5626   1.5714   1.5763
  1.5894   1.5999   1.6005   1.6102   1.6137   1.6214   1.6279   1.6321
  1.6434   1.6548   1.6583   1.6605   1.6692   1.6722   1.6792   1.6881
  1.6912   1.6988   1.7069   1.7114   1.7199   1.7274   1.7363   1.7445
  1.7614   1.7653   1.7681   1.7847   1.7972   1.8010   1.8121   1.8166
  1.8265   1.8296   1.8338   1.8438   1.8548   1.8571   1.8665   1.8711
  1.8825   1.8866   1.9017   1.9080   1.9159   1.9209   1.9311   1.9358
  1.9378   1.9490   1.9567   1.9672   1.9811   1.9858   1.9965   2.0079
  2.0086   2.0194   2.0249   2.0351   2.0357   2.0421   2.0462   2.0575
  2.0722   2.0759   2.0881   2.0943   2.1015   2.1201   2.1231   2.1330
  2.1387   2.1513   2.1553   2.1559   2.1729   2.1784   2.1821   2.1927
  2.1961   2.1988   2.2035   2.2190   2.2255   2.2359   2.2374   2.2441
  2.2492   2.2538   2.2673   2.2745   2.2772   2.2840   2.2918   2.2991
  2.3041   2.3097   2.3185   2.3327   2.3372   2.3439   2.3548   2.3635
  2.3671   2.3843   2.3922   2.3966   2.4027   2.4092   2.4166   2.4320
  2.4393   2.4526   2.4584   2.4713   2.4742   2.4834   2.4884   2.5011
  2.5099   2.5154   2.5274   2.5349   2.5413   2.5550   2.5658   2.5775
  2.5818   2.5942   2.5969   2.6011   2.6119   2.6166   2.6229   2.6273
  2.6322   2.6389   2.6447   2.6468   2.6504   2.6540   2.6622   2.6778
  2.6830   2.6836   2.6944   2.6979   2.7007   2.7065   2.7093   2.7223
  2.7264   2.7314   2.7399   2.7435   2.7534   2.7616   2.7688   2.7721
  2.7793   2.7859   2.7890   2.8038   2.8083   2.8162   2.8287   2.8295
  2.8401   2.8467   2.8497   2.8616   2.8633   2.8685   2.8722   2.8772
  2.8806   2.8848   2.8946   2.9005   2.9206   2.9275   2.9376   2.9440
  2.9499   2.9608   2.9623   2.9699   2.9730   2.9815   2.9856   3.0016
  3.0106   3.0201   3.0211   3.0284   3.0355   3.0406   3.0434   3.0466
  3.0535   3.0566   3.0668   3.0738   3.0860   3.0905   3.0957   3.1049
  3.1069   3.1136   3.1173   3.1241   3.1351   3.1378   3.1444   3.1494
  3.1508   3.1593   3.1622   3.1626   3.1685   3.1726   3.1794   3.1869
  3.1889   3.1934   3.2002   3.2049   3.2084   3.2129   3.2186   3.2249
  3.2334   3.2354   3.2424   3.2483   3.2530   3.2573   3.2629   3.2681
  3.2699   3.2762   3.2820   3.2879   3.2910   3.2945   3.2970   3.3013
  3.3034   3.3053   3.3131   3.3170   3.3299   3.3329   3.3412   3.3430
  3.3457   3.3498   3.3536   3.3591   3.3599   3.3656   3.3666   3.3715
  3.3763   3.3776   3.3850   3.3921   3.3981   3.4018   3.4031   3.4089
  3.4132   3.4224   3.4239   3.4311   3.4347   3.4369   3.4407   3.4464
  3.4494   3.4543   3.4595   3.4689   3.4711   3.4789   3.4866   3.4900
  3.4921   3.4934   3.5052   3.5147   3.5159   3.5167   3.5296   3.5434
  3.5445   3.5484   3.5521   3.5573   3.5611   3.5733   3.5768   3.5819
  3.5873   3.5893   3.5948   3.6014   3.6037   3.6098   3.6150   3.6266
  3.6281   3.6309   3.6371   3.6427   3.6461   3.6566   3.6589   3.6621
  3.6633   3.6680   3.6752   3.6783   3.6822   3.6924   3.6948   3.7021
  3.7080   3.7093   3.7129   3.7175   3.7208   3.7277   3.7291   3.7324
  3.7359   3.7423   3.7497   3.7537   3.7593   3.7669   3.7682   3.7766
  3.7857   3.7921   3.7984   3.8029   3.8080   3.8136   3.8166   3.8191
  3.8286   3.8309   3.8339   3.8401   3.8450   3.8465   3.8503   3.8584
  3.8630   3.8654   3.8746   3.8846   3.8919   3.8971   3.9027   3.9092
  3.9181   3.9261   3.9319   3.9430   3.9474   3.9528   3.9564   3.9616
  3.9684   3.9691   3.9846   3.9876   3.9974   4.0064   4.0092   4.0189
  4.0242   4.0322   4.0407   4.0459   4.0527   4.0537   4.0621   4.0681
  4.0726   4.0789   4.0821   4.0893   4.1006   4.1053   4.1135   4.1167
  4.1296   4.1449   4.1516   4.1654   4.1665   4.1703   4.1757   4.1798
  4.1821   4.1894   4.2098   4.2131   4.2212   4.2228   4.2295   4.2376
  4.2487   4.2559   4.2600   4.2688   4.2775   4.2844   4.2932   4.3063
  4.3161   4.3243   4.3351   4.3435   4.3469   4.3531   4.3575   4.3617
  4.3720   4.3757   4.3817   4.3866   4.3990   4.4019   4.4111   4.4169
  4.4204   4.4228   4.4279   4.4317   4.4371   4.4379   4.4551   4.4574
  4.4667   4.4788   4.4853   4.4934   4.4974   4.5136   4.5241   4.5270
  4.5397   4.5438   4.5605   4.5658   4.5686   4.5736   4.5773   4.5869
  4.6045   4.6095   4.6199   4.6328   4.6333   4.6423   4.6497   4.6517
  4.6598   4.6690   4.6789   4.6862   4.6954   4.7004   4.7140   4.7312
  4.7387   4.7440   4.7610   4.7687   4.7855   4.7905   4.8001   4.8122
  4.8249   4.8342   4.8486   4.8590   4.8655   4.8786   4.8812   4.8914
  4.9070   4.9174   4.9406   4.9482   4.9604   4.9655   4.9722   4.9772
  4.9949   5.0017   5.0091   5.0107   5.0234   5.0426   5.0456   5.0618
  5.0714   5.0813   5.0874   5.1092   5.1296   5.1626   5.1660   5.1724
  5.1844   5.1949   5.1960   5.2072   5.2084   5.2222   5.2269   5.2381
  5.2531   5.2577   5.2758   5.2855   5.2948   5.3116   5.3244   5.3277
  5.3348   5.3475   5.3538   5.3585   5.3674   5.3755   5.3935   5.4012
  5.4065   5.4129   5.4354   5.4457   5.4627   5.4718   5.4844   5.4905
  5.5081   5.5138   5.5217   5.5350   5.5629   5.5673   5.5784   5.5873
  5.5924   5.6114   5.6144   5.6301   5.6365   5.6539   5.6901   5.6938
  5.7170   5.7412   5.7642   5.7853   5.7985   5.8259   5.8362   5.8548
  5.8604   5.8862   5.9049   5.9369   5.9644   5.9666   5.9768   6.0034
  6.0194   6.0450   6.1178   6.1253   6.1319   6.1414   6.1734   6.1773
  6.1842   6.1969   6.2284   6.2413   6.2514   6.2693   6.2856   6.2914
  6.3064   6.3408   6.3714   6.4298   6.4568   6.4911   6.5169   6.5487
  6.5536   6.5713   6.6487   6.6734   6.6765   6.7168   6.7344   6.7425
  6.8086   6.8569   6.8572   6.8801   6.9006   6.9880   7.1324   7.1477
  7.1760   7.2087   7.2233   7.2397   7.3232   7.3275   7.3426   7.3688
  7.3727   7.4257   7.4601   7.4821   7.4878   7.4978   7.5154   7.5457
  7.6126   7.7392   7.7668   7.8039   7.8292   7.9085   7.9281   7.9579
  8.0023   8.1204   8.3454   8.5646   8.9261   9.0094   9.3595   9.5005
  9.7057  10.3110  11.2407  11.4050  11.9408  12.0429  12.1258  12.3470
 12.3872  12.4832  12.6845  12.9341  13.0074  13.2681  13.4805  13.5889
 13.6862  13.8760  13.9350  13.9390  14.1635  14.3132  15.0336  15.2165
 --------------------------------------------------------------
 
          Ground-State Mulliken Net Atomic Charges

     Atom                 Charge (a.u.)
  ----------------------------------------
      1 C                    -0.070135
      2 C                    -0.263060
      3 S                    -0.136373
      4 C                    -0.044211
      5 H                     0.193030
      6 C                    -0.052669
      7 C                     0.223515
      8 C                     0.227783
      9 C                    -0.083251
     10 C                    -0.037709
     11 O                    -0.335739
     12 O                    -0.343527
     13 C                    -0.082472
     14 H                     0.119657
     15 H                     0.092150
     16 H                     0.092522
     17 C                    -0.086335
     18 H                     0.122581
     19 H                     0.092508
     20 H                     0.089933
     21 C                    -0.272722
     22 S                    -0.076953
     23 C                     0.055803
     24 H                     0.206971
     25 C                    -0.065929
     26 S                     0.100556
     27 C                    -0.210333
     28 C                    -0.114464
     29 C                    -0.001915
     30 C                     0.366260
     31 C                    -0.128548
     32 S                     0.052544
     33 C                     0.458550
     34 O                    -0.444884
     35 O                    -0.297157
     36 F                    -0.212880
     37 C                    -0.054961
     38 H                     0.117217
     39 H                     0.085231
     40 H                     0.085262
     41 H                     0.216573
     42 H                     0.117066
     43 H                     0.114476
     44 H                     0.186041
  ----------------------------------------
  Sum of atomic charges =     0.000000

 -----------------------------------------------------------------
                    Cartesian Multipole Moments
 -----------------------------------------------------------------
    Charge (ESU x 10^10)
                -0.0000
    Dipole Moment (Debye)
         X       2.0296      Y       4.0787      Z       2.3092
       Tot       5.1076
    Quadrupole Moments (Debye-Ang)
        XX    -179.2709     XY      11.0654     YY    -179.1573
        XZ      -3.1267     YZ     -10.8086     ZZ    -204.3149
    Octopole Moments (Debye-Ang^2)
       XXX    -294.4949    XXY     348.6089    XYY    -102.3018
       YYY    1078.9492    XXZ     166.6433    XYZ     -38.3209
       YYZ     147.6297    XZZ     -42.8265    YZZ     518.9561
       ZZZ     539.0129
    Hexadecapole Moments (Debye-Ang^3)
      XXXX   -3031.8128   XXXY    -102.3350   XXYY   -3861.4068
      XYYY     250.3117   YYYY  -19375.6671   XXXZ     827.1886
      XXYZ     342.0559   XYYZ     273.7393   YYYZ     997.2711
      XXZZ   -1398.7532   XYZZ     216.8448   YYZZ   -4248.6907
      XZZZ     492.1451   YZZZ     584.6951   ZZZZ   -5531.6155
 -----------------------------------------------------------------
 Total job time:  336.14s(wall), 11038.45s(cpu) 
 Sun Sep 24 18:52:34 2023

        *************************************************************
        *                                                           *
        *  Thank you very much for using Q-Chem.  Have a nice day.  *
        *                                                           *
        *************************************************************


0 sent ACK to 0 
now end server 0 ... 
cleanup process ... done
remove work dirs ./qchem2035015.0 -- ./qchem2035015.0
rm -rf ./qchem2035015.0
rm -rf ./qchem2035015
