You are running Q-Chem version: 5.4.0

#
# job setting
#
local host:  exp-6-02
current dir: /expanse/lustre/projects/csd626/rramji/aromodel/PTB7_fin/Hydrogenated_Rotation_Test
input file:  fin_bdt_Phi_15_Theta_190_fin_ftt_Hydrogenated.qcin
output file: 
nprocs     : 1
nthreads   : 64
#
# qchem installation setting
#
QC:          /cm/shared/apps/spack/cpu/opt/spack/linux-centos8-zen2/gcc-10.2.0/qchem-5.4-akfmr7b3t57bfs6qan3padb2wnb2i7cl
QCAUX:       /cm/shared/apps/spack/cpu/opt/spack/linux-centos8-zen2/gcc-10.2.0/qchem-5.4-akfmr7b3t57bfs6qan3padb2wnb2i7cl/qcaux
QCPROG:      /cm/shared/apps/spack/cpu/opt/spack/linux-centos8-zen2/gcc-10.2.0/qchem-5.4-akfmr7b3t57bfs6qan3padb2wnb2i7cl/exe/qcprog.exe
QCPROG_S:    /cm/shared/apps/spack/cpu/opt/spack/linux-centos8-zen2/gcc-10.2.0/qchem-5.4-akfmr7b3t57bfs6qan3padb2wnb2i7cl/exe/qcprog.exe_s
PARALLEL:    -DPARALLEL
QCMPI:       mpich
#
# qchem directory setting
#
qcrun:       qchem412622
QCSCRATCH:   .
QCLOCALSCR:  
QCTMPDIR:    .
QCFILEPREF:  ./qchem412622
QCSAVEDIR:   
workdirs:    ./qchem412622
workdir0:    ./qchem412622
partmpdirs =  
#
# parallel setting
#
QCRSH:           ssh
QCMPI:           mpich
QCMPIRUN:        /cm/shared/apps/spack/cpu/opt/spack/linux-centos8-zen2/gcc-10.2.0/qchem-5.4-akfmr7b3t57bfs6qan3padb2wnb2i7cl/bin/mpi/mpirun_qchem
QCMACHINEFILE:   ./qchem412622/hostfile
exp-6-02

#
# env setting
#
exported envs:   QC QCAUX QCSCRATCH QCRUNNAME QCFILEPREF QCPROG QCPROG_S GUIFILE

Running Job 1 of 1 fin_bdt_Phi_15_Theta_190_fin_ftt_Hydrogenated.qcin
qchem fin_bdt_Phi_15_Theta_190_fin_ftt_Hydrogenated.qcin_412622.0 ./qchem412622/ 1
/cm/shared/apps/spack/cpu/opt/spack/linux-centos8-zen2/gcc-10.2.0/qchem-5.4-akfmr7b3t57bfs6qan3padb2wnb2i7cl/bin/mpi/mpirun_qchem -machinefile ./qchem412622/hostfile -np 1 /cm/shared/apps/spack/cpu/opt/spack/linux-centos8-zen2/gcc-10.2.0/qchem-5.4-akfmr7b3t57bfs6qan3padb2wnb2i7cl/exe/qcprog.exe fin_bdt_Phi_15_Theta_190_fin_ftt_Hydrogenated.qcin_412622.0 ./qchem412622/

Process 0 of 1 is on exp-6-02 - thread support 0
initial socket setup ...start
initial socket setup ...done 
now start server 0 ... 
                  Welcome to Q-Chem
     A Quantum Leap Into The Future Of Chemistry


 Q-Chem 5.4, Q-Chem, Inc., Pleasanton, CA (2021)

 License issued to: University of California, San Diego (site)

 E. Epifanovsky,  A. T. B. Gilbert,  Xintian Feng,  Joonho Lee,  Yuezhi Mao,  
 N. Mardirossian,  P. Pokhilko,  A. White,  M. Wormit,  M. P. Coons,  
 A. L. Dempwolff,  Zhengting Gan,  D. Hait,  P. R. Horn,  L. D. Jacobson,  
 I. Kaliman,  J. Kussmann,  A. W. Lange,  Ka Un Lao,  D. S. Levine,  Jie Liu,  
 S. C. McKenzie,  A. F. Morrison,  K. Nanda,  F. Plasser,  D. R. Rehn,  
 M. L. Vidal,  Zhi-Qiang You,  Ying Zhu,  B. Alam,  B. Albrecht,  
 A. Aldossary,  E. Alguire,  J. H. Andersen,  D. Barton,  K. Begam,  A. Behn,  
 Y. A. Bernard,  E. J. Berquist,  H. Burton,  A. Carreras,  K. Carter-Fenk,  
 R. Chakraborty,  A. D. Chien,  K. D. Closser,  V. Cofer-Shabica,  
 S. Dasgupta,  Jia Deng,  M. de Wergifosse,  M. Diedenhofen,  Hainam Do,  
 S. Ehlert,  Po-Tung Fang,  S. Fatehi,  Qingguo Feng,  J. Gayvert,  
 Qinghui Ge,  G. Gidofalvi,  M. Goldey,  J. Gomes,  C. Gonzalez-Espinoza,  
 S. Gulania,  A. Gunina,  M. W. D. Hanson-Heine,  P. H. P. Harbach,  
 A. W. Hauser,  M. F. Herbst,  M. Hernandez Vera,  M. Hodecker,  
 Z. C. Holden,  S. Houck,  Xunkun Huang,  Kerwin Hui,  B. C. Huynh,  
 M. Ivanov,  Hyunjun Ji,  Hanjie Jiang,  B. Kaduk,  S. Kaehler,  
 K. Khistyaev,  Jaehoon Kim,  P. Klunzinger,  Z. Koczor-Benda,  
 Joong Hoon Koh,  D. Kosenkov,  L. Koulias,  T. Kowalczyk,  C. M. Krauter,  
 K. Kue,  A. Kunitsa,  T. Kus,  A. Landau,  K. V. Lawler,  D. Lefrancois,  
 S. Lehtola,  Rain Li,  Yi-Pei Li,  Jiashu Liang,  M. Liebenthal,  
 Hung-Hsuan Lin,  You-Sheng Lin,  Fenglai Liu,  Kuan-Yu Liu,  
 M. Loipersberger,  A. Luenser,  A. Manjanath,  P. Manohar,  E. Mansoor,  
 S. F. Manzer,  Shan-Ping Mao,  A. V. Marenich,  T. Markovich,  S. Mason,  
 S. A. Maurer,  P. F. McLaughlin,  M. F. S. J. Menger,  J.-M. Mewes,  
 S. A. Mewes,  P. Morgante,  J. W. Mullinax,  T. S. Nguyen-Beck,  
 K. J. Oosterbaan,  G. Paran,  Alexander C. Paul,  Suranjan K. Paul,  
 F. Pavosevic,  Zheng Pei,  S. Prager,  E. I. Proynov,  E. Ramos,  B. Rana,  
 A. E. Rask,  A. Rettig,  R. M. Richard,  F. Rob,  E. Rossomme,  T. Scheele,  
 M. Scheurer,  M. Schneider,  N. Sergueev,  S. M. Sharada,  W. Skomorowski,  
 D. W. Small,  C. J. Stein,  Yu-Chuan Su,  E. J. Sundstrom,  Zhen Tao,  
 J. Thirman,  T. Tsuchimochi,  N. M. Tubman,  S. P. Veccham,  O. Vydrov,  
 J. Wenzel,  J. Witte,  A. Yamada,  Kun Yao,  S. Yeganeh,  S. R. Yost,  
 A. Zech,  Igor Ying Zhang,  Xing Zhang,  Yu Zhang,  D. Zuev,  
 A. Aspuru-Guzik,  A. T. Bell,  N. A. Besley,  K. B. Bravaya,  B. R. Brooks,  
 D. Casanova,  Jeng-Da Chai,  S. Coriani,  C. J. Cramer,  
 A. E. DePrince, III,  R. A. DiStasio Jr.,  A. Dreuw,  B. D. Dunietz,  
 T. R. Furlani,  W. A. Goddard III,  S. Grimme,  S. Hammes-Schiffer,  
 T. Head-Gordon,  W. J. Hehre,  Chao-Ping Hsu,  T.-C. Jagau,  Yousung Jung,  
 A. Klamt,  Jing Kong,  D. S. Lambrecht,  WanZhen Liang,  N. J. Mayhall,  
 C. W. McCurdy,  J. B. Neaton,  C. Ochsenfeld,  J. A. Parkhill,  R. Peverati,  
 V. A. Rassolov,  Yihan Shao,  L. V. Slipchenko,  T. Stauch,  R. P. Steele,  
 J. E. Subotnik,  A. J. W. Thom,  A. Tkatchenko,  D. G. Truhlar,  
 T. Van Voorhis,  T. A. Wesolowski,  K. B. Whaley,  H. L. Woodcock III,  
 P. M. Zimmerman,  S. Faraji,  P. M. W. Gill,  M. Head-Gordon,  
 J. M. Herbert,  A. I. Krylov

 Contributors to earlier versions of Q-Chem not listed above: 
 R. D. Adamson,  B. Austin,  R. Baer,  J. Baker,  G. J. O. Beran,  
 K. Brandhorst,  S. T. Brown,  E. F. C. Byrd,  A. K. Chakraborty,  
 G. K. L. Chan,  Chun-Min Chang,  Yunqing Chen,  C.-L. Cheng,  
 Siu Hung Chien,  D. M. Chipman,  D. L. Crittenden,  H. Dachsel,  
 R. J. Doerksen,  A. D. Dutoi,  R. G. Edgar,  J. Fosso-Tande,  
 L. Fusti-Molnar,  D. Ghosh,  A. Ghysels,  A. Golubeva-Zadorozhnaya,  
 J. Gonthier,  M. S. Gordon,  S. R. Gwaltney,  G. Hawkins,  J. E. Herr,  
 A. Heyden,  S. Hirata,  E. G. Hohenstein,  G. Kedziora,  F. J. Keil,  
 C. Kelley,  Jihan Kim,  R. A. King,  R. Z. Khaliullin,  P. P. Korambath,  
 W. Kurlancheek,  A. Laurent,  A. M. Lee,  M. S. Lee,  S. V. Levchenko,  
 Ching Yeh Lin,  D. Liotard,  E. Livshits,  R. C. Lochan,  I. Lotan,  
 L. A. Martinez-Martinez,  P. E. Maslen,  N. Nair,  D. P. O'Neill,  
 D. Neuhauser,  E. Neuscamman,  C. M. Oana,  R. Olivares-Amaya,  R. Olson,  
 T. M. Perrine,  B. Peters,  P. A. Pieniazek,  A. Prociuk,  Y. M. Rhee,  
 J. Ritchie,  M. A. Rohrdanz,  E. Rosta,  N. J. Russ,  H. F. Schaefer III,  
 M. W. Schmidt,  N. E. Schultz,  S. Sharma,  N. Shenvi,  C. D. Sherrill,  
 A. C. Simmonett,  A. Sodt,  T. Stein,  D. Stuck,  K. S. Thanthiriwatte,  
 V. Vanovschi,  L. Vogt,  Tao Wang,  A. Warshel,  M. A. Watson,  
 C. F. Williams,  Q. Wu,  X. Xu,  Jun Yang,  W. Zhang,  Yan Zhao

 Please cite Q-Chem as follows:
 Y. Shao et al., Mol. Phys. 113, 184-215 (2015)
 DOI: 10.1080/00268976.2014.952696

 Q-Chem 5.4.0 for Intel X86 EM64T Linux

 Parts of Q-Chem use Armadillo 9.800.1 (Horizon Scraper).
 http://arma.sourceforge.net/

 Q-Chem begins on Tue Sep 26 18:58:58 2023  

 Host: 
0

     Scratch files written to ./qchem412622//
 May1621 |scratch|qcdevops|jenkins|workspace|build_RNUM    
 Parallel job on  1  processors
 Processing $rem in /cm/shared/apps/spack/cpu/opt/spack/linux-centos8-zen2/gcc-10.2.0/qchem-5.4-akfmr7b3t57bfs6qan3padb2wnb2i7cl/config/preferences:
 Processing $rem in /home/rramji/.qchemrc:
 Symmetry turned off for PCM/SM12/SMD calculation
 Core orbitals will be frozen

 Checking the input file for inconsistencies... 	...done.

 Q-Chem warning in module forms1/BasisType.C, line 2236:

 You are not using the predefined 5D/6D in this basis set.


--------------------------------------------------------------
User input:
--------------------------------------------------------------
$molecule
0 1
C	0.093711	-8.519741	-0.255459
C	-0.083869	-7.635967	0.799036
S	0.345260	-7.651740	-1.789425
C	-0.018411	-6.261894	0.418360
H	-0.259169	-7.954738	1.834294
C	0.229701	-6.079985	-0.987769
C	0.302697	-4.798382	-1.555260
C	-0.196459	-5.153542	1.294992
C	-0.127651	-3.869626	0.726408
C	0.123544	-3.688927	-0.680716
O	-0.396706	-5.481075	2.601852
O	0.502673	-4.479871	-2.868193
C	1.262918	-5.356026	-3.691495
H	1.494604	-4.790496	-4.614080
H	0.693738	-6.268513	-3.974195
H	2.212720	-5.658187	-3.199559
C	-0.997016	-4.546999	3.490743
H	-1.226691	-5.107564	4.416630
H	-1.939526	-4.131473	3.073934
H	-0.309214	-3.712085	3.746794
C	0.186133	-2.314326	-1.058247
S	-0.256010	-2.295487	1.527599
C	0.000000	-1.435180	0.000000
H	0.363896	-1.993211	-2.092285
C	0.000000	0.000000	0.000000
S	0.234946	0.868203	1.510732
C	0.641630	2.390125	0.727629
C	0.235036	0.877284	-1.064665
C	0.593019	2.219143	-0.678287
C	0.219452	0.812732	-2.486150
C	0.546689	2.034501	-3.106916
S	0.866345	3.240357	-1.965735
C	0.617067	2.279095	-4.559972
O	0.378342	1.376631	-5.350277
O	0.952308	3.517725	-5.004375
F	-0.065123	-0.264443	-3.246290
C	1.054950	3.861577	-6.334976
H	1.341516	4.928732	-6.370268
H	0.093573	3.716085	-6.875609
H	1.822303	3.252232	-6.861878
H	0.879812	3.278780	1.321510
H	-0.793825	-9.146471	-0.401636
H	0.977367	-9.150570	-0.103519
H	-1.064992	-1.444158	-0.179195
$end

$rem
JOBTYPE		SP
EXCHANGE	HF
CORRELATION	pRIMP2
BASIS		cc-pvtz
METHOD		rimp2
AUX_BASIS	rimp2-cc-pvtz
SOLVENT_METHOD	PCM
PURECART	11111
SYMMETRY	false
MEM_TOTAL	110000
SCF_CONVERGENCE = 6
THRESH=10
GUI = 2
$end



$solvent
dielectric 4.90
$end
--------------------------------------------------------------
 ----------------------------------------------------------------
             Standard Nuclear Orientation (Angstroms)
    I     Atom           X                Y                Z
 ----------------------------------------------------------------
    1      C       0.0937110000    -8.5197410000    -0.2554590000
    2      C      -0.0838690000    -7.6359670000     0.7990360000
    3      S       0.3452600000    -7.6517400000    -1.7894250000
    4      C      -0.0184110000    -6.2618940000     0.4183600000
    5      H      -0.2591690000    -7.9547380000     1.8342940000
    6      C       0.2297010000    -6.0799850000    -0.9877690000
    7      C       0.3026970000    -4.7983820000    -1.5552600000
    8      C      -0.1964590000    -5.1535420000     1.2949920000
    9      C      -0.1276510000    -3.8696260000     0.7264080000
   10      C       0.1235440000    -3.6889270000    -0.6807160000
   11      O      -0.3967060000    -5.4810750000     2.6018520000
   12      O       0.5026730000    -4.4798710000    -2.8681930000
   13      C       1.2629180000    -5.3560260000    -3.6914950000
   14      H       1.4946040000    -4.7904960000    -4.6140800000
   15      H       0.6937380000    -6.2685130000    -3.9741950000
   16      H       2.2127200000    -5.6581870000    -3.1995590000
   17      C      -0.9970160000    -4.5469990000     3.4907430000
   18      H      -1.2266910000    -5.1075640000     4.4166300000
   19      H      -1.9395260000    -4.1314730000     3.0739340000
   20      H      -0.3092140000    -3.7120850000     3.7467940000
   21      C       0.1861330000    -2.3143260000    -1.0582470000
   22      S      -0.2560100000    -2.2954870000     1.5275990000
   23      C       0.0000000000    -1.4351800000     0.0000000000
   24      H       0.3638960000    -1.9932110000    -2.0922850000
   25      C       0.0000000000     0.0000000000     0.0000000000
   26      S       0.2349460000     0.8682030000     1.5107320000
   27      C       0.6416300000     2.3901250000     0.7276290000
   28      C       0.2350360000     0.8772840000    -1.0646650000
   29      C       0.5930190000     2.2191430000    -0.6782870000
   30      C       0.2194520000     0.8127320000    -2.4861500000
   31      C       0.5466890000     2.0345010000    -3.1069160000
   32      S       0.8663450000     3.2403570000    -1.9657350000
   33      C       0.6170670000     2.2790950000    -4.5599720000
   34      O       0.3783420000     1.3766310000    -5.3502770000
   35      O       0.9523080000     3.5177250000    -5.0043750000
   36      F      -0.0651230000    -0.2644430000    -3.2462900000
   37      C       1.0549500000     3.8615770000    -6.3349760000
   38      H       1.3415160000     4.9287320000    -6.3702680000
   39      H       0.0935730000     3.7160850000    -6.8756090000
   40      H       1.8223030000     3.2522320000    -6.8618780000
   41      H       0.8798120000     3.2787800000     1.3215100000
   42      H      -0.7938250000    -9.1464710000    -0.4016360000
   43      H       0.9773670000    -9.1505700000    -0.1035190000
   44      H      -1.0649920000    -1.4441580000    -0.1791950000
 ----------------------------------------------------------------
 Nuclear Repulsion Energy =        3373.04254538 hartrees
 There are      120 alpha and      120 beta electrons
 Requested basis set is cc-pVTZ
 There are 388 shells and 1096 basis functions

 Total QAlloc Memory Limit 110000 MB
 Mega-Array Size       188 MB
 MEM_STATIC part       192 MB
 Discretize the solute cavity surface with Lebedev spheres
	Using 110 Lebedev grid points for each H atom
	Using 194 Lebedev grid points for other atoms
	Atomic van der Waals radii will be scaled by 1.20
 Remove points where switching function is < 1.0e-08
 Keep 2947 surface tesserae and discard 4329 interior tesserae
 Molecular Surface Area = 435.127 Angst**2
 Requested basis set is rimp2-cc-pVTZ
 There are 853 shells and 2963 basis functions
 A cutoff of  1.0D-10 yielded  33678 shell pairs
 There are    253994 function pairs (    328469 Cartesian)
 Smallest overlap matrix eigenvalue = 2.03E-05

 Scale SEOQF with 1.000000e-01/1.000000e-02/1.000000e-02

 Standard Electronic Orientation quadrupole field applied
 Nucleus-field energy     =     0.0000000159 hartrees
 Guess from superposition of atomic densities
 Warning:  Energy on first SCF cycle will be non-variational
 SAD guess density has 240.000000 electrons

 -----------------------------------------------------------------------
  General SCF calculation program by
  Eric Jon Sundstrom, Paul Horn, Yuezhi Mao, Dmitri Zuev, Alec White,
  David Stuck, Shaama M.S., Shane Yost, Joonho Lee, David Small,
  Daniel Levine, Susi Lehtola, Hugh Burton, Evgeny Epifanovsky,
  Bang C. Huynh
 -----------------------------------------------------------------------
 Hartree-Fock
 using 64 threads for integral computing
 -------------------------------------------------------
 OpenMP Integral computing Module                
 Release: version 1.0, May 2013, Q-Chem Inc. Pittsburgh 
 -------------------------------------------------------
 A restricted SCF calculation will be
 performed using DIIS
 SCF converges when DIIS error is below 1.0e-06
 ---------------------------------------
  Cycle       Energy         DIIS error
 ---------------------------------------
    1   -2767.3679411216      1.77e-02  
    2   -2754.8639926792      1.54e-03  
    3   -2755.2134170087      8.73e-04  
    4   -2755.3039657134      2.55e-04  
    5   -2755.3178130092      7.31e-05  
    6   -2755.3193876572      2.62e-05  
    7   -2755.3197993295      1.34e-05  
    8   -2755.3199194993      5.50e-06  
    9   -2755.3199433941      2.78e-06  
   10   -2755.3199490276      1.34e-06  
   11   -2755.3199507752      6.85e-07  Convergence criterion met
 ---------------------------------------
 SCF time:   CPU 7578.74s  wall 277.00s 

************** Final PCM Free Energy Summary **************
 G_electrostatic  =      -0.02082891 hartree =     -13.07033518 kcal/mol
 G_cavitation     =       0.00000000 hartree =       0.00000000 kcal/mol
 G_dispersion     =       0.00000000 hartree =       0.00000000 kcal/mol
 G_repulsion      =       0.00000000 hartree =       0.00000000 kcal/mol
 --------------------------------------------------
 Non-electrostatic Free Energy =       0.00000000 hartree =       0.00000000 kcal/mol
 Total                         =      -0.02082891 hartree =     -13.07033518 kcal/mol
 --------------------------------------------------
 SCF Energy (H0 + V/2)                       =   -2755.31995078 
 Solute Internal Energy (H0)                 =   -2755.29912187 
 Total Free Energy (H0 + V/2 + non-elec)     =   -2755.31995078 hartree
                                             = -1728989.36474670 kcal/mol
***********************************************************

 SCF   energy in the final basis set =    -2755.3199507752
 Total energy in the final basis set =    -2755.3199507752


 --------------------------------------------------------------
  Generalized many-body perturbation theory program
  by Joonho Lee, Fazle Rob, Xintian Feng, Evgeny Epifanovsky

 No regularization used 
 (reg. param. = 0.0000e+00)
  (P|Q)^-1/2 Time:  CPU 139.95 s  wall 2.61 s

 In RI-MP2 calculation: 
 # of frozen core orbitals: 45

 Components of the RIMP2 correlation energy:
        aaaa    correlation energy =        -0.6707240983 a.u.
        abab    correlation energy =        -3.7516743706 a.u.
        bbbb    correlation energy =        -0.6707240983 a.u.
        non-Brillouin singles      =        -0.0000000000 a.u.
        total same-spin energy     =        -1.3414481967 a.u.
        total opposite-spin energy =        -3.7516743706 a.u.

 Total  RIMP2   correlation energy =        -5.0931225673 a.u.
        RIMP2         total energy =     -2760.4130733425 a.u.

 RI-MP2 Energy Time:  CPU 2879.32 s  wall 46.72 s
 
 --------------------------------------------------------------
 
                    Orbital Energies (a.u.)
 --------------------------------------------------------------
 
 Alpha MOs
 -- Occupied --
-92.0149 -91.9929 -91.9837 -91.9599 -26.3400 -20.6110 -20.5902 -20.5872
-20.5477 -11.4085 -11.3798 -11.3244 -11.3127 -11.3101 -11.2971 -11.2927
-11.2880 -11.2868 -11.2866 -11.2860 -11.2837 -11.2824 -11.2769 -11.2753
-11.2708 -11.2614 -11.2604 -11.2517 -11.2422  -9.0135  -8.9970  -8.9859
 -8.9625  -6.6943  -6.6937  -6.6932  -6.6783  -6.6776  -6.6763  -6.6670
 -6.6661  -6.6649  -6.6437  -6.6428  -6.6418  -1.6544  -1.4705  -1.4134
 -1.4092  -1.3656  -1.2383  -1.2111  -1.1779  -1.1436  -1.1013  -1.0506
 -1.0486  -1.0285  -1.0108  -1.0005  -0.9716  -0.9602  -0.9506  -0.9410
 -0.8963  -0.8734  -0.8633  -0.8109  -0.7975  -0.7880  -0.7758  -0.7713
 -0.7632  -0.7349  -0.7228  -0.7207  -0.6992  -0.6952  -0.6849  -0.6778
 -0.6725  -0.6720  -0.6580  -0.6496  -0.6402  -0.6303  -0.6220  -0.6159
 -0.6087  -0.6051  -0.5956  -0.5918  -0.5780  -0.5714  -0.5603  -0.5525
 -0.5470  -0.5366  -0.5324  -0.5229  -0.5148  -0.5097  -0.5070  -0.5021
 -0.4846  -0.4839  -0.4798  -0.4693  -0.4630  -0.4606  -0.4583  -0.4484
 -0.4337  -0.3978  -0.3888  -0.3723  -0.3506  -0.2942  -0.2845  -0.2186
 -- Virtual --
  0.0265   0.0605   0.1172   0.1240   0.1363   0.1445   0.1527   0.1543
  0.1580   0.1595   0.1633   0.1771   0.1844   0.1855   0.1934   0.1947
  0.2016   0.2031   0.2048   0.2139   0.2179   0.2229   0.2250   0.2282
  0.2299   0.2342   0.2442   0.2527   0.2553   0.2610   0.2680   0.2750
  0.2807   0.3022   0.3104   0.3237   0.3320   0.3372   0.3453   0.3466
  0.3510   0.3578   0.3639   0.3687   0.3734   0.3782   0.3826   0.3833
  0.3853   0.3875   0.3948   0.4073   0.4082   0.4148   0.4153   0.4215
  0.4250   0.4285   0.4324   0.4369   0.4393   0.4440   0.4454   0.4514
  0.4580   0.4626   0.4683   0.4706   0.4745   0.4778   0.4829   0.4881
  0.4914   0.4940   0.4987   0.5011   0.5042   0.5145   0.5200   0.5229
  0.5247   0.5284   0.5308   0.5361   0.5394   0.5425   0.5499   0.5511
  0.5528   0.5577   0.5622   0.5640   0.5664   0.5703   0.5773   0.5795
  0.5851   0.5908   0.5916   0.5942   0.6015   0.6038   0.6059   0.6089
  0.6137   0.6160   0.6181   0.6213   0.6231   0.6253   0.6310   0.6322
  0.6350   0.6381   0.6406   0.6455   0.6514   0.6516   0.6546   0.6570
  0.6609   0.6650   0.6731   0.6789   0.6873   0.6899   0.6933   0.7041
  0.7069   0.7092   0.7167   0.7172   0.7220   0.7279   0.7360   0.7447
  0.7502   0.7575   0.7594   0.7670   0.7741   0.7765   0.7877   0.7928
  0.7971   0.7984   0.8047   0.8087   0.8117   0.8176   0.8239   0.8278
  0.8379   0.8461   0.8514   0.8566   0.8634   0.8751   0.8773   0.8866
  0.8882   0.8952   0.8977   0.8981   0.9077   0.9088   0.9197   0.9238
  0.9283   0.9317   0.9345   0.9431   0.9454   0.9481   0.9518   0.9600
  0.9664   0.9680   0.9696   0.9780   0.9810   0.9853   0.9925   0.9950
  0.9983   1.0037   1.0043   1.0108   1.0128   1.0172   1.0241   1.0323
  1.0360   1.0390   1.0415   1.0487   1.0524   1.0605   1.0663   1.0702
  1.0749   1.0816   1.0861   1.0919   1.0984   1.1022   1.1047   1.1093
  1.1152   1.1208   1.1273   1.1314   1.1385   1.1478   1.1503   1.1563
  1.1616   1.1638   1.1642   1.1715   1.1780   1.1795   1.1828   1.1866
  1.1869   1.1916   1.1978   1.2036   1.2086   1.2098   1.2141   1.2227
  1.2250   1.2289   1.2313   1.2401   1.2441   1.2482   1.2532   1.2553
  1.2678   1.2685   1.2740   1.2778   1.2845   1.2927   1.2936   1.2975
  1.2990   1.3106   1.3155   1.3254   1.3260   1.3351   1.3419   1.3437
  1.3512   1.3540   1.3656   1.3688   1.3783   1.3853   1.3901   1.3954
  1.4013   1.4102   1.4175   1.4197   1.4333   1.4380   1.4464   1.4514
  1.4550   1.4580   1.4740   1.4782   1.4867   1.4951   1.4965   1.5037
  1.5060   1.5079   1.5127   1.5133   1.5215   1.5292   1.5326   1.5368
  1.5439   1.5452   1.5537   1.5551   1.5619   1.5659   1.5689   1.5820
  1.5917   1.5984   1.6073   1.6159   1.6208   1.6249   1.6329   1.6396
  1.6456   1.6510   1.6582   1.6616   1.6647   1.6784   1.6815   1.6921
  1.6940   1.7005   1.7088   1.7244   1.7265   1.7385   1.7404   1.7496
  1.7588   1.7637   1.7724   1.7799   1.7891   1.8026   1.8122   1.8154
  1.8198   1.8280   1.8343   1.8372   1.8536   1.8609   1.8665   1.8743
  1.8808   1.8971   1.8980   1.9115   1.9198   1.9292   1.9321   1.9336
  1.9367   1.9491   1.9584   1.9636   1.9711   1.9928   1.9975   2.0096
  2.0165   2.0184   2.0330   2.0335   2.0362   2.0506   2.0571   2.0600
  2.0722   2.0760   2.0984   2.1030   2.1102   2.1198   2.1282   2.1359
  2.1432   2.1535   2.1544   2.1605   2.1726   2.1806   2.1832   2.1946
  2.1975   2.2032   2.2073   2.2189   2.2235   2.2342   2.2421   2.2449
  2.2536   2.2592   2.2653   2.2731   2.2788   2.2806   2.2967   2.2976
  2.3067   2.3122   2.3135   2.3290   2.3457   2.3522   2.3550   2.3765
  2.3839   2.3881   2.3939   2.4039   2.4087   2.4160   2.4308   2.4399
  2.4438   2.4617   2.4631   2.4687   2.4725   2.4812   2.4956   2.5105
  2.5157   2.5231   2.5286   2.5303   2.5426   2.5495   2.5631   2.5729
  2.5801   2.5909   2.6005   2.6037   2.6172   2.6195   2.6207   2.6304
  2.6321   2.6404   2.6440   2.6467   2.6560   2.6631   2.6671   2.6702
  2.6760   2.6861   2.6923   2.6976   2.7046   2.7097   2.7140   2.7252
  2.7263   2.7352   2.7379   2.7400   2.7516   2.7518   2.7688   2.7706
  2.7776   2.7849   2.7965   2.8001   2.8100   2.8208   2.8300   2.8340
  2.8444   2.8462   2.8492   2.8546   2.8606   2.8690   2.8716   2.8759
  2.8829   2.8879   2.9006   2.9064   2.9118   2.9196   2.9412   2.9520
  2.9541   2.9598   2.9624   2.9685   2.9714   2.9789   2.9866   2.9989
  3.0074   3.0167   3.0259   3.0361   3.0383   3.0415   3.0444   3.0490
  3.0594   3.0655   3.0723   3.0753   3.0826   3.0916   3.0974   3.1029
  3.1074   3.1118   3.1222   3.1264   3.1342   3.1396   3.1448   3.1493
  3.1539   3.1556   3.1599   3.1640   3.1724   3.1744   3.1789   3.1868
  3.1895   3.1945   3.1984   3.2055   3.2076   3.2139   3.2208   3.2276
  3.2311   3.2348   3.2513   3.2541   3.2594   3.2611   3.2620   3.2701
  3.2711   3.2765   3.2816   3.2840   3.2883   3.2909   3.2967   3.2978
  3.3050   3.3063   3.3162   3.3196   3.3292   3.3343   3.3374   3.3406
  3.3463   3.3500   3.3525   3.3550   3.3603   3.3641   3.3667   3.3680
  3.3748   3.3805   3.3864   3.3899   3.3946   3.3997   3.4037   3.4079
  3.4190   3.4221   3.4258   3.4271   3.4348   3.4383   3.4439   3.4475
  3.4499   3.4564   3.4585   3.4613   3.4693   3.4774   3.4782   3.4840
  3.4891   3.4915   3.5022   3.5069   3.5087   3.5205   3.5271   3.5357
  3.5442   3.5527   3.5541   3.5594   3.5708   3.5806   3.5820   3.5835
  3.5902   3.5930   3.5988   3.5999   3.6037   3.6052   3.6106   3.6162
  3.6197   3.6252   3.6332   3.6374   3.6437   3.6458   3.6519   3.6608
  3.6623   3.6654   3.6688   3.6760   3.6764   3.6857   3.6885   3.6915
  3.7018   3.7057   3.7076   3.7113   3.7176   3.7257   3.7271   3.7323
  3.7325   3.7352   3.7439   3.7507   3.7557   3.7640   3.7680   3.7729
  3.7797   3.7855   3.8005   3.8030   3.8085   3.8111   3.8185   3.8218
  3.8267   3.8292   3.8414   3.8470   3.8502   3.8537   3.8628   3.8653
  3.8677   3.8727   3.8810   3.8849   3.8888   3.8938   3.9031   3.9127
  3.9195   3.9238   3.9318   3.9367   3.9458   3.9484   3.9598   3.9646
  3.9706   3.9807   3.9852   3.9884   3.9961   4.0080   4.0127   4.0168
  4.0253   4.0322   4.0388   4.0479   4.0501   4.0536   4.0643   4.0661
  4.0723   4.0800   4.0879   4.0955   4.1038   4.1087   4.1138   4.1189
  4.1225   4.1449   4.1478   4.1589   4.1703   4.1705   4.1729   4.1772
  4.1848   4.1920   4.1953   4.2073   4.2148   4.2256   4.2309   4.2420
  4.2442   4.2556   4.2712   4.2773   4.2788   4.2856   4.3019   4.3115
  4.3189   4.3265   4.3336   4.3391   4.3481   4.3509   4.3554   4.3631
  4.3745   4.3770   4.3793   4.3918   4.4043   4.4081   4.4145   4.4198
  4.4227   4.4238   4.4293   4.4346   4.4391   4.4493   4.4553   4.4600
  4.4709   4.4802   4.4877   4.4980   4.5119   4.5171   4.5185   4.5264
  4.5307   4.5536   4.5573   4.5618   4.5698   4.5748   4.5774   4.5928
  4.6001   4.6064   4.6210   4.6214   4.6390   4.6421   4.6439   4.6557
  4.6576   4.6654   4.6755   4.6877   4.7034   4.7061   4.7140   4.7223
  4.7315   4.7443   4.7545   4.7622   4.7816   4.7992   4.8053   4.8126
  4.8216   4.8254   4.8338   4.8511   4.8573   4.8727   4.8887   4.8952
  4.9209   4.9316   4.9350   4.9404   4.9565   4.9651   4.9801   4.9982
  5.0018   5.0087   5.0111   5.0130   5.0277   5.0329   5.0498   5.0604
  5.0730   5.0931   5.1080   5.1134   5.1302   5.1587   5.1691   5.1864
  5.1909   5.2007   5.2037   5.2149   5.2195   5.2231   5.2356   5.2544
  5.2598   5.2662   5.2864   5.2900   5.3116   5.3192   5.3244   5.3272
  5.3378   5.3549   5.3560   5.3620   5.3761   5.3786   5.3892   5.3996
  5.4063   5.4163   5.4296   5.4415   5.4623   5.4736   5.4948   5.4998
  5.5088   5.5210   5.5265   5.5549   5.5652   5.5708   5.5737   5.5872
  5.6050   5.6089   5.6195   5.6265   5.6419   5.6492   5.6720   5.6887
  5.7297   5.7472   5.7628   5.7734   5.8019   5.8161   5.8357   5.8558
  5.8703   5.8816   5.9030   5.9513   5.9714   5.9779   5.9862   6.0084
  6.0411   6.0652   6.1237   6.1297   6.1344   6.1560   6.1715   6.1755
  6.1871   6.2001   6.2462   6.2508   6.2673   6.2683   6.2838   6.2920
  6.3096   6.3527   6.3575   6.4393   6.4934   6.5147   6.5351   6.5578
  6.5703   6.5828   6.6454   6.6784   6.7027   6.7307   6.7530   6.7688
  6.8118   6.8625   6.8661   6.8872   6.8990   6.9943   7.1320   7.1446
  7.1796   7.2133   7.2196   7.2411   7.3278   7.3298   7.3404   7.3711
  7.3803   7.4319   7.4639   7.4833   7.4870   7.4975   7.5300   7.5519
  7.6210   7.7396   7.7656   7.8023   7.8335   7.9156   7.9275   7.9560
  8.0121   8.1257   8.3509   8.6961   8.9652   9.0482   9.3637   9.5057
  9.7253  10.3465  11.2725  11.4467  11.9245  11.9556  12.1281  12.3822
 12.4109  12.5587  12.7142  12.9524  13.0649  13.2557  13.4801  13.5996
 13.7659  13.8816  13.9140  13.9662  14.1601  14.3185  15.1728  15.4067
 --------------------------------------------------------------
 
          Ground-State Mulliken Net Atomic Charges

     Atom                 Charge (a.u.)
  ----------------------------------------
      1 C                    -0.071066
      2 C                    -0.246179
      3 S                    -0.131023
      4 C                    -0.051893
      5 H                     0.195220
      6 C                    -0.049077
      7 C                     0.225711
      8 C                     0.237704
      9 C                    -0.076698
     10 C                    -0.031841
     11 O                    -0.333229
     12 O                    -0.342956
     13 C                    -0.083337
     14 H                     0.121832
     15 H                     0.092301
     16 H                     0.092597
     17 C                    -0.088863
     18 H                     0.125454
     19 H                     0.093692
     20 H                     0.090380
     21 C                    -0.339149
     22 S                    -0.096228
     23 C                     0.137959
     24 H                     0.214709
     25 C                    -0.056556
     26 S                     0.090118
     27 C                    -0.273313
     28 C                    -0.088829
     29 C                    -0.005156
     30 C                     0.381174
     31 C                    -0.147076
     32 S                     0.034139
     33 C                     0.461479
     34 O                    -0.455597
     35 O                    -0.298651
     36 F                    -0.217205
     37 C                    -0.055045
     38 H                     0.116454
     39 H                     0.084142
     40 H                     0.084018
     41 H                     0.214300
     42 H                     0.119394
     43 H                     0.117101
     44 H                     0.209088
  ----------------------------------------
  Sum of atomic charges =     0.000000

 -----------------------------------------------------------------
                    Cartesian Multipole Moments
 -----------------------------------------------------------------
    Charge (ESU x 10^10)
                 0.0000
    Dipole Moment (Debye)
         X      -0.0089      Y       1.4510      Z       3.6388
       Tot       3.9174
    Quadrupole Moments (Debye-Ang)
        XX    -196.2497     XY       4.4424     YY    -168.3313
        XZ     -10.6827     YZ     -14.1537     ZZ    -193.1944
    Octopole Moments (Debye-Ang^2)
       XXX    -155.1378    XXY     378.1801    XYY     -34.5402
       YYY     950.5570    XXZ     186.2317    XYZ      26.1958
       YYZ     180.5171    XZZ     -18.1955    YZZ     434.4899
       ZZZ     607.3458
    Hexadecapole Moments (Debye-Ang^3)
      XXXX    -609.6534   XXXY    -203.1257   XXYY   -3789.9500
      XYYY    -129.4241   YYYY  -19203.8362   XXXZ     655.2941
      XXYZ     291.3168   XYYZ     -20.6277   YYYZ     405.6043
      XXZZ   -1370.0986   XYZZ      46.2310   YYZZ   -4328.8094
      XZZZ     347.1864   YZZZ     211.8514   ZZZZ   -7610.5650
 -----------------------------------------------------------------
 Total job time:  337.66s(wall), 11167.87s(cpu) 
 Tue Sep 26 19:04:36 2023

        *************************************************************
        *                                                           *
        *  Thank you very much for using Q-Chem.  Have a nice day.  *
        *                                                           *
        *************************************************************


0 sent ACK to 0 
now end server 0 ... 
cleanup process ... done
remove work dirs ./qchem412622.0 -- ./qchem412622.0
rm -rf ./qchem412622.0
rm -rf ./qchem412622
