You are running Q-Chem version: 5.4.0

#
# job setting
#
local host:  exp-2-55
current dir: /expanse/lustre/projects/csd626/rramji/aromodel/PTB7_fin/Hydrogenated_Rotation_Test
input file:  fin_bdt_Phi_10_Theta_10_fin_ftt_Hydrogenated.qcin
output file: 
nprocs     : 1
nthreads   : 64
#
# qchem installation setting
#
QC:          /cm/shared/apps/spack/cpu/opt/spack/linux-centos8-zen2/gcc-10.2.0/qchem-5.4-akfmr7b3t57bfs6qan3padb2wnb2i7cl
QCAUX:       /cm/shared/apps/spack/cpu/opt/spack/linux-centos8-zen2/gcc-10.2.0/qchem-5.4-akfmr7b3t57bfs6qan3padb2wnb2i7cl/qcaux
QCPROG:      /cm/shared/apps/spack/cpu/opt/spack/linux-centos8-zen2/gcc-10.2.0/qchem-5.4-akfmr7b3t57bfs6qan3padb2wnb2i7cl/exe/qcprog.exe
QCPROG_S:    /cm/shared/apps/spack/cpu/opt/spack/linux-centos8-zen2/gcc-10.2.0/qchem-5.4-akfmr7b3t57bfs6qan3padb2wnb2i7cl/exe/qcprog.exe_s
PARALLEL:    -DPARALLEL
QCMPI:       mpich
#
# qchem directory setting
#
qcrun:       qchem3485516
QCSCRATCH:   .
QCLOCALSCR:  
QCTMPDIR:    .
QCFILEPREF:  ./qchem3485516
QCSAVEDIR:   
workdirs:    ./qchem3485516
workdir0:    ./qchem3485516
partmpdirs =  
#
# parallel setting
#
QCRSH:           ssh
QCMPI:           mpich
QCMPIRUN:        /cm/shared/apps/spack/cpu/opt/spack/linux-centos8-zen2/gcc-10.2.0/qchem-5.4-akfmr7b3t57bfs6qan3padb2wnb2i7cl/bin/mpi/mpirun_qchem
QCMACHINEFILE:   ./qchem3485516/hostfile
exp-2-55

#
# env setting
#
exported envs:   QC QCAUX QCSCRATCH QCRUNNAME QCFILEPREF QCPROG QCPROG_S GUIFILE

Running Job 1 of 1 fin_bdt_Phi_10_Theta_10_fin_ftt_Hydrogenated.qcin
qchem fin_bdt_Phi_10_Theta_10_fin_ftt_Hydrogenated.qcin_3485516.0 ./qchem3485516/ 1
/cm/shared/apps/spack/cpu/opt/spack/linux-centos8-zen2/gcc-10.2.0/qchem-5.4-akfmr7b3t57bfs6qan3padb2wnb2i7cl/bin/mpi/mpirun_qchem -machinefile ./qchem3485516/hostfile -np 1 /cm/shared/apps/spack/cpu/opt/spack/linux-centos8-zen2/gcc-10.2.0/qchem-5.4-akfmr7b3t57bfs6qan3padb2wnb2i7cl/exe/qcprog.exe fin_bdt_Phi_10_Theta_10_fin_ftt_Hydrogenated.qcin_3485516.0 ./qchem3485516/

Process 0 of 1 is on exp-2-55 - thread support 0
initial socket setup ...start
initial socket setup ...done 
now start server 0 ... 
                  Welcome to Q-Chem
     A Quantum Leap Into The Future Of Chemistry


 Q-Chem 5.4, Q-Chem, Inc., Pleasanton, CA (2021)

 License issued to: University of California, San Diego (site)

 E. Epifanovsky,  A. T. B. Gilbert,  Xintian Feng,  Joonho Lee,  Yuezhi Mao,  
 N. Mardirossian,  P. Pokhilko,  A. White,  M. Wormit,  M. P. Coons,  
 A. L. Dempwolff,  Zhengting Gan,  D. Hait,  P. R. Horn,  L. D. Jacobson,  
 I. Kaliman,  J. Kussmann,  A. W. Lange,  Ka Un Lao,  D. S. Levine,  Jie Liu,  
 S. C. McKenzie,  A. F. Morrison,  K. Nanda,  F. Plasser,  D. R. Rehn,  
 M. L. Vidal,  Zhi-Qiang You,  Ying Zhu,  B. Alam,  B. Albrecht,  
 A. Aldossary,  E. Alguire,  J. H. Andersen,  D. Barton,  K. Begam,  A. Behn,  
 Y. A. Bernard,  E. J. Berquist,  H. Burton,  A. Carreras,  K. Carter-Fenk,  
 R. Chakraborty,  A. D. Chien,  K. D. Closser,  V. Cofer-Shabica,  
 S. Dasgupta,  Jia Deng,  M. de Wergifosse,  M. Diedenhofen,  Hainam Do,  
 S. Ehlert,  Po-Tung Fang,  S. Fatehi,  Qingguo Feng,  J. Gayvert,  
 Qinghui Ge,  G. Gidofalvi,  M. Goldey,  J. Gomes,  C. Gonzalez-Espinoza,  
 S. Gulania,  A. Gunina,  M. W. D. Hanson-Heine,  P. H. P. Harbach,  
 A. W. Hauser,  M. F. Herbst,  M. Hernandez Vera,  M. Hodecker,  
 Z. C. Holden,  S. Houck,  Xunkun Huang,  Kerwin Hui,  B. C. Huynh,  
 M. Ivanov,  Hyunjun Ji,  Hanjie Jiang,  B. Kaduk,  S. Kaehler,  
 K. Khistyaev,  Jaehoon Kim,  P. Klunzinger,  Z. Koczor-Benda,  
 Joong Hoon Koh,  D. Kosenkov,  L. Koulias,  T. Kowalczyk,  C. M. Krauter,  
 K. Kue,  A. Kunitsa,  T. Kus,  A. Landau,  K. V. Lawler,  D. Lefrancois,  
 S. Lehtola,  Rain Li,  Yi-Pei Li,  Jiashu Liang,  M. Liebenthal,  
 Hung-Hsuan Lin,  You-Sheng Lin,  Fenglai Liu,  Kuan-Yu Liu,  
 M. Loipersberger,  A. Luenser,  A. Manjanath,  P. Manohar,  E. Mansoor,  
 S. F. Manzer,  Shan-Ping Mao,  A. V. Marenich,  T. Markovich,  S. Mason,  
 S. A. Maurer,  P. F. McLaughlin,  M. F. S. J. Menger,  J.-M. Mewes,  
 S. A. Mewes,  P. Morgante,  J. W. Mullinax,  T. S. Nguyen-Beck,  
 K. J. Oosterbaan,  G. Paran,  Alexander C. Paul,  Suranjan K. Paul,  
 F. Pavosevic,  Zheng Pei,  S. Prager,  E. I. Proynov,  E. Ramos,  B. Rana,  
 A. E. Rask,  A. Rettig,  R. M. Richard,  F. Rob,  E. Rossomme,  T. Scheele,  
 M. Scheurer,  M. Schneider,  N. Sergueev,  S. M. Sharada,  W. Skomorowski,  
 D. W. Small,  C. J. Stein,  Yu-Chuan Su,  E. J. Sundstrom,  Zhen Tao,  
 J. Thirman,  T. Tsuchimochi,  N. M. Tubman,  S. P. Veccham,  O. Vydrov,  
 J. Wenzel,  J. Witte,  A. Yamada,  Kun Yao,  S. Yeganeh,  S. R. Yost,  
 A. Zech,  Igor Ying Zhang,  Xing Zhang,  Yu Zhang,  D. Zuev,  
 A. Aspuru-Guzik,  A. T. Bell,  N. A. Besley,  K. B. Bravaya,  B. R. Brooks,  
 D. Casanova,  Jeng-Da Chai,  S. Coriani,  C. J. Cramer,  
 A. E. DePrince, III,  R. A. DiStasio Jr.,  A. Dreuw,  B. D. Dunietz,  
 T. R. Furlani,  W. A. Goddard III,  S. Grimme,  S. Hammes-Schiffer,  
 T. Head-Gordon,  W. J. Hehre,  Chao-Ping Hsu,  T.-C. Jagau,  Yousung Jung,  
 A. Klamt,  Jing Kong,  D. S. Lambrecht,  WanZhen Liang,  N. J. Mayhall,  
 C. W. McCurdy,  J. B. Neaton,  C. Ochsenfeld,  J. A. Parkhill,  R. Peverati,  
 V. A. Rassolov,  Yihan Shao,  L. V. Slipchenko,  T. Stauch,  R. P. Steele,  
 J. E. Subotnik,  A. J. W. Thom,  A. Tkatchenko,  D. G. Truhlar,  
 T. Van Voorhis,  T. A. Wesolowski,  K. B. Whaley,  H. L. Woodcock III,  
 P. M. Zimmerman,  S. Faraji,  P. M. W. Gill,  M. Head-Gordon,  
 J. M. Herbert,  A. I. Krylov

 Contributors to earlier versions of Q-Chem not listed above: 
 R. D. Adamson,  B. Austin,  R. Baer,  J. Baker,  G. J. O. Beran,  
 K. Brandhorst,  S. T. Brown,  E. F. C. Byrd,  A. K. Chakraborty,  
 G. K. L. Chan,  Chun-Min Chang,  Yunqing Chen,  C.-L. Cheng,  
 Siu Hung Chien,  D. M. Chipman,  D. L. Crittenden,  H. Dachsel,  
 R. J. Doerksen,  A. D. Dutoi,  R. G. Edgar,  J. Fosso-Tande,  
 L. Fusti-Molnar,  D. Ghosh,  A. Ghysels,  A. Golubeva-Zadorozhnaya,  
 J. Gonthier,  M. S. Gordon,  S. R. Gwaltney,  G. Hawkins,  J. E. Herr,  
 A. Heyden,  S. Hirata,  E. G. Hohenstein,  G. Kedziora,  F. J. Keil,  
 C. Kelley,  Jihan Kim,  R. A. King,  R. Z. Khaliullin,  P. P. Korambath,  
 W. Kurlancheek,  A. Laurent,  A. M. Lee,  M. S. Lee,  S. V. Levchenko,  
 Ching Yeh Lin,  D. Liotard,  E. Livshits,  R. C. Lochan,  I. Lotan,  
 L. A. Martinez-Martinez,  P. E. Maslen,  N. Nair,  D. P. O'Neill,  
 D. Neuhauser,  E. Neuscamman,  C. M. Oana,  R. Olivares-Amaya,  R. Olson,  
 T. M. Perrine,  B. Peters,  P. A. Pieniazek,  A. Prociuk,  Y. M. Rhee,  
 J. Ritchie,  M. A. Rohrdanz,  E. Rosta,  N. J. Russ,  H. F. Schaefer III,  
 M. W. Schmidt,  N. E. Schultz,  S. Sharma,  N. Shenvi,  C. D. Sherrill,  
 A. C. Simmonett,  A. Sodt,  T. Stein,  D. Stuck,  K. S. Thanthiriwatte,  
 V. Vanovschi,  L. Vogt,  Tao Wang,  A. Warshel,  M. A. Watson,  
 C. F. Williams,  Q. Wu,  X. Xu,  Jun Yang,  W. Zhang,  Yan Zhao

 Please cite Q-Chem as follows:
 Y. Shao et al., Mol. Phys. 113, 184-215 (2015)
 DOI: 10.1080/00268976.2014.952696

 Q-Chem 5.4.0 for Intel X86 EM64T Linux

 Parts of Q-Chem use Armadillo 9.800.1 (Horizon Scraper).
 http://arma.sourceforge.net/

 Q-Chem begins on Sun Sep 24 16:27:35 2023  

 Host: 
0

     Scratch files written to ./qchem3485516//
 May1621 |scratch|qcdevops|jenkins|workspace|build_RNUM    
 Parallel job on  1  processors
 Processing $rem in /cm/shared/apps/spack/cpu/opt/spack/linux-centos8-zen2/gcc-10.2.0/qchem-5.4-akfmr7b3t57bfs6qan3padb2wnb2i7cl/config/preferences:
 Processing $rem in /home/rramji/.qchemrc:
 Symmetry turned off for PCM/SM12/SMD calculation
 Core orbitals will be frozen

 Checking the input file for inconsistencies... 	...done.

 Q-Chem warning in module forms1/BasisType.C, line 2236:

 You are not using the predefined 5D/6D in this basis set.


--------------------------------------------------------------
User input:
--------------------------------------------------------------
$molecule
0 1
C	-0.093711	-8.519741	0.255459
C	0.083869	-7.635967	-0.799036
S	-0.345260	-7.651740	1.789425
C	0.018411	-6.261894	-0.418360
H	0.259169	-7.954738	-1.834294
C	-0.229701	-6.079985	0.987769
C	-0.302697	-4.798382	1.555260
C	0.196459	-5.153542	-1.294992
C	0.127651	-3.869626	-0.726408
C	-0.123544	-3.688927	0.680716
O	0.396706	-5.481075	-2.601852
O	-0.502673	-4.479871	2.868193
C	-1.262918	-5.356026	3.691495
H	-1.494604	-4.790496	4.614080
H	-0.693738	-6.268513	3.974195
H	-2.212720	-5.658187	3.199559
C	0.997016	-4.546999	-3.490743
H	1.226691	-5.107564	-4.416630
H	1.939526	-4.131473	-3.073934
H	0.309214	-3.712085	-3.746794
C	-0.186133	-2.314326	1.058247
S	0.256010	-2.295487	-1.527599
C	0.000000	-1.435180	0.000000
H	-0.363896	-1.993211	2.092285
C	0.000000	0.000000	0.000000
S	0.158383	0.885376	1.510732
C	0.430876	2.436951	0.727629
C	0.157682	0.894430	-1.064665
C	0.397351	2.262384	-0.678287
C	0.147783	0.828765	-2.486150
C	0.367291	2.074406	-3.106916
S	0.580633	3.303533	-1.965735
C	0.416083	2.324204	-4.559972
O	0.256921	1.404367	-5.350277
O	0.642094	3.587338	-5.004375
F	-0.041828	-0.269113	-3.246290
C	0.714377	3.938827	-6.334976
H	0.906844	5.026898	-6.370268
H	-0.230661	3.710099	-6.875609
H	1.531918	3.398681	-6.861878
H	0.590699	3.342984	1.321510
H	0.793825	-9.146471	0.401636
H	-0.977367	-9.150570	0.103519
H	1.064992	-1.444158	0.179195
$end

$rem
JOBTYPE		SP
EXCHANGE	HF
CORRELATION	pRIMP2
BASIS		cc-pvtz
METHOD		rimp2
AUX_BASIS	rimp2-cc-pvtz
SOLVENT_METHOD	PCM
PURECART	11111
SYMMETRY	false
MEM_TOTAL	110000
SCF_CONVERGENCE = 6
THRESH=10
GUI = 2
$end



$solvent
dielectric 4.90
$end
--------------------------------------------------------------
 ----------------------------------------------------------------
             Standard Nuclear Orientation (Angstroms)
    I     Atom           X                Y                Z
 ----------------------------------------------------------------
    1      C      -0.0937110000    -8.5197410000     0.2554590000
    2      C       0.0838690000    -7.6359670000    -0.7990360000
    3      S      -0.3452600000    -7.6517400000     1.7894250000
    4      C       0.0184110000    -6.2618940000    -0.4183600000
    5      H       0.2591690000    -7.9547380000    -1.8342940000
    6      C      -0.2297010000    -6.0799850000     0.9877690000
    7      C      -0.3026970000    -4.7983820000     1.5552600000
    8      C       0.1964590000    -5.1535420000    -1.2949920000
    9      C       0.1276510000    -3.8696260000    -0.7264080000
   10      C      -0.1235440000    -3.6889270000     0.6807160000
   11      O       0.3967060000    -5.4810750000    -2.6018520000
   12      O      -0.5026730000    -4.4798710000     2.8681930000
   13      C      -1.2629180000    -5.3560260000     3.6914950000
   14      H      -1.4946040000    -4.7904960000     4.6140800000
   15      H      -0.6937380000    -6.2685130000     3.9741950000
   16      H      -2.2127200000    -5.6581870000     3.1995590000
   17      C       0.9970160000    -4.5469990000    -3.4907430000
   18      H       1.2266910000    -5.1075640000    -4.4166300000
   19      H       1.9395260000    -4.1314730000    -3.0739340000
   20      H       0.3092140000    -3.7120850000    -3.7467940000
   21      C      -0.1861330000    -2.3143260000     1.0582470000
   22      S       0.2560100000    -2.2954870000    -1.5275990000
   23      C       0.0000000000    -1.4351800000     0.0000000000
   24      H      -0.3638960000    -1.9932110000     2.0922850000
   25      C       0.0000000000     0.0000000000     0.0000000000
   26      S       0.1583830000     0.8853760000     1.5107320000
   27      C       0.4308760000     2.4369510000     0.7276290000
   28      C       0.1576820000     0.8944300000    -1.0646650000
   29      C       0.3973510000     2.2623840000    -0.6782870000
   30      C       0.1477830000     0.8287650000    -2.4861500000
   31      C       0.3672910000     2.0744060000    -3.1069160000
   32      S       0.5806330000     3.3035330000    -1.9657350000
   33      C       0.4160830000     2.3242040000    -4.5599720000
   34      O       0.2569210000     1.4043670000    -5.3502770000
   35      O       0.6420940000     3.5873380000    -5.0043750000
   36      F      -0.0418280000    -0.2691130000    -3.2462900000
   37      C       0.7143770000     3.9388270000    -6.3349760000
   38      H       0.9068440000     5.0268980000    -6.3702680000
   39      H      -0.2306610000     3.7100990000    -6.8756090000
   40      H       1.5319180000     3.3986810000    -6.8618780000
   41      H       0.5906990000     3.3429840000     1.3215100000
   42      H       0.7938250000    -9.1464710000     0.4016360000
   43      H      -0.9773670000    -9.1505700000     0.1035190000
   44      H       1.0649920000    -1.4441580000     0.1791950000
 ----------------------------------------------------------------
 Nuclear Repulsion Energy =        3382.06154017 hartrees
 There are      120 alpha and      120 beta electrons
 Requested basis set is cc-pVTZ
 There are 388 shells and 1096 basis functions

 Total QAlloc Memory Limit 110000 MB
 Mega-Array Size       188 MB
 MEM_STATIC part       192 MB
 Discretize the solute cavity surface with Lebedev spheres
	Using 110 Lebedev grid points for each H atom
	Using 194 Lebedev grid points for other atoms
	Atomic van der Waals radii will be scaled by 1.20
 Remove points where switching function is < 1.0e-08
 Keep 2954 surface tesserae and discard 4322 interior tesserae
 Molecular Surface Area = 433.439 Angst**2
 Requested basis set is rimp2-cc-pVTZ
 There are 853 shells and 2963 basis functions
 A cutoff of  1.0D-10 yielded  33603 shell pairs
 There are    253397 function pairs (    327640 Cartesian)
 Smallest overlap matrix eigenvalue = 2.08E-05

 Scale SEOQF with 1.000000e-01/1.000000e-02/1.000000e-02

 Standard Electronic Orientation quadrupole field applied
 Nucleus-field energy     =     0.0000000153 hartrees
 Guess from superposition of atomic densities
 Warning:  Energy on first SCF cycle will be non-variational
 SAD guess density has 240.000000 electrons

 -----------------------------------------------------------------------
  General SCF calculation program by
  Eric Jon Sundstrom, Paul Horn, Yuezhi Mao, Dmitri Zuev, Alec White,
  David Stuck, Shaama M.S., Shane Yost, Joonho Lee, David Small,
  Daniel Levine, Susi Lehtola, Hugh Burton, Evgeny Epifanovsky,
  Bang C. Huynh
 -----------------------------------------------------------------------
 Hartree-Fock
 using 64 threads for integral computing
 -------------------------------------------------------
 OpenMP Integral computing Module                
 Release: version 1.0, May 2013, Q-Chem Inc. Pittsburgh 
 -------------------------------------------------------
 A restricted SCF calculation will be
 performed using DIIS
 SCF converges when DIIS error is below 1.0e-06
 ---------------------------------------
  Cycle       Energy         DIIS error
 ---------------------------------------
    1   -2767.3727310388      1.77e-02  
    2   -2754.8649920524      1.55e-03  
    3   -2755.2139374608      8.77e-04  
    4   -2755.3052882152      2.54e-04  
    5   -2755.3192101120      7.26e-05  
    6   -2755.3207860350      2.64e-05  
    7   -2755.3212059561      1.35e-05  
    8   -2755.3213272057      5.48e-06  
    9   -2755.3213511102      2.74e-06  
   10   -2755.3213566586      1.34e-06  
   11   -2755.3213584734      6.98e-07  Convergence criterion met
 ---------------------------------------
 SCF time:   CPU 7458.01s  wall 278.00s 

************** Final PCM Free Energy Summary **************
 G_electrostatic  =      -0.02142373 hartree =     -13.44359109 kcal/mol
 G_cavitation     =       0.00000000 hartree =       0.00000000 kcal/mol
 G_dispersion     =       0.00000000 hartree =       0.00000000 kcal/mol
 G_repulsion      =       0.00000000 hartree =       0.00000000 kcal/mol
 --------------------------------------------------
 Non-electrostatic Free Energy =       0.00000000 hartree =       0.00000000 kcal/mol
 Total                         =      -0.02142373 hartree =     -13.44359109 kcal/mol
 --------------------------------------------------
 SCF Energy (H0 + V/2)                       =   -2755.32135847 
 Solute Internal Energy (H0)                 =   -2755.29993475 
 Total Free Energy (H0 + V/2 + non-elec)     =   -2755.32135847 hartree
                                             = -1728990.24809064 kcal/mol
***********************************************************

 SCF   energy in the final basis set =    -2755.3213584734
 Total energy in the final basis set =    -2755.3213584734


 --------------------------------------------------------------
  Generalized many-body perturbation theory program
  by Joonho Lee, Fazle Rob, Xintian Feng, Evgeny Epifanovsky

 No regularization used 
 (reg. param. = 0.0000e+00)
  (P|Q)^-1/2 Time:  CPU 238.33 s  wall 4.37 s

 In RI-MP2 calculation: 
 # of frozen core orbitals: 45

 Components of the RIMP2 correlation energy:
        aaaa    correlation energy =        -0.6702980360 a.u.
        abab    correlation energy =        -3.7505672400 a.u.
        bbbb    correlation energy =        -0.6702980360 a.u.
        non-Brillouin singles      =        -0.0000000000 a.u.
        total same-spin energy     =        -1.3405960719 a.u.
        total opposite-spin energy =        -3.7505672400 a.u.

 Total  RIMP2   correlation energy =        -5.0911633120 a.u.
        RIMP2         total energy =     -2760.4125217853 a.u.

 RI-MP2 Energy Time:  CPU 2881.30 s  wall 47.19 s
 
 --------------------------------------------------------------
 
                    Orbital Energies (a.u.)
 --------------------------------------------------------------
 
 Alpha MOs
 -- Occupied --
-92.0124 -91.9909 -91.9763 -91.9613 -26.3352 -20.6104 -20.5887 -20.5883
-20.5466 -11.4075 -11.3793 -11.3272 -11.3115 -11.3100 -11.2960 -11.2907
-11.2877 -11.2876 -11.2843 -11.2838 -11.2823 -11.2817 -11.2774 -11.2756
-11.2711 -11.2639 -11.2605 -11.2528 -11.2442  -9.0112  -8.9951  -8.9790
 -8.9639  -6.6921  -6.6915  -6.6909  -6.6764  -6.6757  -6.6744  -6.6599
 -6.6591  -6.6576  -6.6451  -6.6442  -6.6431  -1.6509  -1.4698  -1.4120
 -1.4102  -1.3647  -1.2379  -1.2102  -1.1787  -1.1431  -1.1009  -1.0506
 -1.0473  -1.0293  -1.0085  -1.0007  -0.9710  -0.9603  -0.9500  -0.9403
 -0.8955  -0.8717  -0.8638  -0.8130  -0.7957  -0.7863  -0.7764  -0.7665
 -0.7634  -0.7340  -0.7213  -0.7176  -0.6981  -0.6954  -0.6843  -0.6772
 -0.6722  -0.6715  -0.6570  -0.6496  -0.6386  -0.6300  -0.6229  -0.6161
 -0.6109  -0.6041  -0.5970  -0.5910  -0.5773  -0.5685  -0.5649  -0.5596
 -0.5492  -0.5335  -0.5288  -0.5211  -0.5138  -0.5091  -0.5047  -0.4998
 -0.4842  -0.4816  -0.4804  -0.4668  -0.4610  -0.4600  -0.4582  -0.4487
 -0.4313  -0.4004  -0.3855  -0.3732  -0.3510  -0.2935  -0.2832  -0.2195
 -- Virtual --
  0.0274   0.0612   0.1156   0.1370   0.1372   0.1468   0.1526   0.1561
  0.1581   0.1593   0.1690   0.1746   0.1803   0.1837   0.1902   0.1952
  0.1974   0.2019   0.2038   0.2131   0.2165   0.2225   0.2244   0.2275
  0.2318   0.2324   0.2421   0.2467   0.2566   0.2631   0.2679   0.2745
  0.2920   0.3000   0.3117   0.3248   0.3353   0.3404   0.3432   0.3514
  0.3564   0.3599   0.3636   0.3682   0.3722   0.3801   0.3824   0.3846
  0.3878   0.3947   0.3986   0.4029   0.4061   0.4138   0.4173   0.4221
  0.4258   0.4285   0.4353   0.4391   0.4412   0.4457   0.4519   0.4562
  0.4575   0.4611   0.4672   0.4679   0.4712   0.4761   0.4825   0.4862
  0.4902   0.4954   0.4990   0.5042   0.5093   0.5138   0.5182   0.5213
  0.5249   0.5285   0.5336   0.5398   0.5430   0.5477   0.5517   0.5534
  0.5561   0.5576   0.5631   0.5680   0.5706   0.5731   0.5746   0.5854
  0.5868   0.5897   0.5942   0.5956   0.6001   0.6028   0.6069   0.6107
  0.6138   0.6151   0.6182   0.6194   0.6215   0.6242   0.6294   0.6300
  0.6323   0.6364   0.6407   0.6432   0.6474   0.6493   0.6554   0.6587
  0.6616   0.6656   0.6710   0.6769   0.6819   0.6876   0.6891   0.6941
  0.7047   0.7109   0.7142   0.7147   0.7225   0.7261   0.7393   0.7459
  0.7546   0.7549   0.7634   0.7663   0.7754   0.7813   0.7920   0.7944
  0.7968   0.8011   0.8091   0.8138   0.8170   0.8191   0.8230   0.8343
  0.8454   0.8495   0.8590   0.8619   0.8732   0.8780   0.8795   0.8871
  0.8906   0.8933   0.8992   0.9020   0.9071   0.9108   0.9131   0.9224
  0.9245   0.9335   0.9370   0.9391   0.9485   0.9492   0.9518   0.9614
  0.9675   0.9704   0.9747   0.9786   0.9840   0.9873   0.9902   0.9973
  0.9991   1.0060   1.0075   1.0083   1.0132   1.0159   1.0244   1.0338
  1.0374   1.0427   1.0473   1.0495   1.0521   1.0612   1.0701   1.0738
  1.0771   1.0779   1.0870   1.0960   1.0984   1.1044   1.1074   1.1148
  1.1153   1.1287   1.1311   1.1336   1.1404   1.1446   1.1513   1.1560
  1.1569   1.1633   1.1684   1.1715   1.1721   1.1795   1.1828   1.1837
  1.1886   1.1947   1.1975   1.2015   1.2073   1.2103   1.2124   1.2224
  1.2263   1.2342   1.2358   1.2414   1.2460   1.2504   1.2546   1.2585
  1.2627   1.2681   1.2770   1.2810   1.2850   1.2942   1.2960   1.3063
  1.3074   1.3146   1.3211   1.3257   1.3338   1.3410   1.3424   1.3475
  1.3509   1.3595   1.3612   1.3728   1.3729   1.3847   1.3924   1.3926
  1.4066   1.4093   1.4159   1.4202   1.4403   1.4441   1.4495   1.4551
  1.4577   1.4645   1.4729   1.4787   1.4877   1.4888   1.4987   1.5012
  1.5059   1.5117   1.5137   1.5150   1.5199   1.5293   1.5344   1.5369
  1.5419   1.5491   1.5532   1.5562   1.5612   1.5722   1.5767   1.5792
  1.5898   1.5920   1.6042   1.6112   1.6175   1.6250   1.6360   1.6453
  1.6467   1.6584   1.6616   1.6633   1.6690   1.6752   1.6828   1.6869
  1.6951   1.6991   1.7093   1.7121   1.7233   1.7320   1.7371   1.7467
  1.7547   1.7671   1.7730   1.7777   1.7979   1.8017   1.8046   1.8215
  1.8333   1.8345   1.8405   1.8474   1.8573   1.8591   1.8702   1.8778
  1.8801   1.8834   1.8941   1.9035   1.9115   1.9286   1.9335   1.9342
  1.9432   1.9459   1.9562   1.9663   1.9774   1.9826   1.9896   2.0043
  2.0158   2.0174   2.0290   2.0336   2.0383   2.0421   2.0459   2.0613
  2.0724   2.0842   2.0956   2.0962   2.1040   2.1081   2.1257   2.1402
  2.1500   2.1547   2.1613   2.1656   2.1756   2.1839   2.1913   2.1969
  2.2016   2.2111   2.2164   2.2176   2.2252   2.2365   2.2404   2.2529
  2.2600   2.2634   2.2752   2.2782   2.2864   2.2912   2.2971   2.3015
  2.3102   2.3231   2.3305   2.3396   2.3512   2.3527   2.3614   2.3637
  2.3845   2.3908   2.3939   2.4015   2.4128   2.4193   2.4241   2.4291
  2.4406   2.4516   2.4652   2.4748   2.4768   2.4855   2.4920   2.4991
  2.5112   2.5268   2.5303   2.5331   2.5445   2.5528   2.5619   2.5764
  2.5886   2.5905   2.5969   2.6100   2.6124   2.6169   2.6225   2.6236
  2.6393   2.6408   2.6444   2.6485   2.6509   2.6620   2.6677   2.6728
  2.6823   2.6933   2.6952   2.7011   2.7048   2.7096   2.7154   2.7240
  2.7293   2.7322   2.7405   2.7431   2.7489   2.7581   2.7618   2.7650
  2.7787   2.7813   2.7952   2.8020   2.8078   2.8120   2.8249   2.8364
  2.8422   2.8482   2.8511   2.8572   2.8630   2.8662   2.8763   2.8792
  2.8821   2.8941   2.9049   2.9085   2.9140   2.9262   2.9381   2.9480
  2.9545   2.9593   2.9653   2.9719   2.9745   2.9860   2.9892   2.9993
  3.0055   3.0110   3.0256   3.0314   3.0326   3.0448   3.0468   3.0504
  3.0540   3.0620   3.0726   3.0846   3.0894   3.0910   3.0963   3.1024
  3.1070   3.1125   3.1181   3.1252   3.1321   3.1410   3.1465   3.1493
  3.1526   3.1564   3.1600   3.1637   3.1679   3.1756   3.1815   3.1844
  3.1865   3.1909   3.1983   3.2040   3.2088   3.2158   3.2197   3.2212
  3.2346   3.2374   3.2454   3.2482   3.2488   3.2590   3.2605   3.2670
  3.2708   3.2786   3.2833   3.2845   3.2868   3.2943   3.2964   3.2996
  3.3046   3.3088   3.3144   3.3154   3.3265   3.3334   3.3362   3.3427
  3.3462   3.3505   3.3563   3.3586   3.3610   3.3670   3.3681   3.3727
  3.3730   3.3797   3.3828   3.3925   3.3962   3.3993   3.4035   3.4051
  3.4108   3.4232   3.4280   3.4295   3.4316   3.4366   3.4437   3.4480
  3.4551   3.4564   3.4611   3.4625   3.4670   3.4770   3.4813   3.4868
  3.4953   3.4996   3.5082   3.5108   3.5135   3.5211   3.5273   3.5330
  3.5333   3.5451   3.5504   3.5602   3.5668   3.5749   3.5803   3.5830
  3.5871   3.5937   3.5960   3.6019   3.6031   3.6075   3.6139   3.6215
  3.6235   3.6288   3.6326   3.6375   3.6430   3.6477   3.6537   3.6575
  3.6587   3.6644   3.6704   3.6754   3.6812   3.6832   3.6888   3.6967
  3.7003   3.7084   3.7113   3.7158   3.7167   3.7233   3.7270   3.7282
  3.7345   3.7365   3.7473   3.7508   3.7529   3.7650   3.7703   3.7807
  3.7831   3.7918   3.7937   3.7987   3.8073   3.8095   3.8198   3.8257
  3.8271   3.8324   3.8396   3.8472   3.8510   3.8533   3.8566   3.8644
  3.8701   3.8769   3.8791   3.8880   3.8904   3.9002   3.9091   3.9158
  3.9245   3.9324   3.9370   3.9426   3.9430   3.9471   3.9599   3.9711
  3.9735   3.9744   3.9795   3.9888   3.9978   4.0073   4.0110   4.0194
  4.0273   4.0360   4.0410   4.0466   4.0524   4.0588   4.0645   4.0709
  4.0728   4.0866   4.0920   4.0938   4.1000   4.1094   4.1164   4.1304
  4.1362   4.1426   4.1476   4.1608   4.1694   4.1712   4.1722   4.1778
  4.1826   4.1964   4.1979   4.2097   4.2130   4.2187   4.2296   4.2348
  4.2490   4.2640   4.2717   4.2776   4.2880   4.2944   4.2988   4.3029
  4.3199   4.3280   4.3371   4.3479   4.3487   4.3514   4.3586   4.3689
  4.3717   4.3776   4.3791   4.3942   4.4068   4.4094   4.4125   4.4169
  4.4220   4.4240   4.4313   4.4383   4.4444   4.4455   4.4557   4.4651
  4.4667   4.4782   4.4871   4.4927   4.5011   4.5152   4.5179   4.5228
  4.5319   4.5448   4.5531   4.5580   4.5693   4.5702   4.5808   4.5914
  4.6005   4.6095   4.6172   4.6187   4.6332   4.6407   4.6453   4.6492
  4.6601   4.6671   4.6702   4.6836   4.6932   4.7129   4.7135   4.7302
  4.7350   4.7465   4.7625   4.7796   4.7883   4.7946   4.8057   4.8079
  4.8226   4.8379   4.8420   4.8447   4.8583   4.8717   4.8856   4.8965
  4.9194   4.9380   4.9465   4.9473   4.9598   4.9639   4.9661   4.9816
  4.9900   5.0021   5.0076   5.0131   5.0171   5.0406   5.0481   5.0658
  5.0822   5.0853   5.1071   5.1266   5.1314   5.1529   5.1611   5.1704
  5.1826   5.1925   5.2008   5.2146   5.2214   5.2330   5.2368   5.2554
  5.2601   5.2638   5.2892   5.2897   5.3122   5.3157   5.3233   5.3331
  5.3408   5.3526   5.3562   5.3589   5.3748   5.3860   5.3978   5.3999
  5.4035   5.4127   5.4197   5.4403   5.4708   5.4739   5.4799   5.5002
  5.5088   5.5162   5.5195   5.5466   5.5603   5.5689   5.5795   5.5850
  5.5999   5.6096   5.6184   5.6206   5.6376   5.6506   5.6829   5.6872
  5.7300   5.7435   5.7672   5.7914   5.8025   5.8278   5.8444   5.8582
  5.8753   5.8938   5.9078   5.9489   5.9722   5.9793   5.9929   6.0151
  6.0451   6.0745   6.1256   6.1293   6.1348   6.1601   6.1762   6.1813
  6.1877   6.2106   6.2220   6.2491   6.2619   6.2749   6.2926   6.3052
  6.3102   6.3544   6.3855   6.4449   6.4771   6.4997   6.5487   6.5537
  6.5585   6.5883   6.6449   6.6792   6.6919   6.7222   6.7477   6.7663
  6.8090   6.8619   6.8634   6.8873   6.9006   6.9955   7.1317   7.1457
  7.1802   7.2141   7.2212   7.2390   7.3270   7.3293   7.3417   7.3720
  7.3826   7.4339   7.4644   7.4846   7.4858   7.4964   7.5291   7.5532
  7.6298   7.7434   7.7688   7.8021   7.8342   7.9170   7.9259   7.9558
  8.0135   8.1291   8.4178   8.7182   8.9441   9.0376   9.3649   9.5133
  9.7353  10.4008  11.3012  11.4531  11.8889  11.9642  12.1264  12.4261
 12.4456  12.5086  12.7149  12.9527  13.0330  13.2273  13.4897  13.6213
 13.7576  13.8935  13.9343  14.0300  14.2914  14.4935  15.0782  15.2410
 --------------------------------------------------------------
 
          Ground-State Mulliken Net Atomic Charges

     Atom                 Charge (a.u.)
  ----------------------------------------
      1 C                    -0.071249
      2 C                    -0.238219
      3 S                    -0.128849
      4 C                    -0.054140
      5 H                     0.196488
      6 C                    -0.046058
      7 C                     0.218032
      8 C                     0.237309
      9 C                    -0.078596
     10 C                    -0.009215
     11 O                    -0.334005
     12 O                    -0.343921
     13 C                    -0.082755
     14 H                     0.120242
     15 H                     0.092038
     16 H                     0.093157
     17 C                    -0.090147
     18 H                     0.124992
     19 H                     0.092772
     20 H                     0.093558
     21 C                    -0.355139
     22 S                    -0.094119
     23 C                     0.159980
     24 H                     0.195630
     25 C                    -0.004827
     26 S                     0.077572
     27 C                    -0.273524
     28 C                    -0.144993
     29 C                    -0.016090
     30 C                     0.389204
     31 C                    -0.147386
     32 S                     0.027331
     33 C                     0.461355
     34 O                    -0.456760
     35 O                    -0.298781
     36 F                    -0.208736
     37 C                    -0.055164
     38 H                     0.116284
     39 H                     0.084055
     40 H                     0.083752
     41 H                     0.213719
     42 H                     0.120367
     43 H                     0.118206
     44 H                     0.216629
  ----------------------------------------
  Sum of atomic charges =     0.000000

 -----------------------------------------------------------------
                    Cartesian Multipole Moments
 -----------------------------------------------------------------
    Charge (ESU x 10^10)
                -0.0000
    Dipole Moment (Debye)
         X       1.1524      Y       0.8921      Z       3.0645
       Tot       3.3934
    Quadrupole Moments (Debye-Ang)
        XX    -196.8820     XY       1.6666     YY    -165.3874
        XZ      -9.6503     YZ      -4.9399     ZZ    -193.3309
    Octopole Moments (Debye-Ang^2)
       XXX     -73.1068    XXY     371.5025    XYY     -14.9028
       YYY     914.0474    XXZ     164.2343    XYZ      30.1350
       YYZ      81.6371    XZZ      -9.0245    YZZ     431.1555
       ZZZ     516.4787
    Hexadecapole Moments (Debye-Ang^3)
      XXXX    -499.8718   XXXY    -426.3204   XXYY   -3798.9988
      XYYY    -368.2542   YYYY  -19057.0598   XXXZ     534.9070
      XXYZ     631.9163   XYYZ     -43.3751   YYYZ    2008.2878
      XXZZ   -1373.2008   XYZZ     -24.3242   YYZZ   -4328.7710
      XZZZ     286.7378   YZZZ    1248.7511   ZZZZ   -7622.5016
 -----------------------------------------------------------------
 Total job time:  330.70s(wall), 10529.70s(cpu) 
 Sun Sep 24 16:33:06 2023

        *************************************************************
        *                                                           *
        *  Thank you very much for using Q-Chem.  Have a nice day.  *
        *                                                           *
        *************************************************************


0 sent ACK to 0 
now end server 0 ... 
cleanup process ... done
remove work dirs ./qchem3485516.0 -- ./qchem3485516.0
rm -rf ./qchem3485516.0
rm -rf ./qchem3485516
