You are running Q-Chem version: 5.4.0

#
# job setting
#
local host:  exp-6-02
current dir: /expanse/lustre/projects/csd626/rramji/aromodel/PTB7_fin/Hydrogenated_Rotation_Test
input file:  fin_bdt_Phi_15_Theta_60_fin_ftt_Hydrogenated.qcin
output file: 
nprocs     : 1
nthreads   : 64
#
# qchem installation setting
#
QC:          /cm/shared/apps/spack/cpu/opt/spack/linux-centos8-zen2/gcc-10.2.0/qchem-5.4-akfmr7b3t57bfs6qan3padb2wnb2i7cl
QCAUX:       /cm/shared/apps/spack/cpu/opt/spack/linux-centos8-zen2/gcc-10.2.0/qchem-5.4-akfmr7b3t57bfs6qan3padb2wnb2i7cl/qcaux
QCPROG:      /cm/shared/apps/spack/cpu/opt/spack/linux-centos8-zen2/gcc-10.2.0/qchem-5.4-akfmr7b3t57bfs6qan3padb2wnb2i7cl/exe/qcprog.exe
QCPROG_S:    /cm/shared/apps/spack/cpu/opt/spack/linux-centos8-zen2/gcc-10.2.0/qchem-5.4-akfmr7b3t57bfs6qan3padb2wnb2i7cl/exe/qcprog.exe_s
PARALLEL:    -DPARALLEL
QCMPI:       mpich
#
# qchem directory setting
#
qcrun:       qchem400593
QCSCRATCH:   .
QCLOCALSCR:  
QCTMPDIR:    .
QCFILEPREF:  ./qchem400593
QCSAVEDIR:   
workdirs:    ./qchem400593
workdir0:    ./qchem400593
partmpdirs =  
#
# parallel setting
#
QCRSH:           ssh
QCMPI:           mpich
QCMPIRUN:        /cm/shared/apps/spack/cpu/opt/spack/linux-centos8-zen2/gcc-10.2.0/qchem-5.4-akfmr7b3t57bfs6qan3padb2wnb2i7cl/bin/mpi/mpirun_qchem
QCMACHINEFILE:   ./qchem400593/hostfile
exp-6-02

#
# env setting
#
exported envs:   QC QCAUX QCSCRATCH QCRUNNAME QCFILEPREF QCPROG QCPROG_S GUIFILE

Running Job 1 of 1 fin_bdt_Phi_15_Theta_60_fin_ftt_Hydrogenated.qcin
qchem fin_bdt_Phi_15_Theta_60_fin_ftt_Hydrogenated.qcin_400593.0 ./qchem400593/ 1
/cm/shared/apps/spack/cpu/opt/spack/linux-centos8-zen2/gcc-10.2.0/qchem-5.4-akfmr7b3t57bfs6qan3padb2wnb2i7cl/bin/mpi/mpirun_qchem -machinefile ./qchem400593/hostfile -np 1 /cm/shared/apps/spack/cpu/opt/spack/linux-centos8-zen2/gcc-10.2.0/qchem-5.4-akfmr7b3t57bfs6qan3padb2wnb2i7cl/exe/qcprog.exe fin_bdt_Phi_15_Theta_60_fin_ftt_Hydrogenated.qcin_400593.0 ./qchem400593/

Process 0 of 1 is on exp-6-02 - thread support 0
initial socket setup ...start
initial socket setup ...done 
now start server 0 ... 
                  Welcome to Q-Chem
     A Quantum Leap Into The Future Of Chemistry


 Q-Chem 5.4, Q-Chem, Inc., Pleasanton, CA (2021)

 License issued to: University of California, San Diego (site)

 E. Epifanovsky,  A. T. B. Gilbert,  Xintian Feng,  Joonho Lee,  Yuezhi Mao,  
 N. Mardirossian,  P. Pokhilko,  A. White,  M. Wormit,  M. P. Coons,  
 A. L. Dempwolff,  Zhengting Gan,  D. Hait,  P. R. Horn,  L. D. Jacobson,  
 I. Kaliman,  J. Kussmann,  A. W. Lange,  Ka Un Lao,  D. S. Levine,  Jie Liu,  
 S. C. McKenzie,  A. F. Morrison,  K. Nanda,  F. Plasser,  D. R. Rehn,  
 M. L. Vidal,  Zhi-Qiang You,  Ying Zhu,  B. Alam,  B. Albrecht,  
 A. Aldossary,  E. Alguire,  J. H. Andersen,  D. Barton,  K. Begam,  A. Behn,  
 Y. A. Bernard,  E. J. Berquist,  H. Burton,  A. Carreras,  K. Carter-Fenk,  
 R. Chakraborty,  A. D. Chien,  K. D. Closser,  V. Cofer-Shabica,  
 S. Dasgupta,  Jia Deng,  M. de Wergifosse,  M. Diedenhofen,  Hainam Do,  
 S. Ehlert,  Po-Tung Fang,  S. Fatehi,  Qingguo Feng,  J. Gayvert,  
 Qinghui Ge,  G. Gidofalvi,  M. Goldey,  J. Gomes,  C. Gonzalez-Espinoza,  
 S. Gulania,  A. Gunina,  M. W. D. Hanson-Heine,  P. H. P. Harbach,  
 A. W. Hauser,  M. F. Herbst,  M. Hernandez Vera,  M. Hodecker,  
 Z. C. Holden,  S. Houck,  Xunkun Huang,  Kerwin Hui,  B. C. Huynh,  
 M. Ivanov,  Hyunjun Ji,  Hanjie Jiang,  B. Kaduk,  S. Kaehler,  
 K. Khistyaev,  Jaehoon Kim,  P. Klunzinger,  Z. Koczor-Benda,  
 Joong Hoon Koh,  D. Kosenkov,  L. Koulias,  T. Kowalczyk,  C. M. Krauter,  
 K. Kue,  A. Kunitsa,  T. Kus,  A. Landau,  K. V. Lawler,  D. Lefrancois,  
 S. Lehtola,  Rain Li,  Yi-Pei Li,  Jiashu Liang,  M. Liebenthal,  
 Hung-Hsuan Lin,  You-Sheng Lin,  Fenglai Liu,  Kuan-Yu Liu,  
 M. Loipersberger,  A. Luenser,  A. Manjanath,  P. Manohar,  E. Mansoor,  
 S. F. Manzer,  Shan-Ping Mao,  A. V. Marenich,  T. Markovich,  S. Mason,  
 S. A. Maurer,  P. F. McLaughlin,  M. F. S. J. Menger,  J.-M. Mewes,  
 S. A. Mewes,  P. Morgante,  J. W. Mullinax,  T. S. Nguyen-Beck,  
 K. J. Oosterbaan,  G. Paran,  Alexander C. Paul,  Suranjan K. Paul,  
 F. Pavosevic,  Zheng Pei,  S. Prager,  E. I. Proynov,  E. Ramos,  B. Rana,  
 A. E. Rask,  A. Rettig,  R. M. Richard,  F. Rob,  E. Rossomme,  T. Scheele,  
 M. Scheurer,  M. Schneider,  N. Sergueev,  S. M. Sharada,  W. Skomorowski,  
 D. W. Small,  C. J. Stein,  Yu-Chuan Su,  E. J. Sundstrom,  Zhen Tao,  
 J. Thirman,  T. Tsuchimochi,  N. M. Tubman,  S. P. Veccham,  O. Vydrov,  
 J. Wenzel,  J. Witte,  A. Yamada,  Kun Yao,  S. Yeganeh,  S. R. Yost,  
 A. Zech,  Igor Ying Zhang,  Xing Zhang,  Yu Zhang,  D. Zuev,  
 A. Aspuru-Guzik,  A. T. Bell,  N. A. Besley,  K. B. Bravaya,  B. R. Brooks,  
 D. Casanova,  Jeng-Da Chai,  S. Coriani,  C. J. Cramer,  
 A. E. DePrince, III,  R. A. DiStasio Jr.,  A. Dreuw,  B. D. Dunietz,  
 T. R. Furlani,  W. A. Goddard III,  S. Grimme,  S. Hammes-Schiffer,  
 T. Head-Gordon,  W. J. Hehre,  Chao-Ping Hsu,  T.-C. Jagau,  Yousung Jung,  
 A. Klamt,  Jing Kong,  D. S. Lambrecht,  WanZhen Liang,  N. J. Mayhall,  
 C. W. McCurdy,  J. B. Neaton,  C. Ochsenfeld,  J. A. Parkhill,  R. Peverati,  
 V. A. Rassolov,  Yihan Shao,  L. V. Slipchenko,  T. Stauch,  R. P. Steele,  
 J. E. Subotnik,  A. J. W. Thom,  A. Tkatchenko,  D. G. Truhlar,  
 T. Van Voorhis,  T. A. Wesolowski,  K. B. Whaley,  H. L. Woodcock III,  
 P. M. Zimmerman,  S. Faraji,  P. M. W. Gill,  M. Head-Gordon,  
 J. M. Herbert,  A. I. Krylov

 Contributors to earlier versions of Q-Chem not listed above: 
 R. D. Adamson,  B. Austin,  R. Baer,  J. Baker,  G. J. O. Beran,  
 K. Brandhorst,  S. T. Brown,  E. F. C. Byrd,  A. K. Chakraborty,  
 G. K. L. Chan,  Chun-Min Chang,  Yunqing Chen,  C.-L. Cheng,  
 Siu Hung Chien,  D. M. Chipman,  D. L. Crittenden,  H. Dachsel,  
 R. J. Doerksen,  A. D. Dutoi,  R. G. Edgar,  J. Fosso-Tande,  
 L. Fusti-Molnar,  D. Ghosh,  A. Ghysels,  A. Golubeva-Zadorozhnaya,  
 J. Gonthier,  M. S. Gordon,  S. R. Gwaltney,  G. Hawkins,  J. E. Herr,  
 A. Heyden,  S. Hirata,  E. G. Hohenstein,  G. Kedziora,  F. J. Keil,  
 C. Kelley,  Jihan Kim,  R. A. King,  R. Z. Khaliullin,  P. P. Korambath,  
 W. Kurlancheek,  A. Laurent,  A. M. Lee,  M. S. Lee,  S. V. Levchenko,  
 Ching Yeh Lin,  D. Liotard,  E. Livshits,  R. C. Lochan,  I. Lotan,  
 L. A. Martinez-Martinez,  P. E. Maslen,  N. Nair,  D. P. O'Neill,  
 D. Neuhauser,  E. Neuscamman,  C. M. Oana,  R. Olivares-Amaya,  R. Olson,  
 T. M. Perrine,  B. Peters,  P. A. Pieniazek,  A. Prociuk,  Y. M. Rhee,  
 J. Ritchie,  M. A. Rohrdanz,  E. Rosta,  N. J. Russ,  H. F. Schaefer III,  
 M. W. Schmidt,  N. E. Schultz,  S. Sharma,  N. Shenvi,  C. D. Sherrill,  
 A. C. Simmonett,  A. Sodt,  T. Stein,  D. Stuck,  K. S. Thanthiriwatte,  
 V. Vanovschi,  L. Vogt,  Tao Wang,  A. Warshel,  M. A. Watson,  
 C. F. Williams,  Q. Wu,  X. Xu,  Jun Yang,  W. Zhang,  Yan Zhao

 Please cite Q-Chem as follows:
 Y. Shao et al., Mol. Phys. 113, 184-215 (2015)
 DOI: 10.1080/00268976.2014.952696

 Q-Chem 5.4.0 for Intel X86 EM64T Linux

 Parts of Q-Chem use Armadillo 9.800.1 (Horizon Scraper).
 http://arma.sourceforge.net/

 Q-Chem begins on Tue Sep 26 17:47:22 2023  

 Host: 
0

     Scratch files written to ./qchem400593//
 May1621 |scratch|qcdevops|jenkins|workspace|build_RNUM    
 Parallel job on  1  processors
 Processing $rem in /cm/shared/apps/spack/cpu/opt/spack/linux-centos8-zen2/gcc-10.2.0/qchem-5.4-akfmr7b3t57bfs6qan3padb2wnb2i7cl/config/preferences:
 Processing $rem in /home/rramji/.qchemrc:
 Symmetry turned off for PCM/SM12/SMD calculation
 Core orbitals will be frozen

 Checking the input file for inconsistencies... 	...done.

 Q-Chem warning in module forms1/BasisType.C, line 2236:

 You are not using the predefined 5D/6D in this basis set.


--------------------------------------------------------------
User input:
--------------------------------------------------------------
$molecule
0 1
C	-0.255929	-8.519741	0.092419
C	0.666007	-7.635967	-0.449364
S	-1.592708	-7.651740	0.885736
C	0.332317	-6.261894	-0.254813
H	1.571741	-7.954738	-0.980526
C	-0.904324	-6.079985	0.458965
C	-1.385968	-4.798382	0.767823
C	1.118303	-5.153542	-0.681909
C	0.638514	-3.869626	-0.369139
C	-0.600871	-3.688927	0.342916
O	2.248132	-5.481075	-1.368544
O	-2.520275	-4.479871	1.458570
C	-3.639637	-5.356026	1.405396
H	-4.495304	-4.790496	1.820940
H	-3.490336	-6.268513	2.023129
H	-3.873314	-5.658187	0.361595
C	3.314934	-4.546999	-1.480048
H	4.171837	-5.107564	-1.899255
H	3.601473	-4.131473	-0.490123
H	3.068969	-3.712085	-2.171521
C	-0.930308	-2.314326	0.537642
S	1.334769	-2.295487	-0.785807
C	0.000000	-1.435180	0.000000
H	-1.836691	-1.993211	1.066134
C	0.000000	0.000000	0.000000
S	0.234946	0.868203	1.510732
C	0.641630	2.390125	0.727629
C	0.235036	0.877284	-1.064665
C	0.593019	2.219143	-0.678287
C	0.219452	0.812732	-2.486150
C	0.546689	2.034501	-3.106916
S	0.866345	3.240357	-1.965735
C	0.617067	2.279095	-4.559972
O	0.378342	1.376631	-5.350277
O	0.952308	3.517725	-5.004375
F	-0.065123	-0.264443	-3.246290
C	1.054950	3.861577	-6.334976
H	1.341516	4.928732	-6.370268
H	0.093573	3.716085	-6.875609
H	1.822303	3.252232	-6.861878
H	0.879812	3.278780	1.321510
H	0.202590	-9.146471	0.866272
H	-0.707539	-9.150570	-0.682165
H	0.547293	-1.444158	0.931016
$end

$rem
JOBTYPE		SP
EXCHANGE	HF
CORRELATION	pRIMP2
BASIS		cc-pvtz
METHOD		rimp2
AUX_BASIS	rimp2-cc-pvtz
SOLVENT_METHOD	PCM
PURECART	11111
SYMMETRY	false
MEM_TOTAL	110000
SCF_CONVERGENCE = 6
THRESH=10
GUI = 2
$end



$solvent
dielectric 4.90
$end
--------------------------------------------------------------
 ----------------------------------------------------------------
             Standard Nuclear Orientation (Angstroms)
    I     Atom           X                Y                Z
 ----------------------------------------------------------------
    1      C      -0.2559290000    -8.5197410000     0.0924190000
    2      C       0.6660070000    -7.6359670000    -0.4493640000
    3      S      -1.5927080000    -7.6517400000     0.8857360000
    4      C       0.3323170000    -6.2618940000    -0.2548130000
    5      H       1.5717410000    -7.9547380000    -0.9805260000
    6      C      -0.9043240000    -6.0799850000     0.4589650000
    7      C      -1.3859680000    -4.7983820000     0.7678230000
    8      C       1.1183030000    -5.1535420000    -0.6819090000
    9      C       0.6385140000    -3.8696260000    -0.3691390000
   10      C      -0.6008710000    -3.6889270000     0.3429160000
   11      O       2.2481320000    -5.4810750000    -1.3685440000
   12      O      -2.5202750000    -4.4798710000     1.4585700000
   13      C      -3.6396370000    -5.3560260000     1.4053960000
   14      H      -4.4953040000    -4.7904960000     1.8209400000
   15      H      -3.4903360000    -6.2685130000     2.0231290000
   16      H      -3.8733140000    -5.6581870000     0.3615950000
   17      C       3.3149340000    -4.5469990000    -1.4800480000
   18      H       4.1718370000    -5.1075640000    -1.8992550000
   19      H       3.6014730000    -4.1314730000    -0.4901230000
   20      H       3.0689690000    -3.7120850000    -2.1715210000
   21      C      -0.9303080000    -2.3143260000     0.5376420000
   22      S       1.3347690000    -2.2954870000    -0.7858070000
   23      C       0.0000000000    -1.4351800000     0.0000000000
   24      H      -1.8366910000    -1.9932110000     1.0661340000
   25      C       0.0000000000     0.0000000000     0.0000000000
   26      S       0.2349460000     0.8682030000     1.5107320000
   27      C       0.6416300000     2.3901250000     0.7276290000
   28      C       0.2350360000     0.8772840000    -1.0646650000
   29      C       0.5930190000     2.2191430000    -0.6782870000
   30      C       0.2194520000     0.8127320000    -2.4861500000
   31      C       0.5466890000     2.0345010000    -3.1069160000
   32      S       0.8663450000     3.2403570000    -1.9657350000
   33      C       0.6170670000     2.2790950000    -4.5599720000
   34      O       0.3783420000     1.3766310000    -5.3502770000
   35      O       0.9523080000     3.5177250000    -5.0043750000
   36      F      -0.0651230000    -0.2644430000    -3.2462900000
   37      C       1.0549500000     3.8615770000    -6.3349760000
   38      H       1.3415160000     4.9287320000    -6.3702680000
   39      H       0.0935730000     3.7160850000    -6.8756090000
   40      H       1.8223030000     3.2522320000    -6.8618780000
   41      H       0.8798120000     3.2787800000     1.3215100000
   42      H       0.2025900000    -9.1464710000     0.8662720000
   43      H      -0.7075390000    -9.1505700000    -0.6821650000
   44      H       0.5472930000    -1.4441580000     0.9310160000
 ----------------------------------------------------------------
 Nuclear Repulsion Energy =        3368.28692340 hartrees
 There are      120 alpha and      120 beta electrons
 Requested basis set is cc-pVTZ
 There are 388 shells and 1096 basis functions

 Total QAlloc Memory Limit 110000 MB
 Mega-Array Size       188 MB
 MEM_STATIC part       192 MB
 Discretize the solute cavity surface with Lebedev spheres
	Using 110 Lebedev grid points for each H atom
	Using 194 Lebedev grid points for other atoms
	Atomic van der Waals radii will be scaled by 1.20
 Remove points where switching function is < 1.0e-08
 Keep 2960 surface tesserae and discard 4316 interior tesserae
 Molecular Surface Area = 441.419 Angst**2
 Requested basis set is rimp2-cc-pVTZ
 There are 853 shells and 2963 basis functions
 A cutoff of  1.0D-10 yielded  33306 shell pairs
 There are    251522 function pairs (    325438 Cartesian)
 Smallest overlap matrix eigenvalue = 2.16E-05

 Scale SEOQF with 1.000000e-01/1.000000e-02/1.000000e-02

 Standard Electronic Orientation quadrupole field applied
 Nucleus-field energy     =     0.0000000344 hartrees
 Guess from superposition of atomic densities
 Warning:  Energy on first SCF cycle will be non-variational
 SAD guess density has 240.000000 electrons

 -----------------------------------------------------------------------
  General SCF calculation program by
  Eric Jon Sundstrom, Paul Horn, Yuezhi Mao, Dmitri Zuev, Alec White,
  David Stuck, Shaama M.S., Shane Yost, Joonho Lee, David Small,
  Daniel Levine, Susi Lehtola, Hugh Burton, Evgeny Epifanovsky,
  Bang C. Huynh
 -----------------------------------------------------------------------
 Hartree-Fock
 using 64 threads for integral computing
 -------------------------------------------------------
 OpenMP Integral computing Module                
 Release: version 1.0, May 2013, Q-Chem Inc. Pittsburgh 
 -------------------------------------------------------
 A restricted SCF calculation will be
 performed using DIIS
 SCF converges when DIIS error is below 1.0e-06
 ---------------------------------------
  Cycle       Energy         DIIS error
 ---------------------------------------
    1   -2767.3509242595      1.77e-02  
    2   -2754.8658401075      1.55e-03  
    3   -2755.2158787987      8.77e-04  
    4   -2755.3061823866      2.55e-04  
    5   -2755.3197938910      7.27e-05  
    6   -2755.3213141622      2.61e-05  
    7   -2755.3217187376      1.37e-05  
    8   -2755.3218499031      5.88e-06  
    9   -2755.3218822236      3.17e-06  
   10   -2755.3218904959      1.53e-06  
   11   -2755.3218931297      8.05e-07  Convergence criterion met
 ---------------------------------------
 SCF time:   CPU 7432.35s  wall 273.00s 

************** Final PCM Free Energy Summary **************
 G_electrostatic  =      -0.02277033 hartree =     -14.28860071 kcal/mol
 G_cavitation     =       0.00000000 hartree =       0.00000000 kcal/mol
 G_dispersion     =       0.00000000 hartree =       0.00000000 kcal/mol
 G_repulsion      =       0.00000000 hartree =       0.00000000 kcal/mol
 --------------------------------------------------
 Non-electrostatic Free Energy =       0.00000000 hartree =       0.00000000 kcal/mol
 Total                         =      -0.02277033 hartree =     -14.28860071 kcal/mol
 --------------------------------------------------
 SCF Energy (H0 + V/2)                       =   -2755.32189313 
 Solute Internal Energy (H0)                 =   -2755.29912279 
 Total Free Energy (H0 + V/2 + non-elec)     =   -2755.32189313 hartree
                                             = -1728990.58359254 kcal/mol
***********************************************************

 SCF   energy in the final basis set =    -2755.3218931297
 Total energy in the final basis set =    -2755.3218931297


 --------------------------------------------------------------
  Generalized many-body perturbation theory program
  by Joonho Lee, Fazle Rob, Xintian Feng, Evgeny Epifanovsky

 No regularization used 
 (reg. param. = 0.0000e+00)
  (P|Q)^-1/2 Time:  CPU 179.91 s  wall 3.13 s

 In RI-MP2 calculation: 
 # of frozen core orbitals: 45

 Components of the RIMP2 correlation energy:
        aaaa    correlation energy =        -0.6698439294 a.u.
        abab    correlation energy =        -3.7511790184 a.u.
        bbbb    correlation energy =        -0.6698439294 a.u.
        non-Brillouin singles      =        -0.0000000000 a.u.
        total same-spin energy     =        -1.3396878588 a.u.
        total opposite-spin energy =        -3.7511790184 a.u.

 Total  RIMP2   correlation energy =        -5.0908668772 a.u.
        RIMP2         total energy =     -2760.4127600069 a.u.

 RI-MP2 Energy Time:  CPU 2930.88 s  wall 47.60 s
 
 --------------------------------------------------------------
 
                    Orbital Energies (a.u.)
 --------------------------------------------------------------
 
 Alpha MOs
 -- Occupied --
-92.0166 -91.9949 -91.9785 -91.9581 -26.3347 -20.6125 -20.5873 -20.5866
-20.5506 -11.4108 -11.3782 -11.3148 -11.3090 -11.3072 -11.2984 -11.2975
-11.2949 -11.2887 -11.2841 -11.2831 -11.2828 -11.2817 -11.2816 -11.2728
-11.2726 -11.2581 -11.2578 -11.2495 -11.2366  -9.0153  -8.9990  -8.9806
 -8.9607  -6.6961  -6.6955  -6.6949  -6.6803  -6.6796  -6.6782  -6.6617
 -6.6608  -6.6595  -6.6419  -6.6410  -6.6400  -1.6477  -1.4722  -1.4102
 -1.4089  -1.3676  -1.2388  -1.2093  -1.1755  -1.1442  -1.0992  -1.0506
 -1.0457  -1.0314  -1.0083  -0.9978  -0.9725  -0.9597  -0.9485  -0.9406
 -0.8934  -0.8713  -0.8644  -0.8100  -0.7926  -0.7853  -0.7763  -0.7727
 -0.7655  -0.7331  -0.7210  -0.7159  -0.6969  -0.6925  -0.6821  -0.6788
 -0.6721  -0.6656  -0.6563  -0.6485  -0.6362  -0.6286  -0.6199  -0.6148
 -0.6109  -0.6068  -0.5958  -0.5929  -0.5817  -0.5643  -0.5626  -0.5569
 -0.5491  -0.5345  -0.5280  -0.5215  -0.5127  -0.5076  -0.5033  -0.5016
 -0.4868  -0.4850  -0.4773  -0.4698  -0.4618  -0.4616  -0.4611  -0.4466
 -0.4251  -0.4021  -0.3857  -0.3705  -0.3514  -0.2930  -0.2876  -0.2194
 -- Virtual --
  0.0261   0.0544   0.1110   0.1266   0.1389   0.1473   0.1539   0.1553
  0.1575   0.1591   0.1657   0.1769   0.1814   0.1865   0.1894   0.1973
  0.2016   0.2036   0.2055   0.2073   0.2168   0.2208   0.2235   0.2277
  0.2307   0.2339   0.2376   0.2444   0.2531   0.2584   0.2667   0.2726
  0.2782   0.2829   0.3079   0.3211   0.3248   0.3304   0.3406   0.3449
  0.3531   0.3579   0.3596   0.3626   0.3708   0.3758   0.3804   0.3833
  0.3875   0.3927   0.3957   0.4005   0.4044   0.4097   0.4143   0.4177
  0.4200   0.4273   0.4310   0.4328   0.4386   0.4441   0.4463   0.4519
  0.4535   0.4594   0.4671   0.4710   0.4755   0.4765   0.4776   0.4819
  0.4871   0.4918   0.5003   0.5039   0.5078   0.5115   0.5172   0.5190
  0.5213   0.5265   0.5325   0.5364   0.5423   0.5464   0.5502   0.5518
  0.5540   0.5552   0.5597   0.5624   0.5677   0.5745   0.5773   0.5809
  0.5880   0.5897   0.5903   0.5925   0.5977   0.6025   0.6040   0.6072
  0.6101   0.6164   0.6178   0.6186   0.6212   0.6255   0.6274   0.6361
  0.6365   0.6377   0.6419   0.6425   0.6480   0.6489   0.6551   0.6616
  0.6648   0.6660   0.6736   0.6751   0.6809   0.6887   0.6927   0.6969
  0.6985   0.7052   0.7100   0.7157   0.7169   0.7204   0.7308   0.7412
  0.7449   0.7544   0.7609   0.7655   0.7672   0.7744   0.7852   0.7884
  0.7911   0.7953   0.7994   0.8045   0.8099   0.8150   0.8162   0.8226
  0.8293   0.8345   0.8387   0.8522   0.8617   0.8644   0.8740   0.8758
  0.8887   0.8939   0.8987   0.8990   0.9021   0.9085   0.9112   0.9191
  0.9215   0.9276   0.9320   0.9365   0.9414   0.9450   0.9484   0.9532
  0.9602   0.9658   0.9729   0.9775   0.9812   0.9842   0.9872   0.9932
  0.9981   1.0024   1.0038   1.0115   1.0137   1.0167   1.0281   1.0326
  1.0358   1.0405   1.0460   1.0502   1.0518   1.0603   1.0658   1.0679
  1.0726   1.0752   1.0796   1.0889   1.0962   1.0990   1.1016   1.1047
  1.1103   1.1148   1.1239   1.1263   1.1351   1.1421   1.1482   1.1517
  1.1536   1.1596   1.1629   1.1663   1.1725   1.1743   1.1781   1.1841
  1.1852   1.1915   1.1926   1.1967   1.2002   1.2063   1.2102   1.2188
  1.2247   1.2274   1.2363   1.2427   1.2462   1.2470   1.2489   1.2589
  1.2656   1.2676   1.2732   1.2803   1.2849   1.2894   1.2911   1.2975
  1.3053   1.3105   1.3200   1.3264   1.3278   1.3334   1.3382   1.3428
  1.3457   1.3503   1.3570   1.3730   1.3783   1.3859   1.3987   1.4032
  1.4061   1.4140   1.4165   1.4249   1.4311   1.4394   1.4444   1.4542
  1.4607   1.4667   1.4733   1.4830   1.4869   1.4893   1.4944   1.5016
  1.5055   1.5101   1.5130   1.5161   1.5229   1.5276   1.5360   1.5415
  1.5429   1.5449   1.5485   1.5531   1.5611   1.5655   1.5701   1.5729
  1.5872   1.5912   1.6025   1.6114   1.6121   1.6195   1.6226   1.6409
  1.6488   1.6569   1.6599   1.6642   1.6730   1.6749   1.6841   1.6864
  1.6946   1.6976   1.7094   1.7139   1.7232   1.7280   1.7378   1.7447
  1.7555   1.7632   1.7654   1.7754   1.7810   1.7995   1.8050   1.8174
  1.8242   1.8275   1.8340   1.8419   1.8522   1.8614   1.8677   1.8733
  1.8740   1.8823   1.8894   1.9109   1.9166   1.9210   1.9304   1.9370
  1.9385   1.9501   1.9550   1.9715   1.9736   1.9871   1.9925   2.0032
  2.0105   2.0148   2.0249   2.0335   2.0406   2.0443   2.0492   2.0551
  2.0714   2.0735   2.0841   2.0942   2.1025   2.1215   2.1320   2.1405
  2.1456   2.1490   2.1504   2.1559   2.1739   2.1766   2.1846   2.1927
  2.1948   2.2035   2.2138   2.2216   2.2268   2.2291   2.2380   2.2460
  2.2486   2.2573   2.2671   2.2759   2.2833   2.2887   2.2995   2.3059
  2.3143   2.3147   2.3278   2.3312   2.3338   2.3495   2.3598   2.3672
  2.3731   2.3836   2.3980   2.4043   2.4094   2.4160   2.4190   2.4213
  2.4392   2.4505   2.4627   2.4647   2.4783   2.4798   2.4936   2.5048
  2.5125   2.5157   2.5290   2.5335   2.5427   2.5595   2.5653   2.5695
  2.5874   2.5894   2.5950   2.6044   2.6150   2.6166   2.6236   2.6275
  2.6357   2.6394   2.6420   2.6485   2.6523   2.6608   2.6703   2.6732
  2.6796   2.6895   2.6905   2.6924   2.6991   2.7095   2.7161   2.7219
  2.7264   2.7362   2.7384   2.7435   2.7462   2.7485   2.7649   2.7694
  2.7752   2.7783   2.7946   2.8011   2.8040   2.8153   2.8193   2.8338
  2.8398   2.8492   2.8567   2.8588   2.8609   2.8715   2.8771   2.8813
  2.8860   2.8923   2.8997   2.9045   2.9185   2.9273   2.9420   2.9466
  2.9502   2.9569   2.9611   2.9719   2.9807   2.9886   2.9915   2.9987
  3.0086   3.0171   3.0214   3.0366   3.0399   3.0428   3.0447   3.0489
  3.0530   3.0669   3.0701   3.0799   3.0871   3.0904   3.0993   3.1062
  3.1091   3.1139   3.1175   3.1255   3.1336   3.1386   3.1387   3.1450
  3.1491   3.1556   3.1604   3.1642   3.1671   3.1719   3.1774   3.1842
  3.1867   3.1890   3.2029   3.2070   3.2122   3.2165   3.2183   3.2219
  3.2234   3.2301   3.2460   3.2492   3.2543   3.2564   3.2608   3.2652
  3.2707   3.2739   3.2821   3.2853   3.2871   3.2892   3.2963   3.3003
  3.3072   3.3078   3.3184   3.3218   3.3296   3.3337   3.3388   3.3441
  3.3485   3.3492   3.3524   3.3572   3.3608   3.3648   3.3673   3.3684
  3.3730   3.3743   3.3876   3.3906   3.3934   3.3997   3.4034   3.4060
  3.4153   3.4215   3.4225   3.4289   3.4305   3.4355   3.4418   3.4488
  3.4511   3.4540   3.4595   3.4668   3.4720   3.4759   3.4826   3.4881
  3.4909   3.4990   3.5055   3.5091   3.5146   3.5259   3.5287   3.5359
  3.5435   3.5491   3.5533   3.5602   3.5679   3.5771   3.5797   3.5841
  3.5866   3.5918   3.5958   3.6002   3.6030   3.6051   3.6152   3.6232
  3.6261   3.6323   3.6364   3.6375   3.6428   3.6478   3.6567   3.6601
  3.6704   3.6717   3.6753   3.6791   3.6842   3.6870   3.6937   3.6968
  3.7010   3.7066   3.7103   3.7159   3.7170   3.7184   3.7261   3.7303
  3.7321   3.7414   3.7472   3.7512   3.7593   3.7647   3.7679   3.7774
  3.7805   3.7850   3.7903   3.7965   3.8014   3.8084   3.8139   3.8222
  3.8262   3.8317   3.8347   3.8448   3.8483   3.8523   3.8560   3.8587
  3.8657   3.8739   3.8763   3.8777   3.8884   3.8942   3.9083   3.9165
  3.9171   3.9230   3.9311   3.9369   3.9408   3.9517   3.9565   3.9620
  3.9670   3.9727   3.9794   3.9849   3.9922   4.0011   4.0090   4.0120
  4.0179   4.0205   4.0364   4.0412   4.0530   4.0583   4.0641   4.0704
  4.0727   4.0864   4.0916   4.0939   4.1013   4.1056   4.1127   4.1237
  4.1419   4.1529   4.1557   4.1587   4.1698   4.1710   4.1746   4.1788
  4.1846   4.1954   4.2012   4.2036   4.2126   4.2162   4.2273   4.2351
  4.2388   4.2488   4.2673   4.2724   4.2861   4.2912   4.3027   4.3107
  4.3158   4.3259   4.3319   4.3360   4.3461   4.3478   4.3602   4.3640
  4.3706   4.3768   4.3856   4.3868   4.3983   4.4044   4.4156   4.4183
  4.4209   4.4258   4.4279   4.4351   4.4365   4.4402   4.4490   4.4640
  4.4698   4.4745   4.4817   4.4925   4.5025   4.5149   4.5184   4.5224
  4.5282   4.5506   4.5535   4.5608   4.5667   4.5694   4.5759   4.5930
  4.5977   4.6075   4.6167   4.6204   4.6280   4.6363   4.6371   4.6420
  4.6591   4.6661   4.6671   4.6896   4.6960   4.7047   4.7151   4.7240
  4.7354   4.7377   4.7494   4.7710   4.7829   4.7841   4.8066   4.8113
  4.8194   4.8247   4.8306   4.8533   4.8619   4.8759   4.8809   4.8933
  4.9040   4.9203   4.9356   4.9396   4.9546   4.9596   4.9660   4.9762
  4.9952   5.0000   5.0118   5.0121   5.0226   5.0322   5.0456   5.0561
  5.0685   5.0910   5.1102   5.1216   5.1491   5.1574   5.1644   5.1814
  5.1869   5.1945   5.2034   5.2066   5.2142   5.2203   5.2340   5.2542
  5.2589   5.2621   5.2830   5.2908   5.2939   5.3170   5.3240   5.3266
  5.3372   5.3492   5.3550   5.3643   5.3689   5.3794   5.3881   5.3994
  5.4031   5.4093   5.4287   5.4443   5.4582   5.4729   5.4909   5.5032
  5.5115   5.5204   5.5274   5.5424   5.5635   5.5685   5.5723   5.5830
  5.5968   5.6101   5.6172   5.6273   5.6386   5.6584   5.6822   5.6915
  5.7102   5.7376   5.7650   5.7879   5.8005   5.8160   5.8477   5.8590
  5.8634   5.8823   5.9003   5.9154   5.9689   5.9694   5.9847   6.0061
  6.0416   6.0482   6.1197   6.1251   6.1334   6.1577   6.1719   6.1788
  6.1855   6.2070   6.2168   6.2492   6.2631   6.2741   6.2870   6.2983
  6.3083   6.3464   6.3670   6.4297   6.4704   6.4877   6.5338   6.5477
  6.5561   6.5703   6.6447   6.6764   6.6935   6.7165   6.7417   6.7446
  6.8073   6.8579   6.8600   6.8818   6.8986   6.9923   7.1309   7.1464
  7.1781   7.2115   7.2223   7.2394   7.3261   7.3270   7.3425   7.3730
  7.3764   7.4287   7.4622   7.4860   7.4868   7.4968   7.5216   7.5495
  7.6151   7.7404   7.7706   7.8031   7.8316   7.9113   7.9263   7.9564
  8.0052   8.1299   8.3584   8.6616   8.9303   9.0127   9.3645   9.5035
  9.6998  10.3401  11.2506  11.4481  11.9047  11.9548  12.1232  12.3725
 12.3860  12.4937  12.7028  12.9513  13.0076  13.1971  13.4800  13.5787
 13.7771  13.8837  13.9258  13.9883  14.2337  14.3333  14.8459  15.2026
 --------------------------------------------------------------
 
          Ground-State Mulliken Net Atomic Charges

     Atom                 Charge (a.u.)
  ----------------------------------------
      1 C                    -0.070033
      2 C                    -0.259992
      3 S                    -0.136041
      4 C                    -0.044794
      5 H                     0.193448
      6 C                    -0.049863
      7 C                     0.222442
      8 C                     0.224525
      9 C                    -0.072287
     10 C                    -0.033080
     11 O                    -0.334761
     12 O                    -0.343705
     13 C                    -0.082520
     14 H                     0.119806
     15 H                     0.091926
     16 H                     0.093300
     17 C                    -0.087313
     18 H                     0.123467
     19 H                     0.091906
     20 H                     0.091257
     21 C                    -0.288340
     22 S                    -0.076538
     23 C                     0.085896
     24 H                     0.203438
     25 C                    -0.045021
     26 S                     0.097916
     27 C                    -0.238943
     28 C                    -0.134461
     29 C                    -0.000726
     30 C                     0.398905
     31 C                    -0.152685
     32 S                     0.037620
     33 C                     0.460984
     34 O                    -0.448956
     35 O                    -0.297824
     36 F                    -0.211022
     37 C                    -0.054999
     38 H                     0.116607
     39 H                     0.084782
     40 H                     0.084621
     41 H                     0.215719
     42 H                     0.117214
     43 H                     0.115159
     44 H                     0.192967
  ----------------------------------------
  Sum of atomic charges =     0.000000

 -----------------------------------------------------------------
                    Cartesian Multipole Moments
 -----------------------------------------------------------------
    Charge (ESU x 10^10)
                -0.0000
    Dipole Moment (Debye)
         X       1.3593      Y       3.4291      Z       3.5722
       Tot       5.1349
    Quadrupole Moments (Debye-Ang)
        XX    -182.6060     XY       0.6394     YY    -175.6641
        XZ      -6.4858     YZ      -8.3411     ZZ    -205.3328
    Octopole Moments (Debye-Ang^2)
       XXX     -96.9752    XXY     316.5906    XYY      10.2548
       YYY    1024.3499    XXZ     168.4441    XYZ       2.5754
       YYZ     103.9761    XZZ       3.3745    YZZ     508.6417
       ZZZ     536.9013
    Hexadecapole Moments (Debye-Ang^3)
      XXXX   -2153.1400   XXXY    -830.9054   XXYY   -3818.1095
      XYYY    -997.7846   YYYY  -19726.8194   XXXZ     736.8652
      XXYZ     516.7363   XYYZ     170.2152   YYYZ    1568.3948
      XXZZ   -1354.6125   XYZZ    -161.8891   YYZZ   -4327.1970
      XZZZ     677.4479   YZZZ     902.7487   ZZZZ   -6046.2338
 -----------------------------------------------------------------
 Total job time:  324.37s(wall), 10489.79s(cpu) 
 Tue Sep 26 17:52:46 2023

        *************************************************************
        *                                                           *
        *  Thank you very much for using Q-Chem.  Have a nice day.  *
        *                                                           *
        *************************************************************


0 sent ACK to 0 
now end server 0 ... 
cleanup process ... done
remove work dirs ./qchem400593.0 -- ./qchem400593.0
rm -rf ./qchem400593.0
rm -rf ./qchem400593
