You are running Q-Chem version: 5.4.0

#
# job setting
#
local host:  exp-5-07
current dir: /expanse/lustre/projects/csd626/rramji/aromodel/PTB7_fin/Hydrogenated_Rotation_Test
input file:  fin_bdt_Phi_5_Theta_200_fin_ftt_Hydrogenated.qcin
output file: 
nprocs     : 1
nthreads   : 64
#
# qchem installation setting
#
QC:          /cm/shared/apps/spack/cpu/opt/spack/linux-centos8-zen2/gcc-10.2.0/qchem-5.4-akfmr7b3t57bfs6qan3padb2wnb2i7cl
QCAUX:       /cm/shared/apps/spack/cpu/opt/spack/linux-centos8-zen2/gcc-10.2.0/qchem-5.4-akfmr7b3t57bfs6qan3padb2wnb2i7cl/qcaux
QCPROG:      /cm/shared/apps/spack/cpu/opt/spack/linux-centos8-zen2/gcc-10.2.0/qchem-5.4-akfmr7b3t57bfs6qan3padb2wnb2i7cl/exe/qcprog.exe
QCPROG_S:    /cm/shared/apps/spack/cpu/opt/spack/linux-centos8-zen2/gcc-10.2.0/qchem-5.4-akfmr7b3t57bfs6qan3padb2wnb2i7cl/exe/qcprog.exe_s
PARALLEL:    -DPARALLEL
QCMPI:       mpich
#
# qchem directory setting
#
qcrun:       qchem476492
QCSCRATCH:   .
QCLOCALSCR:  
QCTMPDIR:    .
QCFILEPREF:  ./qchem476492
QCSAVEDIR:   
workdirs:    ./qchem476492
workdir0:    ./qchem476492
partmpdirs =  
#
# parallel setting
#
QCRSH:           ssh
QCMPI:           mpich
QCMPIRUN:        /cm/shared/apps/spack/cpu/opt/spack/linux-centos8-zen2/gcc-10.2.0/qchem-5.4-akfmr7b3t57bfs6qan3padb2wnb2i7cl/bin/mpi/mpirun_qchem
QCMACHINEFILE:   ./qchem476492/hostfile
exp-5-07

#
# env setting
#
exported envs:   QC QCAUX QCSCRATCH QCRUNNAME QCFILEPREF QCPROG QCPROG_S GUIFILE

Running Job 1 of 1 fin_bdt_Phi_5_Theta_200_fin_ftt_Hydrogenated.qcin
qchem fin_bdt_Phi_5_Theta_200_fin_ftt_Hydrogenated.qcin_476492.0 ./qchem476492/ 1
/cm/shared/apps/spack/cpu/opt/spack/linux-centos8-zen2/gcc-10.2.0/qchem-5.4-akfmr7b3t57bfs6qan3padb2wnb2i7cl/bin/mpi/mpirun_qchem -machinefile ./qchem476492/hostfile -np 1 /cm/shared/apps/spack/cpu/opt/spack/linux-centos8-zen2/gcc-10.2.0/qchem-5.4-akfmr7b3t57bfs6qan3padb2wnb2i7cl/exe/qcprog.exe fin_bdt_Phi_5_Theta_200_fin_ftt_Hydrogenated.qcin_476492.0 ./qchem476492/

Process 0 of 1 is on exp-5-07 - thread support 0
initial socket setup ...start
initial socket setup ...done 
now start server 0 ... 
                  Welcome to Q-Chem
     A Quantum Leap Into The Future Of Chemistry


 Q-Chem 5.4, Q-Chem, Inc., Pleasanton, CA (2021)

 License issued to: University of California, San Diego (site)

 E. Epifanovsky,  A. T. B. Gilbert,  Xintian Feng,  Joonho Lee,  Yuezhi Mao,  
 N. Mardirossian,  P. Pokhilko,  A. White,  M. Wormit,  M. P. Coons,  
 A. L. Dempwolff,  Zhengting Gan,  D. Hait,  P. R. Horn,  L. D. Jacobson,  
 I. Kaliman,  J. Kussmann,  A. W. Lange,  Ka Un Lao,  D. S. Levine,  Jie Liu,  
 S. C. McKenzie,  A. F. Morrison,  K. Nanda,  F. Plasser,  D. R. Rehn,  
 M. L. Vidal,  Zhi-Qiang You,  Ying Zhu,  B. Alam,  B. Albrecht,  
 A. Aldossary,  E. Alguire,  J. H. Andersen,  D. Barton,  K. Begam,  A. Behn,  
 Y. A. Bernard,  E. J. Berquist,  H. Burton,  A. Carreras,  K. Carter-Fenk,  
 R. Chakraborty,  A. D. Chien,  K. D. Closser,  V. Cofer-Shabica,  
 S. Dasgupta,  Jia Deng,  M. de Wergifosse,  M. Diedenhofen,  Hainam Do,  
 S. Ehlert,  Po-Tung Fang,  S. Fatehi,  Qingguo Feng,  J. Gayvert,  
 Qinghui Ge,  G. Gidofalvi,  M. Goldey,  J. Gomes,  C. Gonzalez-Espinoza,  
 S. Gulania,  A. Gunina,  M. W. D. Hanson-Heine,  P. H. P. Harbach,  
 A. W. Hauser,  M. F. Herbst,  M. Hernandez Vera,  M. Hodecker,  
 Z. C. Holden,  S. Houck,  Xunkun Huang,  Kerwin Hui,  B. C. Huynh,  
 M. Ivanov,  Hyunjun Ji,  Hanjie Jiang,  B. Kaduk,  S. Kaehler,  
 K. Khistyaev,  Jaehoon Kim,  P. Klunzinger,  Z. Koczor-Benda,  
 Joong Hoon Koh,  D. Kosenkov,  L. Koulias,  T. Kowalczyk,  C. M. Krauter,  
 K. Kue,  A. Kunitsa,  T. Kus,  A. Landau,  K. V. Lawler,  D. Lefrancois,  
 S. Lehtola,  Rain Li,  Yi-Pei Li,  Jiashu Liang,  M. Liebenthal,  
 Hung-Hsuan Lin,  You-Sheng Lin,  Fenglai Liu,  Kuan-Yu Liu,  
 M. Loipersberger,  A. Luenser,  A. Manjanath,  P. Manohar,  E. Mansoor,  
 S. F. Manzer,  Shan-Ping Mao,  A. V. Marenich,  T. Markovich,  S. Mason,  
 S. A. Maurer,  P. F. McLaughlin,  M. F. S. J. Menger,  J.-M. Mewes,  
 S. A. Mewes,  P. Morgante,  J. W. Mullinax,  T. S. Nguyen-Beck,  
 K. J. Oosterbaan,  G. Paran,  Alexander C. Paul,  Suranjan K. Paul,  
 F. Pavosevic,  Zheng Pei,  S. Prager,  E. I. Proynov,  E. Ramos,  B. Rana,  
 A. E. Rask,  A. Rettig,  R. M. Richard,  F. Rob,  E. Rossomme,  T. Scheele,  
 M. Scheurer,  M. Schneider,  N. Sergueev,  S. M. Sharada,  W. Skomorowski,  
 D. W. Small,  C. J. Stein,  Yu-Chuan Su,  E. J. Sundstrom,  Zhen Tao,  
 J. Thirman,  T. Tsuchimochi,  N. M. Tubman,  S. P. Veccham,  O. Vydrov,  
 J. Wenzel,  J. Witte,  A. Yamada,  Kun Yao,  S. Yeganeh,  S. R. Yost,  
 A. Zech,  Igor Ying Zhang,  Xing Zhang,  Yu Zhang,  D. Zuev,  
 A. Aspuru-Guzik,  A. T. Bell,  N. A. Besley,  K. B. Bravaya,  B. R. Brooks,  
 D. Casanova,  Jeng-Da Chai,  S. Coriani,  C. J. Cramer,  
 A. E. DePrince, III,  R. A. DiStasio Jr.,  A. Dreuw,  B. D. Dunietz,  
 T. R. Furlani,  W. A. Goddard III,  S. Grimme,  S. Hammes-Schiffer,  
 T. Head-Gordon,  W. J. Hehre,  Chao-Ping Hsu,  T.-C. Jagau,  Yousung Jung,  
 A. Klamt,  Jing Kong,  D. S. Lambrecht,  WanZhen Liang,  N. J. Mayhall,  
 C. W. McCurdy,  J. B. Neaton,  C. Ochsenfeld,  J. A. Parkhill,  R. Peverati,  
 V. A. Rassolov,  Yihan Shao,  L. V. Slipchenko,  T. Stauch,  R. P. Steele,  
 J. E. Subotnik,  A. J. W. Thom,  A. Tkatchenko,  D. G. Truhlar,  
 T. Van Voorhis,  T. A. Wesolowski,  K. B. Whaley,  H. L. Woodcock III,  
 P. M. Zimmerman,  S. Faraji,  P. M. W. Gill,  M. Head-Gordon,  
 J. M. Herbert,  A. I. Krylov

 Contributors to earlier versions of Q-Chem not listed above: 
 R. D. Adamson,  B. Austin,  R. Baer,  J. Baker,  G. J. O. Beran,  
 K. Brandhorst,  S. T. Brown,  E. F. C. Byrd,  A. K. Chakraborty,  
 G. K. L. Chan,  Chun-Min Chang,  Yunqing Chen,  C.-L. Cheng,  
 Siu Hung Chien,  D. M. Chipman,  D. L. Crittenden,  H. Dachsel,  
 R. J. Doerksen,  A. D. Dutoi,  R. G. Edgar,  J. Fosso-Tande,  
 L. Fusti-Molnar,  D. Ghosh,  A. Ghysels,  A. Golubeva-Zadorozhnaya,  
 J. Gonthier,  M. S. Gordon,  S. R. Gwaltney,  G. Hawkins,  J. E. Herr,  
 A. Heyden,  S. Hirata,  E. G. Hohenstein,  G. Kedziora,  F. J. Keil,  
 C. Kelley,  Jihan Kim,  R. A. King,  R. Z. Khaliullin,  P. P. Korambath,  
 W. Kurlancheek,  A. Laurent,  A. M. Lee,  M. S. Lee,  S. V. Levchenko,  
 Ching Yeh Lin,  D. Liotard,  E. Livshits,  R. C. Lochan,  I. Lotan,  
 L. A. Martinez-Martinez,  P. E. Maslen,  N. Nair,  D. P. O'Neill,  
 D. Neuhauser,  E. Neuscamman,  C. M. Oana,  R. Olivares-Amaya,  R. Olson,  
 T. M. Perrine,  B. Peters,  P. A. Pieniazek,  A. Prociuk,  Y. M. Rhee,  
 J. Ritchie,  M. A. Rohrdanz,  E. Rosta,  N. J. Russ,  H. F. Schaefer III,  
 M. W. Schmidt,  N. E. Schultz,  S. Sharma,  N. Shenvi,  C. D. Sherrill,  
 A. C. Simmonett,  A. Sodt,  T. Stein,  D. Stuck,  K. S. Thanthiriwatte,  
 V. Vanovschi,  L. Vogt,  Tao Wang,  A. Warshel,  M. A. Watson,  
 C. F. Williams,  Q. Wu,  X. Xu,  Jun Yang,  W. Zhang,  Yan Zhao

 Please cite Q-Chem as follows:
 Y. Shao et al., Mol. Phys. 113, 184-215 (2015)
 DOI: 10.1080/00268976.2014.952696

 Q-Chem 5.4.0 for Intel X86 EM64T Linux

 Parts of Q-Chem use Armadillo 9.800.1 (Horizon Scraper).
 http://arma.sourceforge.net/

 Q-Chem begins on Tue Sep 26 19:11:22 2023  

 Host: 
0

     Scratch files written to ./qchem476492//
 May1621 |scratch|qcdevops|jenkins|workspace|build_RNUM    
 Parallel job on  1  processors
 Processing $rem in /cm/shared/apps/spack/cpu/opt/spack/linux-centos8-zen2/gcc-10.2.0/qchem-5.4-akfmr7b3t57bfs6qan3padb2wnb2i7cl/config/preferences:
 Processing $rem in /home/rramji/.qchemrc:
 Symmetry turned off for PCM/SM12/SMD calculation
 Core orbitals will be frozen

 Checking the input file for inconsistencies... 	...done.

 Q-Chem warning in module forms1/BasisType.C, line 2236:

 You are not using the predefined 5D/6D in this basis set.


--------------------------------------------------------------
User input:
--------------------------------------------------------------
$molecule
0 1
C	0.136647	-8.519741	-0.235306
C	-0.221346	-7.635967	0.772334
S	0.650746	-7.651740	-1.702286
C	-0.090779	-6.261894	0.408807
H	-0.573754	-7.954738	1.761423
C	0.397735	-6.079985	-0.932876
C	0.568166	-4.798382	-1.479069
C	-0.418347	-5.153542	1.241204
C	-0.251852	-3.869626	0.693206
C	0.239872	-3.688927	-0.648921
O	-0.842486	-5.481075	2.493437
O	0.993092	-4.479871	-2.737331
C	1.884752	-5.356026	-3.416110
H	2.273124	-4.790496	-4.284447
H	1.373310	-6.268513	-3.793352
H	2.734702	-5.658187	-2.766716
C	-1.588030	-4.546999	3.264581
H	-1.974995	-5.107564	4.136519
H	-2.443843	-4.131473	2.690439
H	-0.955140	-3.712085	3.636177
C	0.367068	-2.314326	-1.009848
S	-0.517386	-2.295487	1.459936
C	0.000000	-1.435180	0.000000
H	0.721689	-1.993211	-1.997308
C	0.000000	0.000000	0.000000
S	0.080615	0.895811	1.510732
C	0.216842	2.465231	0.727629
C	0.079127	0.904769	-1.064665
C	0.198659	2.288406	-0.678287
C	0.074988	0.838492	-2.486150
C	0.185097	2.098524	-3.106916
S	0.290501	3.341568	-1.965735
C	0.211932	2.351623	-4.559972
O	0.133545	1.421416	-5.350277
O	0.326994	3.629649	-5.004375
F	-0.018214	-0.271734	-3.246290
C	0.368367	3.986101	-6.334976
H	0.465270	5.086806	-6.370268
H	-0.553140	3.675878	-6.875609
H	1.229874	3.519263	-6.861878
H	0.297091	3.381746	1.321510
H	-0.712022	-9.146471	-0.533380
H	0.980494	-9.150570	0.067771
H	-1.017696	-1.444158	-0.361406
$end

$rem
JOBTYPE		SP
EXCHANGE	HF
CORRELATION	pRIMP2
BASIS		cc-pvtz
METHOD		rimp2
AUX_BASIS	rimp2-cc-pvtz
SOLVENT_METHOD	PCM
PURECART	11111
SYMMETRY	false
MEM_TOTAL	110000
SCF_CONVERGENCE = 6
THRESH=10
GUI = 2
$end



$solvent
dielectric 4.90
$end
--------------------------------------------------------------
 ----------------------------------------------------------------
             Standard Nuclear Orientation (Angstroms)
    I     Atom           X                Y                Z
 ----------------------------------------------------------------
    1      C       0.1366470000    -8.5197410000    -0.2353060000
    2      C      -0.2213460000    -7.6359670000     0.7723340000
    3      S       0.6507460000    -7.6517400000    -1.7022860000
    4      C      -0.0907790000    -6.2618940000     0.4088070000
    5      H      -0.5737540000    -7.9547380000     1.7614230000
    6      C       0.3977350000    -6.0799850000    -0.9328760000
    7      C       0.5681660000    -4.7983820000    -1.4790690000
    8      C      -0.4183470000    -5.1535420000     1.2412040000
    9      C      -0.2518520000    -3.8696260000     0.6932060000
   10      C       0.2398720000    -3.6889270000    -0.6489210000
   11      O      -0.8424860000    -5.4810750000     2.4934370000
   12      O       0.9930920000    -4.4798710000    -2.7373310000
   13      C       1.8847520000    -5.3560260000    -3.4161100000
   14      H       2.2731240000    -4.7904960000    -4.2844470000
   15      H       1.3733100000    -6.2685130000    -3.7933520000
   16      H       2.7347020000    -5.6581870000    -2.7667160000
   17      C      -1.5880300000    -4.5469990000     3.2645810000
   18      H      -1.9749950000    -5.1075640000     4.1365190000
   19      H      -2.4438430000    -4.1314730000     2.6904390000
   20      H      -0.9551400000    -3.7120850000     3.6361770000
   21      C       0.3670680000    -2.3143260000    -1.0098480000
   22      S      -0.5173860000    -2.2954870000     1.4599360000
   23      C       0.0000000000    -1.4351800000     0.0000000000
   24      H       0.7216890000    -1.9932110000    -1.9973080000
   25      C       0.0000000000     0.0000000000     0.0000000000
   26      S       0.0806150000     0.8958110000     1.5107320000
   27      C       0.2168420000     2.4652310000     0.7276290000
   28      C       0.0791270000     0.9047690000    -1.0646650000
   29      C       0.1986590000     2.2884060000    -0.6782870000
   30      C       0.0749880000     0.8384920000    -2.4861500000
   31      C       0.1850970000     2.0985240000    -3.1069160000
   32      S       0.2905010000     3.3415680000    -1.9657350000
   33      C       0.2119320000     2.3516230000    -4.5599720000
   34      O       0.1335450000     1.4214160000    -5.3502770000
   35      O       0.3269940000     3.6296490000    -5.0043750000
   36      F      -0.0182140000    -0.2717340000    -3.2462900000
   37      C       0.3683670000     3.9861010000    -6.3349760000
   38      H       0.4652700000     5.0868060000    -6.3702680000
   39      H      -0.5531400000     3.6758780000    -6.8756090000
   40      H       1.2298740000     3.5192630000    -6.8618780000
   41      H       0.2970910000     3.3817460000     1.3215100000
   42      H      -0.7120220000    -9.1464710000    -0.5333800000
   43      H       0.9804940000    -9.1505700000     0.0677710000
   44      H      -1.0176960000    -1.4441580000    -0.3614060000
 ----------------------------------------------------------------
 Nuclear Repulsion Energy =        3367.20532311 hartrees
 There are      120 alpha and      120 beta electrons
 Requested basis set is cc-pVTZ
 There are 388 shells and 1096 basis functions

 Total QAlloc Memory Limit 110000 MB
 Mega-Array Size       188 MB
 MEM_STATIC part       192 MB
 Discretize the solute cavity surface with Lebedev spheres
	Using 110 Lebedev grid points for each H atom
	Using 194 Lebedev grid points for other atoms
	Atomic van der Waals radii will be scaled by 1.20
 Remove points where switching function is < 1.0e-08
 Keep 2959 surface tesserae and discard 4317 interior tesserae
 Molecular Surface Area = 436.456 Angst**2
 Requested basis set is rimp2-cc-pVTZ
 There are 853 shells and 2963 basis functions
 A cutoff of  1.0D-10 yielded  33567 shell pairs
 There are    253537 function pairs (    327949 Cartesian)
 Smallest overlap matrix eigenvalue = 2.03E-05

 Scale SEOQF with 1.000000e-01/1.000000e-02/1.000000e-02

 Standard Electronic Orientation quadrupole field applied
 Nucleus-field energy     =     0.0000000175 hartrees
 Guess from superposition of atomic densities
 Warning:  Energy on first SCF cycle will be non-variational
 SAD guess density has 240.000000 electrons

 -----------------------------------------------------------------------
  General SCF calculation program by
  Eric Jon Sundstrom, Paul Horn, Yuezhi Mao, Dmitri Zuev, Alec White,
  David Stuck, Shaama M.S., Shane Yost, Joonho Lee, David Small,
  Daniel Levine, Susi Lehtola, Hugh Burton, Evgeny Epifanovsky,
  Bang C. Huynh
 -----------------------------------------------------------------------
 Hartree-Fock
 using 64 threads for integral computing
 -------------------------------------------------------
 OpenMP Integral computing Module                
 Release: version 1.0, May 2013, Q-Chem Inc. Pittsburgh 
 -------------------------------------------------------
 A restricted SCF calculation will be
 performed using DIIS
 SCF converges when DIIS error is below 1.0e-06
 ---------------------------------------
  Cycle       Energy         DIIS error
 ---------------------------------------
    1   -2767.3549384119      1.77e-02  
    2   -2754.8701557193      1.55e-03  
    3   -2755.2194899507      8.76e-04  
    4   -2755.3105079360      2.54e-04  
    5   -2755.3243235045      7.30e-05  
    6   -2755.3258805687      2.61e-05  
    7   -2755.3262842498      1.34e-05  
    8   -2755.3264022599      5.50e-06  
    9   -2755.3264260624      2.79e-06  
   10   -2755.3264317967      1.35e-06  
   11   -2755.3264335932      6.91e-07  Convergence criterion met
 ---------------------------------------
 SCF time:   CPU 7584.75s  wall 275.00s 

************** Final PCM Free Energy Summary **************
 G_electrostatic  =      -0.02100584 hartree =     -13.18136319 kcal/mol
 G_cavitation     =       0.00000000 hartree =       0.00000000 kcal/mol
 G_dispersion     =       0.00000000 hartree =       0.00000000 kcal/mol
 G_repulsion      =       0.00000000 hartree =       0.00000000 kcal/mol
 --------------------------------------------------
 Non-electrostatic Free Energy =       0.00000000 hartree =       0.00000000 kcal/mol
 Total                         =      -0.02100584 hartree =     -13.18136319 kcal/mol
 --------------------------------------------------
 SCF Energy (H0 + V/2)                       =   -2755.32643359 
 Solute Internal Energy (H0)                 =   -2755.30542775 
 Total Free Energy (H0 + V/2 + non-elec)     =   -2755.32643359 hartree
                                             = -1728993.43277638 kcal/mol
***********************************************************

 SCF   energy in the final basis set =    -2755.3264335932
 Total energy in the final basis set =    -2755.3264335932


 --------------------------------------------------------------
  Generalized many-body perturbation theory program
  by Joonho Lee, Fazle Rob, Xintian Feng, Evgeny Epifanovsky

 No regularization used 
 (reg. param. = 0.0000e+00)
  (P|Q)^-1/2 Time:  CPU 147.96 s  wall 2.78 s

 In RI-MP2 calculation: 
 # of frozen core orbitals: 45

 Components of the RIMP2 correlation energy:
        aaaa    correlation energy =        -0.6702532533 a.u.
        abab    correlation energy =        -3.7503689322 a.u.
        bbbb    correlation energy =        -0.6702532533 a.u.
        non-Brillouin singles      =        -0.0000000000 a.u.
        total same-spin energy     =        -1.3405065066 a.u.
        total opposite-spin energy =        -3.7503689322 a.u.

 Total  RIMP2   correlation energy =        -5.0908754388 a.u.
        RIMP2         total energy =     -2760.4173090320 a.u.

 RI-MP2 Energy Time:  CPU 2926.47 s  wall 47.79 s
 
 --------------------------------------------------------------
 
                    Orbital Energies (a.u.)
 --------------------------------------------------------------
 
 Alpha MOs
 -- Occupied --
-92.0154 -91.9927 -91.9835 -91.9601 -26.3393 -20.6109 -20.5902 -20.5874
-20.5475 -11.4083 -11.3797 -11.3263 -11.3127 -11.3101 -11.2971 -11.2922
-11.2880 -11.2878 -11.2865 -11.2859 -11.2826 -11.2824 -11.2765 -11.2756
-11.2715 -11.2619 -11.2605 -11.2518 -11.2423  -9.0138  -8.9968  -8.9857
 -8.9627  -6.6946  -6.6940  -6.6935  -6.6781  -6.6774  -6.6761  -6.6669
 -6.6660  -6.6647  -6.6439  -6.6429  -6.6419  -1.6532  -1.4705  -1.4134
 -1.4093  -1.3655  -1.2382  -1.2111  -1.1780  -1.1435  -1.1015  -1.0505
 -1.0487  -1.0283  -1.0108  -1.0006  -0.9714  -0.9604  -0.9506  -0.9410
 -0.8963  -0.8737  -0.8630  -0.8103  -0.7964  -0.7879  -0.7759  -0.7715
 -0.7629  -0.7349  -0.7216  -0.7200  -0.6994  -0.6956  -0.6851  -0.6777
 -0.6742  -0.6717  -0.6579  -0.6496  -0.6395  -0.6302  -0.6221  -0.6161
 -0.6093  -0.6050  -0.5955  -0.5913  -0.5788  -0.5710  -0.5605  -0.5517
 -0.5484  -0.5370  -0.5318  -0.5230  -0.5146  -0.5095  -0.5068  -0.5023
 -0.4854  -0.4837  -0.4796  -0.4695  -0.4637  -0.4606  -0.4585  -0.4486
 -0.4331  -0.3984  -0.3885  -0.3725  -0.3508  -0.2942  -0.2845  -0.2194
 -- Virtual --
  0.0287   0.0601   0.1192   0.1240   0.1367   0.1438   0.1526   0.1545
  0.1579   0.1594   0.1633   0.1776   0.1846   0.1853   0.1945   0.1960
  0.2011   0.2017   0.2053   0.2130   0.2171   0.2225   0.2245   0.2277
  0.2310   0.2336   0.2449   0.2497   0.2547   0.2623   0.2671   0.2739
  0.2761   0.3012   0.3077   0.3213   0.3326   0.3371   0.3438   0.3463
  0.3496   0.3573   0.3630   0.3677   0.3724   0.3767   0.3813   0.3830
  0.3846   0.3875   0.3930   0.4062   0.4105   0.4159   0.4178   0.4239
  0.4256   0.4305   0.4341   0.4377   0.4395   0.4439   0.4451   0.4522
  0.4561   0.4634   0.4683   0.4711   0.4747   0.4767   0.4839   0.4874
  0.4909   0.4936   0.4991   0.4998   0.5020   0.5139   0.5219   0.5233
  0.5251   0.5276   0.5328   0.5359   0.5385   0.5422   0.5499   0.5511
  0.5530   0.5565   0.5621   0.5640   0.5660   0.5689   0.5734   0.5799
  0.5856   0.5900   0.5905   0.5948   0.6018   0.6059   0.6069   0.6099
  0.6116   0.6156   0.6176   0.6215   0.6219   0.6250   0.6310   0.6341
  0.6352   0.6376   0.6429   0.6444   0.6487   0.6516   0.6542   0.6568
  0.6597   0.6642   0.6740   0.6782   0.6840   0.6882   0.6930   0.7014
  0.7054   0.7075   0.7134   0.7163   0.7228   0.7252   0.7395   0.7438
  0.7555   0.7579   0.7609   0.7661   0.7727   0.7751   0.7874   0.7919
  0.7973   0.8000   0.8030   0.8065   0.8102   0.8145   0.8247   0.8293
  0.8383   0.8414   0.8466   0.8571   0.8582   0.8735   0.8737   0.8845
  0.8895   0.8961   0.8977   0.9001   0.9094   0.9104   0.9186   0.9271
  0.9278   0.9292   0.9356   0.9418   0.9477   0.9490   0.9499   0.9606
  0.9626   0.9678   0.9722   0.9818   0.9834   0.9879   0.9919   0.9925
  0.9976   1.0000   1.0049   1.0086   1.0099   1.0186   1.0234   1.0319
  1.0393   1.0402   1.0415   1.0488   1.0510   1.0561   1.0634   1.0696
  1.0749   1.0803   1.0908   1.0969   1.1006   1.1053   1.1066   1.1121
  1.1162   1.1235   1.1292   1.1317   1.1363   1.1422   1.1447   1.1561
  1.1591   1.1600   1.1621   1.1678   1.1714   1.1760   1.1827   1.1857
  1.1880   1.1889   1.1970   1.2022   1.2045   1.2093   1.2129   1.2194
  1.2247   1.2274   1.2340   1.2379   1.2428   1.2512   1.2544   1.2574
  1.2671   1.2686   1.2749   1.2764   1.2872   1.2899   1.2924   1.2957
  1.3027   1.3115   1.3167   1.3221   1.3292   1.3338   1.3412   1.3443
  1.3481   1.3624   1.3691   1.3776   1.3810   1.3855   1.3899   1.3996
  1.4020   1.4077   1.4132   1.4214   1.4308   1.4402   1.4459   1.4548
  1.4606   1.4629   1.4712   1.4842   1.4875   1.4954   1.4974   1.5009
  1.5073   1.5096   1.5125   1.5132   1.5246   1.5308   1.5346   1.5375
  1.5418   1.5466   1.5552   1.5564   1.5621   1.5653   1.5703   1.5781
  1.5922   1.5956   1.6066   1.6143   1.6181   1.6209   1.6336   1.6403
  1.6428   1.6514   1.6596   1.6609   1.6668   1.6771   1.6803   1.6914
  1.6964   1.7000   1.7064   1.7248   1.7265   1.7337   1.7390   1.7515
  1.7572   1.7652   1.7694   1.7796   1.7902   1.7984   1.8093   1.8139
  1.8187   1.8288   1.8347   1.8441   1.8548   1.8645   1.8663   1.8784
  1.8846   1.8869   1.8989   1.9000   1.9167   1.9230   1.9336   1.9351
  1.9424   1.9505   1.9545   1.9619   1.9714   1.9917   1.9975   2.0035
  2.0146   2.0194   2.0315   2.0356   2.0372   2.0524   2.0532   2.0660
  2.0711   2.0777   2.0895   2.0951   2.1106   2.1143   2.1229   2.1362
  2.1447   2.1489   2.1533   2.1624   2.1713   2.1795   2.1850   2.1944
  2.1972   2.2045   2.2108   2.2187   2.2236   2.2317   2.2337   2.2464
  2.2521   2.2566   2.2654   2.2742   2.2792   2.2917   2.2945   2.2990
  2.3081   2.3095   2.3282   2.3390   2.3446   2.3531   2.3562   2.3715
  2.3825   2.3859   2.3931   2.4024   2.4117   2.4152   2.4259   2.4355
  2.4426   2.4619   2.4639   2.4726   2.4761   2.4808   2.4933   2.5097
  2.5126   2.5228   2.5288   2.5307   2.5422   2.5465   2.5636   2.5674
  2.5855   2.5910   2.6004   2.6055   2.6179   2.6212   2.6245   2.6281
  2.6349   2.6388   2.6462   2.6487   2.6522   2.6641   2.6707   2.6736
  2.6768   2.6841   2.6880   2.6993   2.7036   2.7105   2.7122   2.7213
  2.7275   2.7333   2.7376   2.7414   2.7469   2.7523   2.7670   2.7697
  2.7701   2.7859   2.7942   2.8036   2.8061   2.8118   2.8270   2.8284
  2.8414   2.8452   2.8469   2.8559   2.8639   2.8692   2.8724   2.8770
  2.8833   2.8953   2.8972   2.9047   2.9184   2.9293   2.9305   2.9513
  2.9536   2.9588   2.9623   2.9693   2.9767   2.9815   2.9866   3.0038
  3.0119   3.0175   3.0231   3.0382   3.0411   3.0437   3.0440   3.0481
  3.0575   3.0635   3.0784   3.0829   3.0883   3.0913   3.0972   3.1022
  3.1085   3.1094   3.1205   3.1248   3.1344   3.1369   3.1440   3.1511
  3.1526   3.1556   3.1616   3.1640   3.1707   3.1744   3.1756   3.1778
  3.1897   3.1938   3.1996   3.2013   3.2109   3.2187   3.2209   3.2239
  3.2297   3.2375   3.2490   3.2536   3.2562   3.2592   3.2628   3.2683
  3.2709   3.2741   3.2784   3.2814   3.2854   3.2901   3.2920   3.2990
  3.3044   3.3062   3.3118   3.3143   3.3190   3.3300   3.3365   3.3425
  3.3455   3.3481   3.3521   3.3551   3.3602   3.3632   3.3650   3.3669
  3.3749   3.3776   3.3791   3.3883   3.3916   3.3993   3.4037   3.4101
  3.4141   3.4229   3.4250   3.4312   3.4322   3.4395   3.4409   3.4461
  3.4516   3.4538   3.4570   3.4612   3.4626   3.4760   3.4789   3.4829
  3.4891   3.4932   3.4936   3.5056   3.5133   3.5167   3.5278   3.5388
  3.5478   3.5497   3.5575   3.5613   3.5694   3.5723   3.5820   3.5842
  3.5882   3.5909   3.5954   3.5989   3.6037   3.6065   3.6079   3.6146
  3.6182   3.6303   3.6326   3.6363   3.6420   3.6479   3.6551   3.6563
  3.6604   3.6635   3.6691   3.6719   3.6794   3.6823   3.6851   3.6866
  3.6980   3.7034   3.7112   3.7113   3.7139   3.7237   3.7261   3.7291
  3.7320   3.7335   3.7445   3.7476   3.7618   3.7641   3.7692   3.7710
  3.7786   3.7829   3.8004   3.8046   3.8102   3.8105   3.8182   3.8205
  3.8274   3.8304   3.8430   3.8474   3.8505   3.8547   3.8582   3.8654
  3.8694   3.8745   3.8831   3.8863   3.8909   3.8998   3.9033   3.9118
  3.9148   3.9292   3.9318   3.9368   3.9453   3.9530   3.9601   3.9675
  3.9703   3.9761   3.9814   3.9890   3.9973   4.0076   4.0141   4.0169
  4.0243   4.0370   4.0405   4.0465   4.0494   4.0512   4.0588   4.0657
  4.0700   4.0849   4.0873   4.0954   4.0995   4.1028   4.1141   4.1208
  4.1262   4.1424   4.1448   4.1573   4.1689   4.1728   4.1747   4.1769
  4.1821   4.1907   4.2007   4.2030   4.2134   4.2258   4.2326   4.2405
  4.2443   4.2580   4.2691   4.2775   4.2845   4.2916   4.3038   4.3108
  4.3195   4.3289   4.3343   4.3375   4.3484   4.3537   4.3576   4.3636
  4.3770   4.3784   4.3835   4.3925   4.4011   4.4047   4.4132   4.4188
  4.4228   4.4247   4.4282   4.4367   4.4400   4.4489   4.4503   4.4565
  4.4713   4.4768   4.4870   4.4902   4.5070   4.5172   4.5189   4.5273
  4.5316   4.5518   4.5550   4.5629   4.5670   4.5696   4.5749   4.5900
  4.6030   4.6090   4.6134   4.6262   4.6405   4.6415   4.6440   4.6533
  4.6570   4.6626   4.6743   4.6862   4.6971   4.7043   4.7144   4.7242
  4.7327   4.7442   4.7522   4.7763   4.7836   4.7962   4.8077   4.8100
  4.8216   4.8265   4.8358   4.8500   4.8593   4.8710   4.8864   4.8942
  4.9210   4.9280   4.9370   4.9464   4.9571   4.9644   4.9778   4.9986
  5.0032   5.0066   5.0106   5.0120   5.0204   5.0307   5.0507   5.0658
  5.0780   5.0920   5.0962   5.1148   5.1315   5.1596   5.1697   5.1845
  5.1908   5.1954   5.2006   5.2157   5.2183   5.2237   5.2329   5.2535
  5.2599   5.2682   5.2850   5.2901   5.3102   5.3145   5.3257   5.3314
  5.3358   5.3558   5.3572   5.3686   5.3722   5.3820   5.3885   5.3998
  5.4068   5.4200   5.4403   5.4429   5.4564   5.4736   5.4869   5.4995
  5.5087   5.5206   5.5266   5.5551   5.5655   5.5682   5.5744   5.5869
  5.6014   5.6090   5.6197   5.6308   5.6409   5.6535   5.6704   5.6884
  5.7306   5.7460   5.7619   5.7717   5.8020   5.8153   5.8340   5.8560
  5.8692   5.8810   5.9023   5.9527   5.9715   5.9831   5.9882   6.0090
  6.0398   6.0825   6.1270   6.1288   6.1344   6.1592   6.1715   6.1751
  6.1870   6.1988   6.2500   6.2510   6.2678   6.2712   6.2842   6.2937
  6.3097   6.3570   6.3571   6.4390   6.4977   6.5224   6.5370   6.5579
  6.5723   6.5967   6.6495   6.6785   6.7024   6.7308   6.7542   6.7690
  6.8123   6.8625   6.8654   6.8885   6.8983   6.9952   7.1311   7.1446
  7.1797   7.2137   7.2195   7.2405   7.3274   7.3292   7.3405   7.3713
  7.3749   7.4321   7.4638   7.4832   7.4840   7.4976   7.5254   7.5520
  7.6248   7.7380   7.7658   7.8019   7.8336   7.9207   7.9271   7.9557
  8.0105   8.1277   8.3517   8.7902   8.9471   9.0399   9.3635   9.5040
  9.7174  10.3259  11.2693  11.4482  11.9317  11.9666  12.1268  12.3896
 12.4120  12.5788  12.7607  12.9373  13.0375  13.2514  13.4797  13.6114
 13.7889  13.8900  13.9186  13.9798  14.1725  14.3231  15.1858  15.4606
 --------------------------------------------------------------
 
          Ground-State Mulliken Net Atomic Charges

     Atom                 Charge (a.u.)
  ----------------------------------------
      1 C                    -0.071077
      2 C                    -0.245377
      3 S                    -0.130402
      4 C                    -0.051506
      5 H                     0.195201
      6 C                    -0.050194
      7 C                     0.223894
      8 C                     0.238945
      9 C                    -0.078427
     10 C                    -0.028813
     11 O                    -0.333522
     12 O                    -0.342236
     13 C                    -0.083284
     14 H                     0.121529
     15 H                     0.092203
     16 H                     0.092612
     17 C                    -0.088453
     18 H                     0.125163
     19 H                     0.093702
     20 H                     0.090558
     21 C                    -0.338933
     22 S                    -0.092834
     23 C                     0.142631
     24 H                     0.206443
     25 C                    -0.093020
     26 S                     0.087894
     27 C                    -0.274384
     28 C                    -0.062154
     29 C                    -0.006899
     30 C                     0.405001
     31 C                    -0.154627
     32 S                     0.029350
     33 C                     0.464724
     34 O                    -0.456192
     35 O                    -0.298614
     36 F                    -0.217543
     37 C                    -0.055255
     38 H                     0.116415
     39 H                     0.084174
     40 H                     0.084024
     41 H                     0.213922
     42 H                     0.119463
     43 H                     0.117088
     44 H                     0.208809
  ----------------------------------------
  Sum of atomic charges =     0.000000

 -----------------------------------------------------------------
                    Cartesian Multipole Moments
 -----------------------------------------------------------------
    Charge (ESU x 10^10)
                 0.0000
    Dipole Moment (Debye)
         X      -0.5064      Y       1.4270      Z       3.5356
       Tot       3.8462
    Quadrupole Moments (Debye-Ang)
        XX    -194.0687     XY       2.8840     YY    -167.3790
        XZ     -10.2394     YZ     -14.1878     ZZ    -196.3973
    Octopole Moments (Debye-Ang^2)
       XXX     -71.5801    XXY     353.8909    XYY     -23.2177
       YYY     937.8259    XXZ     186.9380    XYZ      40.1820
       YYZ     175.4314    XZZ     -11.4387    YZZ     447.1858
       ZZZ     605.8189
    Hexadecapole Moments (Debye-Ang^3)
      XXXX    -679.6123   XXXY     115.4629   XXYY   -3783.2375
      XYYY     201.0940   YYYY  -19328.1070   XXXZ     553.7216
      XXYZ     339.6235   XYYZ     -35.6001   YYYZ     472.5892
      XXZZ   -1328.8681   XYZZ      72.2453   YYZZ   -4351.8852
      XZZZ     369.2956   YZZZ     262.1640   ZZZZ   -7455.5023
 -----------------------------------------------------------------
 Total job time:  327.01s(wall), 10626.03s(cpu) 
 Tue Sep 26 19:16:49 2023

        *************************************************************
        *                                                           *
        *  Thank you very much for using Q-Chem.  Have a nice day.  *
        *                                                           *
        *************************************************************


0 sent ACK to 0 
now end server 0 ... 
cleanup process ... done
remove work dirs ./qchem476492.0 -- ./qchem476492.0
rm -rf ./qchem476492.0
rm -rf ./qchem476492
