You are running Q-Chem version: 5.4.0

#
# job setting
#
local host:  exp-3-23
current dir: /expanse/lustre/projects/csd626/rramji/aromodel/PTB7_fin/Hydrogenated_Rotation_Test
input file:  fin_bdt_Phi_20_Theta_280_fin_ftt_Hydrogenated.qcin
output file: 
nprocs     : 1
nthreads   : 64
#
# qchem installation setting
#
QC:          /cm/shared/apps/spack/cpu/opt/spack/linux-centos8-zen2/gcc-10.2.0/qchem-5.4-akfmr7b3t57bfs6qan3padb2wnb2i7cl
QCAUX:       /cm/shared/apps/spack/cpu/opt/spack/linux-centos8-zen2/gcc-10.2.0/qchem-5.4-akfmr7b3t57bfs6qan3padb2wnb2i7cl/qcaux
QCPROG:      /cm/shared/apps/spack/cpu/opt/spack/linux-centos8-zen2/gcc-10.2.0/qchem-5.4-akfmr7b3t57bfs6qan3padb2wnb2i7cl/exe/qcprog.exe
QCPROG_S:    /cm/shared/apps/spack/cpu/opt/spack/linux-centos8-zen2/gcc-10.2.0/qchem-5.4-akfmr7b3t57bfs6qan3padb2wnb2i7cl/exe/qcprog.exe_s
PARALLEL:    -DPARALLEL
QCMPI:       mpich
#
# qchem directory setting
#
qcrun:       qchem2536898
QCSCRATCH:   .
QCLOCALSCR:  
QCTMPDIR:    .
QCFILEPREF:  ./qchem2536898
QCSAVEDIR:   
workdirs:    ./qchem2536898
workdir0:    ./qchem2536898
partmpdirs =  
#
# parallel setting
#
QCRSH:           ssh
QCMPI:           mpich
QCMPIRUN:        /cm/shared/apps/spack/cpu/opt/spack/linux-centos8-zen2/gcc-10.2.0/qchem-5.4-akfmr7b3t57bfs6qan3padb2wnb2i7cl/bin/mpi/mpirun_qchem
QCMACHINEFILE:   ./qchem2536898/hostfile
exp-3-23

#
# env setting
#
exported envs:   QC QCAUX QCSCRATCH QCRUNNAME QCFILEPREF QCPROG QCPROG_S GUIFILE

Running Job 1 of 1 fin_bdt_Phi_20_Theta_280_fin_ftt_Hydrogenated.qcin
qchem fin_bdt_Phi_20_Theta_280_fin_ftt_Hydrogenated.qcin_2536898.0 ./qchem2536898/ 1
/cm/shared/apps/spack/cpu/opt/spack/linux-centos8-zen2/gcc-10.2.0/qchem-5.4-akfmr7b3t57bfs6qan3padb2wnb2i7cl/bin/mpi/mpirun_qchem -machinefile ./qchem2536898/hostfile -np 1 /cm/shared/apps/spack/cpu/opt/spack/linux-centos8-zen2/gcc-10.2.0/qchem-5.4-akfmr7b3t57bfs6qan3padb2wnb2i7cl/exe/qcprog.exe fin_bdt_Phi_20_Theta_280_fin_ftt_Hydrogenated.qcin_2536898.0 ./qchem2536898/

Process 0 of 1 is on exp-3-23 - thread support 0
initial socket setup ...start
initial socket setup ...done 
now start server 0 ... 
                  Welcome to Q-Chem
     A Quantum Leap Into The Future Of Chemistry


 Q-Chem 5.4, Q-Chem, Inc., Pleasanton, CA (2021)

 License issued to: University of California, San Diego (site)

 E. Epifanovsky,  A. T. B. Gilbert,  Xintian Feng,  Joonho Lee,  Yuezhi Mao,  
 N. Mardirossian,  P. Pokhilko,  A. White,  M. Wormit,  M. P. Coons,  
 A. L. Dempwolff,  Zhengting Gan,  D. Hait,  P. R. Horn,  L. D. Jacobson,  
 I. Kaliman,  J. Kussmann,  A. W. Lange,  Ka Un Lao,  D. S. Levine,  Jie Liu,  
 S. C. McKenzie,  A. F. Morrison,  K. Nanda,  F. Plasser,  D. R. Rehn,  
 M. L. Vidal,  Zhi-Qiang You,  Ying Zhu,  B. Alam,  B. Albrecht,  
 A. Aldossary,  E. Alguire,  J. H. Andersen,  D. Barton,  K. Begam,  A. Behn,  
 Y. A. Bernard,  E. J. Berquist,  H. Burton,  A. Carreras,  K. Carter-Fenk,  
 R. Chakraborty,  A. D. Chien,  K. D. Closser,  V. Cofer-Shabica,  
 S. Dasgupta,  Jia Deng,  M. de Wergifosse,  M. Diedenhofen,  Hainam Do,  
 S. Ehlert,  Po-Tung Fang,  S. Fatehi,  Qingguo Feng,  J. Gayvert,  
 Qinghui Ge,  G. Gidofalvi,  M. Goldey,  J. Gomes,  C. Gonzalez-Espinoza,  
 S. Gulania,  A. Gunina,  M. W. D. Hanson-Heine,  P. H. P. Harbach,  
 A. W. Hauser,  M. F. Herbst,  M. Hernandez Vera,  M. Hodecker,  
 Z. C. Holden,  S. Houck,  Xunkun Huang,  Kerwin Hui,  B. C. Huynh,  
 M. Ivanov,  Hyunjun Ji,  Hanjie Jiang,  B. Kaduk,  S. Kaehler,  
 K. Khistyaev,  Jaehoon Kim,  P. Klunzinger,  Z. Koczor-Benda,  
 Joong Hoon Koh,  D. Kosenkov,  L. Koulias,  T. Kowalczyk,  C. M. Krauter,  
 K. Kue,  A. Kunitsa,  T. Kus,  A. Landau,  K. V. Lawler,  D. Lefrancois,  
 S. Lehtola,  Rain Li,  Yi-Pei Li,  Jiashu Liang,  M. Liebenthal,  
 Hung-Hsuan Lin,  You-Sheng Lin,  Fenglai Liu,  Kuan-Yu Liu,  
 M. Loipersberger,  A. Luenser,  A. Manjanath,  P. Manohar,  E. Mansoor,  
 S. F. Manzer,  Shan-Ping Mao,  A. V. Marenich,  T. Markovich,  S. Mason,  
 S. A. Maurer,  P. F. McLaughlin,  M. F. S. J. Menger,  J.-M. Mewes,  
 S. A. Mewes,  P. Morgante,  J. W. Mullinax,  T. S. Nguyen-Beck,  
 K. J. Oosterbaan,  G. Paran,  Alexander C. Paul,  Suranjan K. Paul,  
 F. Pavosevic,  Zheng Pei,  S. Prager,  E. I. Proynov,  E. Ramos,  B. Rana,  
 A. E. Rask,  A. Rettig,  R. M. Richard,  F. Rob,  E. Rossomme,  T. Scheele,  
 M. Scheurer,  M. Schneider,  N. Sergueev,  S. M. Sharada,  W. Skomorowski,  
 D. W. Small,  C. J. Stein,  Yu-Chuan Su,  E. J. Sundstrom,  Zhen Tao,  
 J. Thirman,  T. Tsuchimochi,  N. M. Tubman,  S. P. Veccham,  O. Vydrov,  
 J. Wenzel,  J. Witte,  A. Yamada,  Kun Yao,  S. Yeganeh,  S. R. Yost,  
 A. Zech,  Igor Ying Zhang,  Xing Zhang,  Yu Zhang,  D. Zuev,  
 A. Aspuru-Guzik,  A. T. Bell,  N. A. Besley,  K. B. Bravaya,  B. R. Brooks,  
 D. Casanova,  Jeng-Da Chai,  S. Coriani,  C. J. Cramer,  
 A. E. DePrince, III,  R. A. DiStasio Jr.,  A. Dreuw,  B. D. Dunietz,  
 T. R. Furlani,  W. A. Goddard III,  S. Grimme,  S. Hammes-Schiffer,  
 T. Head-Gordon,  W. J. Hehre,  Chao-Ping Hsu,  T.-C. Jagau,  Yousung Jung,  
 A. Klamt,  Jing Kong,  D. S. Lambrecht,  WanZhen Liang,  N. J. Mayhall,  
 C. W. McCurdy,  J. B. Neaton,  C. Ochsenfeld,  J. A. Parkhill,  R. Peverati,  
 V. A. Rassolov,  Yihan Shao,  L. V. Slipchenko,  T. Stauch,  R. P. Steele,  
 J. E. Subotnik,  A. J. W. Thom,  A. Tkatchenko,  D. G. Truhlar,  
 T. Van Voorhis,  T. A. Wesolowski,  K. B. Whaley,  H. L. Woodcock III,  
 P. M. Zimmerman,  S. Faraji,  P. M. W. Gill,  M. Head-Gordon,  
 J. M. Herbert,  A. I. Krylov

 Contributors to earlier versions of Q-Chem not listed above: 
 R. D. Adamson,  B. Austin,  R. Baer,  J. Baker,  G. J. O. Beran,  
 K. Brandhorst,  S. T. Brown,  E. F. C. Byrd,  A. K. Chakraborty,  
 G. K. L. Chan,  Chun-Min Chang,  Yunqing Chen,  C.-L. Cheng,  
 Siu Hung Chien,  D. M. Chipman,  D. L. Crittenden,  H. Dachsel,  
 R. J. Doerksen,  A. D. Dutoi,  R. G. Edgar,  J. Fosso-Tande,  
 L. Fusti-Molnar,  D. Ghosh,  A. Ghysels,  A. Golubeva-Zadorozhnaya,  
 J. Gonthier,  M. S. Gordon,  S. R. Gwaltney,  G. Hawkins,  J. E. Herr,  
 A. Heyden,  S. Hirata,  E. G. Hohenstein,  G. Kedziora,  F. J. Keil,  
 C. Kelley,  Jihan Kim,  R. A. King,  R. Z. Khaliullin,  P. P. Korambath,  
 W. Kurlancheek,  A. Laurent,  A. M. Lee,  M. S. Lee,  S. V. Levchenko,  
 Ching Yeh Lin,  D. Liotard,  E. Livshits,  R. C. Lochan,  I. Lotan,  
 L. A. Martinez-Martinez,  P. E. Maslen,  N. Nair,  D. P. O'Neill,  
 D. Neuhauser,  E. Neuscamman,  C. M. Oana,  R. Olivares-Amaya,  R. Olson,  
 T. M. Perrine,  B. Peters,  P. A. Pieniazek,  A. Prociuk,  Y. M. Rhee,  
 J. Ritchie,  M. A. Rohrdanz,  E. Rosta,  N. J. Russ,  H. F. Schaefer III,  
 M. W. Schmidt,  N. E. Schultz,  S. Sharma,  N. Shenvi,  C. D. Sherrill,  
 A. C. Simmonett,  A. Sodt,  T. Stein,  D. Stuck,  K. S. Thanthiriwatte,  
 V. Vanovschi,  L. Vogt,  Tao Wang,  A. Warshel,  M. A. Watson,  
 C. F. Williams,  Q. Wu,  X. Xu,  Jun Yang,  W. Zhang,  Yan Zhao

 Please cite Q-Chem as follows:
 Y. Shao et al., Mol. Phys. 113, 184-215 (2015)
 DOI: 10.1080/00268976.2014.952696

 Q-Chem 5.4.0 for Intel X86 EM64T Linux

 Parts of Q-Chem use Armadillo 9.800.1 (Horizon Scraper).
 http://arma.sourceforge.net/

 Q-Chem begins on Sun Sep 24 19:00:08 2023  

 Host: 
0

     Scratch files written to ./qchem2536898//
 May1621 |scratch|qcdevops|jenkins|workspace|build_RNUM    
 Parallel job on  1  processors
 Processing $rem in /cm/shared/apps/spack/cpu/opt/spack/linux-centos8-zen2/gcc-10.2.0/qchem-5.4-akfmr7b3t57bfs6qan3padb2wnb2i7cl/config/preferences:
 Processing $rem in /home/rramji/.qchemrc:
 Symmetry turned off for PCM/SM12/SMD calculation
 Core orbitals will be frozen

 Checking the input file for inconsistencies... 	...done.

 Q-Chem warning in module forms1/BasisType.C, line 2236:

 You are not using the predefined 5D/6D in this basis set.


--------------------------------------------------------------
User input:
--------------------------------------------------------------
$molecule
0 1
C	0.255459	-8.519741	0.093711
C	-0.799036	-7.635967	-0.083869
S	1.789425	-7.651740	0.345260
C	-0.418360	-6.261894	-0.018411
H	-1.834294	-7.954738	-0.259169
C	0.987769	-6.079985	0.229701
C	1.555260	-4.798382	0.302697
C	-1.294992	-5.153542	-0.196459
C	-0.726408	-3.869626	-0.127651
C	0.680716	-3.688927	0.123544
O	-2.601852	-5.481075	-0.396706
O	2.868193	-4.479871	0.502673
C	3.691495	-5.356026	1.262918
H	4.614080	-4.790496	1.494604
H	3.974195	-6.268513	0.693738
H	3.199559	-5.658187	2.212720
C	-3.490743	-4.546999	-0.997016
H	-4.416630	-5.107564	-1.226691
H	-3.073934	-4.131473	-1.939526
H	-3.746794	-3.712085	-0.309214
C	1.058247	-2.314326	0.186133
S	-1.527599	-2.295487	-0.256010
C	0.000000	-1.435180	0.000000
H	2.092285	-1.993211	0.363896
C	0.000000	0.000000	0.000000
S	0.309721	0.844422	1.510732
C	0.847502	2.325108	0.727629
C	0.310602	0.853460	-1.064665
C	0.784173	2.159014	-0.678287
C	0.289451	0.790512	-2.486150
C	0.721927	1.979112	-3.106916
S	1.145464	3.152519	-1.965735
C	0.813355	2.216642	-4.559972
O	0.496884	1.338418	-5.350277
O	1.255274	3.421340	-5.004375
F	-0.087923	-0.257761	-3.246290
C	1.387494	3.754937	-6.334976
H	1.765978	4.793056	-6.370268
H	0.417095	3.693789	-6.875609
H	2.098820	3.081033	-6.861878
H	1.162229	3.189623	1.321510
H	0.401636	-9.146471	-0.793825
H	0.103519	-9.150570	0.977367
H	0.179195	-1.444158	-1.064992
$end

$rem
JOBTYPE		SP
EXCHANGE	HF
CORRELATION	pRIMP2
BASIS		cc-pvtz
METHOD		rimp2
AUX_BASIS	rimp2-cc-pvtz
SOLVENT_METHOD	PCM
PURECART	11111
SYMMETRY	false
MEM_TOTAL	110000
SCF_CONVERGENCE = 6
THRESH=10
GUI = 2
$end



$solvent
dielectric 4.90
$end
--------------------------------------------------------------
 ----------------------------------------------------------------
             Standard Nuclear Orientation (Angstroms)
    I     Atom           X                Y                Z
 ----------------------------------------------------------------
    1      C       0.2554590000    -8.5197410000     0.0937110000
    2      C      -0.7990360000    -7.6359670000    -0.0838690000
    3      S       1.7894250000    -7.6517400000     0.3452600000
    4      C      -0.4183600000    -6.2618940000    -0.0184110000
    5      H      -1.8342940000    -7.9547380000    -0.2591690000
    6      C       0.9877690000    -6.0799850000     0.2297010000
    7      C       1.5552600000    -4.7983820000     0.3026970000
    8      C      -1.2949920000    -5.1535420000    -0.1964590000
    9      C      -0.7264080000    -3.8696260000    -0.1276510000
   10      C       0.6807160000    -3.6889270000     0.1235440000
   11      O      -2.6018520000    -5.4810750000    -0.3967060000
   12      O       2.8681930000    -4.4798710000     0.5026730000
   13      C       3.6914950000    -5.3560260000     1.2629180000
   14      H       4.6140800000    -4.7904960000     1.4946040000
   15      H       3.9741950000    -6.2685130000     0.6937380000
   16      H       3.1995590000    -5.6581870000     2.2127200000
   17      C      -3.4907430000    -4.5469990000    -0.9970160000
   18      H      -4.4166300000    -5.1075640000    -1.2266910000
   19      H      -3.0739340000    -4.1314730000    -1.9395260000
   20      H      -3.7467940000    -3.7120850000    -0.3092140000
   21      C       1.0582470000    -2.3143260000     0.1861330000
   22      S      -1.5275990000    -2.2954870000    -0.2560100000
   23      C       0.0000000000    -1.4351800000     0.0000000000
   24      H       2.0922850000    -1.9932110000     0.3638960000
   25      C       0.0000000000     0.0000000000     0.0000000000
   26      S       0.3097210000     0.8444220000     1.5107320000
   27      C       0.8475020000     2.3251080000     0.7276290000
   28      C       0.3106020000     0.8534600000    -1.0646650000
   29      C       0.7841730000     2.1590140000    -0.6782870000
   30      C       0.2894510000     0.7905120000    -2.4861500000
   31      C       0.7219270000     1.9791120000    -3.1069160000
   32      S       1.1454640000     3.1525190000    -1.9657350000
   33      C       0.8133550000     2.2166420000    -4.5599720000
   34      O       0.4968840000     1.3384180000    -5.3502770000
   35      O       1.2552740000     3.4213400000    -5.0043750000
   36      F      -0.0879230000    -0.2577610000    -3.2462900000
   37      C       1.3874940000     3.7549370000    -6.3349760000
   38      H       1.7659780000     4.7930560000    -6.3702680000
   39      H       0.4170950000     3.6937890000    -6.8756090000
   40      H       2.0988200000     3.0810330000    -6.8618780000
   41      H       1.1622290000     3.1896230000     1.3215100000
   42      H       0.4016360000    -9.1464710000    -0.7938250000
   43      H       0.1035190000    -9.1505700000     0.9773670000
   44      H       0.1791950000    -1.4441580000    -1.0649920000
 ----------------------------------------------------------------
 Nuclear Repulsion Energy =        3362.81704986 hartrees
 There are      120 alpha and      120 beta electrons
 Requested basis set is cc-pVTZ
 There are 388 shells and 1096 basis functions

 Total QAlloc Memory Limit 110000 MB
 Mega-Array Size       188 MB
 MEM_STATIC part       192 MB
 Discretize the solute cavity surface with Lebedev spheres
	Using 110 Lebedev grid points for each H atom
	Using 194 Lebedev grid points for other atoms
	Atomic van der Waals radii will be scaled by 1.20
 Remove points where switching function is < 1.0e-08
 Keep 2990 surface tesserae and discard 4286 interior tesserae
 Molecular Surface Area = 443.982 Angst**2
 Requested basis set is rimp2-cc-pVTZ
 There are 853 shells and 2963 basis functions
 A cutoff of  1.0D-10 yielded  33423 shell pairs
 There are    251947 function pairs (    325880 Cartesian)
 Smallest overlap matrix eigenvalue = 2.16E-05

 Scale SEOQF with 1.000000e-01/1.000000e-02/1.000000e-02

 Standard Electronic Orientation quadrupole field applied
 Nucleus-field energy     =     0.0000000387 hartrees
 Guess from superposition of atomic densities
 Warning:  Energy on first SCF cycle will be non-variational
 SAD guess density has 240.000000 electrons

 -----------------------------------------------------------------------
  General SCF calculation program by
  Eric Jon Sundstrom, Paul Horn, Yuezhi Mao, Dmitri Zuev, Alec White,
  David Stuck, Shaama M.S., Shane Yost, Joonho Lee, David Small,
  Daniel Levine, Susi Lehtola, Hugh Burton, Evgeny Epifanovsky,
  Bang C. Huynh
 -----------------------------------------------------------------------
 Hartree-Fock
 using 64 threads for integral computing
 -------------------------------------------------------
 OpenMP Integral computing Module                
 Release: version 1.0, May 2013, Q-Chem Inc. Pittsburgh 
 -------------------------------------------------------
 A restricted SCF calculation will be
 performed using DIIS
 SCF converges when DIIS error is below 1.0e-06
 ---------------------------------------
  Cycle       Energy         DIIS error
 ---------------------------------------
    1   -2767.3492404174      1.77e-02  
    2   -2754.8685355534      1.54e-03  
    3   -2755.2165544353      8.75e-04  
    4   -2755.3061750046      2.55e-04  
    5   -2755.3195958653      7.17e-05  
    6   -2755.3210407764      2.55e-05  
    7   -2755.3214153044      1.33e-05  
    8   -2755.3215369130      5.73e-06  
    9   -2755.3215675232      2.99e-06  
   10   -2755.3215750227      1.42e-06  
   11   -2755.3215771144      6.89e-07  Convergence criterion met
 ---------------------------------------
 SCF time:   CPU 7537.16s  wall 275.00s 

************** Final PCM Free Energy Summary **************
 G_electrostatic  =      -0.02153179 hartree =     -13.51140366 kcal/mol
 G_cavitation     =       0.00000000 hartree =       0.00000000 kcal/mol
 G_dispersion     =       0.00000000 hartree =       0.00000000 kcal/mol
 G_repulsion      =       0.00000000 hartree =       0.00000000 kcal/mol
 --------------------------------------------------
 Non-electrostatic Free Energy =       0.00000000 hartree =       0.00000000 kcal/mol
 Total                         =      -0.02153179 hartree =     -13.51140366 kcal/mol
 --------------------------------------------------
 SCF Energy (H0 + V/2)                       =   -2755.32157711 
 Solute Internal Energy (H0)                 =   -2755.30004532 
 Total Free Energy (H0 + V/2 + non-elec)     =   -2755.32157711 hartree
                                             = -1728990.38528992 kcal/mol
***********************************************************

 SCF   energy in the final basis set =    -2755.3215771144
 Total energy in the final basis set =    -2755.3215771144


 --------------------------------------------------------------
  Generalized many-body perturbation theory program
  by Joonho Lee, Fazle Rob, Xintian Feng, Evgeny Epifanovsky

 No regularization used 
 (reg. param. = 0.0000e+00)
  (P|Q)^-1/2 Time:  CPU 136.86 s  wall 2.16 s

 In RI-MP2 calculation: 
 # of frozen core orbitals: 45

 Components of the RIMP2 correlation energy:
        aaaa    correlation energy =        -0.6704571664 a.u.
        abab    correlation energy =        -3.7528471213 a.u.
        bbbb    correlation energy =        -0.6704571664 a.u.
        non-Brillouin singles      =        -0.0000000000 a.u.
        total same-spin energy     =        -1.3409143327 a.u.
        total opposite-spin energy =        -3.7528471213 a.u.

 Total  RIMP2   correlation energy =        -5.0937614540 a.u.
        RIMP2         total energy =     -2760.4153385684 a.u.

 RI-MP2 Energy Time:  CPU 2982.10 s  wall 48.33 s
 
 --------------------------------------------------------------
 
                    Orbital Energies (a.u.)
 --------------------------------------------------------------
 
 Alpha MOs
 -- Occupied --
-92.0135 -91.9980 -91.9749 -91.9580 -26.3388 -20.6139 -20.5870 -20.5860
-20.5529 -11.4129 -11.3794 -11.3093 -11.3087 -11.3061 -11.3024 -11.2996
-11.2979 -11.2895 -11.2873 -11.2834 -11.2828 -11.2819 -11.2794 -11.2728
-11.2722 -11.2578 -11.2577 -11.2493 -11.2364  -9.0121  -9.0019  -8.9772
 -8.9606  -6.6928  -6.6922  -6.6919  -6.6832  -6.6825  -6.6812  -6.6583
 -6.6574  -6.6561  -6.6418  -6.6409  -6.6399  -1.6519  -1.4738  -1.4097
 -1.4086  -1.3694  -1.2402  -1.2078  -1.1748  -1.1439  -1.0996  -1.0527
 -1.0452  -1.0302  -1.0082  -0.9970  -0.9733  -0.9592  -0.9484  -0.9410
 -0.8925  -0.8749  -0.8621  -0.8101  -0.7940  -0.7847  -0.7815  -0.7697
 -0.7622  -0.7335  -0.7202  -0.7194  -0.6976  -0.6921  -0.6877  -0.6802
 -0.6762  -0.6742  -0.6549  -0.6481  -0.6310  -0.6283  -0.6197  -0.6147
 -0.6105  -0.6083  -0.5974  -0.5940  -0.5826  -0.5651  -0.5574  -0.5541
 -0.5512  -0.5318  -0.5280  -0.5218  -0.5126  -0.5072  -0.5035  -0.5006
 -0.4882  -0.4858  -0.4764  -0.4683  -0.4636  -0.4627  -0.4597  -0.4455
 -0.4226  -0.4033  -0.3847  -0.3696  -0.3500  -0.2940  -0.2886  -0.2203
 -- Virtual --
  0.0235   0.0523   0.1126   0.1328   0.1396   0.1480   0.1545   0.1550
  0.1598   0.1620   0.1675   0.1739   0.1812   0.1844   0.1883   0.1891
  0.2017   0.2032   0.2055   0.2095   0.2185   0.2209   0.2235   0.2260
  0.2291   0.2308   0.2405   0.2436   0.2523   0.2574   0.2658   0.2688
  0.2771   0.2951   0.3105   0.3148   0.3260   0.3339   0.3359   0.3467
  0.3518   0.3574   0.3601   0.3654   0.3688   0.3705   0.3767   0.3798
  0.3854   0.3886   0.3909   0.3995   0.4038   0.4112   0.4116   0.4169
  0.4270   0.4280   0.4299   0.4362   0.4381   0.4409   0.4434   0.4474
  0.4528   0.4566   0.4625   0.4658   0.4679   0.4773   0.4779   0.4823
  0.4890   0.4913   0.5004   0.5008   0.5045   0.5120   0.5150   0.5168
  0.5251   0.5280   0.5299   0.5342   0.5415   0.5493   0.5532   0.5539
  0.5553   0.5579   0.5583   0.5632   0.5682   0.5702   0.5781   0.5785
  0.5834   0.5867   0.5890   0.5947   0.5951   0.6009   0.6053   0.6087
  0.6148   0.6157   0.6178   0.6218   0.6253   0.6280   0.6295   0.6306
  0.6379   0.6389   0.6420   0.6434   0.6469   0.6527   0.6537   0.6604
  0.6616   0.6679   0.6710   0.6776   0.6831   0.6879   0.6884   0.6942
  0.7038   0.7072   0.7119   0.7131   0.7180   0.7197   0.7255   0.7441
  0.7463   0.7553   0.7584   0.7632   0.7702   0.7745   0.7800   0.7831
  0.7907   0.7950   0.7977   0.8004   0.8100   0.8121   0.8197   0.8254
  0.8297   0.8324   0.8482   0.8519   0.8629   0.8752   0.8771   0.8819
  0.8873   0.8907   0.8955   0.8991   0.9047   0.9077   0.9125   0.9200
  0.9207   0.9249   0.9275   0.9358   0.9404   0.9420   0.9505   0.9521
  0.9597   0.9668   0.9720   0.9769   0.9824   0.9848   0.9885   0.9913
  0.9961   0.9979   1.0035   1.0104   1.0149   1.0183   1.0208   1.0249
  1.0298   1.0348   1.0434   1.0470   1.0488   1.0565   1.0609   1.0624
  1.0732   1.0795   1.0821   1.0872   1.0892   1.0953   1.0994   1.1035
  1.1101   1.1194   1.1235   1.1278   1.1310   1.1410   1.1477   1.1516
  1.1566   1.1587   1.1641   1.1661   1.1691   1.1782   1.1791   1.1838
  1.1869   1.1893   1.1944   1.1960   1.2018   1.2079   1.2090   1.2163
  1.2203   1.2240   1.2351   1.2370   1.2422   1.2490   1.2519   1.2545
  1.2596   1.2676   1.2696   1.2743   1.2820   1.2886   1.2943   1.3001
  1.3027   1.3072   1.3127   1.3161   1.3283   1.3352   1.3370   1.3394
  1.3475   1.3550   1.3623   1.3675   1.3786   1.3832   1.3917   1.3948
  1.4030   1.4047   1.4111   1.4169   1.4223   1.4357   1.4421   1.4466
  1.4610   1.4712   1.4736   1.4841   1.4865   1.4934   1.4942   1.5011
  1.5037   1.5074   1.5105   1.5115   1.5231   1.5282   1.5359   1.5383
  1.5408   1.5443   1.5462   1.5522   1.5608   1.5609   1.5714   1.5780
  1.5898   1.5974   1.6049   1.6131   1.6180   1.6236   1.6277   1.6356
  1.6474   1.6520   1.6560   1.6621   1.6705   1.6778   1.6806   1.6845
  1.6925   1.6991   1.7100   1.7121   1.7218   1.7247   1.7360   1.7427
  1.7536   1.7598   1.7723   1.7818   1.7950   1.8026   1.8110   1.8193
  1.8258   1.8327   1.8358   1.8464   1.8577   1.8585   1.8648   1.8707
  1.8790   1.8799   1.8907   1.9113   1.9203   1.9236   1.9262   1.9292
  1.9392   1.9443   1.9504   1.9548   1.9748   1.9926   1.9969   2.0066
  2.0120   2.0193   2.0286   2.0356   2.0367   2.0453   2.0502   2.0534
  2.0739   2.0742   2.0960   2.0978   2.1103   2.1122   2.1222   2.1284
  2.1422   2.1471   2.1531   2.1571   2.1773   2.1831   2.1844   2.1925
  2.1957   2.1992   2.2104   2.2167   2.2225   2.2257   2.2370   2.2393
  2.2466   2.2607   2.2669   2.2729   2.2798   2.2889   2.2963   2.3016
  2.3089   2.3200   2.3287   2.3310   2.3477   2.3575   2.3613   2.3665
  2.3686   2.3817   2.3911   2.3929   2.4006   2.4139   2.4161   2.4359
  2.4389   2.4455   2.4596   2.4700   2.4794   2.4822   2.4885   2.4988
  2.5120   2.5162   2.5279   2.5357   2.5434   2.5571   2.5651   2.5760
  2.5828   2.5870   2.5975   2.6021   2.6157   2.6190   2.6244   2.6273
  2.6303   2.6410   2.6439   2.6491   2.6502   2.6558   2.6659   2.6760
  2.6788   2.6865   2.6942   2.6983   2.7014   2.7083   2.7139   2.7166
  2.7278   2.7316   2.7357   2.7434   2.7487   2.7593   2.7685   2.7749
  2.7777   2.7838   2.7942   2.7980   2.8082   2.8177   2.8229   2.8298
  2.8332   2.8440   2.8469   2.8541   2.8642   2.8716   2.8745   2.8777
  2.8801   2.8911   2.8964   2.9045   2.9124   2.9202   2.9404   2.9449
  2.9575   2.9604   2.9629   2.9658   2.9732   2.9796   2.9888   2.9986
  3.0086   3.0183   3.0235   3.0298   3.0352   3.0424   3.0447   3.0480
  3.0510   3.0627   3.0715   3.0827   3.0833   3.0898   3.0935   3.0984
  3.1084   3.1133   3.1200   3.1208   3.1308   3.1366   3.1435   3.1478
  3.1508   3.1568   3.1624   3.1666   3.1715   3.1749   3.1799   3.1870
  3.1927   3.1962   3.2002   3.2056   3.2088   3.2112   3.2180   3.2233
  3.2292   3.2336   3.2441   3.2519   3.2559   3.2569   3.2638   3.2654
  3.2721   3.2757   3.2815   3.2831   3.2900   3.2935   3.2953   3.2965
  3.3060   3.3071   3.3114   3.3144   3.3278   3.3304   3.3412   3.3421
  3.3445   3.3500   3.3527   3.3580   3.3598   3.3646   3.3657   3.3685
  3.3718   3.3809   3.3879   3.3921   3.3970   3.4020   3.4030   3.4080
  3.4137   3.4212   3.4286   3.4299   3.4322   3.4367   3.4406   3.4442
  3.4497   3.4527   3.4611   3.4697   3.4741   3.4749   3.4836   3.4876
  3.4893   3.4969   3.5074   3.5102   3.5160   3.5208   3.5259   3.5347
  3.5383   3.5521   3.5560   3.5570   3.5609   3.5723   3.5755   3.5810
  3.5858   3.5876   3.5912   3.5993   3.6059   3.6088   3.6165   3.6222
  3.6260   3.6336   3.6345   3.6368   3.6434   3.6522   3.6578   3.6599
  3.6635   3.6673   3.6713   3.6774   3.6833   3.6870   3.6959   3.6974
  3.7034   3.7086   3.7111   3.7165   3.7187   3.7268   3.7289   3.7329
  3.7380   3.7404   3.7496   3.7551   3.7570   3.7638   3.7642   3.7761
  3.7856   3.7897   3.7996   3.8046   3.8115   3.8127   3.8135   3.8214
  3.8237   3.8299   3.8331   3.8416   3.8442   3.8480   3.8514   3.8592
  3.8666   3.8696   3.8741   3.8855   3.8889   3.8980   3.9064   3.9092
  3.9175   3.9275   3.9301   3.9388   3.9466   3.9486   3.9539   3.9609
  3.9680   3.9742   3.9786   3.9858   3.9959   3.9989   4.0049   4.0162
  4.0221   4.0398   4.0431   4.0470   4.0516   4.0566   4.0612   4.0680
  4.0724   4.0787   4.0834   4.0903   4.0965   4.1038   4.1131   4.1178
  4.1240   4.1475   4.1493   4.1639   4.1667   4.1683   4.1735   4.1785
  4.1834   4.1907   4.1948   4.2087   4.2150   4.2236   4.2338   4.2413
  4.2447   4.2538   4.2651   4.2721   4.2811   4.2834   4.2870   4.3109
  4.3170   4.3223   4.3310   4.3423   4.3468   4.3504   4.3558   4.3629
  4.3745   4.3760   4.3857   4.3905   4.3969   4.4013   4.4102   4.4169
  4.4204   4.4233   4.4267   4.4341   4.4369   4.4376   4.4581   4.4605
  4.4732   4.4770   4.4915   4.4970   4.4987   4.5121   4.5237   4.5247
  4.5287   4.5469   4.5605   4.5628   4.5694   4.5730   4.5768   4.5912
  4.6022   4.6051   4.6260   4.6290   4.6361   4.6409   4.6427   4.6452
  4.6517   4.6693   4.6773   4.6832   4.7025   4.7058   4.7125   4.7250
  4.7369   4.7480   4.7590   4.7681   4.7813   4.7889   4.8023   4.8103
  4.8255   4.8330   4.8339   4.8535   4.8711   4.8831   4.8876   4.8913
  4.9033   4.9201   4.9386   4.9473   4.9544   4.9618   4.9689   4.9764
  4.9921   5.0038   5.0091   5.0110   5.0315   5.0403   5.0462   5.0523
  5.0839   5.0860   5.0980   5.1049   5.1340   5.1603   5.1697   5.1795
  5.1864   5.1947   5.1992   5.2048   5.2113   5.2173   5.2270   5.2441
  5.2545   5.2580   5.2782   5.2842   5.2948   5.3073   5.3195   5.3276
  5.3342   5.3453   5.3542   5.3598   5.3705   5.3750   5.3923   5.4034
  5.4034   5.4084   5.4378   5.4448   5.4554   5.4721   5.4756   5.4856
  5.5086   5.5137   5.5217   5.5342   5.5648   5.5682   5.5789   5.5882
  5.5999   5.6114   5.6155   5.6343   5.6378   5.6579   5.6910   5.6980
  5.7195   5.7457   5.7630   5.7863   5.7992   5.8231   5.8387   5.8599
  5.8632   5.8863   5.9054   5.9443   5.9659   5.9675   5.9811   6.0036
  6.0343   6.0484   6.1205   6.1231   6.1324   6.1435   6.1729   6.1789
  6.1846   6.1948   6.2255   6.2408   6.2541   6.2689   6.2852   6.2919
  6.3070   6.3351   6.3690   6.4302   6.4559   6.4858   6.5180   6.5476
  6.5544   6.5670   6.6473   6.6746   6.6808   6.7151   6.7364   6.7424
  6.8073   6.8562   6.8581   6.8818   6.9005   6.9889   7.1323   7.1474
  7.1766   7.2097   7.2230   7.2394   7.3242   7.3272   7.3419   7.3694
  7.3729   7.4268   7.4608   7.4823   7.4874   7.4973   7.5155   7.5469
  7.6183   7.7388   7.7671   7.8035   7.8301   7.9136   7.9273   7.9574
  8.0027   8.1234   8.3550   8.6040   8.9281   9.0075   9.3604   9.5002
  9.7058  10.2729  11.2387  11.4083  11.9314  11.9603  12.1232  12.3365
 12.4008  12.4836  12.7207  12.9369  13.0023  13.2291  13.4817  13.6038
 13.6450  13.8733  13.9359  13.9602  14.1986  14.3127  14.9970  15.2179
 --------------------------------------------------------------
 
          Ground-State Mulliken Net Atomic Charges

     Atom                 Charge (a.u.)
  ----------------------------------------
      1 C                    -0.070235
      2 C                    -0.260284
      3 S                    -0.135542
      4 C                    -0.044949
      5 H                     0.193417
      6 C                    -0.051901
      7 C                     0.222902
      8 C                     0.229428
      9 C                    -0.084237
     10 C                    -0.047323
     11 O                    -0.335705
     12 O                    -0.343591
     13 C                    -0.082387
     14 H                     0.119771
     15 H                     0.092076
     16 H                     0.092547
     17 C                    -0.086238
     18 H                     0.122529
     19 H                     0.093169
     20 H                     0.089698
     21 C                    -0.251986
     22 S                    -0.071920
     23 C                     0.044012
     24 H                     0.207895
     25 C                    -0.069061
     26 S                     0.099811
     27 C                    -0.225324
     28 C                    -0.091894
     29 C                    -0.004612
     30 C                     0.361270
     31 C                    -0.126564
     32 S                     0.047042
     33 C                     0.458079
     34 O                    -0.446816
     35 O                    -0.297296
     36 F                    -0.213287
     37 C                    -0.054951
     38 H                     0.117055
     39 H                     0.085060
     40 H                     0.084919
     41 H                     0.215528
     42 H                     0.117434
     43 H                     0.114856
     44 H                     0.187607
  ----------------------------------------
  Sum of atomic charges =     0.000000

 -----------------------------------------------------------------
                    Cartesian Multipole Moments
 -----------------------------------------------------------------
    Charge (ESU x 10^10)
                -0.0000
    Dipole Moment (Debye)
         X       1.3751      Y       3.8421      Z       2.4197
       Tot       4.7443
    Quadrupole Moments (Debye-Ang)
        XX    -185.5143     XY       8.9565     YY    -176.0083
        XZ       3.8246     YZ     -10.2057     ZZ    -201.0191
    Octopole Moments (Debye-Ang^2)
       XXX    -220.3240    XXY     345.4195    XYY     -82.4244
       YYY    1039.1149    XXZ     168.7873    XYZ     -55.3082
       YYZ     125.6609    XZZ     -30.5821    YZZ     493.7757
       ZZZ     527.6956
    Hexadecapole Moments (Debye-Ang^3)
      XXXX   -2638.0100   XXXY      32.7470   XXYY   -3963.6324
      XYYY     391.0108   YYYY  -19605.5806   XXXZ     335.4869
      XXYZ     459.8425   XYYZ     176.8377   YYYZ    1335.6990
      XXZZ   -1363.9301   XYZZ     183.4460   YYZZ   -4166.0139
      XZZZ     -36.2120   YZZZ     827.7610   ZZZZ   -5655.6872
 -----------------------------------------------------------------
 Total job time:  330.04s(wall), 10714.11s(cpu) 
 Sun Sep 24 19:05:38 2023

        *************************************************************
        *                                                           *
        *  Thank you very much for using Q-Chem.  Have a nice day.  *
        *                                                           *
        *************************************************************


0 sent ACK to 0 
now end server 0 ... 
cleanup process ... done
remove work dirs ./qchem2536898.0 -- ./qchem2536898.0
rm -rf ./qchem2536898.0
rm -rf ./qchem2536898
