You are running Q-Chem version: 5.4.0

#
# job setting
#
local host:  exp-6-53
current dir: /expanse/lustre/projects/csd626/rramji/aromodel/PTB7_fin/Hydrogenated_Rotation_Test
input file:  fin_bdt_Phi_30_Theta_250_fin_ftt_Hydrogenated.qcin
output file: 
nprocs     : 1
nthreads   : 64
#
# qchem installation setting
#
QC:          /cm/shared/apps/spack/cpu/opt/spack/linux-centos8-zen2/gcc-10.2.0/qchem-5.4-akfmr7b3t57bfs6qan3padb2wnb2i7cl
QCAUX:       /cm/shared/apps/spack/cpu/opt/spack/linux-centos8-zen2/gcc-10.2.0/qchem-5.4-akfmr7b3t57bfs6qan3padb2wnb2i7cl/qcaux
QCPROG:      /cm/shared/apps/spack/cpu/opt/spack/linux-centos8-zen2/gcc-10.2.0/qchem-5.4-akfmr7b3t57bfs6qan3padb2wnb2i7cl/exe/qcprog.exe
QCPROG_S:    /cm/shared/apps/spack/cpu/opt/spack/linux-centos8-zen2/gcc-10.2.0/qchem-5.4-akfmr7b3t57bfs6qan3padb2wnb2i7cl/exe/qcprog.exe_s
PARALLEL:    -DPARALLEL
QCMPI:       mpich
#
# qchem directory setting
#
qcrun:       qchem2034135
QCSCRATCH:   .
QCLOCALSCR:  
QCTMPDIR:    .
QCFILEPREF:  ./qchem2034135
QCSAVEDIR:   
workdirs:    ./qchem2034135
workdir0:    ./qchem2034135
partmpdirs =  
#
# parallel setting
#
QCRSH:           ssh
QCMPI:           mpich
QCMPIRUN:        /cm/shared/apps/spack/cpu/opt/spack/linux-centos8-zen2/gcc-10.2.0/qchem-5.4-akfmr7b3t57bfs6qan3padb2wnb2i7cl/bin/mpi/mpirun_qchem
QCMACHINEFILE:   ./qchem2034135/hostfile
exp-6-53

#
# env setting
#
exported envs:   QC QCAUX QCSCRATCH QCRUNNAME QCFILEPREF QCPROG QCPROG_S GUIFILE

Running Job 1 of 1 fin_bdt_Phi_30_Theta_250_fin_ftt_Hydrogenated.qcin
qchem fin_bdt_Phi_30_Theta_250_fin_ftt_Hydrogenated.qcin_2034135.0 ./qchem2034135/ 1
/cm/shared/apps/spack/cpu/opt/spack/linux-centos8-zen2/gcc-10.2.0/qchem-5.4-akfmr7b3t57bfs6qan3padb2wnb2i7cl/bin/mpi/mpirun_qchem -machinefile ./qchem2034135/hostfile -np 1 /cm/shared/apps/spack/cpu/opt/spack/linux-centos8-zen2/gcc-10.2.0/qchem-5.4-akfmr7b3t57bfs6qan3padb2wnb2i7cl/exe/qcprog.exe fin_bdt_Phi_30_Theta_250_fin_ftt_Hydrogenated.qcin_2034135.0 ./qchem2034135/

Process 0 of 1 is on exp-6-53 - thread support 0
initial socket setup ...start
initial socket setup ...done 
now start server 0 ... 
                  Welcome to Q-Chem
     A Quantum Leap Into The Future Of Chemistry


 Q-Chem 5.4, Q-Chem, Inc., Pleasanton, CA (2021)

 License issued to: University of California, San Diego (site)

 E. Epifanovsky,  A. T. B. Gilbert,  Xintian Feng,  Joonho Lee,  Yuezhi Mao,  
 N. Mardirossian,  P. Pokhilko,  A. White,  M. Wormit,  M. P. Coons,  
 A. L. Dempwolff,  Zhengting Gan,  D. Hait,  P. R. Horn,  L. D. Jacobson,  
 I. Kaliman,  J. Kussmann,  A. W. Lange,  Ka Un Lao,  D. S. Levine,  Jie Liu,  
 S. C. McKenzie,  A. F. Morrison,  K. Nanda,  F. Plasser,  D. R. Rehn,  
 M. L. Vidal,  Zhi-Qiang You,  Ying Zhu,  B. Alam,  B. Albrecht,  
 A. Aldossary,  E. Alguire,  J. H. Andersen,  D. Barton,  K. Begam,  A. Behn,  
 Y. A. Bernard,  E. J. Berquist,  H. Burton,  A. Carreras,  K. Carter-Fenk,  
 R. Chakraborty,  A. D. Chien,  K. D. Closser,  V. Cofer-Shabica,  
 S. Dasgupta,  Jia Deng,  M. de Wergifosse,  M. Diedenhofen,  Hainam Do,  
 S. Ehlert,  Po-Tung Fang,  S. Fatehi,  Qingguo Feng,  J. Gayvert,  
 Qinghui Ge,  G. Gidofalvi,  M. Goldey,  J. Gomes,  C. Gonzalez-Espinoza,  
 S. Gulania,  A. Gunina,  M. W. D. Hanson-Heine,  P. H. P. Harbach,  
 A. W. Hauser,  M. F. Herbst,  M. Hernandez Vera,  M. Hodecker,  
 Z. C. Holden,  S. Houck,  Xunkun Huang,  Kerwin Hui,  B. C. Huynh,  
 M. Ivanov,  Hyunjun Ji,  Hanjie Jiang,  B. Kaduk,  S. Kaehler,  
 K. Khistyaev,  Jaehoon Kim,  P. Klunzinger,  Z. Koczor-Benda,  
 Joong Hoon Koh,  D. Kosenkov,  L. Koulias,  T. Kowalczyk,  C. M. Krauter,  
 K. Kue,  A. Kunitsa,  T. Kus,  A. Landau,  K. V. Lawler,  D. Lefrancois,  
 S. Lehtola,  Rain Li,  Yi-Pei Li,  Jiashu Liang,  M. Liebenthal,  
 Hung-Hsuan Lin,  You-Sheng Lin,  Fenglai Liu,  Kuan-Yu Liu,  
 M. Loipersberger,  A. Luenser,  A. Manjanath,  P. Manohar,  E. Mansoor,  
 S. F. Manzer,  Shan-Ping Mao,  A. V. Marenich,  T. Markovich,  S. Mason,  
 S. A. Maurer,  P. F. McLaughlin,  M. F. S. J. Menger,  J.-M. Mewes,  
 S. A. Mewes,  P. Morgante,  J. W. Mullinax,  T. S. Nguyen-Beck,  
 K. J. Oosterbaan,  G. Paran,  Alexander C. Paul,  Suranjan K. Paul,  
 F. Pavosevic,  Zheng Pei,  S. Prager,  E. I. Proynov,  E. Ramos,  B. Rana,  
 A. E. Rask,  A. Rettig,  R. M. Richard,  F. Rob,  E. Rossomme,  T. Scheele,  
 M. Scheurer,  M. Schneider,  N. Sergueev,  S. M. Sharada,  W. Skomorowski,  
 D. W. Small,  C. J. Stein,  Yu-Chuan Su,  E. J. Sundstrom,  Zhen Tao,  
 J. Thirman,  T. Tsuchimochi,  N. M. Tubman,  S. P. Veccham,  O. Vydrov,  
 J. Wenzel,  J. Witte,  A. Yamada,  Kun Yao,  S. Yeganeh,  S. R. Yost,  
 A. Zech,  Igor Ying Zhang,  Xing Zhang,  Yu Zhang,  D. Zuev,  
 A. Aspuru-Guzik,  A. T. Bell,  N. A. Besley,  K. B. Bravaya,  B. R. Brooks,  
 D. Casanova,  Jeng-Da Chai,  S. Coriani,  C. J. Cramer,  
 A. E. DePrince, III,  R. A. DiStasio Jr.,  A. Dreuw,  B. D. Dunietz,  
 T. R. Furlani,  W. A. Goddard III,  S. Grimme,  S. Hammes-Schiffer,  
 T. Head-Gordon,  W. J. Hehre,  Chao-Ping Hsu,  T.-C. Jagau,  Yousung Jung,  
 A. Klamt,  Jing Kong,  D. S. Lambrecht,  WanZhen Liang,  N. J. Mayhall,  
 C. W. McCurdy,  J. B. Neaton,  C. Ochsenfeld,  J. A. Parkhill,  R. Peverati,  
 V. A. Rassolov,  Yihan Shao,  L. V. Slipchenko,  T. Stauch,  R. P. Steele,  
 J. E. Subotnik,  A. J. W. Thom,  A. Tkatchenko,  D. G. Truhlar,  
 T. Van Voorhis,  T. A. Wesolowski,  K. B. Whaley,  H. L. Woodcock III,  
 P. M. Zimmerman,  S. Faraji,  P. M. W. Gill,  M. Head-Gordon,  
 J. M. Herbert,  A. I. Krylov

 Contributors to earlier versions of Q-Chem not listed above: 
 R. D. Adamson,  B. Austin,  R. Baer,  J. Baker,  G. J. O. Beran,  
 K. Brandhorst,  S. T. Brown,  E. F. C. Byrd,  A. K. Chakraborty,  
 G. K. L. Chan,  Chun-Min Chang,  Yunqing Chen,  C.-L. Cheng,  
 Siu Hung Chien,  D. M. Chipman,  D. L. Crittenden,  H. Dachsel,  
 R. J. Doerksen,  A. D. Dutoi,  R. G. Edgar,  J. Fosso-Tande,  
 L. Fusti-Molnar,  D. Ghosh,  A. Ghysels,  A. Golubeva-Zadorozhnaya,  
 J. Gonthier,  M. S. Gordon,  S. R. Gwaltney,  G. Hawkins,  J. E. Herr,  
 A. Heyden,  S. Hirata,  E. G. Hohenstein,  G. Kedziora,  F. J. Keil,  
 C. Kelley,  Jihan Kim,  R. A. King,  R. Z. Khaliullin,  P. P. Korambath,  
 W. Kurlancheek,  A. Laurent,  A. M. Lee,  M. S. Lee,  S. V. Levchenko,  
 Ching Yeh Lin,  D. Liotard,  E. Livshits,  R. C. Lochan,  I. Lotan,  
 L. A. Martinez-Martinez,  P. E. Maslen,  N. Nair,  D. P. O'Neill,  
 D. Neuhauser,  E. Neuscamman,  C. M. Oana,  R. Olivares-Amaya,  R. Olson,  
 T. M. Perrine,  B. Peters,  P. A. Pieniazek,  A. Prociuk,  Y. M. Rhee,  
 J. Ritchie,  M. A. Rohrdanz,  E. Rosta,  N. J. Russ,  H. F. Schaefer III,  
 M. W. Schmidt,  N. E. Schultz,  S. Sharma,  N. Shenvi,  C. D. Sherrill,  
 A. C. Simmonett,  A. Sodt,  T. Stein,  D. Stuck,  K. S. Thanthiriwatte,  
 V. Vanovschi,  L. Vogt,  Tao Wang,  A. Warshel,  M. A. Watson,  
 C. F. Williams,  Q. Wu,  X. Xu,  Jun Yang,  W. Zhang,  Yan Zhao

 Please cite Q-Chem as follows:
 Y. Shao et al., Mol. Phys. 113, 184-215 (2015)
 DOI: 10.1080/00268976.2014.952696

 Q-Chem 5.4.0 for Intel X86 EM64T Linux

 Parts of Q-Chem use Armadillo 9.800.1 (Horizon Scraper).
 http://arma.sourceforge.net/

 Q-Chem begins on Sun Sep 24 18:41:22 2023  

 Host: 
0

     Scratch files written to ./qchem2034135//
 May1621 |scratch|qcdevops|jenkins|workspace|build_RNUM    
 Parallel job on  1  processors
 Processing $rem in /cm/shared/apps/spack/cpu/opt/spack/linux-centos8-zen2/gcc-10.2.0/qchem-5.4-akfmr7b3t57bfs6qan3padb2wnb2i7cl/config/preferences:
 Processing $rem in /home/rramji/.qchemrc:
 Symmetry turned off for PCM/SM12/SMD calculation
 Core orbitals will be frozen

 Checking the input file for inconsistencies... 	...done.

 Q-Chem warning in module forms1/BasisType.C, line 2236:

 You are not using the predefined 5D/6D in this basis set.


--------------------------------------------------------------
User input:
--------------------------------------------------------------
$molecule
0 1
C	0.268090	-8.519741	-0.046574
C	-0.733920	-7.635967	0.326886
S	1.722318	-7.651740	-0.595708
C	-0.371516	-6.261894	0.193236
H	-1.718130	-7.954738	0.692700
C	0.970283	-6.079985	-0.294958
C	1.498243	-4.798382	-0.515487
C	-1.219725	-5.153542	0.477358
C	-0.692914	-3.869626	0.252655
C	0.651289	-3.688927	-0.233366
O	-2.451623	-5.481075	0.957369
O	2.735264	-4.479871	-0.998769
C	3.828387	-5.356026	-0.752029
H	4.743213	-4.790496	-1.012675
H	3.788623	-6.268513	-1.386303
H	3.877260	-5.658187	0.316492
C	-3.521580	-4.546999	0.881930
H	-4.438260	-5.107564	1.145969
H	-3.631868	-4.131473	-0.142712
H	-3.399425	-3.712085	1.605610
C	1.009535	-2.314326	-0.367928
S	-1.450945	-2.295487	0.542088
C	-0.000000	-1.435180	-0.000000
H	1.993920	-1.993211	-0.730999
C	0.000000	0.000000	0.000000
S	0.451648	0.777811	1.510732
C	1.238377	2.142617	0.727629
C	0.454085	0.786559	-1.064665
C	1.147169	1.990043	-0.678287
C	0.422325	0.728240	-2.486150
C	1.054629	1.823683	-3.106916
S	1.675491	2.905718	-1.965735
C	1.185914	2.041729	-4.559972
O	0.721749	1.231802	-5.350277
O	1.830313	3.151386	-5.004375
F	-0.131347	-0.238577	-3.246290
C	2.018453	3.456956	-6.334976
H	2.571455	4.413580	-6.370268
H	1.052178	3.565244	-6.875609
H	2.601950	2.669768	-6.861878
H	1.698444	2.939346	1.321510
H	-0.049086	-9.146471	-0.888291
H	0.578334	-9.150570	0.794665
H	-0.377309	-1.444158	-1.011908
$end

$rem
JOBTYPE		SP
EXCHANGE	HF
CORRELATION	pRIMP2
BASIS		cc-pvtz
METHOD		rimp2
AUX_BASIS	rimp2-cc-pvtz
SOLVENT_METHOD	PCM
PURECART	11111
SYMMETRY	false
MEM_TOTAL	110000
SCF_CONVERGENCE = 6
THRESH=10
GUI = 2
$end



$solvent
dielectric 4.90
$end
--------------------------------------------------------------
 ----------------------------------------------------------------
             Standard Nuclear Orientation (Angstroms)
    I     Atom           X                Y                Z
 ----------------------------------------------------------------
    1      C       0.2680900000    -8.5197410000    -0.0465740000
    2      C      -0.7339200000    -7.6359670000     0.3268860000
    3      S       1.7223180000    -7.6517400000    -0.5957080000
    4      C      -0.3715160000    -6.2618940000     0.1932360000
    5      H      -1.7181300000    -7.9547380000     0.6927000000
    6      C       0.9702830000    -6.0799850000    -0.2949580000
    7      C       1.4982430000    -4.7983820000    -0.5154870000
    8      C      -1.2197250000    -5.1535420000     0.4773580000
    9      C      -0.6929140000    -3.8696260000     0.2526550000
   10      C       0.6512890000    -3.6889270000    -0.2333660000
   11      O      -2.4516230000    -5.4810750000     0.9573690000
   12      O       2.7352640000    -4.4798710000    -0.9987690000
   13      C       3.8283870000    -5.3560260000    -0.7520290000
   14      H       4.7432130000    -4.7904960000    -1.0126750000
   15      H       3.7886230000    -6.2685130000    -1.3863030000
   16      H       3.8772600000    -5.6581870000     0.3164920000
   17      C      -3.5215800000    -4.5469990000     0.8819300000
   18      H      -4.4382600000    -5.1075640000     1.1459690000
   19      H      -3.6318680000    -4.1314730000    -0.1427120000
   20      H      -3.3994250000    -3.7120850000     1.6056100000
   21      C       1.0095350000    -2.3143260000    -0.3679280000
   22      S      -1.4509450000    -2.2954870000     0.5420880000
   23      C       0.0000000000    -1.4351800000     0.0000000000
   24      H       1.9939200000    -1.9932110000    -0.7309990000
   25      C       0.0000000000     0.0000000000     0.0000000000
   26      S       0.4516480000     0.7778110000     1.5107320000
   27      C       1.2383770000     2.1426170000     0.7276290000
   28      C       0.4540850000     0.7865590000    -1.0646650000
   29      C       1.1471690000     1.9900430000    -0.6782870000
   30      C       0.4223250000     0.7282400000    -2.4861500000
   31      C       1.0546290000     1.8236830000    -3.1069160000
   32      S       1.6754910000     2.9057180000    -1.9657350000
   33      C       1.1859140000     2.0417290000    -4.5599720000
   34      O       0.7217490000     1.2318020000    -5.3502770000
   35      O       1.8303130000     3.1513860000    -5.0043750000
   36      F      -0.1313470000    -0.2385770000    -3.2462900000
   37      C       2.0184530000     3.4569560000    -6.3349760000
   38      H       2.5714550000     4.4135800000    -6.3702680000
   39      H       1.0521780000     3.5652440000    -6.8756090000
   40      H       2.6019500000     2.6697680000    -6.8618780000
   41      H       1.6984440000     2.9393460000     1.3215100000
   42      H      -0.0490860000    -9.1464710000    -0.8882910000
   43      H       0.5783340000    -9.1505700000     0.7946650000
   44      H      -0.3773090000    -1.4441580000    -1.0119080000
 ----------------------------------------------------------------
 Nuclear Repulsion Energy =        3372.56899136 hartrees
 There are      120 alpha and      120 beta electrons
 Requested basis set is cc-pVTZ
 There are 388 shells and 1096 basis functions

 Total QAlloc Memory Limit 110000 MB
 Mega-Array Size       188 MB
 MEM_STATIC part       192 MB
 Discretize the solute cavity surface with Lebedev spheres
	Using 110 Lebedev grid points for each H atom
	Using 194 Lebedev grid points for other atoms
	Atomic van der Waals radii will be scaled by 1.20
 Remove points where switching function is < 1.0e-08
 Keep 2962 surface tesserae and discard 4314 interior tesserae
 Molecular Surface Area = 442.283 Angst**2
 Requested basis set is rimp2-cc-pVTZ
 There are 853 shells and 2963 basis functions
 A cutoff of  1.0D-10 yielded  33694 shell pairs
 There are    254136 function pairs (    328643 Cartesian)
 Smallest overlap matrix eigenvalue = 2.12E-05

 Scale SEOQF with 1.000000e-01/1.000000e-02/1.000000e-02

 Standard Electronic Orientation quadrupole field applied
 Nucleus-field energy     =     0.0000000405 hartrees
 Guess from superposition of atomic densities
 Warning:  Energy on first SCF cycle will be non-variational
 SAD guess density has 240.000000 electrons

 -----------------------------------------------------------------------
  General SCF calculation program by
  Eric Jon Sundstrom, Paul Horn, Yuezhi Mao, Dmitri Zuev, Alec White,
  David Stuck, Shaama M.S., Shane Yost, Joonho Lee, David Small,
  Daniel Levine, Susi Lehtola, Hugh Burton, Evgeny Epifanovsky,
  Bang C. Huynh
 -----------------------------------------------------------------------
 Hartree-Fock
 using 64 threads for integral computing
 -------------------------------------------------------
 OpenMP Integral computing Module                
 Release: version 1.0, May 2013, Q-Chem Inc. Pittsburgh 
 -------------------------------------------------------
 A restricted SCF calculation will be
 performed using DIIS
 SCF converges when DIIS error is below 1.0e-06
 ---------------------------------------
  Cycle       Energy         DIIS error
 ---------------------------------------
    1   -2767.3560252440      1.77e-02  
    2   -2754.8608830932      1.54e-03  
    3   -2755.2089251626      8.76e-04  
    4   -2755.2985159867      2.55e-04  
    5   -2755.3119211080      7.17e-05  
    6   -2755.3133619338      2.55e-05  
    7   -2755.3137311660      1.32e-05  
    8   -2755.3138507353      5.70e-06  
    9   -2755.3138807676      2.97e-06  
   10   -2755.3138882973      1.43e-06  
   11   -2755.3138904077      6.72e-07  Convergence criterion met
 ---------------------------------------
 SCF time:   CPU 7529.11s  wall 277.00s 

************** Final PCM Free Energy Summary **************
 G_electrostatic  =      -0.02153763 hartree =     -13.51506510 kcal/mol
 G_cavitation     =       0.00000000 hartree =       0.00000000 kcal/mol
 G_dispersion     =       0.00000000 hartree =       0.00000000 kcal/mol
 G_repulsion      =       0.00000000 hartree =       0.00000000 kcal/mol
 --------------------------------------------------
 Non-electrostatic Free Energy =       0.00000000 hartree =       0.00000000 kcal/mol
 Total                         =      -0.02153763 hartree =     -13.51506510 kcal/mol
 --------------------------------------------------
 SCF Energy (H0 + V/2)                       =   -2755.31389041 
 Solute Internal Energy (H0)                 =   -2755.29235278 
 Total Free Energy (H0 + V/2 + non-elec)     =   -2755.31389041 hartree
                                             = -1728985.56180870 kcal/mol
***********************************************************

 SCF   energy in the final basis set =    -2755.3138904077
 Total energy in the final basis set =    -2755.3138904077


 --------------------------------------------------------------
  Generalized many-body perturbation theory program
  by Joonho Lee, Fazle Rob, Xintian Feng, Evgeny Epifanovsky

 No regularization used 
 (reg. param. = 0.0000e+00)
  (P|Q)^-1/2 Time:  CPU 131.52 s  wall 2.77 s

 In RI-MP2 calculation: 
 # of frozen core orbitals: 45

 Components of the RIMP2 correlation energy:
        aaaa    correlation energy =        -0.6710380932 a.u.
        abab    correlation energy =        -3.7546038131 a.u.
        bbbb    correlation energy =        -0.6710380932 a.u.
        non-Brillouin singles      =        -0.0000000000 a.u.
        total same-spin energy     =        -1.3420761863 a.u.
        total opposite-spin energy =        -3.7546038131 a.u.

 Total  RIMP2   correlation energy =        -5.0966799994 a.u.
        RIMP2         total energy =     -2760.4105704071 a.u.

 RI-MP2 Energy Time:  CPU 2872.87 s  wall 47.13 s
 
 --------------------------------------------------------------
 
                    Orbital Energies (a.u.)
 --------------------------------------------------------------
 
 Alpha MOs
 -- Occupied --
-92.0123 -91.9995 -91.9752 -91.9576 -26.3388 -20.6145 -20.5868 -20.5860
-20.5538 -11.4137 -11.3795 -11.3086 -11.3058 -11.3042 -11.3040 -11.3038
-11.2990 -11.2898 -11.2893 -11.2837 -11.2825 -11.2817 -11.2786 -11.2722
-11.2721 -11.2575 -11.2570 -11.2490 -11.2356  -9.0111  -9.0034  -8.9774
 -8.9602  -6.6918  -6.6911  -6.6908  -6.6846  -6.6840  -6.6826  -6.6586
 -6.6577  -6.6564  -6.6414  -6.6405  -6.6395  -1.6519  -1.4744  -1.4096
 -1.4084  -1.3701  -1.2414  -1.2076  -1.1746  -1.1444  -1.0993  -1.0533
 -1.0451  -1.0307  -1.0081  -0.9968  -0.9737  -0.9592  -0.9484  -0.9412
 -0.8926  -0.8753  -0.8614  -0.8086  -0.7953  -0.7845  -0.7807  -0.7720
 -0.7614  -0.7335  -0.7205  -0.7189  -0.6976  -0.6926  -0.6869  -0.6806
 -0.6762  -0.6743  -0.6550  -0.6480  -0.6333  -0.6268  -0.6194  -0.6145
 -0.6109  -0.6090  -0.5987  -0.5940  -0.5822  -0.5663  -0.5572  -0.5548
 -0.5467  -0.5325  -0.5287  -0.5226  -0.5122  -0.5070  -0.5037  -0.5012
 -0.4885  -0.4847  -0.4737  -0.4689  -0.4640  -0.4632  -0.4594  -0.4453
 -0.4210  -0.4038  -0.3842  -0.3694  -0.3504  -0.2955  -0.2884  -0.2195
 -- Virtual --
  0.0190   0.0532   0.1112   0.1328   0.1398   0.1470   0.1541   0.1549
  0.1592   0.1611   0.1643   0.1723   0.1829   0.1838   0.1888   0.1948
  0.2007   0.2036   0.2047   0.2088   0.2175   0.2207   0.2237   0.2265
  0.2302   0.2311   0.2386   0.2453   0.2525   0.2568   0.2639   0.2679
  0.2752   0.2953   0.3057   0.3122   0.3304   0.3351   0.3378   0.3451
  0.3496   0.3571   0.3602   0.3627   0.3685   0.3694   0.3778   0.3803
  0.3873   0.3890   0.3899   0.4029   0.4067   0.4126   0.4156   0.4192
  0.4244   0.4275   0.4292   0.4325   0.4362   0.4379   0.4455   0.4475
  0.4533   0.4574   0.4622   0.4647   0.4706   0.4739   0.4776   0.4802
  0.4829   0.4946   0.4978   0.5020   0.5074   0.5105   0.5134   0.5215
  0.5264   0.5284   0.5325   0.5347   0.5405   0.5435   0.5460   0.5498
  0.5573   0.5579   0.5593   0.5623   0.5674   0.5712   0.5786   0.5819
  0.5831   0.5864   0.5890   0.5940   0.5971   0.6022   0.6058   0.6120
  0.6152   0.6161   0.6168   0.6198   0.6215   0.6236   0.6305   0.6341
  0.6353   0.6404   0.6455   0.6460   0.6491   0.6513   0.6544   0.6559
  0.6578   0.6630   0.6720   0.6781   0.6813   0.6839   0.6911   0.6916
  0.7009   0.7067   0.7109   0.7149   0.7158   0.7257   0.7283   0.7437
  0.7490   0.7566   0.7586   0.7644   0.7750   0.7761   0.7797   0.7868
  0.7895   0.7918   0.7946   0.8033   0.8037   0.8127   0.8195   0.8247
  0.8282   0.8400   0.8442   0.8570   0.8635   0.8700   0.8737   0.8784
  0.8874   0.8936   0.8957   0.9025   0.9037   0.9087   0.9103   0.9120
  0.9237   0.9249   0.9266   0.9374   0.9414   0.9442   0.9502   0.9515
  0.9586   0.9641   0.9706   0.9761   0.9775   0.9846   0.9904   0.9910
  0.9988   1.0026   1.0057   1.0098   1.0143   1.0171   1.0223   1.0285
  1.0307   1.0375   1.0430   1.0496   1.0540   1.0584   1.0611   1.0669
  1.0697   1.0747   1.0800   1.0853   1.0885   1.0945   1.1019   1.1066
  1.1074   1.1172   1.1196   1.1284   1.1298   1.1435   1.1493   1.1514
  1.1556   1.1606   1.1659   1.1701   1.1711   1.1760   1.1781   1.1785
  1.1822   1.1849   1.1911   1.1969   1.2001   1.2060   1.2118   1.2154
  1.2212   1.2225   1.2329   1.2382   1.2435   1.2478   1.2487   1.2564
  1.2615   1.2651   1.2754   1.2832   1.2839   1.2870   1.2896   1.2953
  1.3060   1.3097   1.3174   1.3215   1.3265   1.3293   1.3381   1.3399
  1.3456   1.3493   1.3568   1.3668   1.3741   1.3820   1.3884   1.3946
  1.4040   1.4084   1.4137   1.4251   1.4325   1.4342   1.4467   1.4500
  1.4638   1.4728   1.4754   1.4838   1.4911   1.4925   1.4966   1.4986
  1.5044   1.5090   1.5112   1.5176   1.5259   1.5270   1.5341   1.5356
  1.5421   1.5447   1.5481   1.5557   1.5588   1.5635   1.5713   1.5758
  1.5884   1.5941   1.5985   1.6116   1.6172   1.6180   1.6286   1.6341
  1.6430   1.6545   1.6578   1.6599   1.6673   1.6697   1.6772   1.6887
  1.6908   1.6991   1.7086   1.7132   1.7182   1.7283   1.7389   1.7430
  1.7604   1.7616   1.7693   1.7855   1.7972   1.8005   1.8079   1.8218
  1.8251   1.8303   1.8326   1.8424   1.8493   1.8599   1.8658   1.8727
  1.8809   1.8923   1.9051   1.9090   1.9161   1.9217   1.9320   1.9337
  1.9387   1.9507   1.9571   1.9684   1.9799   1.9822   1.9960   2.0094
  2.0116   2.0205   2.0258   2.0306   2.0393   2.0417   2.0469   2.0568
  2.0731   2.0766   2.0912   2.0932   2.0994   2.1164   2.1223   2.1307
  2.1410   2.1531   2.1561   2.1578   2.1712   2.1779   2.1835   2.1939
  2.1953   2.1985   2.2018   2.2200   2.2246   2.2358   2.2387   2.2403
  2.2484   2.2529   2.2612   2.2754   2.2760   2.2821   2.2968   2.2986
  2.3021   2.3100   2.3231   2.3290   2.3333   2.3409   2.3556   2.3631
  2.3658   2.3885   2.3910   2.3995   2.4037   2.4100   2.4173   2.4340
  2.4378   2.4508   2.4582   2.4703   2.4741   2.4826   2.4885   2.5024
  2.5105   2.5182   2.5274   2.5341   2.5405   2.5548   2.5690   2.5796
  2.5824   2.5931   2.5980   2.6022   2.6131   2.6168   2.6224   2.6268
  2.6315   2.6420   2.6430   2.6471   2.6497   2.6539   2.6621   2.6771
  2.6834   2.6876   2.6960   2.6973   2.6996   2.7065   2.7123   2.7224
  2.7265   2.7319   2.7421   2.7430   2.7526   2.7625   2.7681   2.7739
  2.7788   2.7828   2.7928   2.8040   2.8072   2.8147   2.8273   2.8297
  2.8393   2.8489   2.8521   2.8607   2.8624   2.8678   2.8702   2.8783
  2.8788   2.8850   2.8951   2.9022   2.9194   2.9317   2.9358   2.9464
  2.9510   2.9605   2.9625   2.9695   2.9748   2.9809   2.9866   3.0016
  3.0118   3.0186   3.0207   3.0288   3.0354   3.0406   3.0441   3.0449
  3.0553   3.0600   3.0659   3.0761   3.0872   3.0904   3.0960   3.1038
  3.1064   3.1134   3.1152   3.1257   3.1345   3.1388   3.1427   3.1493
  3.1509   3.1585   3.1615   3.1624   3.1691   3.1707   3.1798   3.1840
  3.1876   3.1945   3.2000   3.2043   3.2060   3.2138   3.2187   3.2250
  3.2353   3.2362   3.2450   3.2503   3.2528   3.2559   3.2607   3.2675
  3.2698   3.2749   3.2800   3.2874   3.2899   3.2941   3.2948   3.2998
  3.3047   3.3057   3.3132   3.3171   3.3291   3.3352   3.3412   3.3438
  3.3479   3.3514   3.3558   3.3576   3.3597   3.3648   3.3656   3.3719
  3.3738   3.3792   3.3871   3.3915   3.3967   3.4031   3.4042   3.4109
  3.4136   3.4212   3.4242   3.4310   3.4342   3.4368   3.4399   3.4437
  3.4490   3.4542   3.4591   3.4661   3.4732   3.4767   3.4857   3.4890
  3.4913   3.4934   3.5052   3.5121   3.5160   3.5187   3.5309   3.5391
  3.5456   3.5468   3.5536   3.5569   3.5618   3.5735   3.5804   3.5833
  3.5885   3.5927   3.5946   3.6025   3.6037   3.6091   3.6145   3.6259
  3.6278   3.6320   3.6379   3.6448   3.6449   3.6544   3.6564   3.6594
  3.6645   3.6697   3.6756   3.6798   3.6852   3.6868   3.6937   3.6986
  3.7049   3.7092   3.7113   3.7182   3.7222   3.7279   3.7300   3.7319
  3.7335   3.7406   3.7475   3.7500   3.7602   3.7661   3.7693   3.7776
  3.7901   3.7932   3.7962   3.8044   3.8058   3.8137   3.8152   3.8220
  3.8301   3.8333   3.8362   3.8402   3.8460   3.8497   3.8522   3.8593
  3.8615   3.8711   3.8758   3.8848   3.8921   3.9013   3.9039   3.9071
  3.9170   3.9265   3.9342   3.9411   3.9476   3.9521   3.9552   3.9611
  3.9674   3.9711   3.9794   3.9882   3.9967   4.0043   4.0113   4.0202
  4.0229   4.0297   4.0366   4.0456   4.0524   4.0551   4.0608   4.0686
  4.0723   4.0775   4.0834   4.0919   4.0946   4.1040   4.1125   4.1171
  4.1348   4.1439   4.1534   4.1645   4.1674   4.1709   4.1749   4.1806
  4.1820   4.1884   4.2093   4.2105   4.2188   4.2230   4.2339   4.2375
  4.2476   4.2529   4.2651   4.2710   4.2815   4.2842   4.2917   4.3058
  4.3166   4.3283   4.3330   4.3423   4.3470   4.3548   4.3583   4.3612
  4.3728   4.3759   4.3797   4.3862   4.3980   4.4019   4.4113   4.4178
  4.4212   4.4236   4.4278   4.4313   4.4368   4.4399   4.4510   4.4572
  4.4671   4.4778   4.4842   4.4933   4.4957   4.5147   4.5226   4.5254
  4.5413   4.5447   4.5601   4.5620   4.5680   4.5756   4.5789   4.5868
  4.6025   4.6108   4.6183   4.6291   4.6343   4.6418   4.6476   4.6523
  4.6609   4.6707   4.6740   4.6861   4.6906   4.6987   4.7161   4.7290
  4.7373   4.7442   4.7579   4.7746   4.7830   4.7943   4.8002   4.8138
  4.8232   4.8350   4.8485   4.8538   4.8614   4.8770   4.8820   4.8907
  4.9139   4.9172   4.9387   4.9472   4.9600   4.9659   4.9730   4.9819
  4.9925   5.0051   5.0087   5.0105   5.0236   5.0411   5.0461   5.0515
  5.0722   5.0813   5.0858   5.1108   5.1273   5.1613   5.1644   5.1714
  5.1850   5.1947   5.1969   5.2038   5.2106   5.2231   5.2271   5.2373
  5.2531   5.2578   5.2741   5.2866   5.2947   5.3139   5.3269   5.3305
  5.3352   5.3490   5.3538   5.3600   5.3646   5.3730   5.3919   5.3999
  5.4052   5.4101   5.4305   5.4449   5.4684   5.4719   5.4888   5.4945
  5.5089   5.5153   5.5213   5.5381   5.5629   5.5665   5.5784   5.5881
  5.5918   5.6112   5.6146   5.6297   5.6355   5.6523   5.6818   5.6923
  5.7120   5.7388   5.7653   5.7839   5.7986   5.8255   5.8354   5.8537
  5.8599   5.8862   5.9045   5.9490   5.9669   5.9676   5.9762   6.0031
  6.0234   6.0457   6.1173   6.1260   6.1320   6.1419   6.1732   6.1771
  6.1842   6.1990   6.2279   6.2404   6.2514   6.2691   6.2855   6.2919
  6.3066   6.3420   6.3694   6.4303   6.4653   6.4932   6.5211   6.5503
  6.5538   6.5719   6.6495   6.6738   6.6796   6.7178   6.7354   6.7432
  6.8089   6.8572   6.8575   6.8798   6.9002   6.9885   7.1323   7.1475
  7.1761   7.2088   7.2229   7.2398   7.3234   7.3274   7.3424   7.3688
  7.3722   7.4260   7.4603   7.4821   7.4874   7.4978   7.5166   7.5460
  7.6117   7.7382   7.7669   7.8037   7.8293   7.9082   7.9281   7.9576
  8.0026   8.1209   8.3437   8.5691   8.9249   9.0090   9.3598   9.4996
  9.7052  10.3146  11.2441  11.4006  11.9414  12.0318  12.1255  12.3548
 12.3912  12.4850  12.6854  12.9358  13.0090  13.2766  13.4788  13.5679
 13.6956  13.8760  13.9322  13.9404  14.1657  14.3142  15.0689  15.2229
 --------------------------------------------------------------
 
          Ground-State Mulliken Net Atomic Charges

     Atom                 Charge (a.u.)
  ----------------------------------------
      1 C                    -0.070123
      2 C                    -0.262882
      3 S                    -0.136223
      4 C                    -0.044911
      5 H                     0.192987
      6 C                    -0.052899
      7 C                     0.222893
      8 C                     0.229088
      9 C                    -0.081400
     10 C                    -0.036351
     11 O                    -0.335536
     12 O                    -0.343372
     13 C                    -0.082521
     14 H                     0.119742
     15 H                     0.092197
     16 H                     0.092506
     17 C                    -0.086491
     18 H                     0.122936
     19 H                     0.092472
     20 H                     0.089911
     21 C                    -0.281824
     22 S                    -0.076367
     23 C                     0.063629
     24 H                     0.207690
     25 C                    -0.066419
     26 S                     0.101991
     27 C                    -0.211442
     28 C                    -0.124952
     29 C                    -0.003135
     30 C                     0.378730
     31 C                    -0.133051
     32 S                     0.051389
     33 C                     0.459274
     34 O                    -0.445386
     35 O                    -0.297267
     36 F                    -0.213723
     37 C                    -0.054961
     38 H                     0.117168
     39 H                     0.085187
     40 H                     0.085216
     41 H                     0.216307
     42 H                     0.117032
     43 H                     0.114507
     44 H                     0.188386
  ----------------------------------------
  Sum of atomic charges =     0.000000

 -----------------------------------------------------------------
                    Cartesian Multipole Moments
 -----------------------------------------------------------------
    Charge (ESU x 10^10)
                 0.0000
    Dipole Moment (Debye)
         X       1.8857      Y       3.9648      Z       2.3678
       Tot       4.9882
    Quadrupole Moments (Debye-Ang)
        XX    -178.7492     XY      10.9316     YY    -179.0046
        XZ      -6.2833     YZ     -11.3413     ZZ    -204.9630
    Octopole Moments (Debye-Ang^2)
       XXX    -292.7475    XXY     345.3910    XYY    -100.3220
       YYY    1076.8939    XXZ     168.0173    XYZ     -23.1521
       YYZ     155.2709    XZZ     -44.2805    YZZ     521.1290
       ZZZ     548.9660
    Hexadecapole Moments (Debye-Ang^3)
      XXXX   -2896.4567   XXXY    -119.3814   XXYY   -3816.6846
      XYYY     221.2545   YYYY  -19366.7218   XXXZ     950.6674
      XXYZ     320.4249   XYYZ     271.4889   YYYZ     863.1099
      XXZZ   -1379.6863   XYZZ     216.7946   YYZZ   -4292.4068
      XZZZ     695.6117   YZZZ     489.2363   ZZZZ   -5709.9765
 -----------------------------------------------------------------
 Total job time:  333.48s(wall), 10513.18s(cpu) 
 Sun Sep 24 18:46:55 2023

        *************************************************************
        *                                                           *
        *  Thank you very much for using Q-Chem.  Have a nice day.  *
        *                                                           *
        *************************************************************


0 sent ACK to 0 
now end server 0 ... 
cleanup process ... done
remove work dirs ./qchem2034135.0 -- ./qchem2034135.0
rm -rf ./qchem2034135.0
rm -rf ./qchem2034135
