You are running Q-Chem version: 5.4.0

#
# job setting
#
local host:  exp-5-07
current dir: /expanse/lustre/projects/csd626/rramji/aromodel/PTB7_fin/Hydrogenated_Rotation_Test
input file:  fin_bdt_Phi_5_Theta_150_fin_ftt_Hydrogenated.qcin
output file: 
nprocs     : 1
nthreads   : 64
#
# qchem installation setting
#
QC:          /cm/shared/apps/spack/cpu/opt/spack/linux-centos8-zen2/gcc-10.2.0/qchem-5.4-akfmr7b3t57bfs6qan3padb2wnb2i7cl
QCAUX:       /cm/shared/apps/spack/cpu/opt/spack/linux-centos8-zen2/gcc-10.2.0/qchem-5.4-akfmr7b3t57bfs6qan3padb2wnb2i7cl/qcaux
QCPROG:      /cm/shared/apps/spack/cpu/opt/spack/linux-centos8-zen2/gcc-10.2.0/qchem-5.4-akfmr7b3t57bfs6qan3padb2wnb2i7cl/exe/qcprog.exe
QCPROG_S:    /cm/shared/apps/spack/cpu/opt/spack/linux-centos8-zen2/gcc-10.2.0/qchem-5.4-akfmr7b3t57bfs6qan3padb2wnb2i7cl/exe/qcprog.exe_s
PARALLEL:    -DPARALLEL
QCMPI:       mpich
#
# qchem directory setting
#
qcrun:       qchem471630
QCSCRATCH:   .
QCLOCALSCR:  
QCTMPDIR:    .
QCFILEPREF:  ./qchem471630
QCSAVEDIR:   
workdirs:    ./qchem471630
workdir0:    ./qchem471630
partmpdirs =  
#
# parallel setting
#
QCRSH:           ssh
QCMPI:           mpich
QCMPIRUN:        /cm/shared/apps/spack/cpu/opt/spack/linux-centos8-zen2/gcc-10.2.0/qchem-5.4-akfmr7b3t57bfs6qan3padb2wnb2i7cl/bin/mpi/mpirun_qchem
QCMACHINEFILE:   ./qchem471630/hostfile
exp-5-07

#
# env setting
#
exported envs:   QC QCAUX QCSCRATCH QCRUNNAME QCFILEPREF QCPROG QCPROG_S GUIFILE

Running Job 1 of 1 fin_bdt_Phi_5_Theta_150_fin_ftt_Hydrogenated.qcin
qchem fin_bdt_Phi_5_Theta_150_fin_ftt_Hydrogenated.qcin_471630.0 ./qchem471630/ 1
/cm/shared/apps/spack/cpu/opt/spack/linux-centos8-zen2/gcc-10.2.0/qchem-5.4-akfmr7b3t57bfs6qan3padb2wnb2i7cl/bin/mpi/mpirun_qchem -machinefile ./qchem471630/hostfile -np 1 /cm/shared/apps/spack/cpu/opt/spack/linux-centos8-zen2/gcc-10.2.0/qchem-5.4-akfmr7b3t57bfs6qan3padb2wnb2i7cl/exe/qcprog.exe fin_bdt_Phi_5_Theta_150_fin_ftt_Hydrogenated.qcin_471630.0 ./qchem471630/

Process 0 of 1 is on exp-5-07 - thread support 0
initial socket setup ...start
initial socket setup ...done 
now start server 0 ... 
                  Welcome to Q-Chem
     A Quantum Leap Into The Future Of Chemistry


 Q-Chem 5.4, Q-Chem, Inc., Pleasanton, CA (2021)

 License issued to: University of California, San Diego (site)

 E. Epifanovsky,  A. T. B. Gilbert,  Xintian Feng,  Joonho Lee,  Yuezhi Mao,  
 N. Mardirossian,  P. Pokhilko,  A. White,  M. Wormit,  M. P. Coons,  
 A. L. Dempwolff,  Zhengting Gan,  D. Hait,  P. R. Horn,  L. D. Jacobson,  
 I. Kaliman,  J. Kussmann,  A. W. Lange,  Ka Un Lao,  D. S. Levine,  Jie Liu,  
 S. C. McKenzie,  A. F. Morrison,  K. Nanda,  F. Plasser,  D. R. Rehn,  
 M. L. Vidal,  Zhi-Qiang You,  Ying Zhu,  B. Alam,  B. Albrecht,  
 A. Aldossary,  E. Alguire,  J. H. Andersen,  D. Barton,  K. Begam,  A. Behn,  
 Y. A. Bernard,  E. J. Berquist,  H. Burton,  A. Carreras,  K. Carter-Fenk,  
 R. Chakraborty,  A. D. Chien,  K. D. Closser,  V. Cofer-Shabica,  
 S. Dasgupta,  Jia Deng,  M. de Wergifosse,  M. Diedenhofen,  Hainam Do,  
 S. Ehlert,  Po-Tung Fang,  S. Fatehi,  Qingguo Feng,  J. Gayvert,  
 Qinghui Ge,  G. Gidofalvi,  M. Goldey,  J. Gomes,  C. Gonzalez-Espinoza,  
 S. Gulania,  A. Gunina,  M. W. D. Hanson-Heine,  P. H. P. Harbach,  
 A. W. Hauser,  M. F. Herbst,  M. Hernandez Vera,  M. Hodecker,  
 Z. C. Holden,  S. Houck,  Xunkun Huang,  Kerwin Hui,  B. C. Huynh,  
 M. Ivanov,  Hyunjun Ji,  Hanjie Jiang,  B. Kaduk,  S. Kaehler,  
 K. Khistyaev,  Jaehoon Kim,  P. Klunzinger,  Z. Koczor-Benda,  
 Joong Hoon Koh,  D. Kosenkov,  L. Koulias,  T. Kowalczyk,  C. M. Krauter,  
 K. Kue,  A. Kunitsa,  T. Kus,  A. Landau,  K. V. Lawler,  D. Lefrancois,  
 S. Lehtola,  Rain Li,  Yi-Pei Li,  Jiashu Liang,  M. Liebenthal,  
 Hung-Hsuan Lin,  You-Sheng Lin,  Fenglai Liu,  Kuan-Yu Liu,  
 M. Loipersberger,  A. Luenser,  A. Manjanath,  P. Manohar,  E. Mansoor,  
 S. F. Manzer,  Shan-Ping Mao,  A. V. Marenich,  T. Markovich,  S. Mason,  
 S. A. Maurer,  P. F. McLaughlin,  M. F. S. J. Menger,  J.-M. Mewes,  
 S. A. Mewes,  P. Morgante,  J. W. Mullinax,  T. S. Nguyen-Beck,  
 K. J. Oosterbaan,  G. Paran,  Alexander C. Paul,  Suranjan K. Paul,  
 F. Pavosevic,  Zheng Pei,  S. Prager,  E. I. Proynov,  E. Ramos,  B. Rana,  
 A. E. Rask,  A. Rettig,  R. M. Richard,  F. Rob,  E. Rossomme,  T. Scheele,  
 M. Scheurer,  M. Schneider,  N. Sergueev,  S. M. Sharada,  W. Skomorowski,  
 D. W. Small,  C. J. Stein,  Yu-Chuan Su,  E. J. Sundstrom,  Zhen Tao,  
 J. Thirman,  T. Tsuchimochi,  N. M. Tubman,  S. P. Veccham,  O. Vydrov,  
 J. Wenzel,  J. Witte,  A. Yamada,  Kun Yao,  S. Yeganeh,  S. R. Yost,  
 A. Zech,  Igor Ying Zhang,  Xing Zhang,  Yu Zhang,  D. Zuev,  
 A. Aspuru-Guzik,  A. T. Bell,  N. A. Besley,  K. B. Bravaya,  B. R. Brooks,  
 D. Casanova,  Jeng-Da Chai,  S. Coriani,  C. J. Cramer,  
 A. E. DePrince, III,  R. A. DiStasio Jr.,  A. Dreuw,  B. D. Dunietz,  
 T. R. Furlani,  W. A. Goddard III,  S. Grimme,  S. Hammes-Schiffer,  
 T. Head-Gordon,  W. J. Hehre,  Chao-Ping Hsu,  T.-C. Jagau,  Yousung Jung,  
 A. Klamt,  Jing Kong,  D. S. Lambrecht,  WanZhen Liang,  N. J. Mayhall,  
 C. W. McCurdy,  J. B. Neaton,  C. Ochsenfeld,  J. A. Parkhill,  R. Peverati,  
 V. A. Rassolov,  Yihan Shao,  L. V. Slipchenko,  T. Stauch,  R. P. Steele,  
 J. E. Subotnik,  A. J. W. Thom,  A. Tkatchenko,  D. G. Truhlar,  
 T. Van Voorhis,  T. A. Wesolowski,  K. B. Whaley,  H. L. Woodcock III,  
 P. M. Zimmerman,  S. Faraji,  P. M. W. Gill,  M. Head-Gordon,  
 J. M. Herbert,  A. I. Krylov

 Contributors to earlier versions of Q-Chem not listed above: 
 R. D. Adamson,  B. Austin,  R. Baer,  J. Baker,  G. J. O. Beran,  
 K. Brandhorst,  S. T. Brown,  E. F. C. Byrd,  A. K. Chakraborty,  
 G. K. L. Chan,  Chun-Min Chang,  Yunqing Chen,  C.-L. Cheng,  
 Siu Hung Chien,  D. M. Chipman,  D. L. Crittenden,  H. Dachsel,  
 R. J. Doerksen,  A. D. Dutoi,  R. G. Edgar,  J. Fosso-Tande,  
 L. Fusti-Molnar,  D. Ghosh,  A. Ghysels,  A. Golubeva-Zadorozhnaya,  
 J. Gonthier,  M. S. Gordon,  S. R. Gwaltney,  G. Hawkins,  J. E. Herr,  
 A. Heyden,  S. Hirata,  E. G. Hohenstein,  G. Kedziora,  F. J. Keil,  
 C. Kelley,  Jihan Kim,  R. A. King,  R. Z. Khaliullin,  P. P. Korambath,  
 W. Kurlancheek,  A. Laurent,  A. M. Lee,  M. S. Lee,  S. V. Levchenko,  
 Ching Yeh Lin,  D. Liotard,  E. Livshits,  R. C. Lochan,  I. Lotan,  
 L. A. Martinez-Martinez,  P. E. Maslen,  N. Nair,  D. P. O'Neill,  
 D. Neuhauser,  E. Neuscamman,  C. M. Oana,  R. Olivares-Amaya,  R. Olson,  
 T. M. Perrine,  B. Peters,  P. A. Pieniazek,  A. Prociuk,  Y. M. Rhee,  
 J. Ritchie,  M. A. Rohrdanz,  E. Rosta,  N. J. Russ,  H. F. Schaefer III,  
 M. W. Schmidt,  N. E. Schultz,  S. Sharma,  N. Shenvi,  C. D. Sherrill,  
 A. C. Simmonett,  A. Sodt,  T. Stein,  D. Stuck,  K. S. Thanthiriwatte,  
 V. Vanovschi,  L. Vogt,  Tao Wang,  A. Warshel,  M. A. Watson,  
 C. F. Williams,  Q. Wu,  X. Xu,  Jun Yang,  W. Zhang,  Yan Zhao

 Please cite Q-Chem as follows:
 Y. Shao et al., Mol. Phys. 113, 184-215 (2015)
 DOI: 10.1080/00268976.2014.952696

 Q-Chem 5.4.0 for Intel X86 EM64T Linux

 Parts of Q-Chem use Armadillo 9.800.1 (Horizon Scraper).
 http://arma.sourceforge.net/

 Q-Chem begins on Tue Sep 26 18:43:32 2023  

 Host: 
0

     Scratch files written to ./qchem471630//
 May1621 |scratch|qcdevops|jenkins|workspace|build_RNUM    
 Parallel job on  1  processors
 Processing $rem in /cm/shared/apps/spack/cpu/opt/spack/linux-centos8-zen2/gcc-10.2.0/qchem-5.4-akfmr7b3t57bfs6qan3padb2wnb2i7cl/config/preferences:
 Processing $rem in /home/rramji/.qchemrc:
 Symmetry turned off for PCM/SM12/SMD calculation
 Core orbitals will be frozen

 Checking the input file for inconsistencies... 	...done.

 Q-Chem warning in module forms1/BasisType.C, line 2236:

 You are not using the predefined 5D/6D in this basis set.


--------------------------------------------------------------
User input:
--------------------------------------------------------------
$molecule
0 1
C	-0.092419	-8.519741	-0.255929
C	0.449364	-7.635967	0.666007
S	-0.885736	-7.651740	-1.592708
C	0.254813	-6.261894	0.332317
H	0.980526	-7.954738	1.571741
C	-0.458965	-6.079985	-0.904324
C	-0.767823	-4.798382	-1.385968
C	0.681909	-5.153542	1.118303
C	0.369139	-3.869626	0.638514
C	-0.342916	-3.688927	-0.600871
O	1.368544	-5.481075	2.248132
O	-1.458570	-4.479871	-2.520275
C	-1.405396	-5.356026	-3.639637
H	-1.820940	-4.790496	-4.495304
H	-2.023129	-6.268513	-3.490336
H	-0.361595	-5.658187	-3.873314
C	1.480048	-4.546999	3.314934
H	1.899255	-5.107564	4.171837
H	0.490123	-4.131473	3.601473
H	2.171521	-3.712085	3.068969
C	-0.537642	-2.314326	-0.930308
S	0.785807	-2.295487	1.334769
C	0.000000	-1.435180	0.000000
H	-1.066134	-1.993211	-1.836691
C	0.000000	0.000000	0.000000
S	0.080615	0.895811	1.510732
C	0.216842	2.465231	0.727629
C	0.079127	0.904769	-1.064665
C	0.198659	2.288406	-0.678287
C	0.074988	0.838492	-2.486150
C	0.185097	2.098524	-3.106916
S	0.290501	3.341568	-1.965735
C	0.211932	2.351623	-4.559972
O	0.133545	1.421416	-5.350277
O	0.326994	3.629649	-5.004375
F	-0.018214	-0.271734	-3.246290
C	0.368367	3.986101	-6.334976
H	0.465270	5.086806	-6.370268
H	-0.553140	3.675878	-6.875609
H	1.229874	3.519263	-6.861878
H	0.297091	3.381746	1.321510
H	-0.866272	-9.146471	0.202590
H	0.682165	-9.150570	-0.707539
H	-0.931016	-1.444158	0.547293
$end

$rem
JOBTYPE		SP
EXCHANGE	HF
CORRELATION	pRIMP2
BASIS		cc-pvtz
METHOD		rimp2
AUX_BASIS	rimp2-cc-pvtz
SOLVENT_METHOD	PCM
PURECART	11111
SYMMETRY	false
MEM_TOTAL	110000
SCF_CONVERGENCE = 6
THRESH=10
GUI = 2
$end



$solvent
dielectric 4.90
$end
--------------------------------------------------------------
 ----------------------------------------------------------------
             Standard Nuclear Orientation (Angstroms)
    I     Atom           X                Y                Z
 ----------------------------------------------------------------
    1      C      -0.0924190000    -8.5197410000    -0.2559290000
    2      C       0.4493640000    -7.6359670000     0.6660070000
    3      S      -0.8857360000    -7.6517400000    -1.5927080000
    4      C       0.2548130000    -6.2618940000     0.3323170000
    5      H       0.9805260000    -7.9547380000     1.5717410000
    6      C      -0.4589650000    -6.0799850000    -0.9043240000
    7      C      -0.7678230000    -4.7983820000    -1.3859680000
    8      C       0.6819090000    -5.1535420000     1.1183030000
    9      C       0.3691390000    -3.8696260000     0.6385140000
   10      C      -0.3429160000    -3.6889270000    -0.6008710000
   11      O       1.3685440000    -5.4810750000     2.2481320000
   12      O      -1.4585700000    -4.4798710000    -2.5202750000
   13      C      -1.4053960000    -5.3560260000    -3.6396370000
   14      H      -1.8209400000    -4.7904960000    -4.4953040000
   15      H      -2.0231290000    -6.2685130000    -3.4903360000
   16      H      -0.3615950000    -5.6581870000    -3.8733140000
   17      C       1.4800480000    -4.5469990000     3.3149340000
   18      H       1.8992550000    -5.1075640000     4.1718370000
   19      H       0.4901230000    -4.1314730000     3.6014730000
   20      H       2.1715210000    -3.7120850000     3.0689690000
   21      C      -0.5376420000    -2.3143260000    -0.9303080000
   22      S       0.7858070000    -2.2954870000     1.3347690000
   23      C       0.0000000000    -1.4351800000     0.0000000000
   24      H      -1.0661340000    -1.9932110000    -1.8366910000
   25      C       0.0000000000     0.0000000000     0.0000000000
   26      S       0.0806150000     0.8958110000     1.5107320000
   27      C       0.2168420000     2.4652310000     0.7276290000
   28      C       0.0791270000     0.9047690000    -1.0646650000
   29      C       0.1986590000     2.2884060000    -0.6782870000
   30      C       0.0749880000     0.8384920000    -2.4861500000
   31      C       0.1850970000     2.0985240000    -3.1069160000
   32      S       0.2905010000     3.3415680000    -1.9657350000
   33      C       0.2119320000     2.3516230000    -4.5599720000
   34      O       0.1335450000     1.4214160000    -5.3502770000
   35      O       0.3269940000     3.6296490000    -5.0043750000
   36      F      -0.0182140000    -0.2717340000    -3.2462900000
   37      C       0.3683670000     3.9861010000    -6.3349760000
   38      H       0.4652700000     5.0868060000    -6.3702680000
   39      H      -0.5531400000     3.6758780000    -6.8756090000
   40      H       1.2298740000     3.5192630000    -6.8618780000
   41      H       0.2970910000     3.3817460000     1.3215100000
   42      H      -0.8662720000    -9.1464710000     0.2025900000
   43      H       0.6821650000    -9.1505700000    -0.7075390000
   44      H      -0.9310160000    -1.4441580000     0.5472930000
 ----------------------------------------------------------------
 Nuclear Repulsion Energy =        3365.91447937 hartrees
 There are      120 alpha and      120 beta electrons
 Requested basis set is cc-pVTZ
 There are 388 shells and 1096 basis functions

 Total QAlloc Memory Limit 110000 MB
 Mega-Array Size       188 MB
 MEM_STATIC part       192 MB
 Discretize the solute cavity surface with Lebedev spheres
	Using 110 Lebedev grid points for each H atom
	Using 194 Lebedev grid points for other atoms
	Atomic van der Waals radii will be scaled by 1.20
 Remove points where switching function is < 1.0e-08
 Keep 2961 surface tesserae and discard 4315 interior tesserae
 Molecular Surface Area = 437.674 Angst**2
 Requested basis set is rimp2-cc-pVTZ
 There are 853 shells and 2963 basis functions
 A cutoff of  1.0D-10 yielded  33501 shell pairs
 There are    252829 function pairs (    326999 Cartesian)
 Smallest overlap matrix eigenvalue = 2.18E-05

 Scale SEOQF with 1.000000e-01/1.000000e-02/1.000000e-02

 Standard Electronic Orientation quadrupole field applied
 Nucleus-field energy     =     0.0000000183 hartrees
 Guess from superposition of atomic densities
 Warning:  Energy on first SCF cycle will be non-variational
 SAD guess density has 240.000000 electrons

 -----------------------------------------------------------------------
  General SCF calculation program by
  Eric Jon Sundstrom, Paul Horn, Yuezhi Mao, Dmitri Zuev, Alec White,
  David Stuck, Shaama M.S., Shane Yost, Joonho Lee, David Small,
  Daniel Levine, Susi Lehtola, Hugh Burton, Evgeny Epifanovsky,
  Bang C. Huynh
 -----------------------------------------------------------------------
 Hartree-Fock
 using 64 threads for integral computing
 -------------------------------------------------------
 OpenMP Integral computing Module                
 Release: version 1.0, May 2013, Q-Chem Inc. Pittsburgh 
 -------------------------------------------------------
 A restricted SCF calculation will be
 performed using DIIS
 SCF converges when DIIS error is below 1.0e-06
 ---------------------------------------
  Cycle       Energy         DIIS error
 ---------------------------------------
    1   -2767.3489224085      1.77e-02  
    2   -2754.8697084307      1.55e-03  
    3   -2755.2198221639      8.76e-04  
    4   -2755.3107186174      2.54e-04  
    5   -2755.3245055078      7.33e-05  
    6   -2755.3260769504      2.63e-05  
    7   -2755.3264940954      1.37e-05  
    8   -2755.3266219507      5.71e-06  
    9   -2755.3266500982      3.00e-06  
   10   -2755.3266571182      1.46e-06  
   11   -2755.3266593573      7.62e-07  Convergence criterion met
 ---------------------------------------
 SCF time:   CPU 7564.82s  wall 275.00s 

************** Final PCM Free Energy Summary **************
 G_electrostatic  =      -0.02142301 hartree =     -13.44314384 kcal/mol
 G_cavitation     =       0.00000000 hartree =       0.00000000 kcal/mol
 G_dispersion     =       0.00000000 hartree =       0.00000000 kcal/mol
 G_repulsion      =       0.00000000 hartree =       0.00000000 kcal/mol
 --------------------------------------------------
 Non-electrostatic Free Energy =       0.00000000 hartree =       0.00000000 kcal/mol
 Total                         =      -0.02142301 hartree =     -13.44314384 kcal/mol
 --------------------------------------------------
 SCF Energy (H0 + V/2)                       =   -2755.32665936 
 Solute Internal Energy (H0)                 =   -2755.30523634 
 Total Free Energy (H0 + V/2 + non-elec)     =   -2755.32665936 hartree
                                             = -1728993.57444548 kcal/mol
***********************************************************

 SCF   energy in the final basis set =    -2755.3266593573
 Total energy in the final basis set =    -2755.3266593573


 --------------------------------------------------------------
  Generalized many-body perturbation theory program
  by Joonho Lee, Fazle Rob, Xintian Feng, Evgeny Epifanovsky

 No regularization used 
 (reg. param. = 0.0000e+00)
  (P|Q)^-1/2 Time:  CPU 169.24 s  wall 2.70 s

 In RI-MP2 calculation: 
 # of frozen core orbitals: 45

 Components of the RIMP2 correlation energy:
        aaaa    correlation energy =        -0.6698038336 a.u.
        abab    correlation energy =        -3.7500850008 a.u.
        bbbb    correlation energy =        -0.6698038336 a.u.
        non-Brillouin singles      =        -0.0000000000 a.u.
        total same-spin energy     =        -1.3396076672 a.u.
        total opposite-spin energy =        -3.7500850008 a.u.

 Total  RIMP2   correlation energy =        -5.0896926680 a.u.
        RIMP2         total energy =     -2760.4163520253 a.u.

 RI-MP2 Energy Time:  CPU 2945.01 s  wall 47.94 s
 
 --------------------------------------------------------------
 
                    Orbital Energies (a.u.)
 --------------------------------------------------------------
 
 Alpha MOs
 -- Occupied --
-92.0152 -91.9927 -91.9829 -91.9592 -26.3377 -20.6115 -20.5892 -20.5871
-20.5486 -11.4092 -11.3793 -11.3230 -11.3109 -11.3097 -11.2967 -11.2941
-11.2882 -11.2869 -11.2861 -11.2858 -11.2852 -11.2822 -11.2778 -11.2745
-11.2724 -11.2605 -11.2596 -11.2509 -11.2401  -9.0139  -8.9969  -8.9851
 -8.9618  -6.6947  -6.6941  -6.6936  -6.6781  -6.6775  -6.6761  -6.6662
 -6.6653  -6.6640  -6.6431  -6.6421  -6.6411  -1.6510  -1.4711  -1.4124
 -1.4090  -1.3662  -1.2380  -1.2109  -1.1771  -1.1437  -1.1007  -1.0499
 -1.0479  -1.0295  -1.0101  -0.9999  -0.9718  -0.9601  -0.9499  -0.9407
 -0.8955  -0.8719  -0.8643  -0.8088  -0.7969  -0.7872  -0.7769  -0.7704
 -0.7652  -0.7331  -0.7226  -0.7184  -0.6985  -0.6933  -0.6838  -0.6781
 -0.6719  -0.6682  -0.6577  -0.6492  -0.6387  -0.6307  -0.6212  -0.6154
 -0.6099  -0.6056  -0.5951  -0.5921  -0.5790  -0.5700  -0.5599  -0.5506
 -0.5506  -0.5364  -0.5328  -0.5226  -0.5149  -0.5089  -0.5058  -0.5010
 -0.4854  -0.4840  -0.4804  -0.4720  -0.4624  -0.4609  -0.4591  -0.4471
 -0.4312  -0.3996  -0.3876  -0.3719  -0.3515  -0.2940  -0.2849  -0.2191
 -- Virtual --
  0.0290   0.0567   0.1124   0.1251   0.1386   0.1477   0.1538   0.1544
  0.1582   0.1607   0.1691   0.1800   0.1824   0.1880   0.1891   0.1956
  0.2004   0.2032   0.2040   0.2118   0.2185   0.2223   0.2231   0.2279
  0.2291   0.2351   0.2438   0.2451   0.2537   0.2582   0.2689   0.2742
  0.2771   0.2988   0.3048   0.3191   0.3342   0.3414   0.3439   0.3446
  0.3476   0.3569   0.3589   0.3643   0.3710   0.3759   0.3804   0.3827
  0.3854   0.3907   0.3946   0.4050   0.4114   0.4142   0.4196   0.4216
  0.4262   0.4298   0.4335   0.4340   0.4394   0.4440   0.4471   0.4510
  0.4579   0.4611   0.4670   0.4689   0.4718   0.4749   0.4815   0.4825
  0.4888   0.4952   0.4972   0.5014   0.5070   0.5096   0.5194   0.5219
  0.5258   0.5275   0.5308   0.5337   0.5386   0.5466   0.5478   0.5507
  0.5558   0.5586   0.5612   0.5643   0.5690   0.5741   0.5774   0.5817
  0.5846   0.5877   0.5903   0.5924   0.5961   0.5991   0.6072   0.6096
  0.6128   0.6147   0.6174   0.6227   0.6248   0.6255   0.6289   0.6312
  0.6338   0.6360   0.6423   0.6455   0.6486   0.6501   0.6531   0.6601
  0.6631   0.6672   0.6715   0.6757   0.6814   0.6894   0.6938   0.6978
  0.6985   0.7075   0.7120   0.7153   0.7205   0.7272   0.7329   0.7438
  0.7515   0.7563   0.7574   0.7692   0.7749   0.7786   0.7856   0.7906
  0.7918   0.7949   0.8010   0.8054   0.8081   0.8152   0.8214   0.8241
  0.8336   0.8410   0.8479   0.8528   0.8599   0.8722   0.8747   0.8771
  0.8930   0.8939   0.8999   0.9013   0.9068   0.9096   0.9141   0.9182
  0.9226   0.9359   0.9368   0.9393   0.9427   0.9485   0.9520   0.9556
  0.9605   0.9641   0.9698   0.9786   0.9820   0.9893   0.9920   0.9939
  0.9965   0.9980   1.0062   1.0098   1.0157   1.0202   1.0257   1.0261
  1.0309   1.0346   1.0449   1.0483   1.0548   1.0591   1.0607   1.0702
  1.0761   1.0841   1.0850   1.0931   1.0954   1.1018   1.1078   1.1121
  1.1147   1.1170   1.1252   1.1347   1.1368   1.1407   1.1425   1.1488
  1.1542   1.1602   1.1647   1.1705   1.1744   1.1781   1.1805   1.1838
  1.1873   1.1917   1.1958   1.1972   1.2027   1.2120   1.2142   1.2202
  1.2212   1.2264   1.2356   1.2433   1.2445   1.2478   1.2561   1.2628
  1.2643   1.2677   1.2768   1.2797   1.2855   1.2890   1.2942   1.3011
  1.3028   1.3090   1.3155   1.3185   1.3275   1.3389   1.3418   1.3439
  1.3496   1.3534   1.3592   1.3728   1.3763   1.3864   1.3922   1.3961
  1.4083   1.4103   1.4107   1.4222   1.4359   1.4396   1.4423   1.4510
  1.4537   1.4728   1.4748   1.4824   1.4878   1.4928   1.4954   1.4992
  1.5034   1.5091   1.5127   1.5193   1.5271   1.5303   1.5344   1.5386
  1.5405   1.5501   1.5512   1.5567   1.5577   1.5645   1.5701   1.5828
  1.5936   1.5958   1.6015   1.6099   1.6221   1.6270   1.6290   1.6350
  1.6466   1.6569   1.6591   1.6652   1.6675   1.6731   1.6792   1.6876
  1.6914   1.7074   1.7128   1.7148   1.7249   1.7307   1.7379   1.7505
  1.7623   1.7677   1.7758   1.7819   1.7881   1.7927   1.8117   1.8163
  1.8233   1.8285   1.8335   1.8442   1.8508   1.8606   1.8706   1.8745
  1.8796   1.8862   1.8990   1.9040   1.9115   1.9229   1.9285   1.9385
  1.9439   1.9502   1.9567   1.9645   1.9712   1.9886   1.9949   2.0026
  2.0100   2.0187   2.0267   2.0298   2.0323   2.0412   2.0502   2.0614
  2.0690   2.0749   2.0849   2.0969   2.1049   2.1191   2.1207   2.1329
  2.1474   2.1488   2.1606   2.1649   2.1708   2.1777   2.1850   2.1944
  2.1965   2.1992   2.2111   2.2176   2.2241   2.2283   2.2405   2.2420
  2.2484   2.2661   2.2694   2.2764   2.2785   2.2936   2.2957   2.3061
  2.3118   2.3200   2.3303   2.3445   2.3470   2.3476   2.3544   2.3646
  2.3741   2.3868   2.3885   2.3986   2.4146   2.4153   2.4201   2.4333
  2.4373   2.4491   2.4649   2.4670   2.4798   2.4861   2.4931   2.5027
  2.5115   2.5180   2.5297   2.5318   2.5428   2.5582   2.5653   2.5687
  2.5845   2.5863   2.5968   2.6070   2.6126   2.6199   2.6249   2.6293
  2.6357   2.6440   2.6469   2.6499   2.6587   2.6618   2.6686   2.6757
  2.6792   2.6860   2.6923   2.6985   2.7044   2.7144   2.7189   2.7244
  2.7298   2.7362   2.7386   2.7441   2.7468   2.7615   2.7653   2.7694
  2.7756   2.7836   2.7927   2.8008   2.8092   2.8166   2.8229   2.8327
  2.8410   2.8457   2.8466   2.8525   2.8614   2.8672   2.8730   2.8830
  2.8888   2.8929   2.9007   2.9067   2.9180   2.9217   2.9326   2.9516
  2.9553   2.9590   2.9678   2.9744   2.9787   2.9835   2.9946   2.9949
  3.0075   3.0144   3.0178   3.0290   3.0348   3.0433   3.0469   3.0480
  3.0545   3.0629   3.0727   3.0787   3.0892   3.0913   3.0983   3.0996
  3.1117   3.1169   3.1201   3.1251   3.1300   3.1345   3.1393   3.1464
  3.1501   3.1550   3.1586   3.1648   3.1676   3.1754   3.1775   3.1806
  3.1872   3.1945   3.1978   3.2023   3.2044   3.2128   3.2194   3.2279
  3.2338   3.2372   3.2435   3.2487   3.2582   3.2608   3.2675   3.2681
  3.2720   3.2766   3.2810   3.2827   3.2877   3.2897   3.2948   3.2994
  3.3018   3.3108   3.3152   3.3174   3.3208   3.3270   3.3381   3.3438
  3.3471   3.3492   3.3536   3.3548   3.3586   3.3617   3.3624   3.3654
  3.3717   3.3755   3.3869   3.3896   3.3956   3.3977   3.4002   3.4014
  3.4129   3.4212   3.4272   3.4291   3.4338   3.4371   3.4422   3.4460
  3.4503   3.4527   3.4543   3.4621   3.4692   3.4726   3.4795   3.4822
  3.4884   3.4939   3.5049   3.5076   3.5099   3.5226   3.5323   3.5412
  3.5425   3.5541   3.5573   3.5592   3.5682   3.5711   3.5794   3.5801
  3.5843   3.5879   3.5955   3.6012   3.6022   3.6077   3.6114   3.6172
  3.6216   3.6270   3.6323   3.6376   3.6400   3.6482   3.6547   3.6573
  3.6604   3.6653   3.6728   3.6756   3.6811   3.6856   3.6891   3.6955
  3.7010   3.7037   3.7106   3.7119   3.7152   3.7159   3.7230   3.7289
  3.7326   3.7376   3.7444   3.7508   3.7548   3.7645   3.7673   3.7743
  3.7809   3.7864   3.7928   3.7959   3.8057   3.8127   3.8175   3.8235
  3.8246   3.8313   3.8343   3.8438   3.8451   3.8480   3.8562   3.8606
  3.8654   3.8696   3.8722   3.8868   3.8899   3.8968   3.9069   3.9092
  3.9182   3.9272   3.9333   3.9382   3.9504   3.9532   3.9621   3.9638
  3.9639   3.9728   3.9818   3.9926   3.9955   4.0046   4.0078   4.0134
  4.0197   4.0383   4.0404   4.0439   4.0515   4.0547   4.0584   4.0677
  4.0709   4.0722   4.0858   4.0891   4.0984   4.1083   4.1160   4.1274
  4.1392   4.1402   4.1554   4.1573   4.1701   4.1711   4.1719   4.1797
  4.1817   4.1918   4.1953   4.2022   4.2142   4.2176   4.2315   4.2344
  4.2474   4.2533   4.2645   4.2682   4.2846   4.2920   4.2981   4.3116
  4.3243   4.3275   4.3317   4.3442   4.3470   4.3485   4.3633   4.3673
  4.3716   4.3759   4.3787   4.3971   4.3999   4.4032   4.4093   4.4125
  4.4215   4.4255   4.4286   4.4358   4.4414   4.4450   4.4480   4.4650
  4.4686   4.4797   4.4835   4.4997   4.5028   4.5118   4.5172   4.5240
  4.5293   4.5410   4.5525   4.5665   4.5669   4.5720   4.5745   4.5864
  4.6010   4.6103   4.6145   4.6275   4.6316   4.6394   4.6435   4.6488
  4.6579   4.6691   4.6767   4.6855   4.7001   4.7126   4.7175   4.7271
  4.7342   4.7462   4.7543   4.7635   4.7816   4.7930   4.8061   4.8151
  4.8243   4.8286   4.8384   4.8502   4.8629   4.8719   4.8799   4.8891
  4.9157   4.9255   4.9302   4.9393   4.9568   4.9651   4.9686   4.9824
  4.9984   5.0023   5.0097   5.0125   5.0211   5.0364   5.0435   5.0542
  5.0666   5.0852   5.0946   5.1153   5.1550   5.1621   5.1695   5.1773
  5.1889   5.1984   5.2014   5.2126   5.2160   5.2288   5.2321   5.2542
  5.2595   5.2679   5.2858   5.2923   5.3055   5.3166   5.3180   5.3263
  5.3356   5.3555   5.3557   5.3632   5.3817   5.3861   5.3913   5.4032
  5.4125   5.4165   5.4380   5.4420   5.4523   5.4734   5.4837   5.5013
  5.5087   5.5198   5.5219   5.5554   5.5653   5.5757   5.5822   5.5873
  5.5993   5.6103   5.6188   5.6278   5.6437   5.6516   5.6656   5.6894
  5.7350   5.7387   5.7628   5.7808   5.8015   5.8200   5.8314   5.8569
  5.8643   5.8813   5.9031   5.9539   5.9708   5.9789   5.9853   6.0040
  6.0396   6.0985   6.1210   6.1268   6.1341   6.1647   6.1721   6.1785
  6.1868   6.1942   6.2445   6.2484   6.2661   6.2788   6.2882   6.2939
  6.3092   6.3466   6.3513   6.4391   6.4877   6.5081   6.5362   6.5573
  6.5652   6.5780   6.6471   6.6778   6.7027   6.7254   6.7478   6.7572
  6.8092   6.8597   6.8617   6.8870   6.8982   6.9939   7.1310   7.1446
  7.1791   7.2132   7.2203   7.2396   7.3268   7.3281   7.3407   7.3713
  7.3737   7.4317   7.4632   7.4837   7.4847   7.4975   7.5218   7.5511
  7.6224   7.7381   7.7675   7.8021   7.8328   7.9162   7.9281   7.9556
  8.0073   8.1274   8.3377   8.7561   8.9334   9.0201   9.3642   9.5050
  9.7037  10.3390  11.2610  11.4360  11.8963  11.9513  12.1232  12.3562
 12.3985  12.5469  12.7322  12.9222  13.0268  13.2344  13.4765  13.5925
 13.8307  13.9075  13.9278  13.9916  14.1790  14.3246  15.1339  15.2605
 --------------------------------------------------------------
 
          Ground-State Mulliken Net Atomic Charges

     Atom                 Charge (a.u.)
  ----------------------------------------
      1 C                    -0.070667
      2 C                    -0.251533
      3 S                    -0.132364
      4 C                    -0.047101
      5 H                     0.194441
      6 C                    -0.051907
      7 C                     0.226312
      8 C                     0.229935
      9 C                    -0.076589
     10 C                    -0.054734
     11 O                    -0.333614
     12 O                    -0.342983
     13 C                    -0.082598
     14 H                     0.121365
     15 H                     0.091572
     16 H                     0.093086
     17 C                    -0.088015
     18 H                     0.124454
     19 H                     0.093009
     20 H                     0.090190
     21 C                    -0.268577
     22 S                    -0.081691
     23 C                     0.120228
     24 H                     0.204359
     25 C                    -0.120043
     26 S                     0.076996
     27 C                    -0.252227
     28 C                    -0.045703
     29 C                    -0.019167
     30 C                     0.397230
     31 C                    -0.149741
     32 S                     0.029238
     33 C                     0.460996
     34 O                    -0.454022
     35 O                    -0.298242
     36 F                    -0.215055
     37 C                    -0.055221
     38 H                     0.116501
     39 H                     0.084219
     40 H                     0.084330
     41 H                     0.215201
     42 H                     0.118475
     43 H                     0.116362
     44 H                     0.203297
  ----------------------------------------
  Sum of atomic charges =     0.000000

 -----------------------------------------------------------------
                    Cartesian Multipole Moments
 -----------------------------------------------------------------
    Charge (ESU x 10^10)
                -0.0000
    Dipole Moment (Debye)
         X      -0.1980      Y       2.1288      Z       3.9063
       Tot       4.4531
    Quadrupole Moments (Debye-Ang)
        XX    -200.6895     XY      -0.8513     YY    -170.3664
        XZ       2.7487     YZ     -13.8287     ZZ    -189.2885
    Octopole Moments (Debye-Ang^2)
       XXX     -32.0503    XXY     388.1114    XYY      17.7803
       YYY     967.3608    XXZ     195.4055    XYZ     -21.4082
       YYZ     168.1294    XZZ       0.2296    YZZ     416.8843
       ZZZ     598.0791
    Hexadecapole Moments (Debye-Ang^3)
      XXXX    -793.8901   XXXY    -342.2128   XXYY   -3967.9508
      XYYY    -480.6621   YYYY  -19547.6438   XXXZ    -357.1407
      XXYZ     303.2803   XYYZ     -74.9448   YYYZ     514.2623
      XXZZ   -1358.8160   XYZZ     -57.9607   YYZZ   -4176.4455
      XZZZ    -292.2640   YZZZ     272.5485   ZZZZ   -7263.4344
 -----------------------------------------------------------------
 Total job time:  327.64s(wall), 10626.77s(cpu) 
 Tue Sep 26 18:49:00 2023

        *************************************************************
        *                                                           *
        *  Thank you very much for using Q-Chem.  Have a nice day.  *
        *                                                           *
        *************************************************************


0 sent ACK to 0 
now end server 0 ... 
cleanup process ... done
remove work dirs ./qchem471630.0 -- ./qchem471630.0
rm -rf ./qchem471630.0
rm -rf ./qchem471630
