You are running Q-Chem version: 5.4.0

#
# job setting
#
local host:  exp-3-23
current dir: /expanse/lustre/projects/csd626/rramji/aromodel/PTB7_fin/Hydrogenated_Rotation_Test
input file:  fin_bdt_Phi_20_Theta_210_fin_ftt_Hydrogenated.qcin
output file: 
nprocs     : 1
nthreads   : 64
#
# qchem installation setting
#
QC:          /cm/shared/apps/spack/cpu/opt/spack/linux-centos8-zen2/gcc-10.2.0/qchem-5.4-akfmr7b3t57bfs6qan3padb2wnb2i7cl
QCAUX:       /cm/shared/apps/spack/cpu/opt/spack/linux-centos8-zen2/gcc-10.2.0/qchem-5.4-akfmr7b3t57bfs6qan3padb2wnb2i7cl/qcaux
QCPROG:      /cm/shared/apps/spack/cpu/opt/spack/linux-centos8-zen2/gcc-10.2.0/qchem-5.4-akfmr7b3t57bfs6qan3padb2wnb2i7cl/exe/qcprog.exe
QCPROG_S:    /cm/shared/apps/spack/cpu/opt/spack/linux-centos8-zen2/gcc-10.2.0/qchem-5.4-akfmr7b3t57bfs6qan3padb2wnb2i7cl/exe/qcprog.exe_s
PARALLEL:    -DPARALLEL
QCMPI:       mpich
#
# qchem directory setting
#
qcrun:       qchem2531479
QCSCRATCH:   .
QCLOCALSCR:  
QCTMPDIR:    .
QCFILEPREF:  ./qchem2531479
QCSAVEDIR:   
workdirs:    ./qchem2531479
workdir0:    ./qchem2531479
partmpdirs =  
#
# parallel setting
#
QCRSH:           ssh
QCMPI:           mpich
QCMPIRUN:        /cm/shared/apps/spack/cpu/opt/spack/linux-centos8-zen2/gcc-10.2.0/qchem-5.4-akfmr7b3t57bfs6qan3padb2wnb2i7cl/bin/mpi/mpirun_qchem
QCMACHINEFILE:   ./qchem2531479/hostfile
exp-3-23

#
# env setting
#
exported envs:   QC QCAUX QCSCRATCH QCRUNNAME QCFILEPREF QCPROG QCPROG_S GUIFILE

Running Job 1 of 1 fin_bdt_Phi_20_Theta_210_fin_ftt_Hydrogenated.qcin
qchem fin_bdt_Phi_20_Theta_210_fin_ftt_Hydrogenated.qcin_2531479.0 ./qchem2531479/ 1
/cm/shared/apps/spack/cpu/opt/spack/linux-centos8-zen2/gcc-10.2.0/qchem-5.4-akfmr7b3t57bfs6qan3padb2wnb2i7cl/bin/mpi/mpirun_qchem -machinefile ./qchem2531479/hostfile -np 1 /cm/shared/apps/spack/cpu/opt/spack/linux-centos8-zen2/gcc-10.2.0/qchem-5.4-akfmr7b3t57bfs6qan3padb2wnb2i7cl/exe/qcprog.exe fin_bdt_Phi_20_Theta_210_fin_ftt_Hydrogenated.qcin_2531479.0 ./qchem2531479/

Process 0 of 1 is on exp-3-23 - thread support 0
initial socket setup ...start
initial socket setup ...done 
now start server 0 ... 
                  Welcome to Q-Chem
     A Quantum Leap Into The Future Of Chemistry


 Q-Chem 5.4, Q-Chem, Inc., Pleasanton, CA (2021)

 License issued to: University of California, San Diego (site)

 E. Epifanovsky,  A. T. B. Gilbert,  Xintian Feng,  Joonho Lee,  Yuezhi Mao,  
 N. Mardirossian,  P. Pokhilko,  A. White,  M. Wormit,  M. P. Coons,  
 A. L. Dempwolff,  Zhengting Gan,  D. Hait,  P. R. Horn,  L. D. Jacobson,  
 I. Kaliman,  J. Kussmann,  A. W. Lange,  Ka Un Lao,  D. S. Levine,  Jie Liu,  
 S. C. McKenzie,  A. F. Morrison,  K. Nanda,  F. Plasser,  D. R. Rehn,  
 M. L. Vidal,  Zhi-Qiang You,  Ying Zhu,  B. Alam,  B. Albrecht,  
 A. Aldossary,  E. Alguire,  J. H. Andersen,  D. Barton,  K. Begam,  A. Behn,  
 Y. A. Bernard,  E. J. Berquist,  H. Burton,  A. Carreras,  K. Carter-Fenk,  
 R. Chakraborty,  A. D. Chien,  K. D. Closser,  V. Cofer-Shabica,  
 S. Dasgupta,  Jia Deng,  M. de Wergifosse,  M. Diedenhofen,  Hainam Do,  
 S. Ehlert,  Po-Tung Fang,  S. Fatehi,  Qingguo Feng,  J. Gayvert,  
 Qinghui Ge,  G. Gidofalvi,  M. Goldey,  J. Gomes,  C. Gonzalez-Espinoza,  
 S. Gulania,  A. Gunina,  M. W. D. Hanson-Heine,  P. H. P. Harbach,  
 A. W. Hauser,  M. F. Herbst,  M. Hernandez Vera,  M. Hodecker,  
 Z. C. Holden,  S. Houck,  Xunkun Huang,  Kerwin Hui,  B. C. Huynh,  
 M. Ivanov,  Hyunjun Ji,  Hanjie Jiang,  B. Kaduk,  S. Kaehler,  
 K. Khistyaev,  Jaehoon Kim,  P. Klunzinger,  Z. Koczor-Benda,  
 Joong Hoon Koh,  D. Kosenkov,  L. Koulias,  T. Kowalczyk,  C. M. Krauter,  
 K. Kue,  A. Kunitsa,  T. Kus,  A. Landau,  K. V. Lawler,  D. Lefrancois,  
 S. Lehtola,  Rain Li,  Yi-Pei Li,  Jiashu Liang,  M. Liebenthal,  
 Hung-Hsuan Lin,  You-Sheng Lin,  Fenglai Liu,  Kuan-Yu Liu,  
 M. Loipersberger,  A. Luenser,  A. Manjanath,  P. Manohar,  E. Mansoor,  
 S. F. Manzer,  Shan-Ping Mao,  A. V. Marenich,  T. Markovich,  S. Mason,  
 S. A. Maurer,  P. F. McLaughlin,  M. F. S. J. Menger,  J.-M. Mewes,  
 S. A. Mewes,  P. Morgante,  J. W. Mullinax,  T. S. Nguyen-Beck,  
 K. J. Oosterbaan,  G. Paran,  Alexander C. Paul,  Suranjan K. Paul,  
 F. Pavosevic,  Zheng Pei,  S. Prager,  E. I. Proynov,  E. Ramos,  B. Rana,  
 A. E. Rask,  A. Rettig,  R. M. Richard,  F. Rob,  E. Rossomme,  T. Scheele,  
 M. Scheurer,  M. Schneider,  N. Sergueev,  S. M. Sharada,  W. Skomorowski,  
 D. W. Small,  C. J. Stein,  Yu-Chuan Su,  E. J. Sundstrom,  Zhen Tao,  
 J. Thirman,  T. Tsuchimochi,  N. M. Tubman,  S. P. Veccham,  O. Vydrov,  
 J. Wenzel,  J. Witte,  A. Yamada,  Kun Yao,  S. Yeganeh,  S. R. Yost,  
 A. Zech,  Igor Ying Zhang,  Xing Zhang,  Yu Zhang,  D. Zuev,  
 A. Aspuru-Guzik,  A. T. Bell,  N. A. Besley,  K. B. Bravaya,  B. R. Brooks,  
 D. Casanova,  Jeng-Da Chai,  S. Coriani,  C. J. Cramer,  
 A. E. DePrince, III,  R. A. DiStasio Jr.,  A. Dreuw,  B. D. Dunietz,  
 T. R. Furlani,  W. A. Goddard III,  S. Grimme,  S. Hammes-Schiffer,  
 T. Head-Gordon,  W. J. Hehre,  Chao-Ping Hsu,  T.-C. Jagau,  Yousung Jung,  
 A. Klamt,  Jing Kong,  D. S. Lambrecht,  WanZhen Liang,  N. J. Mayhall,  
 C. W. McCurdy,  J. B. Neaton,  C. Ochsenfeld,  J. A. Parkhill,  R. Peverati,  
 V. A. Rassolov,  Yihan Shao,  L. V. Slipchenko,  T. Stauch,  R. P. Steele,  
 J. E. Subotnik,  A. J. W. Thom,  A. Tkatchenko,  D. G. Truhlar,  
 T. Van Voorhis,  T. A. Wesolowski,  K. B. Whaley,  H. L. Woodcock III,  
 P. M. Zimmerman,  S. Faraji,  P. M. W. Gill,  M. Head-Gordon,  
 J. M. Herbert,  A. I. Krylov

 Contributors to earlier versions of Q-Chem not listed above: 
 R. D. Adamson,  B. Austin,  R. Baer,  J. Baker,  G. J. O. Beran,  
 K. Brandhorst,  S. T. Brown,  E. F. C. Byrd,  A. K. Chakraborty,  
 G. K. L. Chan,  Chun-Min Chang,  Yunqing Chen,  C.-L. Cheng,  
 Siu Hung Chien,  D. M. Chipman,  D. L. Crittenden,  H. Dachsel,  
 R. J. Doerksen,  A. D. Dutoi,  R. G. Edgar,  J. Fosso-Tande,  
 L. Fusti-Molnar,  D. Ghosh,  A. Ghysels,  A. Golubeva-Zadorozhnaya,  
 J. Gonthier,  M. S. Gordon,  S. R. Gwaltney,  G. Hawkins,  J. E. Herr,  
 A. Heyden,  S. Hirata,  E. G. Hohenstein,  G. Kedziora,  F. J. Keil,  
 C. Kelley,  Jihan Kim,  R. A. King,  R. Z. Khaliullin,  P. P. Korambath,  
 W. Kurlancheek,  A. Laurent,  A. M. Lee,  M. S. Lee,  S. V. Levchenko,  
 Ching Yeh Lin,  D. Liotard,  E. Livshits,  R. C. Lochan,  I. Lotan,  
 L. A. Martinez-Martinez,  P. E. Maslen,  N. Nair,  D. P. O'Neill,  
 D. Neuhauser,  E. Neuscamman,  C. M. Oana,  R. Olivares-Amaya,  R. Olson,  
 T. M. Perrine,  B. Peters,  P. A. Pieniazek,  A. Prociuk,  Y. M. Rhee,  
 J. Ritchie,  M. A. Rohrdanz,  E. Rosta,  N. J. Russ,  H. F. Schaefer III,  
 M. W. Schmidt,  N. E. Schultz,  S. Sharma,  N. Shenvi,  C. D. Sherrill,  
 A. C. Simmonett,  A. Sodt,  T. Stein,  D. Stuck,  K. S. Thanthiriwatte,  
 V. Vanovschi,  L. Vogt,  Tao Wang,  A. Warshel,  M. A. Watson,  
 C. F. Williams,  Q. Wu,  X. Xu,  Jun Yang,  W. Zhang,  Yan Zhao

 Please cite Q-Chem as follows:
 Y. Shao et al., Mol. Phys. 113, 184-215 (2015)
 DOI: 10.1080/00268976.2014.952696

 Q-Chem 5.4.0 for Intel X86 EM64T Linux

 Parts of Q-Chem use Armadillo 9.800.1 (Horizon Scraper).
 http://arma.sourceforge.net/

 Q-Chem begins on Sun Sep 24 18:21:37 2023  

 Host: 
0

     Scratch files written to ./qchem2531479//
 May1621 |scratch|qcdevops|jenkins|workspace|build_RNUM    
 Parallel job on  1  processors
 Processing $rem in /cm/shared/apps/spack/cpu/opt/spack/linux-centos8-zen2/gcc-10.2.0/qchem-5.4-akfmr7b3t57bfs6qan3padb2wnb2i7cl/config/preferences:
 Processing $rem in /home/rramji/.qchemrc:
 Symmetry turned off for PCM/SM12/SMD calculation
 Core orbitals will be frozen

 Checking the input file for inconsistencies... 	...done.

 Q-Chem warning in module forms1/BasisType.C, line 2236:

 You are not using the predefined 5D/6D in this basis set.


--------------------------------------------------------------
User input:
--------------------------------------------------------------
$molecule
0 1
C	0.175432	-8.519741	-0.208002
C	-0.352097	-7.635967	0.722164
S	0.936458	-7.651740	-1.563424
C	-0.160388	-6.261894	0.386833
H	-0.870905	-7.954738	1.635031
C	0.553685	-6.079985	-0.849637
C	0.816372	-4.798382	-1.357938
C	-0.627524	-5.153542	1.149702
C	-0.368399	-3.869626	0.638941
C	0.348912	-3.688927	-0.597409
O	-1.262667	-5.481075	2.309260
O	1.453338	-4.479871	-2.523296
C	2.449320	-5.356026	-3.036927
H	2.982577	-4.790496	-3.824632
H	2.011155	-6.268513	-3.497250
H	3.173591	-5.658187	-2.249807
C	-2.130793	-4.546999	2.939226
H	-2.663289	-5.107564	3.730721
H	-2.873906	-4.131473	2.225196
H	-1.572045	-3.712085	3.415077
C	0.536849	-2.314326	-0.930765
S	-0.763041	-2.295487	1.347913
C	0.000000	-1.435180	0.000000
H	1.057554	-1.993211	-1.841645
C	0.000000	0.000000	0.000000
S	0.309721	0.844422	1.510732
C	0.847502	2.325108	0.727629
C	0.310602	0.853460	-1.064665
C	0.784173	2.159014	-0.678287
C	0.289451	0.790512	-2.486150
C	0.721927	1.979112	-3.106916
S	1.145464	3.152519	-1.965735
C	0.813355	2.216642	-4.559972
O	0.496884	1.338418	-5.350277
O	1.255274	3.421340	-5.004375
F	-0.087923	-0.257761	-3.246290
C	1.387494	3.754937	-6.334976
H	1.765978	4.793056	-6.370268
H	0.417095	3.693789	-6.875609
H	2.098820	3.081033	-6.861878
H	1.162229	3.189623	1.321510
H	-0.608584	-9.146471	-0.648918
H	0.953830	-9.150570	0.237003
H	-0.939477	-1.444158	-0.532637
$end

$rem
JOBTYPE		SP
EXCHANGE	HF
CORRELATION	pRIMP2
BASIS		cc-pvtz
METHOD		rimp2
AUX_BASIS	rimp2-cc-pvtz
SOLVENT_METHOD	PCM
PURECART	11111
SYMMETRY	false
MEM_TOTAL	110000
SCF_CONVERGENCE = 6
THRESH=10
GUI = 2
$end



$solvent
dielectric 4.90
$end
--------------------------------------------------------------
 ----------------------------------------------------------------
             Standard Nuclear Orientation (Angstroms)
    I     Atom           X                Y                Z
 ----------------------------------------------------------------
    1      C       0.1754320000    -8.5197410000    -0.2080020000
    2      C      -0.3520970000    -7.6359670000     0.7221640000
    3      S       0.9364580000    -7.6517400000    -1.5634240000
    4      C      -0.1603880000    -6.2618940000     0.3868330000
    5      H      -0.8709050000    -7.9547380000     1.6350310000
    6      C       0.5536850000    -6.0799850000    -0.8496370000
    7      C       0.8163720000    -4.7983820000    -1.3579380000
    8      C      -0.6275240000    -5.1535420000     1.1497020000
    9      C      -0.3683990000    -3.8696260000     0.6389410000
   10      C       0.3489120000    -3.6889270000    -0.5974090000
   11      O      -1.2626670000    -5.4810750000     2.3092600000
   12      O       1.4533380000    -4.4798710000    -2.5232960000
   13      C       2.4493200000    -5.3560260000    -3.0369270000
   14      H       2.9825770000    -4.7904960000    -3.8246320000
   15      H       2.0111550000    -6.2685130000    -3.4972500000
   16      H       3.1735910000    -5.6581870000    -2.2498070000
   17      C      -2.1307930000    -4.5469990000     2.9392260000
   18      H      -2.6632890000    -5.1075640000     3.7307210000
   19      H      -2.8739060000    -4.1314730000     2.2251960000
   20      H      -1.5720450000    -3.7120850000     3.4150770000
   21      C       0.5368490000    -2.3143260000    -0.9307650000
   22      S      -0.7630410000    -2.2954870000     1.3479130000
   23      C       0.0000000000    -1.4351800000     0.0000000000
   24      H       1.0575540000    -1.9932110000    -1.8416450000
   25      C       0.0000000000     0.0000000000     0.0000000000
   26      S       0.3097210000     0.8444220000     1.5107320000
   27      C       0.8475020000     2.3251080000     0.7276290000
   28      C       0.3106020000     0.8534600000    -1.0646650000
   29      C       0.7841730000     2.1590140000    -0.6782870000
   30      C       0.2894510000     0.7905120000    -2.4861500000
   31      C       0.7219270000     1.9791120000    -3.1069160000
   32      S       1.1454640000     3.1525190000    -1.9657350000
   33      C       0.8133550000     2.2166420000    -4.5599720000
   34      O       0.4968840000     1.3384180000    -5.3502770000
   35      O       1.2552740000     3.4213400000    -5.0043750000
   36      F      -0.0879230000    -0.2577610000    -3.2462900000
   37      C       1.3874940000     3.7549370000    -6.3349760000
   38      H       1.7659780000     4.7930560000    -6.3702680000
   39      H       0.4170950000     3.6937890000    -6.8756090000
   40      H       2.0988200000     3.0810330000    -6.8618780000
   41      H       1.1622290000     3.1896230000     1.3215100000
   42      H      -0.6085840000    -9.1464710000    -0.6489180000
   43      H       0.9538300000    -9.1505700000     0.2370030000
   44      H      -0.9394770000    -1.4441580000    -0.5326370000
 ----------------------------------------------------------------
 Nuclear Repulsion Energy =        3372.31914442 hartrees
 There are      120 alpha and      120 beta electrons
 Requested basis set is cc-pVTZ
 There are 388 shells and 1096 basis functions

 Total QAlloc Memory Limit 110000 MB
 Mega-Array Size       188 MB
 MEM_STATIC part       192 MB
 Discretize the solute cavity surface with Lebedev spheres
	Using 110 Lebedev grid points for each H atom
	Using 194 Lebedev grid points for other atoms
	Atomic van der Waals radii will be scaled by 1.20
 Remove points where switching function is < 1.0e-08
 Keep 2931 surface tesserae and discard 4345 interior tesserae
 Molecular Surface Area = 437.987 Angst**2
 Requested basis set is rimp2-cc-pVTZ
 There are 853 shells and 2963 basis functions
 A cutoff of  1.0D-10 yielded  33666 shell pairs
 There are    254162 function pairs (    328741 Cartesian)
 Smallest overlap matrix eigenvalue = 2.06E-05

 Scale SEOQF with 1.000000e-01/1.000000e-02/1.000000e-02

 Standard Electronic Orientation quadrupole field applied
 Nucleus-field energy     =     0.0000000231 hartrees
 Guess from superposition of atomic densities
 Warning:  Energy on first SCF cycle will be non-variational
 SAD guess density has 240.000000 electrons

 -----------------------------------------------------------------------
  General SCF calculation program by
  Eric Jon Sundstrom, Paul Horn, Yuezhi Mao, Dmitri Zuev, Alec White,
  David Stuck, Shaama M.S., Shane Yost, Joonho Lee, David Small,
  Daniel Levine, Susi Lehtola, Hugh Burton, Evgeny Epifanovsky,
  Bang C. Huynh
 -----------------------------------------------------------------------
 Hartree-Fock
 using 64 threads for integral computing
 -------------------------------------------------------
 OpenMP Integral computing Module                
 Release: version 1.0, May 2013, Q-Chem Inc. Pittsburgh 
 -------------------------------------------------------
 A restricted SCF calculation will be
 performed using DIIS
 SCF converges when DIIS error is below 1.0e-06
 ---------------------------------------
  Cycle       Energy         DIIS error
 ---------------------------------------
    1   -2767.3520554010      1.77e-02  
    2   -2754.8633393850      1.54e-03  
    3   -2755.2122046326      8.77e-04  
    4   -2755.3031898343      2.54e-04  
    5   -2755.3169535355      7.30e-05  
    6   -2755.3185019732      2.61e-05  
    7   -2755.3189042235      1.35e-05  
    8   -2755.3190257979      5.63e-06  
    9   -2755.3190516506      2.95e-06  
   10   -2755.3190581110      1.41e-06  
   11   -2755.3190601236      7.21e-07  Convergence criterion met
 ---------------------------------------
 SCF time:   CPU 7471.70s  wall 273.00s 

************** Final PCM Free Energy Summary **************
 G_electrostatic  =      -0.02111041 hartree =     -13.24698215 kcal/mol
 G_cavitation     =       0.00000000 hartree =       0.00000000 kcal/mol
 G_dispersion     =       0.00000000 hartree =       0.00000000 kcal/mol
 G_repulsion      =       0.00000000 hartree =       0.00000000 kcal/mol
 --------------------------------------------------
 Non-electrostatic Free Energy =       0.00000000 hartree =       0.00000000 kcal/mol
 Total                         =      -0.02111041 hartree =     -13.24698215 kcal/mol
 --------------------------------------------------
 SCF Energy (H0 + V/2)                       =   -2755.31906012 
 Solute Internal Energy (H0)                 =   -2755.29794971 
 Total Free Energy (H0 + V/2 + non-elec)     =   -2755.31906012 hartree
                                             = -1728988.80585441 kcal/mol
***********************************************************

 SCF   energy in the final basis set =    -2755.3190601236
 Total energy in the final basis set =    -2755.3190601236


 --------------------------------------------------------------
  Generalized many-body perturbation theory program
  by Joonho Lee, Fazle Rob, Xintian Feng, Evgeny Epifanovsky

 No regularization used 
 (reg. param. = 0.0000e+00)
  (P|Q)^-1/2 Time:  CPU 135.62 s  wall 2.74 s

 In RI-MP2 calculation: 
 # of frozen core orbitals: 45

 Components of the RIMP2 correlation energy:
        aaaa    correlation energy =        -0.6708612327 a.u.
        abab    correlation energy =        -3.7527905146 a.u.
        bbbb    correlation energy =        -0.6708612327 a.u.
        non-Brillouin singles      =        -0.0000000000 a.u.
        total same-spin energy     =        -1.3417224654 a.u.
        total opposite-spin energy =        -3.7527905146 a.u.

 Total  RIMP2   correlation energy =        -5.0945129800 a.u.
        RIMP2         total energy =     -2760.4135731036 a.u.

 RI-MP2 Energy Time:  CPU 2955.97 s  wall 48.26 s
 
 --------------------------------------------------------------
 
                    Orbital Energies (a.u.)
 --------------------------------------------------------------
 
 Alpha MOs
 -- Occupied --
-92.0144 -91.9948 -91.9821 -91.9591 -26.3387 -20.6119 -20.5890 -20.5872
-20.5493 -11.4099 -11.3794 -11.3194 -11.3107 -11.3098 -11.2979 -11.2957
-11.2888 -11.2885 -11.2858 -11.2852 -11.2847 -11.2824 -11.2805 -11.2742
-11.2735 -11.2604 -11.2595 -11.2507 -11.2399  -9.0130  -8.9988  -8.9842
 -8.9617  -6.6937  -6.6931  -6.6926  -6.6801  -6.6794  -6.6781  -6.6654
 -6.6645  -6.6632  -6.6429  -6.6420  -6.6410  -1.6521  -1.4716  -1.4122
 -1.4091  -1.3668  -1.2391  -1.2105  -1.1768  -1.1437  -1.1009  -1.0513
 -1.0478  -1.0289  -1.0100  -0.9998  -0.9720  -0.9602  -0.9499  -0.9412
 -0.8954  -0.8738  -0.8626  -0.8088  -0.7960  -0.7872  -0.7770  -0.7722
 -0.7625  -0.7345  -0.7214  -0.7189  -0.6988  -0.6940  -0.6856  -0.6785
 -0.6743  -0.6724  -0.6572  -0.6492  -0.6386  -0.6289  -0.6211  -0.6154
 -0.6105  -0.6061  -0.5955  -0.5934  -0.5801  -0.5697  -0.5598  -0.5537
 -0.5457  -0.5358  -0.5308  -0.5232  -0.5137  -0.5086  -0.5062  -0.5023
 -0.4854  -0.4847  -0.4779  -0.4698  -0.4626  -0.4612  -0.4601  -0.4476
 -0.4306  -0.3987  -0.3875  -0.3714  -0.3508  -0.2939  -0.2862  -0.2185
 -- Virtual --
  0.0252   0.0576   0.1165   0.1255   0.1376   0.1447   0.1532   0.1547
  0.1585   0.1594   0.1633   0.1755   0.1823   0.1855   0.1918   0.1963
  0.1998   0.2020   0.2055   0.2110   0.2166   0.2226   0.2231   0.2280
  0.2300   0.2326   0.2445   0.2467   0.2541   0.2601   0.2655   0.2715
  0.2757   0.2982   0.3112   0.3202   0.3263   0.3355   0.3447   0.3462
  0.3494   0.3576   0.3622   0.3687   0.3707   0.3737   0.3803   0.3831
  0.3863   0.3876   0.3919   0.4060   0.4117   0.4138   0.4188   0.4244
  0.4252   0.4274   0.4331   0.4352   0.4378   0.4442   0.4457   0.4497
  0.4551   0.4632   0.4685   0.4701   0.4734   0.4760   0.4840   0.4852
  0.4863   0.4918   0.4952   0.4988   0.5033   0.5131   0.5198   0.5208
  0.5238   0.5290   0.5318   0.5365   0.5385   0.5411   0.5491   0.5500
  0.5520   0.5571   0.5610   0.5653   0.5665   0.5720   0.5729   0.5808
  0.5856   0.5899   0.5916   0.5941   0.5991   0.6026   0.6072   0.6105
  0.6146   0.6162   0.6196   0.6210   0.6248   0.6261   0.6310   0.6340
  0.6350   0.6395   0.6419   0.6443   0.6478   0.6512   0.6548   0.6560
  0.6605   0.6659   0.6699   0.6777   0.6822   0.6855   0.6939   0.6983
  0.7030   0.7073   0.7126   0.7149   0.7204   0.7228   0.7381   0.7417
  0.7472   0.7513   0.7581   0.7589   0.7701   0.7775   0.7860   0.7898
  0.7954   0.7971   0.8032   0.8042   0.8097   0.8117   0.8167   0.8304
  0.8323   0.8363   0.8439   0.8605   0.8641   0.8679   0.8723   0.8810
  0.8875   0.8958   0.8992   0.9013   0.9044   0.9082   0.9164   0.9239
  0.9261   0.9284   0.9341   0.9360   0.9408   0.9490   0.9504   0.9541
  0.9602   0.9652   0.9707   0.9789   0.9822   0.9864   0.9899   0.9963
  0.9981   1.0032   1.0089   1.0106   1.0119   1.0181   1.0245   1.0288
  1.0374   1.0401   1.0474   1.0485   1.0527   1.0563   1.0613   1.0670
  1.0717   1.0791   1.0872   1.0916   1.0949   1.1006   1.1049   1.1096
  1.1119   1.1224   1.1232   1.1299   1.1332   1.1351   1.1483   1.1533
  1.1554   1.1591   1.1632   1.1668   1.1701   1.1745   1.1796   1.1830
  1.1880   1.1905   1.1956   1.2010   1.2070   1.2098   1.2138   1.2206
  1.2220   1.2252   1.2337   1.2376   1.2428   1.2500   1.2549   1.2600
  1.2637   1.2712   1.2756   1.2791   1.2817   1.2907   1.2932   1.2979
  1.3034   1.3120   1.3191   1.3280   1.3315   1.3332   1.3410   1.3445
  1.3490   1.3535   1.3634   1.3686   1.3792   1.3863   1.3907   1.3993
  1.4000   1.4070   1.4128   1.4174   1.4264   1.4391   1.4444   1.4521
  1.4593   1.4732   1.4767   1.4826   1.4855   1.4896   1.4921   1.5002
  1.5064   1.5123   1.5136   1.5152   1.5250   1.5335   1.5362   1.5417
  1.5440   1.5473   1.5546   1.5582   1.5621   1.5659   1.5713   1.5768
  1.5893   1.6015   1.6050   1.6107   1.6154   1.6199   1.6340   1.6401
  1.6408   1.6506   1.6559   1.6594   1.6648   1.6715   1.6774   1.6936
  1.6952   1.6996   1.7074   1.7242   1.7271   1.7302   1.7391   1.7496
  1.7589   1.7612   1.7699   1.7725   1.7906   1.8013   1.8089   1.8148
  1.8223   1.8247   1.8340   1.8364   1.8578   1.8613   1.8661   1.8741
  1.8765   1.8858   1.8951   1.9106   1.9147   1.9241   1.9293   1.9365
  1.9410   1.9488   1.9623   1.9681   1.9733   1.9839   1.9909   1.9965
  2.0181   2.0190   2.0308   2.0332   2.0385   2.0459   2.0551   2.0595
  2.0710   2.0892   2.0921   2.0979   2.1021   2.1163   2.1258   2.1370
  2.1408   2.1521   2.1557   2.1608   2.1752   2.1784   2.1848   2.1942
  2.1952   2.2015   2.2167   2.2188   2.2283   2.2319   2.2387   2.2472
  2.2522   2.2541   2.2647   2.2712   2.2805   2.2889   2.2932   2.2989
  2.3037   2.3089   2.3122   2.3295   2.3431   2.3515   2.3560   2.3678
  2.3715   2.3867   2.3963   2.4016   2.4116   2.4142   2.4252   2.4286
  2.4385   2.4486   2.4601   2.4688   2.4741   2.4831   2.4883   2.5016
  2.5126   2.5276   2.5285   2.5359   2.5415   2.5510   2.5637   2.5736
  2.5825   2.5906   2.5961   2.6033   2.6168   2.6186   2.6233   2.6276
  2.6305   2.6389   2.6439   2.6479   2.6517   2.6620   2.6648   2.6711
  2.6751   2.6880   2.6917   2.6951   2.7011   2.7062   2.7182   2.7250
  2.7287   2.7356   2.7387   2.7435   2.7515   2.7572   2.7649   2.7709
  2.7732   2.7783   2.7963   2.8003   2.8052   2.8160   2.8306   2.8364
  2.8404   2.8463   2.8533   2.8558   2.8632   2.8663   2.8736   2.8753
  2.8815   2.8849   2.9005   2.9035   2.9156   2.9219   2.9338   2.9492
  2.9522   2.9562   2.9615   2.9685   2.9771   2.9850   2.9883   2.9910
  3.0100   3.0155   3.0254   3.0369   3.0404   3.0427   3.0437   3.0453
  3.0595   3.0639   3.0712   3.0835   3.0888   3.0906   3.0940   3.1026
  3.1059   3.1080   3.1152   3.1248   3.1305   3.1374   3.1429   3.1503
  3.1540   3.1570   3.1617   3.1652   3.1699   3.1711   3.1777   3.1823
  3.1893   3.1934   3.2011   3.2050   3.2083   3.2124   3.2204   3.2207
  3.2340   3.2373   3.2428   3.2491   3.2533   3.2609   3.2618   3.2689
  3.2706   3.2734   3.2794   3.2837   3.2879   3.2896   3.2954   3.3030
  3.3045   3.3068   3.3152   3.3178   3.3188   3.3287   3.3361   3.3426
  3.3477   3.3483   3.3540   3.3585   3.3614   3.3623   3.3672   3.3706
  3.3759   3.3787   3.3844   3.3872   3.3931   3.3991   3.4015   3.4028
  3.4195   3.4225   3.4256   3.4292   3.4367   3.4400   3.4415   3.4452
  3.4539   3.4575   3.4587   3.4616   3.4669   3.4742   3.4794   3.4827
  3.4873   3.4951   3.5011   3.5046   3.5109   3.5198   3.5239   3.5360
  3.5449   3.5486   3.5551   3.5609   3.5676   3.5749   3.5851   3.5857
  3.5896   3.5903   3.5965   3.6029   3.6040   3.6067   3.6122   3.6151
  3.6202   3.6296   3.6320   3.6346   3.6424   3.6453   3.6525   3.6538
  3.6623   3.6671   3.6679   3.6730   3.6780   3.6833   3.6924   3.6951
  3.6999   3.7061   3.7097   3.7121   3.7214   3.7246   3.7280   3.7311
  3.7321   3.7362   3.7465   3.7524   3.7600   3.7626   3.7716   3.7753
  3.7787   3.7868   3.7984   3.8050   3.8090   3.8102   3.8188   3.8209
  3.8261   3.8326   3.8416   3.8466   3.8487   3.8534   3.8569   3.8599
  3.8672   3.8723   3.8814   3.8887   3.8932   3.8951   3.9007   3.9109
  3.9178   3.9207   3.9320   3.9379   3.9440   3.9473   3.9582   3.9651
  3.9658   3.9808   3.9849   3.9887   3.9961   4.0040   4.0102   4.0134
  4.0236   4.0274   4.0339   4.0414   4.0490   4.0541   4.0609   4.0652
  4.0701   4.0779   4.0845   4.0903   4.0995   4.1029   4.1152   4.1190
  4.1288   4.1430   4.1508   4.1597   4.1702   4.1721   4.1734   4.1802
  4.1838   4.1874   4.1938   4.2097   4.2165   4.2199   4.2359   4.2428
  4.2440   4.2526   4.2670   4.2705   4.2834   4.2912   4.3045   4.3081
  4.3155   4.3207   4.3255   4.3405   4.3477   4.3517   4.3566   4.3652
  4.3733   4.3769   4.3817   4.3937   4.3981   4.4059   4.4127   4.4188
  4.4231   4.4274   4.4277   4.4349   4.4375   4.4506   4.4548   4.4655
  4.4701   4.4776   4.4848   4.4996   4.5045   4.5159   4.5191   4.5315
  4.5384   4.5444   4.5517   4.5584   4.5675   4.5721   4.5769   4.5828
  4.5988   4.6102   4.6162   4.6269   4.6331   4.6395   4.6460   4.6533
  4.6551   4.6682   4.6749   4.6825   4.6919   4.7048   4.7087   4.7219
  4.7305   4.7434   4.7460   4.7728   4.7843   4.7997   4.8082   4.8129
  4.8245   4.8280   4.8350   4.8457   4.8605   4.8721   4.8862   4.8926
  4.9188   4.9284   4.9387   4.9475   4.9551   4.9636   4.9740   4.9931
  4.9951   5.0028   5.0090   5.0111   5.0143   5.0279   5.0466   5.0494
  5.0748   5.0768   5.0957   5.1130   5.1186   5.1594   5.1683   5.1806
  5.1900   5.1939   5.2010   5.2127   5.2160   5.2203   5.2293   5.2490
  5.2580   5.2594   5.2789   5.2874   5.2938   5.3155   5.3249   5.3283
  5.3352   5.3516   5.3553   5.3611   5.3725   5.3843   5.3877   5.4015
  5.4029   5.4101   5.4253   5.4423   5.4621   5.4731   5.4870   5.5006
  5.5093   5.5201   5.5256   5.5524   5.5651   5.5673   5.5736   5.5869
  5.5973   5.6085   5.6183   5.6224   5.6362   5.6459   5.6683   5.6896
  5.7242   5.7397   5.7654   5.7738   5.8010   5.8200   5.8323   5.8562
  5.8604   5.8829   5.9028   5.9540   5.9688   5.9709   5.9833   6.0057
  6.0378   6.0860   6.1202   6.1258   6.1338   6.1489   6.1717   6.1751
  6.1860   6.2023   6.2411   6.2478   6.2537   6.2676   6.2847   6.2925
  6.3088   6.3453   6.3602   6.4319   6.4798   6.4988   6.5346   6.5568
  6.5644   6.5798   6.6505   6.6773   6.6988   6.7217   6.7483   6.7503
  6.8097   6.8596   6.8612   6.8849   6.8976   6.9931   7.1308   7.1449
  7.1787   7.2121   7.2204   7.2402   7.3265   7.3284   7.3407   7.3706
  7.3731   7.4291   7.4628   7.4830   7.4844   7.4978   7.5190   7.5497
  7.6189   7.7364   7.7666   7.8025   7.8324   7.9139   7.9277   7.9558
  8.0064   8.1249   8.3466   8.6624   8.9399   9.0113   9.3662   9.5012
  9.7074  10.3193  11.2528  11.4149  11.9399  11.9542  12.1261  12.3845
 12.4216  12.5204  12.7355  12.9325  13.0185  13.2786  13.4713  13.5299
 13.6967  13.8731  13.9168  13.9558  14.1650  14.3172  15.1693  15.3723
 --------------------------------------------------------------
 
          Ground-State Mulliken Net Atomic Charges

     Atom                 Charge (a.u.)
  ----------------------------------------
      1 C                    -0.070785
      2 C                    -0.252229
      3 S                    -0.132569
      4 C                    -0.049868
      5 H                     0.194358
      6 C                    -0.051052
      7 C                     0.221848
      8 C                     0.235417
      9 C                    -0.075760
     10 C                    -0.032573
     11 O                    -0.333906
     12 O                    -0.342544
     13 C                    -0.082941
     14 H                     0.120955
     15 H                     0.092235
     16 H                     0.092549
     17 C                    -0.087750
     18 H                     0.124719
     19 H                     0.093435
     20 H                     0.090105
     21 C                    -0.320869
     22 S                    -0.089458
     23 C                     0.129862
     24 H                     0.202740
     25 C                    -0.061514
     26 S                     0.104181
     27 C                    -0.258847
     28 C                    -0.103063
     29 C                    -0.002180
     30 C                     0.375798
     31 C                    -0.148680
     32 S                     0.038897
     33 C                     0.462047
     34 O                    -0.452790
     35 O                    -0.298377
     36 F                    -0.215438
     37 C                    -0.054932
     38 H                     0.116608
     39 H                     0.084476
     40 H                     0.084269
     41 H                     0.213598
     42 H                     0.118564
     43 H                     0.116136
     44 H                     0.205325
  ----------------------------------------
  Sum of atomic charges =     0.000000

 -----------------------------------------------------------------
                    Cartesian Multipole Moments
 -----------------------------------------------------------------
    Charge (ESU x 10^10)
                 0.0000
    Dipole Moment (Debye)
         X       0.4079      Y       2.2225      Z       3.2032
       Tot       3.9200
    Quadrupole Moments (Debye-Ang)
        XX    -189.1004     XY       7.0599     YY    -171.8305
        XZ     -13.1444     YZ     -13.5232     ZZ    -198.9408
    Octopole Moments (Debye-Ang^2)
       XXX    -206.7770    XXY     356.8419    XYY     -60.3449
       YYY     990.6533    XXZ     179.1585    XYZ      28.3139
       YYZ     175.7013    XZZ     -30.4854    YZZ     470.6890
       ZZZ     595.7833
    Hexadecapole Moments (Debye-Ang^3)
      XXXX   -1330.0604   XXXY    -153.2668   XXYY   -3741.6632
      XYYY      41.5491   YYYY  -19300.0769   XXXZ     987.2436
      XXYZ     306.8051   XYYZ      79.4467   YYYZ     494.2431
      XXZZ   -1289.4822   XYZZ     118.2297   YYZZ   -4373.8818
      XZZZ     689.3100   YZZZ     251.1415   ZZZZ   -7168.5987
 -----------------------------------------------------------------
 Total job time:  325.17s(wall), 10520.52s(cpu) 
 Sun Sep 24 18:27:02 2023

        *************************************************************
        *                                                           *
        *  Thank you very much for using Q-Chem.  Have a nice day.  *
        *                                                           *
        *************************************************************


0 sent ACK to 0 
now end server 0 ... 
cleanup process ... done
remove work dirs ./qchem2531479.0 -- ./qchem2531479.0
rm -rf ./qchem2531479.0
rm -rf ./qchem2531479
