You are running Q-Chem version: 5.4.0

#
# job setting
#
local host:  exp-6-53
current dir: /expanse/lustre/projects/csd626/rramji/aromodel/PTB7_fin/Hydrogenated_Rotation_Test
input file:  fin_bdt_Phi_30_Theta_30_fin_ftt_Hydrogenated.qcin
output file: 
nprocs     : 1
nthreads   : 64
#
# qchem installation setting
#
QC:          /cm/shared/apps/spack/cpu/opt/spack/linux-centos8-zen2/gcc-10.2.0/qchem-5.4-akfmr7b3t57bfs6qan3padb2wnb2i7cl
QCAUX:       /cm/shared/apps/spack/cpu/opt/spack/linux-centos8-zen2/gcc-10.2.0/qchem-5.4-akfmr7b3t57bfs6qan3padb2wnb2i7cl/qcaux
QCPROG:      /cm/shared/apps/spack/cpu/opt/spack/linux-centos8-zen2/gcc-10.2.0/qchem-5.4-akfmr7b3t57bfs6qan3padb2wnb2i7cl/exe/qcprog.exe
QCPROG_S:    /cm/shared/apps/spack/cpu/opt/spack/linux-centos8-zen2/gcc-10.2.0/qchem-5.4-akfmr7b3t57bfs6qan3padb2wnb2i7cl/exe/qcprog.exe_s
PARALLEL:    -DPARALLEL
QCMPI:       mpich
#
# qchem directory setting
#
qcrun:       qchem2008518
QCSCRATCH:   .
QCLOCALSCR:  
QCTMPDIR:    .
QCFILEPREF:  ./qchem2008518
QCSAVEDIR:   
workdirs:    ./qchem2008518
workdir0:    ./qchem2008518
partmpdirs =  
#
# parallel setting
#
QCRSH:           ssh
QCMPI:           mpich
QCMPIRUN:        /cm/shared/apps/spack/cpu/opt/spack/linux-centos8-zen2/gcc-10.2.0/qchem-5.4-akfmr7b3t57bfs6qan3padb2wnb2i7cl/bin/mpi/mpirun_qchem
QCMACHINEFILE:   ./qchem2008518/hostfile
exp-6-53

#
# env setting
#
exported envs:   QC QCAUX QCSCRATCH QCRUNNAME QCFILEPREF QCPROG QCPROG_S GUIFILE

Running Job 1 of 1 fin_bdt_Phi_30_Theta_30_fin_ftt_Hydrogenated.qcin
qchem fin_bdt_Phi_30_Theta_30_fin_ftt_Hydrogenated.qcin_2008518.0 ./qchem2008518/ 1
/cm/shared/apps/spack/cpu/opt/spack/linux-centos8-zen2/gcc-10.2.0/qchem-5.4-akfmr7b3t57bfs6qan3padb2wnb2i7cl/bin/mpi/mpirun_qchem -machinefile ./qchem2008518/hostfile -np 1 /cm/shared/apps/spack/cpu/opt/spack/linux-centos8-zen2/gcc-10.2.0/qchem-5.4-akfmr7b3t57bfs6qan3padb2wnb2i7cl/exe/qcprog.exe fin_bdt_Phi_30_Theta_30_fin_ftt_Hydrogenated.qcin_2008518.0 ./qchem2008518/

Process 0 of 1 is on exp-6-53 - thread support 0
initial socket setup ...start
initial socket setup ...done 
now start server 0 ... 
                  Welcome to Q-Chem
     A Quantum Leap Into The Future Of Chemistry


 Q-Chem 5.4, Q-Chem, Inc., Pleasanton, CA (2021)

 License issued to: University of California, San Diego (site)

 E. Epifanovsky,  A. T. B. Gilbert,  Xintian Feng,  Joonho Lee,  Yuezhi Mao,  
 N. Mardirossian,  P. Pokhilko,  A. White,  M. Wormit,  M. P. Coons,  
 A. L. Dempwolff,  Zhengting Gan,  D. Hait,  P. R. Horn,  L. D. Jacobson,  
 I. Kaliman,  J. Kussmann,  A. W. Lange,  Ka Un Lao,  D. S. Levine,  Jie Liu,  
 S. C. McKenzie,  A. F. Morrison,  K. Nanda,  F. Plasser,  D. R. Rehn,  
 M. L. Vidal,  Zhi-Qiang You,  Ying Zhu,  B. Alam,  B. Albrecht,  
 A. Aldossary,  E. Alguire,  J. H. Andersen,  D. Barton,  K. Begam,  A. Behn,  
 Y. A. Bernard,  E. J. Berquist,  H. Burton,  A. Carreras,  K. Carter-Fenk,  
 R. Chakraborty,  A. D. Chien,  K. D. Closser,  V. Cofer-Shabica,  
 S. Dasgupta,  Jia Deng,  M. de Wergifosse,  M. Diedenhofen,  Hainam Do,  
 S. Ehlert,  Po-Tung Fang,  S. Fatehi,  Qingguo Feng,  J. Gayvert,  
 Qinghui Ge,  G. Gidofalvi,  M. Goldey,  J. Gomes,  C. Gonzalez-Espinoza,  
 S. Gulania,  A. Gunina,  M. W. D. Hanson-Heine,  P. H. P. Harbach,  
 A. W. Hauser,  M. F. Herbst,  M. Hernandez Vera,  M. Hodecker,  
 Z. C. Holden,  S. Houck,  Xunkun Huang,  Kerwin Hui,  B. C. Huynh,  
 M. Ivanov,  Hyunjun Ji,  Hanjie Jiang,  B. Kaduk,  S. Kaehler,  
 K. Khistyaev,  Jaehoon Kim,  P. Klunzinger,  Z. Koczor-Benda,  
 Joong Hoon Koh,  D. Kosenkov,  L. Koulias,  T. Kowalczyk,  C. M. Krauter,  
 K. Kue,  A. Kunitsa,  T. Kus,  A. Landau,  K. V. Lawler,  D. Lefrancois,  
 S. Lehtola,  Rain Li,  Yi-Pei Li,  Jiashu Liang,  M. Liebenthal,  
 Hung-Hsuan Lin,  You-Sheng Lin,  Fenglai Liu,  Kuan-Yu Liu,  
 M. Loipersberger,  A. Luenser,  A. Manjanath,  P. Manohar,  E. Mansoor,  
 S. F. Manzer,  Shan-Ping Mao,  A. V. Marenich,  T. Markovich,  S. Mason,  
 S. A. Maurer,  P. F. McLaughlin,  M. F. S. J. Menger,  J.-M. Mewes,  
 S. A. Mewes,  P. Morgante,  J. W. Mullinax,  T. S. Nguyen-Beck,  
 K. J. Oosterbaan,  G. Paran,  Alexander C. Paul,  Suranjan K. Paul,  
 F. Pavosevic,  Zheng Pei,  S. Prager,  E. I. Proynov,  E. Ramos,  B. Rana,  
 A. E. Rask,  A. Rettig,  R. M. Richard,  F. Rob,  E. Rossomme,  T. Scheele,  
 M. Scheurer,  M. Schneider,  N. Sergueev,  S. M. Sharada,  W. Skomorowski,  
 D. W. Small,  C. J. Stein,  Yu-Chuan Su,  E. J. Sundstrom,  Zhen Tao,  
 J. Thirman,  T. Tsuchimochi,  N. M. Tubman,  S. P. Veccham,  O. Vydrov,  
 J. Wenzel,  J. Witte,  A. Yamada,  Kun Yao,  S. Yeganeh,  S. R. Yost,  
 A. Zech,  Igor Ying Zhang,  Xing Zhang,  Yu Zhang,  D. Zuev,  
 A. Aspuru-Guzik,  A. T. Bell,  N. A. Besley,  K. B. Bravaya,  B. R. Brooks,  
 D. Casanova,  Jeng-Da Chai,  S. Coriani,  C. J. Cramer,  
 A. E. DePrince, III,  R. A. DiStasio Jr.,  A. Dreuw,  B. D. Dunietz,  
 T. R. Furlani,  W. A. Goddard III,  S. Grimme,  S. Hammes-Schiffer,  
 T. Head-Gordon,  W. J. Hehre,  Chao-Ping Hsu,  T.-C. Jagau,  Yousung Jung,  
 A. Klamt,  Jing Kong,  D. S. Lambrecht,  WanZhen Liang,  N. J. Mayhall,  
 C. W. McCurdy,  J. B. Neaton,  C. Ochsenfeld,  J. A. Parkhill,  R. Peverati,  
 V. A. Rassolov,  Yihan Shao,  L. V. Slipchenko,  T. Stauch,  R. P. Steele,  
 J. E. Subotnik,  A. J. W. Thom,  A. Tkatchenko,  D. G. Truhlar,  
 T. Van Voorhis,  T. A. Wesolowski,  K. B. Whaley,  H. L. Woodcock III,  
 P. M. Zimmerman,  S. Faraji,  P. M. W. Gill,  M. Head-Gordon,  
 J. M. Herbert,  A. I. Krylov

 Contributors to earlier versions of Q-Chem not listed above: 
 R. D. Adamson,  B. Austin,  R. Baer,  J. Baker,  G. J. O. Beran,  
 K. Brandhorst,  S. T. Brown,  E. F. C. Byrd,  A. K. Chakraborty,  
 G. K. L. Chan,  Chun-Min Chang,  Yunqing Chen,  C.-L. Cheng,  
 Siu Hung Chien,  D. M. Chipman,  D. L. Crittenden,  H. Dachsel,  
 R. J. Doerksen,  A. D. Dutoi,  R. G. Edgar,  J. Fosso-Tande,  
 L. Fusti-Molnar,  D. Ghosh,  A. Ghysels,  A. Golubeva-Zadorozhnaya,  
 J. Gonthier,  M. S. Gordon,  S. R. Gwaltney,  G. Hawkins,  J. E. Herr,  
 A. Heyden,  S. Hirata,  E. G. Hohenstein,  G. Kedziora,  F. J. Keil,  
 C. Kelley,  Jihan Kim,  R. A. King,  R. Z. Khaliullin,  P. P. Korambath,  
 W. Kurlancheek,  A. Laurent,  A. M. Lee,  M. S. Lee,  S. V. Levchenko,  
 Ching Yeh Lin,  D. Liotard,  E. Livshits,  R. C. Lochan,  I. Lotan,  
 L. A. Martinez-Martinez,  P. E. Maslen,  N. Nair,  D. P. O'Neill,  
 D. Neuhauser,  E. Neuscamman,  C. M. Oana,  R. Olivares-Amaya,  R. Olson,  
 T. M. Perrine,  B. Peters,  P. A. Pieniazek,  A. Prociuk,  Y. M. Rhee,  
 J. Ritchie,  M. A. Rohrdanz,  E. Rosta,  N. J. Russ,  H. F. Schaefer III,  
 M. W. Schmidt,  N. E. Schultz,  S. Sharma,  N. Shenvi,  C. D. Sherrill,  
 A. C. Simmonett,  A. Sodt,  T. Stein,  D. Stuck,  K. S. Thanthiriwatte,  
 V. Vanovschi,  L. Vogt,  Tao Wang,  A. Warshel,  M. A. Watson,  
 C. F. Williams,  Q. Wu,  X. Xu,  Jun Yang,  W. Zhang,  Yan Zhao

 Please cite Q-Chem as follows:
 Y. Shao et al., Mol. Phys. 113, 184-215 (2015)
 DOI: 10.1080/00268976.2014.952696

 Q-Chem 5.4.0 for Intel X86 EM64T Linux

 Parts of Q-Chem use Armadillo 9.800.1 (Horizon Scraper).
 http://arma.sourceforge.net/

 Q-Chem begins on Sun Sep 24 16:39:21 2023  

 Host: 
0

     Scratch files written to ./qchem2008518//
 May1621 |scratch|qcdevops|jenkins|workspace|build_RNUM    
 Parallel job on  1  processors
 Processing $rem in /cm/shared/apps/spack/cpu/opt/spack/linux-centos8-zen2/gcc-10.2.0/qchem-5.4-akfmr7b3t57bfs6qan3padb2wnb2i7cl/config/preferences:
 Processing $rem in /home/rramji/.qchemrc:
 Symmetry turned off for PCM/SM12/SMD calculation
 Core orbitals will be frozen

 Checking the input file for inconsistencies... 	...done.

 Q-Chem warning in module forms1/BasisType.C, line 2236:

 You are not using the predefined 5D/6D in this basis set.


--------------------------------------------------------------
User input:
--------------------------------------------------------------
$molecule
0 1
C	-0.175432	-8.519741	0.208002
C	0.352097	-7.635967	-0.722164
S	-0.936458	-7.651740	1.563424
C	0.160388	-6.261894	-0.386833
H	0.870905	-7.954738	-1.635031
C	-0.553685	-6.079985	0.849637
C	-0.816372	-4.798382	1.357938
C	0.627524	-5.153542	-1.149702
C	0.368399	-3.869626	-0.638941
C	-0.348912	-3.688927	0.597409
O	1.262667	-5.481075	-2.309260
O	-1.453338	-4.479871	2.523296
C	-2.449320	-5.356026	3.036927
H	-2.982577	-4.790496	3.824632
H	-2.011155	-6.268513	3.497250
H	-3.173591	-5.658187	2.249807
C	2.130793	-4.546999	-2.939226
H	2.663289	-5.107564	-3.730721
H	2.873906	-4.131473	-2.225196
H	1.572045	-3.712085	-3.415077
C	-0.536849	-2.314326	0.930765
S	0.763041	-2.295487	-1.347913
C	-0.000000	-1.435180	-0.000000
H	-1.057554	-1.993211	1.841645
C	0.000000	0.000000	0.000000
S	0.451648	0.777811	1.510732
C	1.238377	2.142617	0.727629
C	0.454085	0.786559	-1.064665
C	1.147169	1.990043	-0.678287
C	0.422325	0.728240	-2.486150
C	1.054629	1.823683	-3.106916
S	1.675491	2.905718	-1.965735
C	1.185914	2.041729	-4.559972
O	0.721749	1.231802	-5.350277
O	1.830313	3.151386	-5.004375
F	-0.131347	-0.238577	-3.246290
C	2.018453	3.456956	-6.334976
H	2.571455	4.413580	-6.370268
H	1.052178	3.565244	-6.875609
H	2.601950	2.669768	-6.861878
H	1.698444	2.939346	1.321510
H	0.608584	-9.146471	0.648918
H	-0.953830	-9.150570	-0.237003
H	0.939477	-1.444158	0.532637
$end

$rem
JOBTYPE		SP
EXCHANGE	HF
CORRELATION	pRIMP2
BASIS		cc-pvtz
METHOD		rimp2
AUX_BASIS	rimp2-cc-pvtz
SOLVENT_METHOD	PCM
PURECART	11111
SYMMETRY	false
MEM_TOTAL	110000
SCF_CONVERGENCE = 6
THRESH=10
GUI = 2
$end



$solvent
dielectric 4.90
$end
--------------------------------------------------------------
 ----------------------------------------------------------------
             Standard Nuclear Orientation (Angstroms)
    I     Atom           X                Y                Z
 ----------------------------------------------------------------
    1      C      -0.1754320000    -8.5197410000     0.2080020000
    2      C       0.3520970000    -7.6359670000    -0.7221640000
    3      S      -0.9364580000    -7.6517400000     1.5634240000
    4      C       0.1603880000    -6.2618940000    -0.3868330000
    5      H       0.8709050000    -7.9547380000    -1.6350310000
    6      C      -0.5536850000    -6.0799850000     0.8496370000
    7      C      -0.8163720000    -4.7983820000     1.3579380000
    8      C       0.6275240000    -5.1535420000    -1.1497020000
    9      C       0.3683990000    -3.8696260000    -0.6389410000
   10      C      -0.3489120000    -3.6889270000     0.5974090000
   11      O       1.2626670000    -5.4810750000    -2.3092600000
   12      O      -1.4533380000    -4.4798710000     2.5232960000
   13      C      -2.4493200000    -5.3560260000     3.0369270000
   14      H      -2.9825770000    -4.7904960000     3.8246320000
   15      H      -2.0111550000    -6.2685130000     3.4972500000
   16      H      -3.1735910000    -5.6581870000     2.2498070000
   17      C       2.1307930000    -4.5469990000    -2.9392260000
   18      H       2.6632890000    -5.1075640000    -3.7307210000
   19      H       2.8739060000    -4.1314730000    -2.2251960000
   20      H       1.5720450000    -3.7120850000    -3.4150770000
   21      C      -0.5368490000    -2.3143260000     0.9307650000
   22      S       0.7630410000    -2.2954870000    -1.3479130000
   23      C       0.0000000000    -1.4351800000     0.0000000000
   24      H      -1.0575540000    -1.9932110000     1.8416450000
   25      C       0.0000000000     0.0000000000     0.0000000000
   26      S       0.4516480000     0.7778110000     1.5107320000
   27      C       1.2383770000     2.1426170000     0.7276290000
   28      C       0.4540850000     0.7865590000    -1.0646650000
   29      C       1.1471690000     1.9900430000    -0.6782870000
   30      C       0.4223250000     0.7282400000    -2.4861500000
   31      C       1.0546290000     1.8236830000    -3.1069160000
   32      S       1.6754910000     2.9057180000    -1.9657350000
   33      C       1.1859140000     2.0417290000    -4.5599720000
   34      O       0.7217490000     1.2318020000    -5.3502770000
   35      O       1.8303130000     3.1513860000    -5.0043750000
   36      F      -0.1313470000    -0.2385770000    -3.2462900000
   37      C       2.0184530000     3.4569560000    -6.3349760000
   38      H       2.5714550000     4.4135800000    -6.3702680000
   39      H       1.0521780000     3.5652440000    -6.8756090000
   40      H       2.6019500000     2.6697680000    -6.8618780000
   41      H       1.6984440000     2.9393460000     1.3215100000
   42      H       0.6085840000    -9.1464710000     0.6489180000
   43      H      -0.9538300000    -9.1505700000    -0.2370030000
   44      H       0.9394770000    -1.4441580000     0.5326370000
 ----------------------------------------------------------------
 Nuclear Repulsion Energy =        3396.09883335 hartrees
 There are      120 alpha and      120 beta electrons
 Requested basis set is cc-pVTZ
 There are 388 shells and 1096 basis functions

 Total QAlloc Memory Limit 110000 MB
 Mega-Array Size       188 MB
 MEM_STATIC part       192 MB
 Discretize the solute cavity surface with Lebedev spheres
	Using 110 Lebedev grid points for each H atom
	Using 194 Lebedev grid points for other atoms
	Atomic van der Waals radii will be scaled by 1.20
 Remove points where switching function is < 1.0e-08
 Keep 2919 surface tesserae and discard 4357 interior tesserae
 Molecular Surface Area = 434.297 Angst**2
 Requested basis set is rimp2-cc-pVTZ
 There are 853 shells and 2963 basis functions
 A cutoff of  1.0D-10 yielded  33917 shell pairs
 There are    255809 function pairs (    330789 Cartesian)
 Smallest overlap matrix eigenvalue = 2.12E-05

 Scale SEOQF with 1.000000e-01/1.000000e-02/1.000000e-02

 Standard Electronic Orientation quadrupole field applied
 Nucleus-field energy     =     0.0000000254 hartrees
 Guess from superposition of atomic densities
 Warning:  Energy on first SCF cycle will be non-variational
 SAD guess density has 240.000000 electrons

 -----------------------------------------------------------------------
  General SCF calculation program by
  Eric Jon Sundstrom, Paul Horn, Yuezhi Mao, Dmitri Zuev, Alec White,
  David Stuck, Shaama M.S., Shane Yost, Joonho Lee, David Small,
  Daniel Levine, Susi Lehtola, Hugh Burton, Evgeny Epifanovsky,
  Bang C. Huynh
 -----------------------------------------------------------------------
 Hartree-Fock
 using 64 threads for integral computing
 -------------------------------------------------------
 OpenMP Integral computing Module                
 Release: version 1.0, May 2013, Q-Chem Inc. Pittsburgh 
 -------------------------------------------------------
 A restricted SCF calculation will be
 performed using DIIS
 SCF converges when DIIS error is below 1.0e-06
 ---------------------------------------
  Cycle       Energy         DIIS error
 ---------------------------------------
    1   -2767.3923259594      1.77e-02  
    2   -2754.8517426549      1.54e-03  
    3   -2755.2009071225      8.77e-04  
    4   -2755.2918476001      2.55e-04  
    5   -2755.3058594339      7.27e-05  
    6   -2755.3074778770      2.67e-05  
    7   -2755.3079226075      1.37e-05  
    8   -2755.3080539103      5.57e-06  
    9   -2755.3080802783      2.84e-06  
   10   -2755.3080864003      1.40e-06  
   11   -2755.3080884512      7.34e-07  Convergence criterion met
 ---------------------------------------
 SCF time:   CPU 7466.12s  wall 271.00s 

************** Final PCM Free Energy Summary **************
 G_electrostatic  =      -0.02190938 hartree =     -13.74834570 kcal/mol
 G_cavitation     =       0.00000000 hartree =       0.00000000 kcal/mol
 G_dispersion     =       0.00000000 hartree =       0.00000000 kcal/mol
 G_repulsion      =       0.00000000 hartree =       0.00000000 kcal/mol
 --------------------------------------------------
 Non-electrostatic Free Energy =       0.00000000 hartree =       0.00000000 kcal/mol
 Total                         =      -0.02190938 hartree =     -13.74834570 kcal/mol
 --------------------------------------------------
 SCF Energy (H0 + V/2)                       =   -2755.30808845 
 Solute Internal Energy (H0)                 =   -2755.28617907 
 Total Free Energy (H0 + V/2 + non-elec)     =   -2755.30808845 hartree
                                             = -1728981.92102603 kcal/mol
***********************************************************

 SCF   energy in the final basis set =    -2755.3080884512
 Total energy in the final basis set =    -2755.3080884512


 --------------------------------------------------------------
  Generalized many-body perturbation theory program
  by Joonho Lee, Fazle Rob, Xintian Feng, Evgeny Epifanovsky

 No regularization used 
 (reg. param. = 0.0000e+00)
  (P|Q)^-1/2 Time:  CPU 151.43 s  wall 2.48 s

 In RI-MP2 calculation: 
 # of frozen core orbitals: 45

 Components of the RIMP2 correlation energy:
        aaaa    correlation energy =        -0.6711181328 a.u.
        abab    correlation energy =        -3.7539426626 a.u.
        bbbb    correlation energy =        -0.6711181328 a.u.
        non-Brillouin singles      =        -0.0000000000 a.u.
        total same-spin energy     =        -1.3422362656 a.u.
        total opposite-spin energy =        -3.7539426626 a.u.

 Total  RIMP2   correlation energy =        -5.0961789282 a.u.
        RIMP2         total energy =     -2760.4042673794 a.u.

 RI-MP2 Energy Time:  CPU 2890.03 s  wall 46.96 s
 
 --------------------------------------------------------------
 
                    Orbital Energies (a.u.)
 --------------------------------------------------------------
 
 Alpha MOs
 -- Occupied --
-92.0103 -91.9934 -91.9767 -91.9599 -26.3341 -20.6118 -20.5878 -20.5877
-20.5493 -11.4097 -11.3789 -11.3180 -11.3094 -11.3094 -11.2969 -11.2959
-11.2917 -11.2884 -11.2842 -11.2835 -11.2834 -11.2832 -11.2804 -11.2755
-11.2700 -11.2613 -11.2594 -11.2514 -11.2410  -9.0097  -8.9975  -8.9791
 -8.9625  -6.6905  -6.6898  -6.6893  -6.6788  -6.6781  -6.6768  -6.6602
 -6.6593  -6.6580  -6.6437  -6.6428  -6.6418  -1.6482  -1.4715  -1.4111
 -1.4096  -1.3666  -1.2409  -1.2093  -1.1776  -1.1445  -1.0995  -1.0516
 -1.0464  -1.0312  -1.0078  -0.9990  -0.9720  -0.9599  -0.9495  -0.9407
 -0.8945  -0.8710  -0.8629  -0.8116  -0.7940  -0.7858  -0.7760  -0.7672
 -0.7658  -0.7332  -0.7211  -0.7159  -0.6972  -0.6941  -0.6837  -0.6783
 -0.6718  -0.6702  -0.6565  -0.6491  -0.6382  -0.6285  -0.6216  -0.6156
 -0.6112  -0.6059  -0.5966  -0.5933  -0.5788  -0.5666  -0.5638  -0.5589
 -0.5479  -0.5341  -0.5285  -0.5212  -0.5134  -0.5084  -0.5038  -0.5011
 -0.4852  -0.4835  -0.4786  -0.4664  -0.4622  -0.4610  -0.4602  -0.4479
 -0.4280  -0.4013  -0.3841  -0.3725  -0.3514  -0.2943  -0.2841  -0.2178
 -- Virtual --
  0.0201   0.0578   0.1106   0.1345   0.1386   0.1465   0.1532   0.1556
  0.1577   0.1591   0.1695   0.1723   0.1794   0.1841   0.1906   0.1934
  0.1998   0.2029   0.2045   0.2115   0.2159   0.2217   0.2237   0.2272
  0.2284   0.2331   0.2399   0.2465   0.2554   0.2564   0.2690   0.2733
  0.2843   0.2947   0.3106   0.3189   0.3268   0.3368   0.3426   0.3458
  0.3558   0.3583   0.3611   0.3650   0.3707   0.3771   0.3815   0.3835
  0.3883   0.3934   0.3985   0.4001   0.4090   0.4116   0.4130   0.4199
  0.4225   0.4271   0.4331   0.4375   0.4416   0.4459   0.4462   0.4514
  0.4551   0.4611   0.4659   0.4678   0.4750   0.4775   0.4802   0.4836
  0.4934   0.4959   0.5006   0.5076   0.5085   0.5109   0.5148   0.5167
  0.5225   0.5294   0.5330   0.5352   0.5415   0.5438   0.5481   0.5537
  0.5562   0.5590   0.5598   0.5620   0.5695   0.5711   0.5747   0.5836
  0.5874   0.5885   0.5934   0.5965   0.6003   0.6045   0.6084   0.6093
  0.6122   0.6163   0.6180   0.6215   0.6234   0.6273   0.6281   0.6336
  0.6351   0.6386   0.6401   0.6449   0.6467   0.6488   0.6556   0.6593
  0.6620   0.6660   0.6683   0.6802   0.6855   0.6862   0.6919   0.6981
  0.6999   0.7083   0.7132   0.7154   0.7174   0.7263   0.7340   0.7373
  0.7453   0.7528   0.7556   0.7594   0.7698   0.7790   0.7816   0.7922
  0.7964   0.7970   0.8012   0.8088   0.8133   0.8200   0.8203   0.8276
  0.8359   0.8401   0.8456   0.8564   0.8697   0.8735   0.8756   0.8845
  0.8917   0.8951   0.8978   0.9022   0.9062   0.9082   0.9112   0.9179
  0.9217   0.9281   0.9326   0.9347   0.9407   0.9431   0.9499   0.9538
  0.9610   0.9653   0.9746   0.9775   0.9835   0.9845   0.9933   0.9968
  0.9979   1.0030   1.0060   1.0104   1.0115   1.0194   1.0256   1.0280
  1.0332   1.0404   1.0435   1.0517   1.0536   1.0608   1.0675   1.0699
  1.0766   1.0818   1.0845   1.0865   1.0909   1.0968   1.1011   1.1061
  1.1085   1.1181   1.1231   1.1313   1.1385   1.1446   1.1455   1.1522
  1.1601   1.1609   1.1660   1.1668   1.1708   1.1762   1.1806   1.1854
  1.1896   1.1912   1.1936   1.2004   1.2036   1.2061   1.2127   1.2190
  1.2245   1.2312   1.2368   1.2411   1.2430   1.2504   1.2530   1.2586
  1.2615   1.2630   1.2650   1.2823   1.2843   1.2894   1.2978   1.2997
  1.3076   1.3126   1.3228   1.3303   1.3314   1.3336   1.3388   1.3410
  1.3491   1.3591   1.3635   1.3698   1.3790   1.3867   1.3884   1.3981
  1.3998   1.4089   1.4156   1.4196   1.4318   1.4439   1.4461   1.4567
  1.4643   1.4657   1.4763   1.4814   1.4849   1.4889   1.4995   1.5003
  1.5040   1.5063   1.5125   1.5136   1.5194   1.5275   1.5343   1.5393
  1.5435   1.5485   1.5515   1.5559   1.5602   1.5639   1.5715   1.5802
  1.5875   1.5977   1.6036   1.6096   1.6126   1.6211   1.6380   1.6445
  1.6451   1.6546   1.6582   1.6636   1.6703   1.6757   1.6826   1.6901
  1.6971   1.7031   1.7115   1.7204   1.7289   1.7300   1.7410   1.7445
  1.7562   1.7655   1.7698   1.7799   1.7842   1.7974   1.8067   1.8138
  1.8268   1.8301   1.8351   1.8485   1.8614   1.8657   1.8688   1.8735
  1.8770   1.8836   1.8972   1.9060   1.9211   1.9252   1.9331   1.9348
  1.9462   1.9581   1.9670   1.9748   1.9793   1.9843   1.9934   1.9997
  2.0126   2.0202   2.0252   2.0310   2.0397   2.0450   2.0461   2.0560
  2.0679   2.0870   2.0877   2.0958   2.1032   2.1147   2.1206   2.1301
  2.1408   2.1501   2.1590   2.1624   2.1752   2.1774   2.1852   2.1936
  2.1968   2.2003   2.2078   2.2196   2.2211   2.2336   2.2424   2.2458
  2.2534   2.2616   2.2666   2.2769   2.2826   2.2922   2.2937   2.3002
  2.3087   2.3186   2.3278   2.3339   2.3399   2.3530   2.3596   2.3675
  2.3761   2.3864   2.3952   2.4001   2.4104   2.4147   2.4191   2.4233
  2.4445   2.4552   2.4628   2.4665   2.4703   2.4747   2.4954   2.4993
  2.5132   2.5209   2.5291   2.5329   2.5449   2.5462   2.5566   2.5693
  2.5834   2.5847   2.5938   2.6026   2.6122   2.6142   2.6188   2.6261
  2.6313   2.6384   2.6447   2.6467   2.6528   2.6598   2.6716   2.6737
  2.6855   2.6912   2.6964   2.6999   2.7018   2.7105   2.7151   2.7219
  2.7276   2.7380   2.7412   2.7482   2.7557   2.7584   2.7601   2.7669
  2.7706   2.7801   2.7891   2.7959   2.8058   2.8140   2.8192   2.8366
  2.8452   2.8489   2.8546   2.8589   2.8620   2.8663   2.8758   2.8767
  2.8803   2.8917   2.8936   2.9061   2.9269   2.9346   2.9412   2.9501
  2.9541   2.9638   2.9650   2.9755   2.9779   2.9853   2.9944   3.0051
  3.0116   3.0147   3.0281   3.0325   3.0345   3.0441   3.0477   3.0549
  3.0629   3.0631   3.0706   3.0841   3.0865   3.0878   3.0915   3.1017
  3.1099   3.1154   3.1207   3.1262   3.1302   3.1385   3.1443   3.1505
  3.1522   3.1546   3.1574   3.1601   3.1702   3.1724   3.1757   3.1884
  3.1923   3.1947   3.2053   3.2070   3.2117   3.2152   3.2219   3.2254
  3.2287   3.2326   3.2456   3.2472   3.2571   3.2581   3.2634   3.2650
  3.2735   3.2743   3.2763   3.2845   3.2894   3.2927   3.2965   3.3002
  3.3055   3.3107   3.3136   3.3230   3.3265   3.3313   3.3411   3.3429
  3.3485   3.3498   3.3533   3.3592   3.3642   3.3667   3.3676   3.3702
  3.3717   3.3814   3.3842   3.3897   3.3975   3.4000   3.4024   3.4059
  3.4156   3.4217   3.4270   3.4303   3.4366   3.4403   3.4450   3.4477
  3.4499   3.4571   3.4592   3.4635   3.4705   3.4741   3.4826   3.4871
  3.4932   3.4968   3.5088   3.5133   3.5163   3.5250   3.5271   3.5328
  3.5391   3.5500   3.5545   3.5566   3.5714   3.5793   3.5811   3.5845
  3.5883   3.5905   3.5970   3.6038   3.6063   3.6099   3.6147   3.6188
  3.6284   3.6299   3.6333   3.6372   3.6411   3.6560   3.6609   3.6633
  3.6698   3.6715   3.6761   3.6777   3.6812   3.6906   3.6928   3.6974
  3.7048   3.7105   3.7127   3.7186   3.7205   3.7275   3.7306   3.7338
  3.7359   3.7400   3.7467   3.7557   3.7590   3.7618   3.7695   3.7782
  3.7841   3.7884   3.7941   3.8034   3.8052   3.8134   3.8194   3.8261
  3.8289   3.8348   3.8404   3.8452   3.8492   3.8538   3.8554   3.8577
  3.8666   3.8739   3.8791   3.8840   3.8885   3.9014   3.9029   3.9092
  3.9179   3.9280   3.9327   3.9433   3.9486   3.9525   3.9573   3.9651
  3.9697   3.9737   3.9842   3.9872   3.9908   4.0079   4.0099   4.0149
  4.0206   4.0243   4.0438   4.0480   4.0524   4.0615   4.0629   4.0709
  4.0756   4.0839   4.0898   4.0983   4.1032   4.1101   4.1176   4.1272
  4.1349   4.1446   4.1488   4.1630   4.1679   4.1711   4.1747   4.1775
  4.1850   4.1907   4.2034   4.2075   4.2138   4.2246   4.2363   4.2425
  4.2486   4.2647   4.2677   4.2781   4.2826   4.2884   4.2964   4.3122
  4.3169   4.3186   4.3354   4.3433   4.3482   4.3505   4.3593   4.3673
  4.3728   4.3778   4.3816   4.3935   4.4014   4.4068   4.4117   4.4181
  4.4234   4.4254   4.4295   4.4366   4.4414   4.4434   4.4527   4.4662
  4.4681   4.4774   4.4791   4.4978   4.5064   4.5141   4.5206   4.5255
  4.5273   4.5517   4.5592   4.5600   4.5702   4.5726   4.5773   4.5889
  4.5919   4.6143   4.6201   4.6244   4.6297   4.6407   4.6420   4.6530
  4.6580   4.6610   4.6671   4.6893   4.6905   4.7075   4.7134   4.7229
  4.7369   4.7414   4.7560   4.7729   4.7906   4.8010   4.8137   4.8178
  4.8256   4.8317   4.8414   4.8461   4.8617   4.8706   4.8853   4.9037
  4.9094   4.9284   4.9418   4.9505   4.9603   4.9637   4.9663   4.9815
  4.9876   4.9942   5.0101   5.0111   5.0126   5.0285   5.0468   5.0613
  5.0745   5.0871   5.1023   5.1152   5.1334   5.1430   5.1620   5.1724
  5.1900   5.1932   5.1986   5.2100   5.2177   5.2227   5.2336   5.2491
  5.2555   5.2595   5.2775   5.2905   5.2922   5.3172   5.3228   5.3317
  5.3412   5.3554   5.3582   5.3642   5.3748   5.3817   5.3880   5.3980
  5.4036   5.4080   5.4265   5.4415   5.4542   5.4732   5.4898   5.4956
  5.5110   5.5178   5.5184   5.5379   5.5545   5.5675   5.5772   5.5807
  5.6038   5.6100   5.6145   5.6186   5.6353   5.6469   5.6769   5.6888
  5.7200   5.7379   5.7648   5.7834   5.8011   5.8162   5.8452   5.8582
  5.8656   5.8844   5.8990   5.9236   5.9702   5.9740   5.9817   6.0039
  6.0323   6.0428   6.1174   6.1210   6.1339   6.1526   6.1724   6.1793
  6.1857   6.2007   6.2111   6.2529   6.2595   6.2723   6.2877   6.2982
  6.3089   6.3503   6.3671   6.4296   6.4552   6.4938   6.5288   6.5475
  6.5569   6.5718   6.6448   6.6768   6.6818   6.7161   6.7405   6.7482
  6.8081   6.8576   6.8615   6.8833   6.8989   6.9923   7.1321   7.1454
  7.1788   7.2118   7.2219   7.2390   7.3270   7.3275   7.3415   7.3757
  7.3768   7.4288   7.4630   7.4852   7.4884   7.4969   7.5198   7.5500
  7.6163   7.7410   7.7718   7.8022   7.8322   7.9103   7.9261   7.9554
  8.0075   8.1242   8.3749   8.6009   8.9486   9.0096   9.3706   9.5046
  9.7053  10.3530  11.2469  11.4257  11.9367  11.9845  12.1246  12.3821
 12.4165  12.4983  12.6458  12.9526  13.0112  13.3135  13.4791  13.5809
 13.6793  13.8787  13.9295  13.9724  14.1868  14.3148  14.8991  15.2121
 --------------------------------------------------------------
 
          Ground-State Mulliken Net Atomic Charges

     Atom                 Charge (a.u.)
  ----------------------------------------
      1 C                    -0.070877
      2 C                    -0.248074
      3 S                    -0.131630
      4 C                    -0.050958
      5 H                     0.195215
      6 C                    -0.045374
      7 C                     0.213728
      8 C                     0.228425
      9 C                    -0.076804
     10 C                    -0.010657
     11 O                    -0.334329
     12 O                    -0.343605
     13 C                    -0.082631
     14 H                     0.119978
     15 H                     0.091888
     16 H                     0.093210
     17 C                    -0.089878
     18 H                     0.124315
     19 H                     0.092142
     20 H                     0.092822
     21 C                    -0.336703
     22 S                    -0.089968
     23 C                     0.123716
     24 H                     0.201040
     25 C                     0.017752
     26 S                     0.082378
     27 C                    -0.246060
     28 C                    -0.164794
     29 C                    -0.006941
     30 C                     0.367228
     31 C                    -0.144648
     32 S                     0.037298
     33 C                     0.459068
     34 O                    -0.451383
     35 O                    -0.298351
     36 F                    -0.206510
     37 C                    -0.054967
     38 H                     0.116595
     39 H                     0.084550
     40 H                     0.084261
     41 H                     0.214466
     42 H                     0.119077
     43 H                     0.116930
     44 H                     0.209060
  ----------------------------------------
  Sum of atomic charges =     0.000000

 -----------------------------------------------------------------
                    Cartesian Multipole Moments
 -----------------------------------------------------------------
    Charge (ESU x 10^10)
                -0.0000
    Dipole Moment (Debye)
         X       2.2683      Y       1.7833      Z       3.1753
       Tot       4.2904
    Quadrupole Moments (Debye-Ang)
        XX    -187.1997     XY       4.5523     YY    -172.2285
        XZ     -14.6385     YZ      -5.1580     ZZ    -198.5325
    Octopole Moments (Debye-Ang^2)
       XXX    -225.8728    XXY     376.8027    XYY     -41.4277
       YYY    1001.0403    XXZ     157.2157    XYZ      22.7634
       YYZ      97.0020    XZZ     -19.4700    YZZ     474.9137
       ZZZ     515.6706
    Hexadecapole Moments (Debye-Ang^3)
      XXXX   -1714.0208   XXXY    -928.9887   XXYY   -3712.1895
      XYYY    -963.3431   YYYY  -18835.5840   XXXZ    1197.3519
      XXYZ     488.8761   XYYZ     142.5834   YYYZ    1792.5173
      XXZZ   -1282.8684   XYZZ     -77.2252   YYZZ   -4380.5519
      XZZZ     804.8391   YZZZ    1068.7182   ZZZZ   -7160.8149
 -----------------------------------------------------------------
 Total job time:  322.38s(wall), 10454.18s(cpu) 
 Sun Sep 24 16:44:43 2023

        *************************************************************
        *                                                           *
        *  Thank you very much for using Q-Chem.  Have a nice day.  *
        *                                                           *
        *************************************************************


0 sent ACK to 0 
now end server 0 ... 
cleanup process ... done
remove work dirs ./qchem2008518.0 -- ./qchem2008518.0
rm -rf ./qchem2008518.0
rm -rf ./qchem2008518
