You are running Q-Chem version: 5.4.0

#
# job setting
#
local host:  exp-8-24
current dir: /expanse/lustre/projects/csd626/rramji/aromodel/PTB7_fin/Hydrogenated_Rotation_Test
input file:  fin_bdt_Phi_40_Theta_260_fin_ftt_Hydrogenated.qcin
output file: 
nprocs     : 1
nthreads   : 64
#
# qchem installation setting
#
QC:          /cm/shared/apps/spack/cpu/opt/spack/linux-centos8-zen2/gcc-10.2.0/qchem-5.4-akfmr7b3t57bfs6qan3padb2wnb2i7cl
QCAUX:       /cm/shared/apps/spack/cpu/opt/spack/linux-centos8-zen2/gcc-10.2.0/qchem-5.4-akfmr7b3t57bfs6qan3padb2wnb2i7cl/qcaux
QCPROG:      /cm/shared/apps/spack/cpu/opt/spack/linux-centos8-zen2/gcc-10.2.0/qchem-5.4-akfmr7b3t57bfs6qan3padb2wnb2i7cl/exe/qcprog.exe
QCPROG_S:    /cm/shared/apps/spack/cpu/opt/spack/linux-centos8-zen2/gcc-10.2.0/qchem-5.4-akfmr7b3t57bfs6qan3padb2wnb2i7cl/exe/qcprog.exe_s
PARALLEL:    -DPARALLEL
QCMPI:       mpich
#
# qchem directory setting
#
qcrun:       qchem951232
QCSCRATCH:   .
QCLOCALSCR:  
QCTMPDIR:    .
QCFILEPREF:  ./qchem951232
QCSAVEDIR:   
workdirs:    ./qchem951232
workdir0:    ./qchem951232
partmpdirs =  
#
# parallel setting
#
QCRSH:           ssh
QCMPI:           mpich
QCMPIRUN:        /cm/shared/apps/spack/cpu/opt/spack/linux-centos8-zen2/gcc-10.2.0/qchem-5.4-akfmr7b3t57bfs6qan3padb2wnb2i7cl/bin/mpi/mpirun_qchem
QCMACHINEFILE:   ./qchem951232/hostfile
exp-8-24

#
# env setting
#
exported envs:   QC QCAUX QCSCRATCH QCRUNNAME QCFILEPREF QCPROG QCPROG_S GUIFILE

Running Job 1 of 1 fin_bdt_Phi_40_Theta_260_fin_ftt_Hydrogenated.qcin
qchem fin_bdt_Phi_40_Theta_260_fin_ftt_Hydrogenated.qcin_951232.0 ./qchem951232/ 1
/cm/shared/apps/spack/cpu/opt/spack/linux-centos8-zen2/gcc-10.2.0/qchem-5.4-akfmr7b3t57bfs6qan3padb2wnb2i7cl/bin/mpi/mpirun_qchem -machinefile ./qchem951232/hostfile -np 1 /cm/shared/apps/spack/cpu/opt/spack/linux-centos8-zen2/gcc-10.2.0/qchem-5.4-akfmr7b3t57bfs6qan3padb2wnb2i7cl/exe/qcprog.exe fin_bdt_Phi_40_Theta_260_fin_ftt_Hydrogenated.qcin_951232.0 ./qchem951232/

Process 0 of 1 is on exp-8-24 - thread support 0
initial socket setup ...start
initial socket setup ...done 
now start server 0 ... 
                  Welcome to Q-Chem
     A Quantum Leap Into The Future Of Chemistry


 Q-Chem 5.4, Q-Chem, Inc., Pleasanton, CA (2021)

 License issued to: University of California, San Diego (site)

 E. Epifanovsky,  A. T. B. Gilbert,  Xintian Feng,  Joonho Lee,  Yuezhi Mao,  
 N. Mardirossian,  P. Pokhilko,  A. White,  M. Wormit,  M. P. Coons,  
 A. L. Dempwolff,  Zhengting Gan,  D. Hait,  P. R. Horn,  L. D. Jacobson,  
 I. Kaliman,  J. Kussmann,  A. W. Lange,  Ka Un Lao,  D. S. Levine,  Jie Liu,  
 S. C. McKenzie,  A. F. Morrison,  K. Nanda,  F. Plasser,  D. R. Rehn,  
 M. L. Vidal,  Zhi-Qiang You,  Ying Zhu,  B. Alam,  B. Albrecht,  
 A. Aldossary,  E. Alguire,  J. H. Andersen,  D. Barton,  K. Begam,  A. Behn,  
 Y. A. Bernard,  E. J. Berquist,  H. Burton,  A. Carreras,  K. Carter-Fenk,  
 R. Chakraborty,  A. D. Chien,  K. D. Closser,  V. Cofer-Shabica,  
 S. Dasgupta,  Jia Deng,  M. de Wergifosse,  M. Diedenhofen,  Hainam Do,  
 S. Ehlert,  Po-Tung Fang,  S. Fatehi,  Qingguo Feng,  J. Gayvert,  
 Qinghui Ge,  G. Gidofalvi,  M. Goldey,  J. Gomes,  C. Gonzalez-Espinoza,  
 S. Gulania,  A. Gunina,  M. W. D. Hanson-Heine,  P. H. P. Harbach,  
 A. W. Hauser,  M. F. Herbst,  M. Hernandez Vera,  M. Hodecker,  
 Z. C. Holden,  S. Houck,  Xunkun Huang,  Kerwin Hui,  B. C. Huynh,  
 M. Ivanov,  Hyunjun Ji,  Hanjie Jiang,  B. Kaduk,  S. Kaehler,  
 K. Khistyaev,  Jaehoon Kim,  P. Klunzinger,  Z. Koczor-Benda,  
 Joong Hoon Koh,  D. Kosenkov,  L. Koulias,  T. Kowalczyk,  C. M. Krauter,  
 K. Kue,  A. Kunitsa,  T. Kus,  A. Landau,  K. V. Lawler,  D. Lefrancois,  
 S. Lehtola,  Rain Li,  Yi-Pei Li,  Jiashu Liang,  M. Liebenthal,  
 Hung-Hsuan Lin,  You-Sheng Lin,  Fenglai Liu,  Kuan-Yu Liu,  
 M. Loipersberger,  A. Luenser,  A. Manjanath,  P. Manohar,  E. Mansoor,  
 S. F. Manzer,  Shan-Ping Mao,  A. V. Marenich,  T. Markovich,  S. Mason,  
 S. A. Maurer,  P. F. McLaughlin,  M. F. S. J. Menger,  J.-M. Mewes,  
 S. A. Mewes,  P. Morgante,  J. W. Mullinax,  T. S. Nguyen-Beck,  
 K. J. Oosterbaan,  G. Paran,  Alexander C. Paul,  Suranjan K. Paul,  
 F. Pavosevic,  Zheng Pei,  S. Prager,  E. I. Proynov,  E. Ramos,  B. Rana,  
 A. E. Rask,  A. Rettig,  R. M. Richard,  F. Rob,  E. Rossomme,  T. Scheele,  
 M. Scheurer,  M. Schneider,  N. Sergueev,  S. M. Sharada,  W. Skomorowski,  
 D. W. Small,  C. J. Stein,  Yu-Chuan Su,  E. J. Sundstrom,  Zhen Tao,  
 J. Thirman,  T. Tsuchimochi,  N. M. Tubman,  S. P. Veccham,  O. Vydrov,  
 J. Wenzel,  J. Witte,  A. Yamada,  Kun Yao,  S. Yeganeh,  S. R. Yost,  
 A. Zech,  Igor Ying Zhang,  Xing Zhang,  Yu Zhang,  D. Zuev,  
 A. Aspuru-Guzik,  A. T. Bell,  N. A. Besley,  K. B. Bravaya,  B. R. Brooks,  
 D. Casanova,  Jeng-Da Chai,  S. Coriani,  C. J. Cramer,  
 A. E. DePrince, III,  R. A. DiStasio Jr.,  A. Dreuw,  B. D. Dunietz,  
 T. R. Furlani,  W. A. Goddard III,  S. Grimme,  S. Hammes-Schiffer,  
 T. Head-Gordon,  W. J. Hehre,  Chao-Ping Hsu,  T.-C. Jagau,  Yousung Jung,  
 A. Klamt,  Jing Kong,  D. S. Lambrecht,  WanZhen Liang,  N. J. Mayhall,  
 C. W. McCurdy,  J. B. Neaton,  C. Ochsenfeld,  J. A. Parkhill,  R. Peverati,  
 V. A. Rassolov,  Yihan Shao,  L. V. Slipchenko,  T. Stauch,  R. P. Steele,  
 J. E. Subotnik,  A. J. W. Thom,  A. Tkatchenko,  D. G. Truhlar,  
 T. Van Voorhis,  T. A. Wesolowski,  K. B. Whaley,  H. L. Woodcock III,  
 P. M. Zimmerman,  S. Faraji,  P. M. W. Gill,  M. Head-Gordon,  
 J. M. Herbert,  A. I. Krylov

 Contributors to earlier versions of Q-Chem not listed above: 
 R. D. Adamson,  B. Austin,  R. Baer,  J. Baker,  G. J. O. Beran,  
 K. Brandhorst,  S. T. Brown,  E. F. C. Byrd,  A. K. Chakraborty,  
 G. K. L. Chan,  Chun-Min Chang,  Yunqing Chen,  C.-L. Cheng,  
 Siu Hung Chien,  D. M. Chipman,  D. L. Crittenden,  H. Dachsel,  
 R. J. Doerksen,  A. D. Dutoi,  R. G. Edgar,  J. Fosso-Tande,  
 L. Fusti-Molnar,  D. Ghosh,  A. Ghysels,  A. Golubeva-Zadorozhnaya,  
 J. Gonthier,  M. S. Gordon,  S. R. Gwaltney,  G. Hawkins,  J. E. Herr,  
 A. Heyden,  S. Hirata,  E. G. Hohenstein,  G. Kedziora,  F. J. Keil,  
 C. Kelley,  Jihan Kim,  R. A. King,  R. Z. Khaliullin,  P. P. Korambath,  
 W. Kurlancheek,  A. Laurent,  A. M. Lee,  M. S. Lee,  S. V. Levchenko,  
 Ching Yeh Lin,  D. Liotard,  E. Livshits,  R. C. Lochan,  I. Lotan,  
 L. A. Martinez-Martinez,  P. E. Maslen,  N. Nair,  D. P. O'Neill,  
 D. Neuhauser,  E. Neuscamman,  C. M. Oana,  R. Olivares-Amaya,  R. Olson,  
 T. M. Perrine,  B. Peters,  P. A. Pieniazek,  A. Prociuk,  Y. M. Rhee,  
 J. Ritchie,  M. A. Rohrdanz,  E. Rosta,  N. J. Russ,  H. F. Schaefer III,  
 M. W. Schmidt,  N. E. Schultz,  S. Sharma,  N. Shenvi,  C. D. Sherrill,  
 A. C. Simmonett,  A. Sodt,  T. Stein,  D. Stuck,  K. S. Thanthiriwatte,  
 V. Vanovschi,  L. Vogt,  Tao Wang,  A. Warshel,  M. A. Watson,  
 C. F. Williams,  Q. Wu,  X. Xu,  Jun Yang,  W. Zhang,  Yan Zhao

 Please cite Q-Chem as follows:
 Y. Shao et al., Mol. Phys. 113, 184-215 (2015)
 DOI: 10.1080/00268976.2014.952696

 Q-Chem 5.4.0 for Intel X86 EM64T Linux

 Parts of Q-Chem use Armadillo 9.800.1 (Horizon Scraper).
 http://arma.sourceforge.net/

 Q-Chem begins on Sun Sep 24 18:52:33 2023  

 Host: 
0

     Scratch files written to ./qchem951232//
 May1621 |scratch|qcdevops|jenkins|workspace|build_RNUM    
 Parallel job on  1  processors
 Processing $rem in /cm/shared/apps/spack/cpu/opt/spack/linux-centos8-zen2/gcc-10.2.0/qchem-5.4-akfmr7b3t57bfs6qan3padb2wnb2i7cl/config/preferences:
 Processing $rem in /home/rramji/.qchemrc:
 Symmetry turned off for PCM/SM12/SMD calculation
 Core orbitals will be frozen

 Checking the input file for inconsistencies... 	...done.

 Q-Chem warning in module forms1/BasisType.C, line 2236:

 You are not using the predefined 5D/6D in this basis set.


--------------------------------------------------------------
User input:
--------------------------------------------------------------
$molecule
0 1
C	0.272104	-8.519741	0.000687
C	-0.779533	-7.635967	0.194476
S	1.799596	-7.651740	-0.287581
C	-0.399427	-6.261894	0.125787
H	-1.812314	-7.954738	0.383826
C	1.006762	-6.079985	-0.121989
C	1.564994	-4.798382	-0.247488
C	-1.284087	-5.153542	0.258303
C	-0.726260	-3.869626	0.128493
C	0.681918	-3.688927	-0.116725
O	-2.580622	-5.481075	0.517104
O	2.867144	-4.479871	-0.508622
C	3.900814	-5.356026	-0.075811
H	4.847002	-4.790496	-0.173640
H	3.971794	-6.268513	-0.707354
H	3.763397	-5.658187	0.984963
C	-3.621225	-4.546999	0.257016
H	-4.569828	-5.107564	0.357864
H	-3.551910	-4.131473	-0.771211
H	-3.626592	-3.712085	0.990913
C	1.058088	-2.314326	-0.187034
S	-1.523035	-2.295487	0.281899
C	-0.000000	-1.435180	-0.000000
H	2.090565	-1.993211	-0.373653
C	0.000000	0.000000	0.000000
S	0.579852	0.687566	1.510732
C	1.591625	1.895024	0.727629
C	0.583771	0.695758	-1.064665
C	1.475308	1.760606	-0.678287
C	0.542366	0.643841	-2.486150
C	1.355286	1.612843	-3.106916
S	2.154609	2.570627	-1.965735
C	1.522440	1.804778	-4.559972
O	0.924684	1.087757	-5.350277
O	2.349739	2.785679	-5.004375
F	-0.170780	-0.212144	-3.246290
C	2.588082	3.053936	-6.334976
H	3.298799	3.899999	-6.370268
H	1.655291	3.328371	-6.875609
H	3.026021	2.177385	-6.861878
H	2.183053	2.599759	1.321510
H	0.105910	-9.146471	-0.883319
H	0.431555	-9.150570	0.883019
H	-0.195861	-1.444158	-1.062054
$end

$rem
JOBTYPE		SP
EXCHANGE	HF
CORRELATION	pRIMP2
BASIS		cc-pvtz
METHOD		rimp2
AUX_BASIS	rimp2-cc-pvtz
SOLVENT_METHOD	PCM
PURECART	11111
SYMMETRY	false
MEM_TOTAL	110000
SCF_CONVERGENCE = 6
THRESH=10
GUI = 2
$end



$solvent
dielectric 4.90
$end
--------------------------------------------------------------
 ----------------------------------------------------------------
             Standard Nuclear Orientation (Angstroms)
    I     Atom           X                Y                Z
 ----------------------------------------------------------------
    1      C       0.2721040000    -8.5197410000     0.0006870000
    2      C      -0.7795330000    -7.6359670000     0.1944760000
    3      S       1.7995960000    -7.6517400000    -0.2875810000
    4      C      -0.3994270000    -6.2618940000     0.1257870000
    5      H      -1.8123140000    -7.9547380000     0.3838260000
    6      C       1.0067620000    -6.0799850000    -0.1219890000
    7      C       1.5649940000    -4.7983820000    -0.2474880000
    8      C      -1.2840870000    -5.1535420000     0.2583030000
    9      C      -0.7262600000    -3.8696260000     0.1284930000
   10      C       0.6819180000    -3.6889270000    -0.1167250000
   11      O      -2.5806220000    -5.4810750000     0.5171040000
   12      O       2.8671440000    -4.4798710000    -0.5086220000
   13      C       3.9008140000    -5.3560260000    -0.0758110000
   14      H       4.8470020000    -4.7904960000    -0.1736400000
   15      H       3.9717940000    -6.2685130000    -0.7073540000
   16      H       3.7633970000    -5.6581870000     0.9849630000
   17      C      -3.6212250000    -4.5469990000     0.2570160000
   18      H      -4.5698280000    -5.1075640000     0.3578640000
   19      H      -3.5519100000    -4.1314730000    -0.7712110000
   20      H      -3.6265920000    -3.7120850000     0.9909130000
   21      C       1.0580880000    -2.3143260000    -0.1870340000
   22      S      -1.5230350000    -2.2954870000     0.2818990000
   23      C       0.0000000000    -1.4351800000     0.0000000000
   24      H       2.0905650000    -1.9932110000    -0.3736530000
   25      C       0.0000000000     0.0000000000     0.0000000000
   26      S       0.5798520000     0.6875660000     1.5107320000
   27      C       1.5916250000     1.8950240000     0.7276290000
   28      C       0.5837710000     0.6957580000    -1.0646650000
   29      C       1.4753080000     1.7606060000    -0.6782870000
   30      C       0.5423660000     0.6438410000    -2.4861500000
   31      C       1.3552860000     1.6128430000    -3.1069160000
   32      S       2.1546090000     2.5706270000    -1.9657350000
   33      C       1.5224400000     1.8047780000    -4.5599720000
   34      O       0.9246840000     1.0877570000    -5.3502770000
   35      O       2.3497390000     2.7856790000    -5.0043750000
   36      F      -0.1707800000    -0.2121440000    -3.2462900000
   37      C       2.5880820000     3.0539360000    -6.3349760000
   38      H       3.2987990000     3.8999990000    -6.3702680000
   39      H       1.6552910000     3.3283710000    -6.8756090000
   40      H       3.0260210000     2.1773850000    -6.8618780000
   41      H       2.1830530000     2.5997590000     1.3215100000
   42      H       0.1059100000    -9.1464710000    -0.8833190000
   43      H       0.4315550000    -9.1505700000     0.8830190000
   44      H      -0.1958610000    -1.4441580000    -1.0620540000
 ----------------------------------------------------------------
 Nuclear Repulsion Energy =        3385.89862128 hartrees
 There are      120 alpha and      120 beta electrons
 Requested basis set is cc-pVTZ
 There are 388 shells and 1096 basis functions

 Total QAlloc Memory Limit 110000 MB
 Mega-Array Size       188 MB
 MEM_STATIC part       192 MB
 Discretize the solute cavity surface with Lebedev spheres
	Using 110 Lebedev grid points for each H atom
	Using 194 Lebedev grid points for other atoms
	Atomic van der Waals radii will be scaled by 1.20
 Remove points where switching function is < 1.0e-08
 Keep 2950 surface tesserae and discard 4326 interior tesserae
 Molecular Surface Area = 442.570 Angst**2
 Requested basis set is rimp2-cc-pVTZ
 There are 853 shells and 2963 basis functions
 A cutoff of  1.0D-10 yielded  33934 shell pairs
 There are    255600 function pairs (    330450 Cartesian)
 Smallest overlap matrix eigenvalue = 2.14E-05

 Scale SEOQF with 1.000000e-01/1.000000e-02/1.000000e-02

 Standard Electronic Orientation quadrupole field applied
 Nucleus-field energy     =     0.0000000450 hartrees
 Guess from superposition of atomic densities
 Warning:  Energy on first SCF cycle will be non-variational
 SAD guess density has 240.000000 electrons

 -----------------------------------------------------------------------
  General SCF calculation program by
  Eric Jon Sundstrom, Paul Horn, Yuezhi Mao, Dmitri Zuev, Alec White,
  David Stuck, Shaama M.S., Shane Yost, Joonho Lee, David Small,
  Daniel Levine, Susi Lehtola, Hugh Burton, Evgeny Epifanovsky,
  Bang C. Huynh
 -----------------------------------------------------------------------
 Hartree-Fock
 using 64 threads for integral computing
 -------------------------------------------------------
 OpenMP Integral computing Module                
 Release: version 1.0, May 2013, Q-Chem Inc. Pittsburgh 
 -------------------------------------------------------
 A restricted SCF calculation will be
 performed using DIIS
 SCF converges when DIIS error is below 1.0e-06
 ---------------------------------------
  Cycle       Energy         DIIS error
 ---------------------------------------
    1   -2767.3820239484      1.77e-02  
    2   -2754.8485427054      1.54e-03  
    3   -2755.1965658192      8.76e-04  
    4   -2755.2859472957      2.56e-04  
    5   -2755.2993764128      7.18e-05  
    6   -2755.3008235567      2.58e-05  
    7   -2755.3011964674      1.33e-05  
    8   -2755.3013201718      5.91e-06  
    9   -2755.3013518266      3.05e-06  
   10   -2755.3013599742      1.54e-06  
   11   -2755.3013622488      6.66e-07  Convergence criterion met
 ---------------------------------------
 SCF time:   CPU 7777.78s  wall 281.00s 

************** Final PCM Free Energy Summary **************
 G_electrostatic  =      -0.02204438 hartree =     -13.83305509 kcal/mol
 G_cavitation     =       0.00000000 hartree =       0.00000000 kcal/mol
 G_dispersion     =       0.00000000 hartree =       0.00000000 kcal/mol
 G_repulsion      =       0.00000000 hartree =       0.00000000 kcal/mol
 --------------------------------------------------
 Non-electrostatic Free Energy =       0.00000000 hartree =       0.00000000 kcal/mol
 Total                         =      -0.02204438 hartree =     -13.83305509 kcal/mol
 --------------------------------------------------
 SCF Energy (H0 + V/2)                       =   -2755.30136225 
 Solute Internal Energy (H0)                 =   -2755.27931787 
 Total Free Energy (H0 + V/2 + non-elec)     =   -2755.30136225 hartree
                                             = -1728977.70027032 kcal/mol
***********************************************************

 SCF   energy in the final basis set =    -2755.3013622488
 Total energy in the final basis set =    -2755.3013622488


 --------------------------------------------------------------
  Generalized many-body perturbation theory program
  by Joonho Lee, Fazle Rob, Xintian Feng, Evgeny Epifanovsky

 No regularization used 
 (reg. param. = 0.0000e+00)
  (P|Q)^-1/2 Time:  CPU 143.05 s  wall 2.32 s

 In RI-MP2 calculation: 
 # of frozen core orbitals: 45

 Components of the RIMP2 correlation energy:
        aaaa    correlation energy =        -0.6717947714 a.u.
        abab    correlation energy =        -3.7568767450 a.u.
        bbbb    correlation energy =        -0.6717947714 a.u.
        non-Brillouin singles      =        -0.0000000000 a.u.
        total same-spin energy     =        -1.3435895429 a.u.
        total opposite-spin energy =        -3.7568767450 a.u.

 Total  RIMP2   correlation energy =        -5.1004662879 a.u.
        RIMP2         total energy =     -2760.4018285367 a.u.

 RI-MP2 Energy Time:  CPU 2990.22 s  wall 48.35 s
 
 --------------------------------------------------------------
 
                    Orbital Energies (a.u.)
 --------------------------------------------------------------
 
 Alpha MOs
 -- Occupied --
-92.0122 -92.0022 -91.9717 -91.9571 -26.3389 -20.6155 -20.5866 -20.5848
-20.5556 -11.4152 -11.3794 -11.3111 -11.3080 -11.3079 -11.3040 -11.3000
-11.2951 -11.2918 -11.2903 -11.2827 -11.2824 -11.2802 -11.2760 -11.2715
-11.2708 -11.2567 -11.2560 -11.2484 -11.2344  -9.0112  -9.0060  -8.9740
 -8.9597  -6.6919  -6.6911  -6.6909  -6.6872  -6.6866  -6.6853  -6.6551
 -6.6542  -6.6530  -6.6409  -6.6400  -6.6390  -1.6521  -1.4755  -1.4089
 -1.4077  -1.3714  -1.2436  -1.2064  -1.1742  -1.1452  -1.0987  -1.0544
 -1.0440  -1.0319  -1.0071  -0.9955  -0.9747  -0.9588  -0.9480  -0.9411
 -0.8915  -0.8764  -0.8600  -0.8092  -0.7960  -0.7835  -0.7819  -0.7712
 -0.7604  -0.7333  -0.7209  -0.7186  -0.6974  -0.6926  -0.6868  -0.6815
 -0.6772  -0.6745  -0.6542  -0.6475  -0.6322  -0.6264  -0.6188  -0.6143
 -0.6105  -0.6101  -0.6007  -0.5943  -0.5807  -0.5656  -0.5561  -0.5553
 -0.5474  -0.5322  -0.5268  -0.5224  -0.5116  -0.5065  -0.5040  -0.5002
 -0.4898  -0.4845  -0.4719  -0.4674  -0.4652  -0.4638  -0.4579  -0.4444
 -0.4187  -0.4037  -0.3828  -0.3686  -0.3501  -0.2985  -0.2874  -0.2188
 -- Virtual --
  0.0123   0.0537   0.1089   0.1336   0.1402   0.1475   0.1541   0.1550
  0.1589   0.1610   0.1644   0.1717   0.1827   0.1840   0.1889   0.1924
  0.2012   0.2040   0.2053   0.2089   0.2177   0.2207   0.2240   0.2260
  0.2291   0.2307   0.2395   0.2440   0.2532   0.2555   0.2635   0.2677
  0.2756   0.2971   0.3028   0.3087   0.3274   0.3331   0.3370   0.3455
  0.3503   0.3567   0.3601   0.3626   0.3671   0.3691   0.3747   0.3794
  0.3862   0.3892   0.3899   0.4004   0.4052   0.4094   0.4132   0.4164
  0.4252   0.4283   0.4294   0.4352   0.4364   0.4383   0.4435   0.4478
  0.4550   0.4589   0.4608   0.4645   0.4696   0.4756   0.4782   0.4798
  0.4872   0.4955   0.4981   0.5019   0.5037   0.5122   0.5149   0.5233
  0.5259   0.5269   0.5336   0.5349   0.5373   0.5426   0.5469   0.5513
  0.5552   0.5579   0.5589   0.5631   0.5680   0.5725   0.5792   0.5808
  0.5847   0.5876   0.5902   0.5927   0.5971   0.5991   0.6077   0.6107
  0.6139   0.6165   0.6171   0.6213   0.6224   0.6240   0.6308   0.6335
  0.6354   0.6418   0.6447   0.6470   0.6477   0.6521   0.6562   0.6582
  0.6607   0.6661   0.6736   0.6813   0.6835   0.6885   0.6897   0.6948
  0.6998   0.7057   0.7116   0.7135   0.7155   0.7263   0.7320   0.7439
  0.7450   0.7555   0.7604   0.7651   0.7721   0.7768   0.7807   0.7888
  0.7910   0.7925   0.7967   0.7993   0.8050   0.8116   0.8234   0.8264
  0.8291   0.8432   0.8455   0.8551   0.8577   0.8725   0.8765   0.8804
  0.8877   0.8896   0.8957   0.9008   0.9013   0.9022   0.9071   0.9119
  0.9204   0.9243   0.9284   0.9363   0.9404   0.9440   0.9502   0.9520
  0.9594   0.9652   0.9716   0.9736   0.9795   0.9834   0.9909   0.9913
  0.9971   1.0009   1.0026   1.0080   1.0151   1.0171   1.0228   1.0270
  1.0316   1.0346   1.0418   1.0467   1.0567   1.0616   1.0633   1.0638
  1.0690   1.0797   1.0804   1.0857   1.0890   1.0928   1.1028   1.1039
  1.1110   1.1192   1.1213   1.1237   1.1299   1.1378   1.1466   1.1529
  1.1582   1.1615   1.1676   1.1690   1.1717   1.1729   1.1797   1.1811
  1.1841   1.1870   1.1927   1.1944   1.2004   1.2100   1.2116   1.2158
  1.2195   1.2214   1.2357   1.2381   1.2445   1.2487   1.2510   1.2555
  1.2610   1.2656   1.2746   1.2810   1.2857   1.2868   1.2936   1.2965
  1.3042   1.3071   1.3179   1.3206   1.3267   1.3320   1.3371   1.3399
  1.3445   1.3501   1.3561   1.3695   1.3767   1.3825   1.3874   1.3949
  1.4066   1.4081   1.4133   1.4145   1.4335   1.4396   1.4498   1.4536
  1.4624   1.4708   1.4748   1.4855   1.4866   1.4917   1.4936   1.4984
  1.5079   1.5093   1.5112   1.5189   1.5238   1.5290   1.5298   1.5330
  1.5423   1.5431   1.5469   1.5541   1.5583   1.5625   1.5720   1.5789
  1.5875   1.5956   1.6016   1.6102   1.6132   1.6235   1.6267   1.6324
  1.6420   1.6555   1.6592   1.6599   1.6705   1.6731   1.6803   1.6876
  1.6928   1.6985   1.7085   1.7117   1.7196   1.7283   1.7354   1.7440
  1.7615   1.7648   1.7750   1.7871   1.7964   1.8024   1.8108   1.8168
  1.8251   1.8283   1.8344   1.8440   1.8541   1.8556   1.8643   1.8687
  1.8830   1.8885   1.9015   1.9041   1.9141   1.9206   1.9311   1.9356
  1.9402   1.9500   1.9571   1.9646   1.9832   1.9878   1.9964   2.0062
  2.0092   2.0196   2.0240   2.0321   2.0363   2.0448   2.0466   2.0641
  2.0716   2.0775   2.0892   2.0937   2.1003   2.1148   2.1219   2.1349
  2.1414   2.1476   2.1545   2.1570   2.1658   2.1798   2.1816   2.1918
  2.1945   2.1990   2.2049   2.2193   2.2226   2.2290   2.2367   2.2414
  2.2496   2.2509   2.2694   2.2742   2.2766   2.2843   2.2936   2.2972
  2.3029   2.3078   2.3210   2.3328   2.3388   2.3563   2.3580   2.3633
  2.3732   2.3855   2.3931   2.3953   2.4027   2.4082   2.4169   2.4280
  2.4403   2.4552   2.4585   2.4670   2.4760   2.4857   2.4882   2.5006
  2.5048   2.5140   2.5268   2.5351   2.5402   2.5521   2.5670   2.5814
  2.5827   2.5945   2.5961   2.6020   2.6057   2.6169   2.6215   2.6235
  2.6322   2.6384   2.6449   2.6468   2.6508   2.6567   2.6609   2.6799
  2.6847   2.6863   2.6940   2.7006   2.7012   2.7035   2.7110   2.7254
  2.7275   2.7310   2.7394   2.7419   2.7560   2.7638   2.7654   2.7722
  2.7795   2.7894   2.7956   2.8037   2.8099   2.8144   2.8216   2.8320
  2.8427   2.8481   2.8509   2.8608   2.8640   2.8704   2.8726   2.8792
  2.8795   2.8826   2.8949   2.9027   2.9234   2.9354   2.9380   2.9465
  2.9511   2.9576   2.9611   2.9731   2.9779   2.9845   2.9910   3.0037
  3.0090   3.0161   3.0196   3.0307   3.0366   3.0417   3.0427   3.0477
  3.0534   3.0570   3.0672   3.0731   3.0868   3.0905   3.0961   3.1047
  3.1053   3.1148   3.1205   3.1216   3.1353   3.1420   3.1438   3.1478
  3.1536   3.1598   3.1628   3.1649   3.1683   3.1718   3.1788   3.1856
  3.1899   3.1927   3.1998   3.2057   3.2081   3.2148   3.2177   3.2236
  3.2324   3.2368   3.2429   3.2449   3.2536   3.2596   3.2666   3.2669
  3.2700   3.2760   3.2826   3.2888   3.2913   3.2939   3.2985   3.3038
  3.3055   3.3099   3.3133   3.3215   3.3303   3.3387   3.3415   3.3440
  3.3462   3.3490   3.3552   3.3583   3.3590   3.3653   3.3692   3.3710
  3.3771   3.3818   3.3854   3.3882   3.3949   3.4005   3.4027   3.4082
  3.4122   3.4247   3.4284   3.4323   3.4347   3.4375   3.4409   3.4468
  3.4523   3.4556   3.4599   3.4669   3.4708   3.4780   3.4880   3.4909
  3.4913   3.4994   3.5039   3.5077   3.5156   3.5204   3.5278   3.5325
  3.5467   3.5506   3.5540   3.5571   3.5618   3.5707   3.5779   3.5838
  3.5860   3.5939   3.5975   3.6034   3.6058   3.6082   3.6185   3.6249
  3.6283   3.6314   3.6400   3.6432   3.6456   3.6561   3.6596   3.6621
  3.6654   3.6718   3.6772   3.6782   3.6828   3.6927   3.6966   3.7039
  3.7083   3.7111   3.7154   3.7177   3.7201   3.7279   3.7331   3.7350
  3.7439   3.7451   3.7502   3.7563   3.7629   3.7680   3.7696   3.7809
  3.7872   3.7950   3.8027   3.8060   3.8108   3.8137   3.8177   3.8210
  3.8248   3.8295   3.8393   3.8416   3.8462   3.8487   3.8533   3.8584
  3.8639   3.8674   3.8742   3.8842   3.8915   3.8963   3.9033   3.9116
  3.9186   3.9257   3.9330   3.9457   3.9527   3.9551   3.9604   3.9639
  3.9687   3.9750   3.9814   3.9898   3.9985   4.0125   4.0181   4.0201
  4.0215   4.0327   4.0466   4.0472   4.0533   4.0556   4.0664   4.0685
  4.0728   4.0802   4.0817   4.0904   4.1035   4.1068   4.1183   4.1210
  4.1349   4.1429   4.1536   4.1644   4.1658   4.1708   4.1752   4.1808
  4.1820   4.1901   4.2059   4.2145   4.2206   4.2242   4.2378   4.2396
  4.2511   4.2580   4.2604   4.2739   4.2806   4.2847   4.2996   4.3142
  4.3211   4.3297   4.3378   4.3451   4.3467   4.3530   4.3617   4.3657
  4.3687   4.3753   4.3855   4.3869   4.3980   4.4050   4.4135   4.4163
  4.4207   4.4234   4.4283   4.4308   4.4374   4.4460   4.4556   4.4599
  4.4665   4.4808   4.4832   4.4962   4.4997   4.5121   4.5232   4.5266
  4.5396   4.5514   4.5581   4.5661   4.5697   4.5741   4.5775   4.5865
  4.6080   4.6112   4.6178   4.6287   4.6373   4.6412   4.6462   4.6527
  4.6663   4.6687   4.6846   4.6867   4.6945   4.7022   4.7173   4.7298
  4.7413   4.7471   4.7650   4.7724   4.7835   4.7919   4.8024   4.8126
  4.8246   4.8369   4.8526   4.8554   4.8703   4.8812   4.8892   4.8942
  4.9180   4.9196   4.9414   4.9506   4.9619   4.9665   4.9779   4.9810
  4.9896   4.9979   5.0098   5.0122   5.0200   5.0444   5.0461   5.0560
  5.0693   5.0858   5.0897   5.1121   5.1288   5.1489   5.1642   5.1707
  5.1841   5.1902   5.1964   5.2043   5.2104   5.2224   5.2308   5.2410
  5.2536   5.2573   5.2801   5.2867   5.2956   5.3117   5.3230   5.3283
  5.3369   5.3475   5.3533   5.3620   5.3692   5.3781   5.3936   5.4008
  5.4070   5.4169   5.4359   5.4461   5.4683   5.4714   5.4815   5.4978
  5.5095   5.5137   5.5214   5.5338   5.5647   5.5673   5.5776   5.5880
  5.5921   5.6119   5.6133   5.6278   5.6362   5.6519   5.6915   5.6950
  5.7079   5.7399   5.7652   5.7865   5.7977   5.8279   5.8328   5.8490
  5.8611   5.8860   5.9062   5.9401   5.9623   5.9655   5.9695   6.0033
  6.0125   6.0438   6.1140   6.1252   6.1314   6.1367   6.1729   6.1778
  6.1835   6.1913   6.2250   6.2451   6.2513   6.2695   6.2857   6.2931
  6.3057   6.3440   6.3719   6.4248   6.4446   6.4912   6.5110   6.5483
  6.5526   6.5725   6.6488   6.6686   6.6730   6.7179   6.7317   6.7405
  6.8095   6.8558   6.8578   6.8785   6.9013   6.9863   7.1332   7.1483
  7.1751   7.2076   7.2240   7.2399   7.3220   7.3279   7.3434   7.3692
  7.3721   7.4239   7.4593   7.4824   7.4885   7.4980   7.5144   7.5443
  7.6074   7.7409   7.7672   7.8043   7.8282   7.9052   7.9286   7.9584
  8.0019   8.1180   8.3421   8.5443   8.9284   9.0099   9.3600   9.4976
  9.7033  10.3190  11.2257  11.4038  11.9357  12.1175  12.1264  12.3450
 12.3948  12.4916  12.6619  12.9425  13.0106  13.2748  13.4818  13.5881
 13.7317  13.8778  13.9400  13.9409  14.1502  14.3150  15.0067  15.2125
 --------------------------------------------------------------
 
          Ground-State Mulliken Net Atomic Charges

     Atom                 Charge (a.u.)
  ----------------------------------------
      1 C                    -0.069922
      2 C                    -0.265935
      3 S                    -0.137424
      4 C                    -0.042913
      5 H                     0.192683
      6 C                    -0.052427
      7 C                     0.223758
      8 C                     0.224298
      9 C                    -0.078778
     10 C                    -0.041067
     11 O                    -0.335995
     12 O                    -0.343781
     13 C                    -0.082509
     14 H                     0.119432
     15 H                     0.092178
     16 H                     0.092513
     17 C                    -0.086438
     18 H                     0.122443
     19 H                     0.092244
     20 H                     0.089984
     21 C                    -0.275574
     22 S                    -0.087100
     23 C                     0.057680
     24 H                     0.207030
     25 C                    -0.087803
     26 S                     0.103665
     27 C                    -0.191508
     28 C                    -0.106057
     29 C                    -0.005017
     30 C                     0.362642
     31 C                    -0.124796
     32 S                     0.060289
     33 C                     0.458267
     34 O                    -0.442370
     35 O                    -0.296925
     36 F                    -0.211727
     37 C                    -0.054702
     38 H                     0.117374
     39 H                     0.085505
     40 H                     0.085458
     41 H                     0.217867
     42 H                     0.116673
     43 H                     0.114078
     44 H                     0.184710
  ----------------------------------------
  Sum of atomic charges =     0.000000

 -----------------------------------------------------------------
                    Cartesian Multipole Moments
 -----------------------------------------------------------------
    Charge (ESU x 10^10)
                 0.0000
    Dipole Moment (Debye)
         X       2.9985      Y       4.2760      Z       2.1693
       Tot       5.6552
    Quadrupole Moments (Debye-Ang)
        XX    -176.1699     XY      12.4592     YY    -183.1544
        XZ      -5.0414     YZ      -9.8922     ZZ    -203.4428
    Octopole Moments (Debye-Ang^2)
       XXX    -356.1349    XXY     376.1139    XYY    -125.1434
       YYY    1132.2492    XXZ     157.3202    XYZ     -41.9385
       YYZ     155.5236    XZZ     -48.8642    YZZ     526.3511
       ZZZ     534.4499
    Hexadecapole Moments (Debye-Ang^3)
      XXXX   -3477.7785   XXXY    -153.1778   XXYY   -3846.6302
      XYYY     149.5509   YYYY  -19066.3625   XXXZ     997.3918
      XXYZ     267.9405   XYYZ     342.4468   YYYZ     899.4565
      XXZZ   -1383.5696   XYZZ     223.2000   YYZZ   -4258.3732
      XZZZ     583.9231   YZZZ     506.4819   ZZZZ   -5506.2369
 -----------------------------------------------------------------
 Total job time:  334.04s(wall), 10878.43s(cpu) 
 Sun Sep 24 18:58:07 2023

        *************************************************************
        *                                                           *
        *  Thank you very much for using Q-Chem.  Have a nice day.  *
        *                                                           *
        *************************************************************


0 sent ACK to 0 
now end server 0 ... 
cleanup process ... done
remove work dirs ./qchem951232.0 -- ./qchem951232.0
rm -rf ./qchem951232.0
rm -rf ./qchem951232
