You are running Q-Chem version: 5.4.0

#
# job setting
#
local host:  exp-6-02
current dir: /expanse/lustre/projects/csd626/rramji/aromodel/PTB7_fin/Hydrogenated_Rotation_Test
input file:  fin_bdt_Phi_15_Theta_320_fin_ftt_Hydrogenated.qcin
output file: 
nprocs     : 1
nthreads   : 64
#
# qchem installation setting
#
QC:          /cm/shared/apps/spack/cpu/opt/spack/linux-centos8-zen2/gcc-10.2.0/qchem-5.4-akfmr7b3t57bfs6qan3padb2wnb2i7cl
QCAUX:       /cm/shared/apps/spack/cpu/opt/spack/linux-centos8-zen2/gcc-10.2.0/qchem-5.4-akfmr7b3t57bfs6qan3padb2wnb2i7cl/qcaux
QCPROG:      /cm/shared/apps/spack/cpu/opt/spack/linux-centos8-zen2/gcc-10.2.0/qchem-5.4-akfmr7b3t57bfs6qan3padb2wnb2i7cl/exe/qcprog.exe
QCPROG_S:    /cm/shared/apps/spack/cpu/opt/spack/linux-centos8-zen2/gcc-10.2.0/qchem-5.4-akfmr7b3t57bfs6qan3padb2wnb2i7cl/exe/qcprog.exe_s
PARALLEL:    -DPARALLEL
QCMPI:       mpich
#
# qchem directory setting
#
qcrun:       qchem456635
QCSCRATCH:   .
QCLOCALSCR:  
QCTMPDIR:    .
QCFILEPREF:  ./qchem456635
QCSAVEDIR:   
workdirs:    ./qchem456635
workdir0:    ./qchem456635
partmpdirs =  
#
# parallel setting
#
QCRSH:           ssh
QCMPI:           mpich
QCMPIRUN:        /cm/shared/apps/spack/cpu/opt/spack/linux-centos8-zen2/gcc-10.2.0/qchem-5.4-akfmr7b3t57bfs6qan3padb2wnb2i7cl/bin/mpi/mpirun_qchem
QCMACHINEFILE:   ./qchem456635/hostfile
exp-6-02

#
# env setting
#
exported envs:   QC QCAUX QCSCRATCH QCRUNNAME QCFILEPREF QCPROG QCPROG_S GUIFILE

Running Job 1 of 1 fin_bdt_Phi_15_Theta_320_fin_ftt_Hydrogenated.qcin
qchem fin_bdt_Phi_15_Theta_320_fin_ftt_Hydrogenated.qcin_456635.0 ./qchem456635/ 1
/cm/shared/apps/spack/cpu/opt/spack/linux-centos8-zen2/gcc-10.2.0/qchem-5.4-akfmr7b3t57bfs6qan3padb2wnb2i7cl/bin/mpi/mpirun_qchem -machinefile ./qchem456635/hostfile -np 1 /cm/shared/apps/spack/cpu/opt/spack/linux-centos8-zen2/gcc-10.2.0/qchem-5.4-akfmr7b3t57bfs6qan3padb2wnb2i7cl/exe/qcprog.exe fin_bdt_Phi_15_Theta_320_fin_ftt_Hydrogenated.qcin_456635.0 ./qchem456635/

Process 0 of 1 is on exp-6-02 - thread support 0
initial socket setup ...start
initial socket setup ...done 
now start server 0 ... 
                  Welcome to Q-Chem
     A Quantum Leap Into The Future Of Chemistry


 Q-Chem 5.4, Q-Chem, Inc., Pleasanton, CA (2021)

 License issued to: University of California, San Diego (site)

 E. Epifanovsky,  A. T. B. Gilbert,  Xintian Feng,  Joonho Lee,  Yuezhi Mao,  
 N. Mardirossian,  P. Pokhilko,  A. White,  M. Wormit,  M. P. Coons,  
 A. L. Dempwolff,  Zhengting Gan,  D. Hait,  P. R. Horn,  L. D. Jacobson,  
 I. Kaliman,  J. Kussmann,  A. W. Lange,  Ka Un Lao,  D. S. Levine,  Jie Liu,  
 S. C. McKenzie,  A. F. Morrison,  K. Nanda,  F. Plasser,  D. R. Rehn,  
 M. L. Vidal,  Zhi-Qiang You,  Ying Zhu,  B. Alam,  B. Albrecht,  
 A. Aldossary,  E. Alguire,  J. H. Andersen,  D. Barton,  K. Begam,  A. Behn,  
 Y. A. Bernard,  E. J. Berquist,  H. Burton,  A. Carreras,  K. Carter-Fenk,  
 R. Chakraborty,  A. D. Chien,  K. D. Closser,  V. Cofer-Shabica,  
 S. Dasgupta,  Jia Deng,  M. de Wergifosse,  M. Diedenhofen,  Hainam Do,  
 S. Ehlert,  Po-Tung Fang,  S. Fatehi,  Qingguo Feng,  J. Gayvert,  
 Qinghui Ge,  G. Gidofalvi,  M. Goldey,  J. Gomes,  C. Gonzalez-Espinoza,  
 S. Gulania,  A. Gunina,  M. W. D. Hanson-Heine,  P. H. P. Harbach,  
 A. W. Hauser,  M. F. Herbst,  M. Hernandez Vera,  M. Hodecker,  
 Z. C. Holden,  S. Houck,  Xunkun Huang,  Kerwin Hui,  B. C. Huynh,  
 M. Ivanov,  Hyunjun Ji,  Hanjie Jiang,  B. Kaduk,  S. Kaehler,  
 K. Khistyaev,  Jaehoon Kim,  P. Klunzinger,  Z. Koczor-Benda,  
 Joong Hoon Koh,  D. Kosenkov,  L. Koulias,  T. Kowalczyk,  C. M. Krauter,  
 K. Kue,  A. Kunitsa,  T. Kus,  A. Landau,  K. V. Lawler,  D. Lefrancois,  
 S. Lehtola,  Rain Li,  Yi-Pei Li,  Jiashu Liang,  M. Liebenthal,  
 Hung-Hsuan Lin,  You-Sheng Lin,  Fenglai Liu,  Kuan-Yu Liu,  
 M. Loipersberger,  A. Luenser,  A. Manjanath,  P. Manohar,  E. Mansoor,  
 S. F. Manzer,  Shan-Ping Mao,  A. V. Marenich,  T. Markovich,  S. Mason,  
 S. A. Maurer,  P. F. McLaughlin,  M. F. S. J. Menger,  J.-M. Mewes,  
 S. A. Mewes,  P. Morgante,  J. W. Mullinax,  T. S. Nguyen-Beck,  
 K. J. Oosterbaan,  G. Paran,  Alexander C. Paul,  Suranjan K. Paul,  
 F. Pavosevic,  Zheng Pei,  S. Prager,  E. I. Proynov,  E. Ramos,  B. Rana,  
 A. E. Rask,  A. Rettig,  R. M. Richard,  F. Rob,  E. Rossomme,  T. Scheele,  
 M. Scheurer,  M. Schneider,  N. Sergueev,  S. M. Sharada,  W. Skomorowski,  
 D. W. Small,  C. J. Stein,  Yu-Chuan Su,  E. J. Sundstrom,  Zhen Tao,  
 J. Thirman,  T. Tsuchimochi,  N. M. Tubman,  S. P. Veccham,  O. Vydrov,  
 J. Wenzel,  J. Witte,  A. Yamada,  Kun Yao,  S. Yeganeh,  S. R. Yost,  
 A. Zech,  Igor Ying Zhang,  Xing Zhang,  Yu Zhang,  D. Zuev,  
 A. Aspuru-Guzik,  A. T. Bell,  N. A. Besley,  K. B. Bravaya,  B. R. Brooks,  
 D. Casanova,  Jeng-Da Chai,  S. Coriani,  C. J. Cramer,  
 A. E. DePrince, III,  R. A. DiStasio Jr.,  A. Dreuw,  B. D. Dunietz,  
 T. R. Furlani,  W. A. Goddard III,  S. Grimme,  S. Hammes-Schiffer,  
 T. Head-Gordon,  W. J. Hehre,  Chao-Ping Hsu,  T.-C. Jagau,  Yousung Jung,  
 A. Klamt,  Jing Kong,  D. S. Lambrecht,  WanZhen Liang,  N. J. Mayhall,  
 C. W. McCurdy,  J. B. Neaton,  C. Ochsenfeld,  J. A. Parkhill,  R. Peverati,  
 V. A. Rassolov,  Yihan Shao,  L. V. Slipchenko,  T. Stauch,  R. P. Steele,  
 J. E. Subotnik,  A. J. W. Thom,  A. Tkatchenko,  D. G. Truhlar,  
 T. Van Voorhis,  T. A. Wesolowski,  K. B. Whaley,  H. L. Woodcock III,  
 P. M. Zimmerman,  S. Faraji,  P. M. W. Gill,  M. Head-Gordon,  
 J. M. Herbert,  A. I. Krylov

 Contributors to earlier versions of Q-Chem not listed above: 
 R. D. Adamson,  B. Austin,  R. Baer,  J. Baker,  G. J. O. Beran,  
 K. Brandhorst,  S. T. Brown,  E. F. C. Byrd,  A. K. Chakraborty,  
 G. K. L. Chan,  Chun-Min Chang,  Yunqing Chen,  C.-L. Cheng,  
 Siu Hung Chien,  D. M. Chipman,  D. L. Crittenden,  H. Dachsel,  
 R. J. Doerksen,  A. D. Dutoi,  R. G. Edgar,  J. Fosso-Tande,  
 L. Fusti-Molnar,  D. Ghosh,  A. Ghysels,  A. Golubeva-Zadorozhnaya,  
 J. Gonthier,  M. S. Gordon,  S. R. Gwaltney,  G. Hawkins,  J. E. Herr,  
 A. Heyden,  S. Hirata,  E. G. Hohenstein,  G. Kedziora,  F. J. Keil,  
 C. Kelley,  Jihan Kim,  R. A. King,  R. Z. Khaliullin,  P. P. Korambath,  
 W. Kurlancheek,  A. Laurent,  A. M. Lee,  M. S. Lee,  S. V. Levchenko,  
 Ching Yeh Lin,  D. Liotard,  E. Livshits,  R. C. Lochan,  I. Lotan,  
 L. A. Martinez-Martinez,  P. E. Maslen,  N. Nair,  D. P. O'Neill,  
 D. Neuhauser,  E. Neuscamman,  C. M. Oana,  R. Olivares-Amaya,  R. Olson,  
 T. M. Perrine,  B. Peters,  P. A. Pieniazek,  A. Prociuk,  Y. M. Rhee,  
 J. Ritchie,  M. A. Rohrdanz,  E. Rosta,  N. J. Russ,  H. F. Schaefer III,  
 M. W. Schmidt,  N. E. Schultz,  S. Sharma,  N. Shenvi,  C. D. Sherrill,  
 A. C. Simmonett,  A. Sodt,  T. Stein,  D. Stuck,  K. S. Thanthiriwatte,  
 V. Vanovschi,  L. Vogt,  Tao Wang,  A. Warshel,  M. A. Watson,  
 C. F. Williams,  Q. Wu,  X. Xu,  Jun Yang,  W. Zhang,  Yan Zhao

 Please cite Q-Chem as follows:
 Y. Shao et al., Mol. Phys. 113, 184-215 (2015)
 DOI: 10.1080/00268976.2014.952696

 Q-Chem 5.4.0 for Intel X86 EM64T Linux

 Parts of Q-Chem use Armadillo 9.800.1 (Horizon Scraper).
 http://arma.sourceforge.net/

 Q-Chem begins on Tue Sep 26 20:15:35 2023  

 Host: 
0

     Scratch files written to ./qchem456635//
 May1621 |scratch|qcdevops|jenkins|workspace|build_RNUM    
 Parallel job on  1  processors
 Processing $rem in /cm/shared/apps/spack/cpu/opt/spack/linux-centos8-zen2/gcc-10.2.0/qchem-5.4-akfmr7b3t57bfs6qan3padb2wnb2i7cl/config/preferences:
 Processing $rem in /home/rramji/.qchemrc:
 Symmetry turned off for PCM/SM12/SMD calculation
 Core orbitals will be frozen

 Checking the input file for inconsistencies... 	...done.

 Q-Chem warning in module forms1/BasisType.C, line 2236:

 You are not using the predefined 5D/6D in this basis set.


--------------------------------------------------------------
User input:
--------------------------------------------------------------
$molecule
0 1
C	0.135457	-8.519741	0.235993
C	-0.558188	-7.635967	-0.577858
S	1.148850	-7.651740	1.414705
C	-0.308648	-6.261894	-0.283020
H	-1.238560	-7.954738	-1.377597
C	0.609026	-6.079985	0.810887
C	0.996828	-4.798382	1.231581
C	-0.865740	-5.153542	-0.982901
C	-0.474408	-3.869626	-0.564713
C	0.442046	-3.688927	0.532196
O	-1.738137	-5.481075	-1.976332
O	1.874052	-4.479871	2.228709
C	2.016062	-5.356026	3.340298
H	2.573877	-4.790496	4.110807
H	2.598484	-6.268513	3.085998
H	1.028695	-5.658187	3.751679
C	-2.033195	-4.546999	-3.007565
H	-2.594833	-5.107564	-3.778655
H	-1.108067	-4.131473	-3.461650
H	-2.671451	-3.712085	-2.645264
C	0.691020	-2.314326	0.822814
S	-1.005649	-2.295487	-1.178037
C	0.000000	-1.435180	0.000000
H	1.368875	-1.993211	1.623656
C	0.000000	0.000000	0.000000
S	0.234946	0.868203	1.510732
C	0.641630	2.390125	0.727629
C	0.235036	0.877284	-1.064665
C	0.593019	2.219143	-0.678287
C	0.219452	0.812732	-2.486150
C	0.546689	2.034501	-3.106916
S	0.866345	3.240357	-1.965735
C	0.617067	2.279095	-4.559972
O	0.378342	1.376631	-5.350277
O	0.952308	3.517725	-5.004375
F	-0.065123	-0.264443	-3.246290
C	1.054950	3.861577	-6.334976
H	1.341516	4.928732	-6.370268
H	0.093573	3.716085	-6.875609
H	1.822303	3.252232	-6.861878
H	0.879812	3.278780	1.321510
H	0.817932	-9.146471	-0.349939
H	-0.548939	-9.150570	0.815247
H	0.821835	-1.444158	-0.700647
$end

$rem
JOBTYPE		SP
EXCHANGE	HF
CORRELATION	pRIMP2
BASIS		cc-pvtz
METHOD		rimp2
AUX_BASIS	rimp2-cc-pvtz
SOLVENT_METHOD	PCM
PURECART	11111
SYMMETRY	false
MEM_TOTAL	110000
SCF_CONVERGENCE = 6
THRESH=10
GUI = 2
$end



$solvent
dielectric 4.90
$end
--------------------------------------------------------------
 ----------------------------------------------------------------
             Standard Nuclear Orientation (Angstroms)
    I     Atom           X                Y                Z
 ----------------------------------------------------------------
    1      C       0.1354570000    -8.5197410000     0.2359930000
    2      C      -0.5581880000    -7.6359670000    -0.5778580000
    3      S       1.1488500000    -7.6517400000     1.4147050000
    4      C      -0.3086480000    -6.2618940000    -0.2830200000
    5      H      -1.2385600000    -7.9547380000    -1.3775970000
    6      C       0.6090260000    -6.0799850000     0.8108870000
    7      C       0.9968280000    -4.7983820000     1.2315810000
    8      C      -0.8657400000    -5.1535420000    -0.9829010000
    9      C      -0.4744080000    -3.8696260000    -0.5647130000
   10      C       0.4420460000    -3.6889270000     0.5321960000
   11      O      -1.7381370000    -5.4810750000    -1.9763320000
   12      O       1.8740520000    -4.4798710000     2.2287090000
   13      C       2.0160620000    -5.3560260000     3.3402980000
   14      H       2.5738770000    -4.7904960000     4.1108070000
   15      H       2.5984840000    -6.2685130000     3.0859980000
   16      H       1.0286950000    -5.6581870000     3.7516790000
   17      C      -2.0331950000    -4.5469990000    -3.0075650000
   18      H      -2.5948330000    -5.1075640000    -3.7786550000
   19      H      -1.1080670000    -4.1314730000    -3.4616500000
   20      H      -2.6714510000    -3.7120850000    -2.6452640000
   21      C       0.6910200000    -2.3143260000     0.8228140000
   22      S      -1.0056490000    -2.2954870000    -1.1780370000
   23      C       0.0000000000    -1.4351800000     0.0000000000
   24      H       1.3688750000    -1.9932110000     1.6236560000
   25      C       0.0000000000     0.0000000000     0.0000000000
   26      S       0.2349460000     0.8682030000     1.5107320000
   27      C       0.6416300000     2.3901250000     0.7276290000
   28      C       0.2350360000     0.8772840000    -1.0646650000
   29      C       0.5930190000     2.2191430000    -0.6782870000
   30      C       0.2194520000     0.8127320000    -2.4861500000
   31      C       0.5466890000     2.0345010000    -3.1069160000
   32      S       0.8663450000     3.2403570000    -1.9657350000
   33      C       0.6170670000     2.2790950000    -4.5599720000
   34      O       0.3783420000     1.3766310000    -5.3502770000
   35      O       0.9523080000     3.5177250000    -5.0043750000
   36      F      -0.0651230000    -0.2644430000    -3.2462900000
   37      C       1.0549500000     3.8615770000    -6.3349760000
   38      H       1.3415160000     4.9287320000    -6.3702680000
   39      H       0.0935730000     3.7160850000    -6.8756090000
   40      H       1.8223030000     3.2522320000    -6.8618780000
   41      H       0.8798120000     3.2787800000     1.3215100000
   42      H       0.8179320000    -9.1464710000    -0.3499390000
   43      H      -0.5489390000    -9.1505700000     0.8152470000
   44      H       0.8218350000    -1.4441580000    -0.7006470000
 ----------------------------------------------------------------
 Nuclear Repulsion Energy =        3373.31619066 hartrees
 There are      120 alpha and      120 beta electrons
 Requested basis set is cc-pVTZ
 There are 388 shells and 1096 basis functions

 Total QAlloc Memory Limit 110000 MB
 Mega-Array Size       188 MB
 MEM_STATIC part       192 MB
 Discretize the solute cavity surface with Lebedev spheres
	Using 110 Lebedev grid points for each H atom
	Using 194 Lebedev grid points for other atoms
	Atomic van der Waals radii will be scaled by 1.20
 Remove points where switching function is < 1.0e-08
 Keep 2947 surface tesserae and discard 4329 interior tesserae
 Molecular Surface Area = 437.882 Angst**2
 Requested basis set is rimp2-cc-pVTZ
 There are 853 shells and 2963 basis functions
 A cutoff of  1.0D-10 yielded  33560 shell pairs
 There are    253414 function pairs (    327804 Cartesian)
 Smallest overlap matrix eigenvalue = 2.16E-05

 Scale SEOQF with 1.000000e-01/1.000000e-02/1.000000e-02

 Standard Electronic Orientation quadrupole field applied
 Nucleus-field energy     =     0.0000000231 hartrees
 Guess from superposition of atomic densities
 Warning:  Energy on first SCF cycle will be non-variational
 SAD guess density has 240.000000 electrons

 -----------------------------------------------------------------------
  General SCF calculation program by
  Eric Jon Sundstrom, Paul Horn, Yuezhi Mao, Dmitri Zuev, Alec White,
  David Stuck, Shaama M.S., Shane Yost, Joonho Lee, David Small,
  Daniel Levine, Susi Lehtola, Hugh Burton, Evgeny Epifanovsky,
  Bang C. Huynh
 -----------------------------------------------------------------------
 Hartree-Fock
 using 64 threads for integral computing
 -------------------------------------------------------
 OpenMP Integral computing Module                
 Release: version 1.0, May 2013, Q-Chem Inc. Pittsburgh 
 -------------------------------------------------------
 A restricted SCF calculation will be
 performed using DIIS
 SCF converges when DIIS error is below 1.0e-06
 ---------------------------------------
  Cycle       Energy         DIIS error
 ---------------------------------------
    1   -2767.3521577060      1.77e-02  
    2   -2754.8667671385      1.54e-03  
    3   -2755.2149515045      8.78e-04  
    4   -2755.3061352334      2.54e-04  
    5   -2755.3198846229      7.23e-05  
    6   -2755.3214177822      2.60e-05  
    7   -2755.3218231453      1.35e-05  
    8   -2755.3219470900      5.66e-06  
    9   -2755.3219744140      2.95e-06  
   10   -2755.3219810616      1.42e-06  
   11   -2755.3219831332      7.23e-07  Convergence criterion met
 ---------------------------------------
 SCF time:   CPU 7467.09s  wall 275.00s 

************** Final PCM Free Energy Summary **************
 G_electrostatic  =      -0.02164181 hartree =     -13.58044091 kcal/mol
 G_cavitation     =       0.00000000 hartree =       0.00000000 kcal/mol
 G_dispersion     =       0.00000000 hartree =       0.00000000 kcal/mol
 G_repulsion      =       0.00000000 hartree =       0.00000000 kcal/mol
 --------------------------------------------------
 Non-electrostatic Free Energy =       0.00000000 hartree =       0.00000000 kcal/mol
 Total                         =      -0.02164181 hartree =     -13.58044091 kcal/mol
 --------------------------------------------------
 SCF Energy (H0 + V/2)                       =   -2755.32198313 
 Solute Internal Energy (H0)                 =   -2755.30034132 
 Total Free Energy (H0 + V/2 + non-elec)     =   -2755.32198313 hartree
                                             = -1728990.64007057 kcal/mol
***********************************************************

 SCF   energy in the final basis set =    -2755.3219831332
 Total energy in the final basis set =    -2755.3219831332


 --------------------------------------------------------------
  Generalized many-body perturbation theory program
  by Joonho Lee, Fazle Rob, Xintian Feng, Evgeny Epifanovsky

 No regularization used 
 (reg. param. = 0.0000e+00)
  (P|Q)^-1/2 Time:  CPU 134.34 s  wall 2.27 s

 In RI-MP2 calculation: 
 # of frozen core orbitals: 45

 Components of the RIMP2 correlation energy:
        aaaa    correlation energy =        -0.6706333623 a.u.
        abab    correlation energy =        -3.7519772250 a.u.
        bbbb    correlation energy =        -0.6706333623 a.u.
        non-Brillouin singles      =        -0.0000000000 a.u.
        total same-spin energy     =        -1.3412667246 a.u.
        total opposite-spin energy =        -3.7519772250 a.u.

 Total  RIMP2   correlation energy =        -5.0932439496 a.u.
        RIMP2         total energy =     -2760.4152270828 a.u.

 RI-MP2 Energy Time:  CPU 2902.33 s  wall 47.00 s
 
 --------------------------------------------------------------
 
                    Orbital Energies (a.u.)
 --------------------------------------------------------------
 
 Alpha MOs
 -- Occupied --
-92.0158 -91.9944 -91.9762 -91.9593 -26.3353 -20.6118 -20.5878 -20.5869
-20.5491 -11.4096 -11.3787 -11.3209 -11.3095 -11.3080 -11.2976 -11.2952
-11.2885 -11.2878 -11.2843 -11.2837 -11.2834 -11.2832 -11.2792 -11.2747
-11.2726 -11.2605 -11.2589 -11.2507 -11.2391  -9.0141  -8.9985  -8.9787
 -8.9619  -6.6949  -6.6943  -6.6938  -6.6798  -6.6791  -6.6777  -6.6598
 -6.6588  -6.6575  -6.6432  -6.6422  -6.6412  -1.6492  -1.4714  -1.4106
 -1.4094  -1.3666  -1.2389  -1.2093  -1.1765  -1.1434  -1.1003  -1.0511
 -1.0464  -1.0291  -1.0084  -0.9989  -0.9719  -0.9597  -0.9488  -0.9407
 -0.8938  -0.8735  -0.8623  -0.8117  -0.7923  -0.7860  -0.7783  -0.7668
 -0.7623  -0.7336  -0.7189  -0.7172  -0.6980  -0.6934  -0.6862  -0.6783
 -0.6759  -0.6718  -0.6557  -0.6488  -0.6337  -0.6299  -0.6209  -0.6152
 -0.6105  -0.6058  -0.5962  -0.5926  -0.5797  -0.5659  -0.5601  -0.5582
 -0.5508  -0.5317  -0.5283  -0.5208  -0.5135  -0.5082  -0.5042  -0.5000
 -0.4871  -0.4841  -0.4793  -0.4681  -0.4612  -0.4611  -0.4602  -0.4467
 -0.4299  -0.3992  -0.3847  -0.3708  -0.3508  -0.2928  -0.2857  -0.2187
 -- Virtual --
  0.0274   0.0540   0.1162   0.1336   0.1417   0.1448   0.1534   0.1556
  0.1570   0.1606   0.1663   0.1713   0.1821   0.1855   0.1880   0.1932
  0.2017   0.2036   0.2063   0.2076   0.2164   0.2217   0.2228   0.2274
  0.2284   0.2320   0.2410   0.2471   0.2554   0.2581   0.2649   0.2725
  0.2837   0.2937   0.3075   0.3237   0.3285   0.3379   0.3432   0.3495
  0.3541   0.3580   0.3610   0.3625   0.3693   0.3765   0.3798   0.3814
  0.3856   0.3902   0.3962   0.3993   0.4057   0.4125   0.4168   0.4228
  0.4276   0.4287   0.4325   0.4381   0.4407   0.4444   0.4479   0.4503
  0.4541   0.4596   0.4624   0.4680   0.4750   0.4756   0.4793   0.4841
  0.4876   0.4924   0.4981   0.4997   0.5045   0.5123   0.5156   0.5187
  0.5237   0.5294   0.5308   0.5335   0.5370   0.5422   0.5498   0.5538
  0.5543   0.5569   0.5585   0.5689   0.5697   0.5775   0.5789   0.5817
  0.5828   0.5868   0.5925   0.5941   0.5979   0.6026   0.6078   0.6093
  0.6134   0.6157   0.6166   0.6201   0.6234   0.6276   0.6287   0.6289
  0.6356   0.6377   0.6425   0.6447   0.6489   0.6525   0.6554   0.6585
  0.6609   0.6655   0.6694   0.6764   0.6878   0.6887   0.6918   0.6955
  0.6997   0.7057   0.7128   0.7151   0.7187   0.7225   0.7293   0.7345
  0.7454   0.7568   0.7630   0.7683   0.7783   0.7790   0.7852   0.7878
  0.7934   0.7961   0.8019   0.8044   0.8143   0.8171   0.8199   0.8216
  0.8298   0.8389   0.8452   0.8555   0.8589   0.8720   0.8787   0.8857
  0.8926   0.8941   0.8986   0.9009   0.9058   0.9080   0.9129   0.9175
  0.9197   0.9292   0.9328   0.9379   0.9422   0.9447   0.9540   0.9579
  0.9648   0.9696   0.9728   0.9791   0.9830   0.9838   0.9872   0.9926
  0.9990   1.0002   1.0044   1.0115   1.0141   1.0185   1.0204   1.0285
  1.0362   1.0388   1.0439   1.0513   1.0539   1.0565   1.0653   1.0685
  1.0723   1.0768   1.0821   1.0867   1.0902   1.1012   1.1021   1.1077
  1.1110   1.1188   1.1227   1.1276   1.1319   1.1403   1.1468   1.1533
  1.1580   1.1618   1.1646   1.1687   1.1712   1.1744   1.1761   1.1816
  1.1858   1.1884   1.1924   1.1981   1.2038   1.2075   1.2122   1.2188
  1.2247   1.2291   1.2324   1.2359   1.2444   1.2494   1.2556   1.2565
  1.2588   1.2674   1.2715   1.2739   1.2819   1.2896   1.2911   1.2928
  1.3016   1.3179   1.3205   1.3279   1.3305   1.3390   1.3406   1.3435
  1.3501   1.3512   1.3561   1.3664   1.3780   1.3892   1.3920   1.3962
  1.4036   1.4060   1.4235   1.4265   1.4372   1.4399   1.4472   1.4487
  1.4605   1.4713   1.4739   1.4808   1.4885   1.4926   1.4960   1.5029
  1.5065   1.5116   1.5125   1.5161   1.5220   1.5282   1.5324   1.5365
  1.5419   1.5477   1.5483   1.5570   1.5576   1.5619   1.5670   1.5741
  1.5852   1.5901   1.5981   1.6072   1.6183   1.6252   1.6348   1.6416
  1.6487   1.6559   1.6576   1.6669   1.6709   1.6789   1.6822   1.6891
  1.6959   1.7037   1.7089   1.7137   1.7198   1.7271   1.7387   1.7483
  1.7624   1.7643   1.7706   1.7823   1.7923   1.8061   1.8115   1.8152
  1.8226   1.8344   1.8384   1.8393   1.8580   1.8672   1.8688   1.8750
  1.8811   1.8839   1.8902   1.9057   1.9104   1.9237   1.9304   1.9361
  1.9422   1.9463   1.9591   1.9713   1.9754   1.9943   2.0004   2.0045
  2.0116   2.0178   2.0297   2.0353   2.0381   2.0407   2.0473   2.0524
  2.0728   2.0775   2.0828   2.0961   2.1027   2.1089   2.1220   2.1328
  2.1439   2.1536   2.1607   2.1674   2.1768   2.1837   2.1882   2.1936
  2.2030   2.2035   2.2077   2.2187   2.2237   2.2287   2.2376   2.2423
  2.2511   2.2570   2.2702   2.2776   2.2804   2.2867   2.2945   2.3051
  2.3123   2.3266   2.3284   2.3401   2.3459   2.3549   2.3691   2.3759
  2.3824   2.3909   2.3968   2.4022   2.4120   2.4168   2.4172   2.4308
  2.4403   2.4501   2.4647   2.4686   2.4799   2.4838   2.4924   2.5021
  2.5132   2.5187   2.5292   2.5352   2.5454   2.5588   2.5680   2.5748
  2.5828   2.5890   2.5913   2.6023   2.6136   2.6206   2.6265   2.6311
  2.6363   2.6436   2.6461   2.6513   2.6543   2.6671   2.6713   2.6750
  2.6823   2.6902   2.6928   2.6984   2.7028   2.7070   2.7174   2.7221
  2.7294   2.7339   2.7409   2.7441   2.7533   2.7563   2.7609   2.7725
  2.7770   2.7780   2.7919   2.7989   2.8043   2.8129   2.8234   2.8338
  2.8388   2.8463   2.8522   2.8528   2.8567   2.8639   2.8735   2.8796
  2.8825   2.8847   2.8960   2.9034   2.9087   2.9147   2.9350   2.9424
  2.9541   2.9599   2.9657   2.9686   2.9770   2.9854   2.9888   3.0057
  3.0083   3.0147   3.0206   3.0349   3.0368   3.0438   3.0450   3.0465
  3.0535   3.0656   3.0665   3.0758   3.0903   3.0921   3.0976   3.1016
  3.1061   3.1120   3.1156   3.1227   3.1329   3.1396   3.1402   3.1461
  3.1534   3.1591   3.1643   3.1690   3.1730   3.1762   3.1816   3.1825
  3.1885   3.1952   3.2009   3.2092   3.2094   3.2136   3.2188   3.2258
  3.2325   3.2344   3.2461   3.2474   3.2529   3.2578   3.2614   3.2659
  3.2722   3.2745   3.2825   3.2855   3.2876   3.2901   3.2973   3.2987
  3.3052   3.3089   3.3155   3.3239   3.3267   3.3299   3.3362   3.3400
  3.3444   3.3468   3.3515   3.3567   3.3591   3.3613   3.3644   3.3667
  3.3698   3.3738   3.3787   3.3853   3.3954   3.4005   3.4024   3.4086
  3.4116   3.4152   3.4257   3.4276   3.4327   3.4377   3.4430   3.4456
  3.4485   3.4511   3.4608   3.4617   3.4727   3.4761   3.4829   3.4847
  3.4897   3.4933   3.5006   3.5090   3.5140   3.5216   3.5270   3.5334
  3.5434   3.5453   3.5584   3.5640   3.5714   3.5749   3.5776   3.5838
  3.5870   3.5923   3.5935   3.5973   3.5999   3.6055   3.6104   3.6151
  3.6246   3.6305   3.6358   3.6378   3.6461   3.6486   3.6538   3.6620
  3.6647   3.6677   3.6718   3.6754   3.6802   3.6852   3.6870   3.6997
  3.7040   3.7073   3.7116   3.7135   3.7144   3.7244   3.7272   3.7286
  3.7327   3.7359   3.7504   3.7524   3.7535   3.7615   3.7643   3.7701
  3.7818   3.7861   3.7941   3.8060   3.8087   3.8139   3.8183   3.8244
  3.8325   3.8331   3.8401   3.8448   3.8463   3.8509   3.8582   3.8602
  3.8679   3.8764   3.8799   3.8844   3.8923   3.9039   3.9049   3.9116
  3.9220   3.9237   3.9340   3.9398   3.9450   3.9551   3.9601   3.9626
  3.9659   3.9805   3.9807   3.9947   4.0001   4.0053   4.0089   4.0162
  4.0174   4.0281   4.0419   4.0462   4.0541   4.0618   4.0668   4.0728
  4.0747   4.0786   4.0835   4.0973   4.0987   4.1062   4.1122   4.1262
  4.1323   4.1423   4.1480   4.1530   4.1628   4.1700   4.1720   4.1741
  4.1806   4.1889   4.1993   4.2056   4.2128   4.2209   4.2317   4.2355
  4.2502   4.2578   4.2649   4.2706   4.2844   4.2925   4.2974   4.3041
  4.3179   4.3299   4.3370   4.3419   4.3473   4.3484   4.3551   4.3615
  4.3767   4.3790   4.3880   4.3960   4.3985   4.4041   4.4095   4.4174
  4.4211   4.4248   4.4310   4.4353   4.4371   4.4466   4.4487   4.4628
  4.4723   4.4758   4.4918   4.5017   4.5080   4.5159   4.5217   4.5246
  4.5369   4.5484   4.5554   4.5607   4.5650   4.5687   4.5744   4.5873
  4.5962   4.6038   4.6166   4.6227   4.6350   4.6383   4.6428   4.6469
  4.6514   4.6659   4.6715   4.6943   4.7009   4.7066   4.7129   4.7257
  4.7323   4.7402   4.7498   4.7717   4.7878   4.7945   4.7979   4.8147
  4.8258   4.8264   4.8398   4.8431   4.8706   4.8816   4.8966   4.9074
  4.9171   4.9314   4.9348   4.9477   4.9587   4.9654   4.9681   4.9756
  4.9887   5.0084   5.0120   5.0141   5.0327   5.0409   5.0448   5.0494
  5.0728   5.0833   5.1064   5.1138   5.1288   5.1507   5.1557   5.1736
  5.1817   5.1942   5.1995   5.2098   5.2145   5.2263   5.2309   5.2489
  5.2584   5.2596   5.2856   5.2889   5.2961   5.3083   5.3183   5.3270
  5.3362   5.3506   5.3553   5.3597   5.3725   5.3840   5.3857   5.3978
  5.4039   5.4106   5.4367   5.4424   5.4527   5.4649   5.4731   5.5013
  5.5108   5.5133   5.5202   5.5406   5.5626   5.5686   5.5813   5.5922
  5.5959   5.6115   5.6184   5.6264   5.6423   5.6658   5.6791   5.6899
  5.7105   5.7326   5.7651   5.7835   5.8012   5.8211   5.8345   5.8589
  5.8726   5.8889   5.9072   5.9537   5.9702   5.9703   5.9805   6.0026
  6.0433   6.0825   6.1231   6.1262   6.1338   6.1491   6.1719   6.1802
  6.1860   6.1969   6.2232   6.2428   6.2600   6.2711   6.2856   6.3018
  6.3089   6.3417   6.3723   6.4361   6.4583   6.4961   6.5238   6.5473
  6.5569   6.5671   6.6461   6.6774   6.6910   6.7141   6.7418   6.7467
  6.8070   6.8575   6.8612   6.8847   6.9000   6.9924   7.1314   7.1461
  7.1788   7.2120   7.2222   7.2389   7.3265   7.3272   7.3414   7.3722
  7.3764   7.4315   7.4629   7.4852   7.4873   7.4967   7.5219   7.5506
  7.6232   7.7395   7.7694   7.8026   7.8324   7.9159   7.9265   7.9567
  8.0071   8.1257   8.3750   8.6407   8.9315   9.0185   9.3634   9.5040
  9.7143  10.2983  11.2652  11.4100  11.8996  11.9495  12.1219  12.3562
 12.4026  12.4979  12.7148  12.9405  12.9957  13.2271  13.4772  13.5501
 13.6596  13.8696  13.9310  14.0126  14.2866  14.3725  14.9960  15.2247
 --------------------------------------------------------------
 
          Ground-State Mulliken Net Atomic Charges

     Atom                 Charge (a.u.)
  ----------------------------------------
      1 C                    -0.070486
      2 C                    -0.252822
      3 S                    -0.132920
      4 C                    -0.046791
      5 H                     0.194557
      6 C                    -0.050269
      7 C                     0.220991
      8 C                     0.233068
      9 C                    -0.084498
     10 C                    -0.047995
     11 O                    -0.335300
     12 O                    -0.343966
     13 C                    -0.082561
     14 H                     0.119961
     15 H                     0.092148
     16 H                     0.092781
     17 C                    -0.087502
     18 H                     0.123289
     19 H                     0.094005
     20 H                     0.089883
     21 C                    -0.275222
     22 S                    -0.064498
     23 C                     0.066064
     24 H                     0.206661
     25 C                    -0.038833
     26 S                     0.093827
     27 C                    -0.253127
     28 C                    -0.105072
     29 C                    -0.004936
     30 C                     0.376162
     31 C                    -0.143537
     32 S                     0.037635
     33 C                     0.458810
     34 O                    -0.452909
     35 O                    -0.298311
     36 F                    -0.209284
     37 C                    -0.055035
     38 H                     0.116528
     39 H                     0.084365
     40 H                     0.084205
     41 H                     0.214061
     42 H                     0.118483
     43 H                     0.115964
     44 H                     0.202427
  ----------------------------------------
  Sum of atomic charges =     0.000000

 -----------------------------------------------------------------
                    Cartesian Multipole Moments
 -----------------------------------------------------------------
    Charge (ESU x 10^10)
                -0.0000
    Dipole Moment (Debye)
         X       1.1569      Y       2.4225      Z       2.6841
       Tot       3.7962
    Quadrupole Moments (Debye-Ang)
        XX    -198.1412     XY       6.2670     YY    -172.5149
        XZ       3.5832     YZ      -6.8612     ZZ    -190.7041
    Octopole Moments (Debye-Ang^2)
       XXX    -159.4575    XXY     390.3267    XYY     -61.0274
       YYY     988.3356    XXZ     157.4185    XYZ     -42.2813
       YYZ      96.5410    XZZ     -21.9071    YZZ     428.5800
       ZZZ     521.2367
    Hexadecapole Moments (Debye-Ang^3)
      XXXX   -1341.2952   XXXY     -74.5249   XXYY   -3981.2658
      XYYY     190.2167   YYYY  -19464.0569   XXXZ    -175.0962
      XXYZ     610.9230   XYYZ      -1.0493   YYYZ    1823.8711
      XXZZ   -1313.1806   XYZZ      97.3286   YYZZ   -4156.9198
      XZZZ    -254.8251   YZZZ    1132.2311   ZZZZ   -6975.5925
 -----------------------------------------------------------------
 Total job time:  326.29s(wall), 10463.50s(cpu) 
 Tue Sep 26 20:21:01 2023

        *************************************************************
        *                                                           *
        *  Thank you very much for using Q-Chem.  Have a nice day.  *
        *                                                           *
        *************************************************************


0 sent ACK to 0 
now end server 0 ... 
cleanup process ... done
remove work dirs ./qchem456635.0 -- ./qchem456635.0
rm -rf ./qchem456635.0
rm -rf ./qchem456635
