You are running Q-Chem version: 5.4.0

#
# job setting
#
local host:  exp-3-23
current dir: /expanse/lustre/projects/csd626/rramji/aromodel/PTB7_fin/Hydrogenated_Rotation_Test
input file:  fin_bdt_Phi_20_Theta_240_fin_ftt_Hydrogenated.qcin
output file: 
nprocs     : 1
nthreads   : 64
#
# qchem installation setting
#
QC:          /cm/shared/apps/spack/cpu/opt/spack/linux-centos8-zen2/gcc-10.2.0/qchem-5.4-akfmr7b3t57bfs6qan3padb2wnb2i7cl
QCAUX:       /cm/shared/apps/spack/cpu/opt/spack/linux-centos8-zen2/gcc-10.2.0/qchem-5.4-akfmr7b3t57bfs6qan3padb2wnb2i7cl/qcaux
QCPROG:      /cm/shared/apps/spack/cpu/opt/spack/linux-centos8-zen2/gcc-10.2.0/qchem-5.4-akfmr7b3t57bfs6qan3padb2wnb2i7cl/exe/qcprog.exe
QCPROG_S:    /cm/shared/apps/spack/cpu/opt/spack/linux-centos8-zen2/gcc-10.2.0/qchem-5.4-akfmr7b3t57bfs6qan3padb2wnb2i7cl/exe/qcprog.exe_s
PARALLEL:    -DPARALLEL
QCMPI:       mpich
#
# qchem directory setting
#
qcrun:       qchem2533677
QCSCRATCH:   .
QCLOCALSCR:  
QCTMPDIR:    .
QCFILEPREF:  ./qchem2533677
QCSAVEDIR:   
workdirs:    ./qchem2533677
workdir0:    ./qchem2533677
partmpdirs =  
#
# parallel setting
#
QCRSH:           ssh
QCMPI:           mpich
QCMPIRUN:        /cm/shared/apps/spack/cpu/opt/spack/linux-centos8-zen2/gcc-10.2.0/qchem-5.4-akfmr7b3t57bfs6qan3padb2wnb2i7cl/bin/mpi/mpirun_qchem
QCMACHINEFILE:   ./qchem2533677/hostfile
exp-3-23

#
# env setting
#
exported envs:   QC QCAUX QCSCRATCH QCRUNNAME QCFILEPREF QCPROG QCPROG_S GUIFILE

Running Job 1 of 1 fin_bdt_Phi_20_Theta_240_fin_ftt_Hydrogenated.qcin
qchem fin_bdt_Phi_20_Theta_240_fin_ftt_Hydrogenated.qcin_2533677.0 ./qchem2533677/ 1
/cm/shared/apps/spack/cpu/opt/spack/linux-centos8-zen2/gcc-10.2.0/qchem-5.4-akfmr7b3t57bfs6qan3padb2wnb2i7cl/bin/mpi/mpirun_qchem -machinefile ./qchem2533677/hostfile -np 1 /cm/shared/apps/spack/cpu/opt/spack/linux-centos8-zen2/gcc-10.2.0/qchem-5.4-akfmr7b3t57bfs6qan3padb2wnb2i7cl/exe/qcprog.exe fin_bdt_Phi_20_Theta_240_fin_ftt_Hydrogenated.qcin_2533677.0 ./qchem2533677/

Process 0 of 1 is on exp-3-23 - thread support 0
initial socket setup ...start
initial socket setup ...done 
now start server 0 ... 
                  Welcome to Q-Chem
     A Quantum Leap Into The Future Of Chemistry


 Q-Chem 5.4, Q-Chem, Inc., Pleasanton, CA (2021)

 License issued to: University of California, San Diego (site)

 E. Epifanovsky,  A. T. B. Gilbert,  Xintian Feng,  Joonho Lee,  Yuezhi Mao,  
 N. Mardirossian,  P. Pokhilko,  A. White,  M. Wormit,  M. P. Coons,  
 A. L. Dempwolff,  Zhengting Gan,  D. Hait,  P. R. Horn,  L. D. Jacobson,  
 I. Kaliman,  J. Kussmann,  A. W. Lange,  Ka Un Lao,  D. S. Levine,  Jie Liu,  
 S. C. McKenzie,  A. F. Morrison,  K. Nanda,  F. Plasser,  D. R. Rehn,  
 M. L. Vidal,  Zhi-Qiang You,  Ying Zhu,  B. Alam,  B. Albrecht,  
 A. Aldossary,  E. Alguire,  J. H. Andersen,  D. Barton,  K. Begam,  A. Behn,  
 Y. A. Bernard,  E. J. Berquist,  H. Burton,  A. Carreras,  K. Carter-Fenk,  
 R. Chakraborty,  A. D. Chien,  K. D. Closser,  V. Cofer-Shabica,  
 S. Dasgupta,  Jia Deng,  M. de Wergifosse,  M. Diedenhofen,  Hainam Do,  
 S. Ehlert,  Po-Tung Fang,  S. Fatehi,  Qingguo Feng,  J. Gayvert,  
 Qinghui Ge,  G. Gidofalvi,  M. Goldey,  J. Gomes,  C. Gonzalez-Espinoza,  
 S. Gulania,  A. Gunina,  M. W. D. Hanson-Heine,  P. H. P. Harbach,  
 A. W. Hauser,  M. F. Herbst,  M. Hernandez Vera,  M. Hodecker,  
 Z. C. Holden,  S. Houck,  Xunkun Huang,  Kerwin Hui,  B. C. Huynh,  
 M. Ivanov,  Hyunjun Ji,  Hanjie Jiang,  B. Kaduk,  S. Kaehler,  
 K. Khistyaev,  Jaehoon Kim,  P. Klunzinger,  Z. Koczor-Benda,  
 Joong Hoon Koh,  D. Kosenkov,  L. Koulias,  T. Kowalczyk,  C. M. Krauter,  
 K. Kue,  A. Kunitsa,  T. Kus,  A. Landau,  K. V. Lawler,  D. Lefrancois,  
 S. Lehtola,  Rain Li,  Yi-Pei Li,  Jiashu Liang,  M. Liebenthal,  
 Hung-Hsuan Lin,  You-Sheng Lin,  Fenglai Liu,  Kuan-Yu Liu,  
 M. Loipersberger,  A. Luenser,  A. Manjanath,  P. Manohar,  E. Mansoor,  
 S. F. Manzer,  Shan-Ping Mao,  A. V. Marenich,  T. Markovich,  S. Mason,  
 S. A. Maurer,  P. F. McLaughlin,  M. F. S. J. Menger,  J.-M. Mewes,  
 S. A. Mewes,  P. Morgante,  J. W. Mullinax,  T. S. Nguyen-Beck,  
 K. J. Oosterbaan,  G. Paran,  Alexander C. Paul,  Suranjan K. Paul,  
 F. Pavosevic,  Zheng Pei,  S. Prager,  E. I. Proynov,  E. Ramos,  B. Rana,  
 A. E. Rask,  A. Rettig,  R. M. Richard,  F. Rob,  E. Rossomme,  T. Scheele,  
 M. Scheurer,  M. Schneider,  N. Sergueev,  S. M. Sharada,  W. Skomorowski,  
 D. W. Small,  C. J. Stein,  Yu-Chuan Su,  E. J. Sundstrom,  Zhen Tao,  
 J. Thirman,  T. Tsuchimochi,  N. M. Tubman,  S. P. Veccham,  O. Vydrov,  
 J. Wenzel,  J. Witte,  A. Yamada,  Kun Yao,  S. Yeganeh,  S. R. Yost,  
 A. Zech,  Igor Ying Zhang,  Xing Zhang,  Yu Zhang,  D. Zuev,  
 A. Aspuru-Guzik,  A. T. Bell,  N. A. Besley,  K. B. Bravaya,  B. R. Brooks,  
 D. Casanova,  Jeng-Da Chai,  S. Coriani,  C. J. Cramer,  
 A. E. DePrince, III,  R. A. DiStasio Jr.,  A. Dreuw,  B. D. Dunietz,  
 T. R. Furlani,  W. A. Goddard III,  S. Grimme,  S. Hammes-Schiffer,  
 T. Head-Gordon,  W. J. Hehre,  Chao-Ping Hsu,  T.-C. Jagau,  Yousung Jung,  
 A. Klamt,  Jing Kong,  D. S. Lambrecht,  WanZhen Liang,  N. J. Mayhall,  
 C. W. McCurdy,  J. B. Neaton,  C. Ochsenfeld,  J. A. Parkhill,  R. Peverati,  
 V. A. Rassolov,  Yihan Shao,  L. V. Slipchenko,  T. Stauch,  R. P. Steele,  
 J. E. Subotnik,  A. J. W. Thom,  A. Tkatchenko,  D. G. Truhlar,  
 T. Van Voorhis,  T. A. Wesolowski,  K. B. Whaley,  H. L. Woodcock III,  
 P. M. Zimmerman,  S. Faraji,  P. M. W. Gill,  M. Head-Gordon,  
 J. M. Herbert,  A. I. Krylov

 Contributors to earlier versions of Q-Chem not listed above: 
 R. D. Adamson,  B. Austin,  R. Baer,  J. Baker,  G. J. O. Beran,  
 K. Brandhorst,  S. T. Brown,  E. F. C. Byrd,  A. K. Chakraborty,  
 G. K. L. Chan,  Chun-Min Chang,  Yunqing Chen,  C.-L. Cheng,  
 Siu Hung Chien,  D. M. Chipman,  D. L. Crittenden,  H. Dachsel,  
 R. J. Doerksen,  A. D. Dutoi,  R. G. Edgar,  J. Fosso-Tande,  
 L. Fusti-Molnar,  D. Ghosh,  A. Ghysels,  A. Golubeva-Zadorozhnaya,  
 J. Gonthier,  M. S. Gordon,  S. R. Gwaltney,  G. Hawkins,  J. E. Herr,  
 A. Heyden,  S. Hirata,  E. G. Hohenstein,  G. Kedziora,  F. J. Keil,  
 C. Kelley,  Jihan Kim,  R. A. King,  R. Z. Khaliullin,  P. P. Korambath,  
 W. Kurlancheek,  A. Laurent,  A. M. Lee,  M. S. Lee,  S. V. Levchenko,  
 Ching Yeh Lin,  D. Liotard,  E. Livshits,  R. C. Lochan,  I. Lotan,  
 L. A. Martinez-Martinez,  P. E. Maslen,  N. Nair,  D. P. O'Neill,  
 D. Neuhauser,  E. Neuscamman,  C. M. Oana,  R. Olivares-Amaya,  R. Olson,  
 T. M. Perrine,  B. Peters,  P. A. Pieniazek,  A. Prociuk,  Y. M. Rhee,  
 J. Ritchie,  M. A. Rohrdanz,  E. Rosta,  N. J. Russ,  H. F. Schaefer III,  
 M. W. Schmidt,  N. E. Schultz,  S. Sharma,  N. Shenvi,  C. D. Sherrill,  
 A. C. Simmonett,  A. Sodt,  T. Stein,  D. Stuck,  K. S. Thanthiriwatte,  
 V. Vanovschi,  L. Vogt,  Tao Wang,  A. Warshel,  M. A. Watson,  
 C. F. Williams,  Q. Wu,  X. Xu,  Jun Yang,  W. Zhang,  Yan Zhao

 Please cite Q-Chem as follows:
 Y. Shao et al., Mol. Phys. 113, 184-215 (2015)
 DOI: 10.1080/00268976.2014.952696

 Q-Chem 5.4.0 for Intel X86 EM64T Linux

 Parts of Q-Chem use Armadillo 9.800.1 (Horizon Scraper).
 http://arma.sourceforge.net/

 Q-Chem begins on Sun Sep 24 18:38:06 2023  

 Host: 
0

     Scratch files written to ./qchem2533677//
 May1621 |scratch|qcdevops|jenkins|workspace|build_RNUM    
 Parallel job on  1  processors
 Processing $rem in /cm/shared/apps/spack/cpu/opt/spack/linux-centos8-zen2/gcc-10.2.0/qchem-5.4-akfmr7b3t57bfs6qan3padb2wnb2i7cl/config/preferences:
 Processing $rem in /home/rramji/.qchemrc:
 Symmetry turned off for PCM/SM12/SMD calculation
 Core orbitals will be frozen

 Checking the input file for inconsistencies... 	...done.

 Q-Chem warning in module forms1/BasisType.C, line 2236:

 You are not using the predefined 5D/6D in this basis set.


--------------------------------------------------------------
User input:
--------------------------------------------------------------
$molecule
0 1
C	0.255929	-8.519741	-0.092419
C	-0.666007	-7.635967	0.449364
S	1.592708	-7.651740	-0.885736
C	-0.332317	-6.261894	0.254813
H	-1.571741	-7.954738	0.980526
C	0.904324	-6.079985	-0.458965
C	1.385968	-4.798382	-0.767823
C	-1.118303	-5.153542	0.681909
C	-0.638514	-3.869626	0.369139
C	0.600871	-3.688927	-0.342916
O	-2.248132	-5.481075	1.368544
O	2.520275	-4.479871	-1.458570
C	3.639637	-5.356026	-1.405396
H	4.495304	-4.790496	-1.820940
H	3.490336	-6.268513	-2.023129
H	3.873314	-5.658187	-0.361595
C	-3.314934	-4.546999	1.480048
H	-4.171837	-5.107564	1.899255
H	-3.601473	-4.131473	0.490123
H	-3.068969	-3.712085	2.171521
C	0.930308	-2.314326	-0.537642
S	-1.334769	-2.295487	0.785807
C	0.000000	-1.435180	0.000000
H	1.836691	-1.993211	-1.066134
C	0.000000	0.000000	0.000000
S	0.309721	0.844422	1.510732
C	0.847502	2.325108	0.727629
C	0.310602	0.853460	-1.064665
C	0.784173	2.159014	-0.678287
C	0.289451	0.790512	-2.486150
C	0.721927	1.979112	-3.106916
S	1.145464	3.152519	-1.965735
C	0.813355	2.216642	-4.559972
O	0.496884	1.338418	-5.350277
O	1.255274	3.421340	-5.004375
F	-0.087923	-0.257761	-3.246290
C	1.387494	3.754937	-6.334976
H	1.765978	4.793056	-6.370268
H	0.417095	3.693789	-6.875609
H	2.098820	3.081033	-6.861878
H	1.162229	3.189623	1.321510
H	-0.202590	-9.146471	-0.866272
H	0.707539	-9.150570	0.682165
H	-0.547293	-1.444158	-0.931016
$end

$rem
JOBTYPE		SP
EXCHANGE	HF
CORRELATION	pRIMP2
BASIS		cc-pvtz
METHOD		rimp2
AUX_BASIS	rimp2-cc-pvtz
SOLVENT_METHOD	PCM
PURECART	11111
SYMMETRY	false
MEM_TOTAL	110000
SCF_CONVERGENCE = 6
THRESH=10
GUI = 2
$end



$solvent
dielectric 4.90
$end
--------------------------------------------------------------
 ----------------------------------------------------------------
             Standard Nuclear Orientation (Angstroms)
    I     Atom           X                Y                Z
 ----------------------------------------------------------------
    1      C       0.2559290000    -8.5197410000    -0.0924190000
    2      C      -0.6660070000    -7.6359670000     0.4493640000
    3      S       1.5927080000    -7.6517400000    -0.8857360000
    4      C      -0.3323170000    -6.2618940000     0.2548130000
    5      H      -1.5717410000    -7.9547380000     0.9805260000
    6      C       0.9043240000    -6.0799850000    -0.4589650000
    7      C       1.3859680000    -4.7983820000    -0.7678230000
    8      C      -1.1183030000    -5.1535420000     0.6819090000
    9      C      -0.6385140000    -3.8696260000     0.3691390000
   10      C       0.6008710000    -3.6889270000    -0.3429160000
   11      O      -2.2481320000    -5.4810750000     1.3685440000
   12      O       2.5202750000    -4.4798710000    -1.4585700000
   13      C       3.6396370000    -5.3560260000    -1.4053960000
   14      H       4.4953040000    -4.7904960000    -1.8209400000
   15      H       3.4903360000    -6.2685130000    -2.0231290000
   16      H       3.8733140000    -5.6581870000    -0.3615950000
   17      C      -3.3149340000    -4.5469990000     1.4800480000
   18      H      -4.1718370000    -5.1075640000     1.8992550000
   19      H      -3.6014730000    -4.1314730000     0.4901230000
   20      H      -3.0689690000    -3.7120850000     2.1715210000
   21      C       0.9303080000    -2.3143260000    -0.5376420000
   22      S      -1.3347690000    -2.2954870000     0.7858070000
   23      C       0.0000000000    -1.4351800000     0.0000000000
   24      H       1.8366910000    -1.9932110000    -1.0661340000
   25      C       0.0000000000     0.0000000000     0.0000000000
   26      S       0.3097210000     0.8444220000     1.5107320000
   27      C       0.8475020000     2.3251080000     0.7276290000
   28      C       0.3106020000     0.8534600000    -1.0646650000
   29      C       0.7841730000     2.1590140000    -0.6782870000
   30      C       0.2894510000     0.7905120000    -2.4861500000
   31      C       0.7219270000     1.9791120000    -3.1069160000
   32      S       1.1454640000     3.1525190000    -1.9657350000
   33      C       0.8133550000     2.2166420000    -4.5599720000
   34      O       0.4968840000     1.3384180000    -5.3502770000
   35      O       1.2552740000     3.4213400000    -5.0043750000
   36      F      -0.0879230000    -0.2577610000    -3.2462900000
   37      C       1.3874940000     3.7549370000    -6.3349760000
   38      H       1.7659780000     4.7930560000    -6.3702680000
   39      H       0.4170950000     3.6937890000    -6.8756090000
   40      H       2.0988200000     3.0810330000    -6.8618780000
   41      H       1.1622290000     3.1896230000     1.3215100000
   42      H      -0.2025900000    -9.1464710000    -0.8662720000
   43      H       0.7075390000    -9.1505700000     0.6821650000
   44      H      -0.5472930000    -1.4441580000    -0.9310160000
 ----------------------------------------------------------------
 Nuclear Repulsion Energy =        3364.29183003 hartrees
 There are      120 alpha and      120 beta electrons
 Requested basis set is cc-pVTZ
 There are 388 shells and 1096 basis functions

 Total QAlloc Memory Limit 110000 MB
 Mega-Array Size       188 MB
 MEM_STATIC part       192 MB
 Discretize the solute cavity surface with Lebedev spheres
	Using 110 Lebedev grid points for each H atom
	Using 194 Lebedev grid points for other atoms
	Atomic van der Waals radii will be scaled by 1.20
 Remove points where switching function is < 1.0e-08
 Keep 2976 surface tesserae and discard 4300 interior tesserae
 Molecular Surface Area = 442.667 Angst**2
 Requested basis set is rimp2-cc-pVTZ
 There are 853 shells and 2963 basis functions
 A cutoff of  1.0D-10 yielded  33529 shell pairs
 There are    253279 function pairs (    327654 Cartesian)
 Smallest overlap matrix eigenvalue = 2.13E-05

 Scale SEOQF with 1.000000e-01/1.000000e-02/1.000000e-02

 Standard Electronic Orientation quadrupole field applied
 Nucleus-field energy     =     0.0000000353 hartrees
 Guess from superposition of atomic densities
 Warning:  Energy on first SCF cycle will be non-variational
 SAD guess density has 240.000000 electrons

 -----------------------------------------------------------------------
  General SCF calculation program by
  Eric Jon Sundstrom, Paul Horn, Yuezhi Mao, Dmitri Zuev, Alec White,
  David Stuck, Shaama M.S., Shane Yost, Joonho Lee, David Small,
  Daniel Levine, Susi Lehtola, Hugh Burton, Evgeny Epifanovsky,
  Bang C. Huynh
 -----------------------------------------------------------------------
 Hartree-Fock
 using 64 threads for integral computing
 -------------------------------------------------------
 OpenMP Integral computing Module                
 Release: version 1.0, May 2013, Q-Chem Inc. Pittsburgh 
 -------------------------------------------------------
 A restricted SCF calculation will be
 performed using DIIS
 SCF converges when DIIS error is below 1.0e-06
 ---------------------------------------
  Cycle       Energy         DIIS error
 ---------------------------------------
    1   -2767.3414637898      1.77e-02  
    2   -2754.8681208877      1.54e-03  
    3   -2755.2163924717      8.77e-04  
    4   -2755.3066938032      2.54e-04  
    5   -2755.3201708684      7.20e-05  
    6   -2755.3216315710      2.55e-05  
    7   -2755.3220057371      1.33e-05  
    8   -2755.3221246228      5.68e-06  
    9   -2755.3221534521      3.03e-06  
   10   -2755.3221607852      1.44e-06  
   11   -2755.3221629487      7.24e-07  Convergence criterion met
 ---------------------------------------
 SCF time:   CPU 7468.63s  wall 274.00s 

************** Final PCM Free Energy Summary **************
 G_electrostatic  =      -0.02127521 hartree =     -13.35039567 kcal/mol
 G_cavitation     =       0.00000000 hartree =       0.00000000 kcal/mol
 G_dispersion     =       0.00000000 hartree =       0.00000000 kcal/mol
 G_repulsion      =       0.00000000 hartree =       0.00000000 kcal/mol
 --------------------------------------------------
 Non-electrostatic Free Energy =       0.00000000 hartree =       0.00000000 kcal/mol
 Total                         =      -0.02127521 hartree =     -13.35039567 kcal/mol
 --------------------------------------------------
 SCF Energy (H0 + V/2)                       =   -2755.32216295 
 Solute Internal Energy (H0)                 =   -2755.30088774 
 Total Free Energy (H0 + V/2 + non-elec)     =   -2755.32216295 hartree
                                             = -1728990.75290651 kcal/mol
***********************************************************

 SCF   energy in the final basis set =    -2755.3221629487
 Total energy in the final basis set =    -2755.3221629487


 --------------------------------------------------------------
  Generalized many-body perturbation theory program
  by Joonho Lee, Fazle Rob, Xintian Feng, Evgeny Epifanovsky

 No regularization used 
 (reg. param. = 0.0000e+00)
  (P|Q)^-1/2 Time:  CPU 140.82 s  wall 2.83 s

 In RI-MP2 calculation: 
 # of frozen core orbitals: 45

 Components of the RIMP2 correlation energy:
        aaaa    correlation energy =        -0.6705034031 a.u.
        abab    correlation energy =        -3.7527613805 a.u.
        bbbb    correlation energy =        -0.6705034031 a.u.
        non-Brillouin singles      =        -0.0000000000 a.u.
        total same-spin energy     =        -1.3410068061 a.u.
        total opposite-spin energy =        -3.7527613805 a.u.

 Total  RIMP2   correlation energy =        -5.0937681866 a.u.
        RIMP2         total energy =     -2760.4159311353 a.u.

 RI-MP2 Energy Time:  CPU 2991.30 s  wall 48.88 s
 
 --------------------------------------------------------------
 
                    Orbital Energies (a.u.)
 --------------------------------------------------------------
 
 Alpha MOs
 -- Occupied --
-92.0131 -91.9973 -91.9783 -91.9581 -26.3387 -20.6135 -20.5871 -20.5870
-20.5520 -11.4122 -11.3796 -11.3120 -11.3090 -11.3075 -11.3008 -11.2986
-11.2969 -11.2893 -11.2863 -11.2845 -11.2831 -11.2826 -11.2813 -11.2731
-11.2729 -11.2582 -11.2582 -11.2495 -11.2370  -9.0118  -9.0012  -8.9804
 -8.9607  -6.6925  -6.6918  -6.6914  -6.6825  -6.6818  -6.6805  -6.6615
 -6.6607  -6.6594  -6.6419  -6.6410  -6.6400  -1.6517  -1.4733  -1.4104
 -1.4088  -1.3688  -1.2399  -1.2089  -1.1752  -1.1439  -1.1000  -1.0523
 -1.0461  -1.0298  -1.0090  -0.9980  -0.9729  -0.9597  -0.9488  -0.9412
 -0.8936  -0.8746  -0.8624  -0.8084  -0.7948  -0.7855  -0.7797  -0.7724
 -0.7620  -0.7338  -0.7203  -0.7191  -0.6980  -0.6929  -0.6869  -0.6798
 -0.6759  -0.6736  -0.6557  -0.6485  -0.6347  -0.6274  -0.6200  -0.6148
 -0.6112  -0.6078  -0.5967  -0.5939  -0.5826  -0.5672  -0.5582  -0.5540
 -0.5465  -0.5341  -0.5297  -0.5228  -0.5127  -0.5075  -0.5038  -0.5020
 -0.4872  -0.4849  -0.4755  -0.4702  -0.4627  -0.4625  -0.4608  -0.4462
 -0.4242  -0.4028  -0.3854  -0.3701  -0.3506  -0.2938  -0.2885  -0.2198
 -- Virtual --
  0.0246   0.0533   0.1135   0.1316   0.1393   0.1462   0.1539   0.1549
  0.1594   0.1609   0.1644   0.1730   0.1822   0.1846   0.1882   0.1972
  0.2003   0.2029   0.2040   0.2086   0.2170   0.2209   0.2232   0.2272
  0.2303   0.2323   0.2384   0.2463   0.2520   0.2581   0.2647   0.2683
  0.2746   0.2942   0.3078   0.3161   0.3298   0.3344   0.3415   0.3450
  0.3480   0.3572   0.3604   0.3651   0.3684   0.3706   0.3790   0.3810
  0.3876   0.3885   0.3909   0.4035   0.4093   0.4140   0.4165   0.4215
  0.4269   0.4290   0.4295   0.4337   0.4364   0.4382   0.4465   0.4500
  0.4551   0.4571   0.4638   0.4649   0.4702   0.4742   0.4773   0.4793
  0.4822   0.4923   0.4982   0.5001   0.5085   0.5104   0.5143   0.5204
  0.5253   0.5284   0.5338   0.5345   0.5415   0.5438   0.5458   0.5513
  0.5560   0.5575   0.5601   0.5617   0.5679   0.5704   0.5749   0.5819
  0.5833   0.5877   0.5887   0.5951   0.5967   0.6021   0.6052   0.6144
  0.6147   0.6161   0.6167   0.6184   0.6226   0.6251   0.6314   0.6336
  0.6369   0.6388   0.6436   0.6454   0.6473   0.6504   0.6534   0.6564
  0.6571   0.6623   0.6734   0.6742   0.6766   0.6831   0.6907   0.6935
  0.7015   0.7050   0.7113   0.7159   0.7172   0.7252   0.7283   0.7424
  0.7506   0.7544   0.7579   0.7665   0.7725   0.7810   0.7819   0.7874
  0.7876   0.7907   0.7940   0.8044   0.8079   0.8143   0.8163   0.8215
  0.8298   0.8394   0.8400   0.8546   0.8657   0.8687   0.8726   0.8795
  0.8885   0.8943   0.8956   0.9008   0.9040   0.9082   0.9128   0.9177
  0.9218   0.9252   0.9318   0.9363   0.9421   0.9483   0.9487   0.9519
  0.9595   0.9641   0.9691   0.9752   0.9794   0.9864   0.9884   0.9913
  0.9983   1.0012   1.0053   1.0092   1.0141   1.0211   1.0219   1.0296
  1.0345   1.0406   1.0424   1.0485   1.0522   1.0587   1.0620   1.0685
  1.0719   1.0763   1.0815   1.0867   1.0870   1.0970   1.1003   1.1066
  1.1139   1.1185   1.1204   1.1273   1.1339   1.1423   1.1479   1.1511
  1.1536   1.1620   1.1623   1.1680   1.1708   1.1744   1.1783   1.1791
  1.1828   1.1858   1.1909   1.1992   1.2005   1.2068   1.2137   1.2173
  1.2225   1.2248   1.2271   1.2405   1.2425   1.2469   1.2504   1.2583
  1.2620   1.2653   1.2755   1.2832   1.2841   1.2876   1.2933   1.2950
  1.3026   1.3126   1.3158   1.3246   1.3271   1.3346   1.3374   1.3416
  1.3437   1.3515   1.3530   1.3697   1.3737   1.3825   1.3918   1.4005
  1.4040   1.4106   1.4144   1.4248   1.4324   1.4373   1.4451   1.4603
  1.4633   1.4732   1.4735   1.4787   1.4899   1.4919   1.4982   1.5022
  1.5065   1.5095   1.5116   1.5159   1.5242   1.5299   1.5327   1.5400
  1.5415   1.5469   1.5506   1.5573   1.5623   1.5650   1.5697   1.5746
  1.5798   1.5952   1.5962   1.6082   1.6206   1.6239   1.6283   1.6386
  1.6432   1.6559   1.6580   1.6596   1.6651   1.6690   1.6757   1.6846
  1.6920   1.6984   1.7070   1.7156   1.7184   1.7287   1.7395   1.7416
  1.7566   1.7621   1.7710   1.7853   1.7924   1.8023   1.8074   1.8156
  1.8247   1.8321   1.8333   1.8407   1.8484   1.8618   1.8655   1.8746
  1.8820   1.8891   1.9089   1.9129   1.9164   1.9227   1.9296   1.9337
  1.9461   1.9521   1.9580   1.9690   1.9718   1.9769   1.9924   2.0091
  2.0146   2.0207   2.0243   2.0312   2.0383   2.0429   2.0509   2.0564
  2.0705   2.0765   2.0835   2.0939   2.1024   2.1154   2.1249   2.1327
  2.1410   2.1467   2.1568   2.1582   2.1709   2.1795   2.1870   2.1930
  2.1952   2.1998   2.2116   2.2192   2.2262   2.2332   2.2379   2.2429
  2.2502   2.2534   2.2598   2.2728   2.2788   2.2857   2.2908   2.3010
  2.3074   2.3107   2.3168   2.3294   2.3343   2.3415   2.3565   2.3621
  2.3685   2.3867   2.3932   2.4009   2.4058   2.4137   2.4186   2.4343
  2.4392   2.4465   2.4587   2.4703   2.4787   2.4825   2.4888   2.5037
  2.5120   2.5275   2.5294   2.5335   2.5421   2.5589   2.5745   2.5770
  2.5841   2.5902   2.5947   2.6031   2.6189   2.6223   2.6252   2.6307
  2.6322   2.6384   2.6455   2.6491   2.6519   2.6553   2.6641   2.6730
  2.6819   2.6917   2.6955   2.6974   2.6988   2.7041   2.7158   2.7197
  2.7275   2.7326   2.7431   2.7445   2.7472   2.7592   2.7673   2.7696
  2.7768   2.7793   2.7988   2.8020   2.8051   2.8125   2.8217   2.8292
  2.8372   2.8467   2.8513   2.8585   2.8607   2.8677   2.8733   2.8782
  2.8799   2.8890   2.8975   2.9040   2.9186   2.9229   2.9285   2.9475
  2.9533   2.9575   2.9585   2.9633   2.9725   2.9786   2.9899   3.0022
  3.0107   3.0159   3.0197   3.0285   3.0379   3.0384   3.0440   3.0443
  3.0524   3.0628   3.0742   3.0807   3.0879   3.0898   3.0951   3.1019
  3.1065   3.1079   3.1134   3.1247   3.1324   3.1385   3.1461   3.1474
  3.1536   3.1564   3.1608   3.1612   3.1689   3.1703   3.1798   3.1846
  3.1897   3.1938   3.2000   3.2024   3.2056   3.2153   3.2170   3.2232
  3.2349   3.2368   3.2457   3.2505   3.2526   3.2570   3.2605   3.2663
  3.2704   3.2755   3.2790   3.2845   3.2872   3.2919   3.2959   3.3009
  3.3047   3.3082   3.3127   3.3174   3.3253   3.3273   3.3402   3.3450
  3.3496   3.3523   3.3525   3.3581   3.3600   3.3634   3.3661   3.3683
  3.3740   3.3773   3.3874   3.3938   3.3979   3.4024   3.4043   3.4082
  3.4135   3.4200   3.4231   3.4303   3.4331   3.4344   3.4416   3.4462
  3.4489   3.4539   3.4585   3.4622   3.4721   3.4766   3.4832   3.4867
  3.4904   3.4951   3.5052   3.5123   3.5141   3.5204   3.5257   3.5440
  3.5478   3.5520   3.5560   3.5622   3.5644   3.5755   3.5801   3.5814
  3.5877   3.5904   3.5973   3.6009   3.6056   3.6098   3.6116   3.6194
  3.6266   3.6297   3.6374   3.6399   3.6422   3.6464   3.6513   3.6592
  3.6643   3.6700   3.6749   3.6787   3.6810   3.6821   3.6912   3.6940
  3.7022   3.7048   3.7100   3.7156   3.7215   3.7231   3.7287   3.7295
  3.7327   3.7390   3.7395   3.7500   3.7580   3.7656   3.7682   3.7800
  3.7880   3.7914   3.7959   3.8003   3.8028   3.8096   3.8167   3.8222
  3.8244   3.8362   3.8378   3.8439   3.8484   3.8498   3.8536   3.8601
  3.8619   3.8727   3.8826   3.8873   3.8994   3.9008   3.9055   3.9130
  3.9189   3.9309   3.9346   3.9383   3.9443   3.9474   3.9546   3.9624
  3.9639   3.9746   3.9773   3.9906   3.9966   4.0002   4.0066   4.0177
  4.0220   4.0278   4.0372   4.0401   4.0513   4.0542   4.0587   4.0675
  4.0701   4.0775   4.0833   4.0870   4.0965   4.1041   4.1091   4.1167
  4.1346   4.1421   4.1545   4.1647   4.1709   4.1738   4.1763   4.1791
  4.1814   4.1855   4.2027   4.2087   4.2159   4.2203   4.2292   4.2377
  4.2459   4.2486   4.2641   4.2719   4.2831   4.2920   4.2941   4.3024
  4.3165   4.3227   4.3315   4.3396   4.3474   4.3523   4.3595   4.3668
  4.3759   4.3761   4.3806   4.3864   4.3959   4.4036   4.4107   4.4184
  4.4225   4.4253   4.4269   4.4349   4.4366   4.4393   4.4502   4.4582
  4.4673   4.4776   4.4808   4.4923   4.4959   4.5177   4.5181   4.5267
  4.5391   4.5416   4.5547   4.5621   4.5688   4.5734   4.5782   4.5878
  4.5948   4.6111   4.6160   4.6243   4.6383   4.6409   4.6442   4.6539
  4.6613   4.6687   4.6705   4.6774   4.6921   4.7001   4.7140   4.7279
  4.7325   4.7456   4.7532   4.7765   4.7836   4.7961   4.8010   4.8128
  4.8187   4.8313   4.8453   4.8494   4.8646   4.8732   4.8761   4.8930
  4.9147   4.9166   4.9352   4.9455   4.9579   4.9653   4.9713   4.9840
  4.9908   5.0070   5.0098   5.0109   5.0237   5.0369   5.0432   5.0456
  5.0684   5.0809   5.0908   5.1038   5.1251   5.1609   5.1700   5.1798
  5.1873   5.1942   5.2015   5.2045   5.2101   5.2158   5.2286   5.2429
  5.2536   5.2583   5.2743   5.2870   5.2943   5.3145   5.3258   5.3307
  5.3336   5.3504   5.3544   5.3576   5.3646   5.3695   5.3894   5.4011
  5.4053   5.4072   5.4269   5.4439   5.4651   5.4724   5.4874   5.4961
  5.5084   5.5202   5.5209   5.5463   5.5618   5.5662   5.5788   5.5880
  5.5935   5.6104   5.6160   5.6291   5.6339   5.6513   5.6745   5.6914
  5.7157   5.7403   5.7661   5.7793   5.7996   5.8229   5.8369   5.8549
  5.8593   5.8850   5.9036   5.9563   5.9682   5.9797   5.9841   6.0034
  6.0370   6.0720   6.1196   6.1245   6.1327   6.1447   6.1725   6.1760
  6.1849   6.2004   6.2323   6.2374   6.2520   6.2685   6.2852   6.2925
  6.3075   6.3383   6.3651   6.4278   6.4737   6.4954   6.5334   6.5550
  6.5589   6.5697   6.6510   6.6752   6.6877   6.7199   6.7413   6.7449
  6.8083   6.8583   6.8588   6.8815   6.8990   6.9905   7.1317   7.1470
  7.1771   7.2101   7.2219   7.2397   7.3248   7.3270   7.3415   7.3691
  7.3722   7.4275   7.4612   7.4822   7.4864   7.4978   7.5178   7.5476
  7.6160   7.7372   7.7667   7.8030   7.8304   7.9123   7.9277   7.9569
  8.0031   8.1242   8.3546   8.6217   8.9272   9.0086   9.3608   9.4982
  9.7030  10.3034  11.2491  11.4115  11.9352  11.9680  12.1242  12.3702
 12.3952  12.4892  12.7321  12.9331  13.0088  13.2476  13.4775  13.5798
 13.6776  13.8758  13.9304  13.9518  14.1872  14.3162  15.1368  15.2491
 --------------------------------------------------------------
 
          Ground-State Mulliken Net Atomic Charges

     Atom                 Charge (a.u.)
  ----------------------------------------
      1 C                    -0.070351
      2 C                    -0.259147
      3 S                    -0.134941
      4 C                    -0.046532
      5 H                     0.193407
      6 C                    -0.052604
      7 C                     0.221333
      8 C                     0.231972
      9 C                    -0.082342
     10 C                    -0.038011
     11 O                    -0.335010
     12 O                    -0.343017
     13 C                    -0.082526
     14 H                     0.120092
     15 H                     0.092115
     16 H                     0.092525
     17 C                    -0.086662
     18 H                     0.123399
     19 H                     0.092834
     20 H                     0.089915
     21 C                    -0.280011
     22 S                    -0.072336
     23 C                     0.073907
     24 H                     0.208349
     25 C                    -0.071905
     26 S                     0.102394
     27 C                    -0.229247
     28 C                    -0.116854
     29 C                    -0.005631
     30 C                     0.389720
     31 C                    -0.140046
     32 S                     0.043692
     33 C                     0.460482
     34 O                    -0.448288
     35 O                    -0.297601
     36 F                    -0.214981
     37 C                    -0.054957
     38 H                     0.116919
     39 H                     0.084951
     40 H                     0.084798
     41 H                     0.215011
     42 H                     0.117573
     43 H                     0.115039
     44 H                     0.192573
  ----------------------------------------
  Sum of atomic charges =     0.000000

 -----------------------------------------------------------------
                    Cartesian Multipole Moments
 -----------------------------------------------------------------
    Charge (ESU x 10^10)
                 0.0000
    Dipole Moment (Debye)
         X       0.8948      Y       3.4721      Z       2.6073
       Tot       4.4333
    Quadrupole Moments (Debye-Ang)
        XX    -181.6483     XY       8.6284     YY    -175.2900
        XZ      -7.5106     YZ     -12.4881     ZZ    -205.2031
    Octopole Moments (Debye-Ang^2)
       XXX    -215.3229    XXY     324.8326    XYY     -76.2379
       YYY    1030.5687    XXZ     176.2658    XYZ      -1.4180
       YYZ     156.6223    XZZ     -36.7961    YZZ     511.3960
       ZZZ     563.6817
    Hexadecapole Moments (Debye-Ang^3)
      XXXX   -2299.1408   XXXY      -8.1389   XXYY   -3800.9055
      XYYY     320.9336   YYYY  -19561.1581   XXXZ     851.5564
      XXYZ     363.7616   XYYZ     193.7542   YYYZ     799.6776
      XXZZ   -1350.3701   XYZZ     198.3328   YYZZ   -4325.0466
      XZZZ     734.3742   YZZZ     457.4708   ZZZZ   -6034.0517
 -----------------------------------------------------------------
 Total job time:  327.22s(wall), 10592.71s(cpu) 
 Sun Sep 24 18:43:33 2023

        *************************************************************
        *                                                           *
        *  Thank you very much for using Q-Chem.  Have a nice day.  *
        *                                                           *
        *************************************************************


0 sent ACK to 0 
now end server 0 ... 
cleanup process ... done
remove work dirs ./qchem2533677.0 -- ./qchem2533677.0
rm -rf ./qchem2533677.0
rm -rf ./qchem2533677
