You are running Q-Chem version: 5.4.0

#
# job setting
#
local host:  exp-8-24
current dir: /expanse/lustre/projects/csd626/rramji/aromodel/PTB7_fin/Hydrogenated_Rotation_Test
input file:  fin_bdt_Phi_40_Theta_220_fin_ftt_Hydrogenated.qcin
output file: 
nprocs     : 1
nthreads   : 64
#
# qchem installation setting
#
QC:          /cm/shared/apps/spack/cpu/opt/spack/linux-centos8-zen2/gcc-10.2.0/qchem-5.4-akfmr7b3t57bfs6qan3padb2wnb2i7cl
QCAUX:       /cm/shared/apps/spack/cpu/opt/spack/linux-centos8-zen2/gcc-10.2.0/qchem-5.4-akfmr7b3t57bfs6qan3padb2wnb2i7cl/qcaux
QCPROG:      /cm/shared/apps/spack/cpu/opt/spack/linux-centos8-zen2/gcc-10.2.0/qchem-5.4-akfmr7b3t57bfs6qan3padb2wnb2i7cl/exe/qcprog.exe
QCPROG_S:    /cm/shared/apps/spack/cpu/opt/spack/linux-centos8-zen2/gcc-10.2.0/qchem-5.4-akfmr7b3t57bfs6qan3padb2wnb2i7cl/exe/qcprog.exe_s
PARALLEL:    -DPARALLEL
QCMPI:       mpich
#
# qchem directory setting
#
qcrun:       qchem947133
QCSCRATCH:   .
QCLOCALSCR:  
QCTMPDIR:    .
QCFILEPREF:  ./qchem947133
QCSAVEDIR:   
workdirs:    ./qchem947133
workdir0:    ./qchem947133
partmpdirs =  
#
# parallel setting
#
QCRSH:           ssh
QCMPI:           mpich
QCMPIRUN:        /cm/shared/apps/spack/cpu/opt/spack/linux-centos8-zen2/gcc-10.2.0/qchem-5.4-akfmr7b3t57bfs6qan3padb2wnb2i7cl/bin/mpi/mpirun_qchem
QCMACHINEFILE:   ./qchem947133/hostfile
exp-8-24

#
# env setting
#
exported envs:   QC QCAUX QCSCRATCH QCRUNNAME QCFILEPREF QCPROG QCPROG_S GUIFILE

Running Job 1 of 1 fin_bdt_Phi_40_Theta_220_fin_ftt_Hydrogenated.qcin
qchem fin_bdt_Phi_40_Theta_220_fin_ftt_Hydrogenated.qcin_947133.0 ./qchem947133/ 1
/cm/shared/apps/spack/cpu/opt/spack/linux-centos8-zen2/gcc-10.2.0/qchem-5.4-akfmr7b3t57bfs6qan3padb2wnb2i7cl/bin/mpi/mpirun_qchem -machinefile ./qchem947133/hostfile -np 1 /cm/shared/apps/spack/cpu/opt/spack/linux-centos8-zen2/gcc-10.2.0/qchem-5.4-akfmr7b3t57bfs6qan3padb2wnb2i7cl/exe/qcprog.exe fin_bdt_Phi_40_Theta_220_fin_ftt_Hydrogenated.qcin_947133.0 ./qchem947133/

Process 0 of 1 is on exp-8-24 - thread support 0
initial socket setup ...start
initial socket setup ...done 
now start server 0 ... 
                  Welcome to Q-Chem
     A Quantum Leap Into The Future Of Chemistry


 Q-Chem 5.4, Q-Chem, Inc., Pleasanton, CA (2021)

 License issued to: University of California, San Diego (site)

 E. Epifanovsky,  A. T. B. Gilbert,  Xintian Feng,  Joonho Lee,  Yuezhi Mao,  
 N. Mardirossian,  P. Pokhilko,  A. White,  M. Wormit,  M. P. Coons,  
 A. L. Dempwolff,  Zhengting Gan,  D. Hait,  P. R. Horn,  L. D. Jacobson,  
 I. Kaliman,  J. Kussmann,  A. W. Lange,  Ka Un Lao,  D. S. Levine,  Jie Liu,  
 S. C. McKenzie,  A. F. Morrison,  K. Nanda,  F. Plasser,  D. R. Rehn,  
 M. L. Vidal,  Zhi-Qiang You,  Ying Zhu,  B. Alam,  B. Albrecht,  
 A. Aldossary,  E. Alguire,  J. H. Andersen,  D. Barton,  K. Begam,  A. Behn,  
 Y. A. Bernard,  E. J. Berquist,  H. Burton,  A. Carreras,  K. Carter-Fenk,  
 R. Chakraborty,  A. D. Chien,  K. D. Closser,  V. Cofer-Shabica,  
 S. Dasgupta,  Jia Deng,  M. de Wergifosse,  M. Diedenhofen,  Hainam Do,  
 S. Ehlert,  Po-Tung Fang,  S. Fatehi,  Qingguo Feng,  J. Gayvert,  
 Qinghui Ge,  G. Gidofalvi,  M. Goldey,  J. Gomes,  C. Gonzalez-Espinoza,  
 S. Gulania,  A. Gunina,  M. W. D. Hanson-Heine,  P. H. P. Harbach,  
 A. W. Hauser,  M. F. Herbst,  M. Hernandez Vera,  M. Hodecker,  
 Z. C. Holden,  S. Houck,  Xunkun Huang,  Kerwin Hui,  B. C. Huynh,  
 M. Ivanov,  Hyunjun Ji,  Hanjie Jiang,  B. Kaduk,  S. Kaehler,  
 K. Khistyaev,  Jaehoon Kim,  P. Klunzinger,  Z. Koczor-Benda,  
 Joong Hoon Koh,  D. Kosenkov,  L. Koulias,  T. Kowalczyk,  C. M. Krauter,  
 K. Kue,  A. Kunitsa,  T. Kus,  A. Landau,  K. V. Lawler,  D. Lefrancois,  
 S. Lehtola,  Rain Li,  Yi-Pei Li,  Jiashu Liang,  M. Liebenthal,  
 Hung-Hsuan Lin,  You-Sheng Lin,  Fenglai Liu,  Kuan-Yu Liu,  
 M. Loipersberger,  A. Luenser,  A. Manjanath,  P. Manohar,  E. Mansoor,  
 S. F. Manzer,  Shan-Ping Mao,  A. V. Marenich,  T. Markovich,  S. Mason,  
 S. A. Maurer,  P. F. McLaughlin,  M. F. S. J. Menger,  J.-M. Mewes,  
 S. A. Mewes,  P. Morgante,  J. W. Mullinax,  T. S. Nguyen-Beck,  
 K. J. Oosterbaan,  G. Paran,  Alexander C. Paul,  Suranjan K. Paul,  
 F. Pavosevic,  Zheng Pei,  S. Prager,  E. I. Proynov,  E. Ramos,  B. Rana,  
 A. E. Rask,  A. Rettig,  R. M. Richard,  F. Rob,  E. Rossomme,  T. Scheele,  
 M. Scheurer,  M. Schneider,  N. Sergueev,  S. M. Sharada,  W. Skomorowski,  
 D. W. Small,  C. J. Stein,  Yu-Chuan Su,  E. J. Sundstrom,  Zhen Tao,  
 J. Thirman,  T. Tsuchimochi,  N. M. Tubman,  S. P. Veccham,  O. Vydrov,  
 J. Wenzel,  J. Witte,  A. Yamada,  Kun Yao,  S. Yeganeh,  S. R. Yost,  
 A. Zech,  Igor Ying Zhang,  Xing Zhang,  Yu Zhang,  D. Zuev,  
 A. Aspuru-Guzik,  A. T. Bell,  N. A. Besley,  K. B. Bravaya,  B. R. Brooks,  
 D. Casanova,  Jeng-Da Chai,  S. Coriani,  C. J. Cramer,  
 A. E. DePrince, III,  R. A. DiStasio Jr.,  A. Dreuw,  B. D. Dunietz,  
 T. R. Furlani,  W. A. Goddard III,  S. Grimme,  S. Hammes-Schiffer,  
 T. Head-Gordon,  W. J. Hehre,  Chao-Ping Hsu,  T.-C. Jagau,  Yousung Jung,  
 A. Klamt,  Jing Kong,  D. S. Lambrecht,  WanZhen Liang,  N. J. Mayhall,  
 C. W. McCurdy,  J. B. Neaton,  C. Ochsenfeld,  J. A. Parkhill,  R. Peverati,  
 V. A. Rassolov,  Yihan Shao,  L. V. Slipchenko,  T. Stauch,  R. P. Steele,  
 J. E. Subotnik,  A. J. W. Thom,  A. Tkatchenko,  D. G. Truhlar,  
 T. Van Voorhis,  T. A. Wesolowski,  K. B. Whaley,  H. L. Woodcock III,  
 P. M. Zimmerman,  S. Faraji,  P. M. W. Gill,  M. Head-Gordon,  
 J. M. Herbert,  A. I. Krylov

 Contributors to earlier versions of Q-Chem not listed above: 
 R. D. Adamson,  B. Austin,  R. Baer,  J. Baker,  G. J. O. Beran,  
 K. Brandhorst,  S. T. Brown,  E. F. C. Byrd,  A. K. Chakraborty,  
 G. K. L. Chan,  Chun-Min Chang,  Yunqing Chen,  C.-L. Cheng,  
 Siu Hung Chien,  D. M. Chipman,  D. L. Crittenden,  H. Dachsel,  
 R. J. Doerksen,  A. D. Dutoi,  R. G. Edgar,  J. Fosso-Tande,  
 L. Fusti-Molnar,  D. Ghosh,  A. Ghysels,  A. Golubeva-Zadorozhnaya,  
 J. Gonthier,  M. S. Gordon,  S. R. Gwaltney,  G. Hawkins,  J. E. Herr,  
 A. Heyden,  S. Hirata,  E. G. Hohenstein,  G. Kedziora,  F. J. Keil,  
 C. Kelley,  Jihan Kim,  R. A. King,  R. Z. Khaliullin,  P. P. Korambath,  
 W. Kurlancheek,  A. Laurent,  A. M. Lee,  M. S. Lee,  S. V. Levchenko,  
 Ching Yeh Lin,  D. Liotard,  E. Livshits,  R. C. Lochan,  I. Lotan,  
 L. A. Martinez-Martinez,  P. E. Maslen,  N. Nair,  D. P. O'Neill,  
 D. Neuhauser,  E. Neuscamman,  C. M. Oana,  R. Olivares-Amaya,  R. Olson,  
 T. M. Perrine,  B. Peters,  P. A. Pieniazek,  A. Prociuk,  Y. M. Rhee,  
 J. Ritchie,  M. A. Rohrdanz,  E. Rosta,  N. J. Russ,  H. F. Schaefer III,  
 M. W. Schmidt,  N. E. Schultz,  S. Sharma,  N. Shenvi,  C. D. Sherrill,  
 A. C. Simmonett,  A. Sodt,  T. Stein,  D. Stuck,  K. S. Thanthiriwatte,  
 V. Vanovschi,  L. Vogt,  Tao Wang,  A. Warshel,  M. A. Watson,  
 C. F. Williams,  Q. Wu,  X. Xu,  Jun Yang,  W. Zhang,  Yan Zhao

 Please cite Q-Chem as follows:
 Y. Shao et al., Mol. Phys. 113, 184-215 (2015)
 DOI: 10.1080/00268976.2014.952696

 Q-Chem 5.4.0 for Intel X86 EM64T Linux

 Parts of Q-Chem use Armadillo 9.800.1 (Horizon Scraper).
 http://arma.sourceforge.net/

 Q-Chem begins on Sun Sep 24 18:29:54 2023  

 Host: 
0

     Scratch files written to ./qchem947133//
 May1621 |scratch|qcdevops|jenkins|workspace|build_RNUM    
 Parallel job on  1  processors
 Processing $rem in /cm/shared/apps/spack/cpu/opt/spack/linux-centos8-zen2/gcc-10.2.0/qchem-5.4-akfmr7b3t57bfs6qan3padb2wnb2i7cl/config/preferences:
 Processing $rem in /home/rramji/.qchemrc:
 Symmetry turned off for PCM/SM12/SMD calculation
 Core orbitals will be frozen

 Checking the input file for inconsistencies... 	...done.

 Q-Chem warning in module forms1/BasisType.C, line 2236:

 You are not using the predefined 5D/6D in this basis set.


--------------------------------------------------------------
User input:
--------------------------------------------------------------
$molecule
0 1
C	0.208886	-8.519741	-0.174379
C	-0.472151	-7.635967	0.650052
S	1.193717	-7.651740	-1.377058
C	-0.225125	-6.261894	0.353105
H	-1.141594	-7.954738	1.458961
C	0.692811	-6.079985	-0.740583
C	1.039773	-4.798382	-1.195546
C	-0.817634	-5.153542	1.023267
C	-0.473754	-3.869626	0.565262
C	0.447350	-3.688927	-0.527745
O	-1.644483	-5.481075	2.054917
O	1.869424	-4.479871	-2.232592
C	2.939466	-5.356026	-2.565470
H	3.601405	-4.790496	-3.248608
H	2.587892	-6.268513	-3.094885
H	3.516052	-5.658187	-1.664539
C	-2.608813	-4.546999	2.524564
H	-3.270661	-5.107564	3.211568
H	-3.216646	-4.131473	1.692342
H	-2.141184	-3.712085	3.090211
C	0.690319	-2.314326	-0.823402
S	-0.985511	-2.295487	1.194935
C	-0.000000	-1.435180	-0.000000
H	1.361286	-1.993211	-1.630024
C	0.000000	0.000000	0.000000
S	0.579852	0.687566	1.510732
C	1.591625	1.895024	0.727629
C	0.583771	0.695758	-1.064665
C	1.475308	1.760606	-0.678287
C	0.542366	0.643841	-2.486150
C	1.355286	1.612843	-3.106916
S	2.154609	2.570627	-1.965735
C	1.522440	1.804778	-4.559972
O	0.924684	1.087757	-5.350277
O	2.349739	2.785679	-5.004375
F	-0.170780	-0.212144	-3.246290
C	2.588082	3.053936	-6.334976
H	3.298799	3.899999	-6.370268
H	1.655291	3.328371	-6.875609
H	3.026021	2.177385	-6.861878
H	2.183053	2.599759	1.321510
H	-0.486655	-9.146471	-0.744739
H	0.898184	-9.150570	0.399033
H	-0.832713	-1.444158	-0.687683
$end

$rem
JOBTYPE		SP
EXCHANGE	HF
CORRELATION	pRIMP2
BASIS		cc-pvtz
METHOD		rimp2
AUX_BASIS	rimp2-cc-pvtz
SOLVENT_METHOD	PCM
PURECART	11111
SYMMETRY	false
MEM_TOTAL	110000
SCF_CONVERGENCE = 6
THRESH=10
GUI = 2
$end



$solvent
dielectric 4.90
$end
--------------------------------------------------------------
 ----------------------------------------------------------------
             Standard Nuclear Orientation (Angstroms)
    I     Atom           X                Y                Z
 ----------------------------------------------------------------
    1      C       0.2088860000    -8.5197410000    -0.1743790000
    2      C      -0.4721510000    -7.6359670000     0.6500520000
    3      S       1.1937170000    -7.6517400000    -1.3770580000
    4      C      -0.2251250000    -6.2618940000     0.3531050000
    5      H      -1.1415940000    -7.9547380000     1.4589610000
    6      C       0.6928110000    -6.0799850000    -0.7405830000
    7      C       1.0397730000    -4.7983820000    -1.1955460000
    8      C      -0.8176340000    -5.1535420000     1.0232670000
    9      C      -0.4737540000    -3.8696260000     0.5652620000
   10      C       0.4473500000    -3.6889270000    -0.5277450000
   11      O      -1.6444830000    -5.4810750000     2.0549170000
   12      O       1.8694240000    -4.4798710000    -2.2325920000
   13      C       2.9394660000    -5.3560260000    -2.5654700000
   14      H       3.6014050000    -4.7904960000    -3.2486080000
   15      H       2.5878920000    -6.2685130000    -3.0948850000
   16      H       3.5160520000    -5.6581870000    -1.6645390000
   17      C      -2.6088130000    -4.5469990000     2.5245640000
   18      H      -3.2706610000    -5.1075640000     3.2115680000
   19      H      -3.2166460000    -4.1314730000     1.6923420000
   20      H      -2.1411840000    -3.7120850000     3.0902110000
   21      C       0.6903190000    -2.3143260000    -0.8234020000
   22      S      -0.9855110000    -2.2954870000     1.1949350000
   23      C       0.0000000000    -1.4351800000     0.0000000000
   24      H       1.3612860000    -1.9932110000    -1.6300240000
   25      C       0.0000000000     0.0000000000     0.0000000000
   26      S       0.5798520000     0.6875660000     1.5107320000
   27      C       1.5916250000     1.8950240000     0.7276290000
   28      C       0.5837710000     0.6957580000    -1.0646650000
   29      C       1.4753080000     1.7606060000    -0.6782870000
   30      C       0.5423660000     0.6438410000    -2.4861500000
   31      C       1.3552860000     1.6128430000    -3.1069160000
   32      S       2.1546090000     2.5706270000    -1.9657350000
   33      C       1.5224400000     1.8047780000    -4.5599720000
   34      O       0.9246840000     1.0877570000    -5.3502770000
   35      O       2.3497390000     2.7856790000    -5.0043750000
   36      F      -0.1707800000    -0.2121440000    -3.2462900000
   37      C       2.5880820000     3.0539360000    -6.3349760000
   38      H       3.2987990000     3.8999990000    -6.3702680000
   39      H       1.6552910000     3.3283710000    -6.8756090000
   40      H       3.0260210000     2.1773850000    -6.8618780000
   41      H       2.1830530000     2.5997590000     1.3215100000
   42      H      -0.4866550000    -9.1464710000    -0.7447390000
   43      H       0.8981840000    -9.1505700000     0.3990330000
   44      H      -0.8327130000    -1.4441580000    -0.6876830000
 ----------------------------------------------------------------
 Nuclear Repulsion Energy =        3394.80910063 hartrees
 There are      120 alpha and      120 beta electrons
 Requested basis set is cc-pVTZ
 There are 388 shells and 1096 basis functions

 Total QAlloc Memory Limit 110000 MB
 Mega-Array Size       188 MB
 MEM_STATIC part       192 MB
 Discretize the solute cavity surface with Lebedev spheres
	Using 110 Lebedev grid points for each H atom
	Using 194 Lebedev grid points for other atoms
	Atomic van der Waals radii will be scaled by 1.20
 Remove points where switching function is < 1.0e-08
 Keep 2939 surface tesserae and discard 4337 interior tesserae
 Molecular Surface Area = 438.465 Angst**2
 Requested basis set is rimp2-cc-pVTZ
 There are 853 shells and 2963 basis functions
 A cutoff of  1.0D-10 yielded  34155 shell pairs
 There are    257031 function pairs (    332176 Cartesian)
 Smallest overlap matrix eigenvalue = 2.10E-05

 Scale SEOQF with 1.000000e-01/1.000000e-02/1.000000e-02

 Standard Electronic Orientation quadrupole field applied
 Nucleus-field energy     =     0.0000000324 hartrees
 Guess from superposition of atomic densities
 Warning:  Energy on first SCF cycle will be non-variational
 SAD guess density has 240.000000 electrons

 -----------------------------------------------------------------------
  General SCF calculation program by
  Eric Jon Sundstrom, Paul Horn, Yuezhi Mao, Dmitri Zuev, Alec White,
  David Stuck, Shaama M.S., Shane Yost, Joonho Lee, David Small,
  Daniel Levine, Susi Lehtola, Hugh Burton, Evgeny Epifanovsky,
  Bang C. Huynh
 -----------------------------------------------------------------------
 Hartree-Fock
 using 64 threads for integral computing
 -------------------------------------------------------
 OpenMP Integral computing Module                
 Release: version 1.0, May 2013, Q-Chem Inc. Pittsburgh 
 -------------------------------------------------------
 A restricted SCF calculation will be
 performed using DIIS
 SCF converges when DIIS error is below 1.0e-06
 ---------------------------------------
  Cycle       Energy         DIIS error
 ---------------------------------------
    1   -2767.3804201995      1.77e-02  
    2   -2754.8421095181      1.54e-03  
    3   -2755.1906585843      8.78e-04  
    4   -2755.2810949666      2.55e-04  
    5   -2755.2947821687      7.27e-05  
    6   -2755.2963200236      2.61e-05  
    7   -2755.2967263200      1.36e-05  
    8   -2755.2968552713      5.74e-06  
    9   -2755.2968851994      3.06e-06  
   10   -2755.2968926429      1.45e-06  
   11   -2755.2968948697      7.21e-07  Convergence criterion met
 ---------------------------------------
 SCF time:   CPU 7687.00s  wall 278.00s 

************** Final PCM Free Energy Summary **************
 G_electrostatic  =      -0.02159843 hartree =     -13.55321793 kcal/mol
 G_cavitation     =       0.00000000 hartree =       0.00000000 kcal/mol
 G_dispersion     =       0.00000000 hartree =       0.00000000 kcal/mol
 G_repulsion      =       0.00000000 hartree =       0.00000000 kcal/mol
 --------------------------------------------------
 Non-electrostatic Free Energy =       0.00000000 hartree =       0.00000000 kcal/mol
 Total                         =      -0.02159843 hartree =     -13.55321793 kcal/mol
 --------------------------------------------------
 SCF Energy (H0 + V/2)                       =   -2755.29689487 
 Solute Internal Energy (H0)                 =   -2755.27529644 
 Total Free Energy (H0 + V/2 + non-elec)     =   -2755.29689487 hartree
                                             = -1728974.89694762 kcal/mol
***********************************************************

 SCF   energy in the final basis set =    -2755.2968948697
 Total energy in the final basis set =    -2755.2968948697


 --------------------------------------------------------------
  Generalized many-body perturbation theory program
  by Joonho Lee, Fazle Rob, Xintian Feng, Evgeny Epifanovsky

 No regularization used 
 (reg. param. = 0.0000e+00)
  (P|Q)^-1/2 Time:  CPU 139.04 s  wall 2.97 s

 In RI-MP2 calculation: 
 # of frozen core orbitals: 45

 Components of the RIMP2 correlation energy:
        aaaa    correlation energy =        -0.6724807894 a.u.
        abab    correlation energy =        -3.7582040197 a.u.
        bbbb    correlation energy =        -0.6724807894 a.u.
        non-Brillouin singles      =        -0.0000000000 a.u.
        total same-spin energy     =        -1.3449615788 a.u.
        total opposite-spin energy =        -3.7582040197 a.u.

 Total  RIMP2   correlation energy =        -5.1031655985 a.u.
        RIMP2         total energy =     -2760.4000604682 a.u.

 RI-MP2 Energy Time:  CPU 3005.34 s  wall 49.65 s
 
 --------------------------------------------------------------
 
                    Orbital Energies (a.u.)
 --------------------------------------------------------------
 
 Alpha MOs
 -- Occupied --
-92.0125 -92.0003 -91.9781 -91.9573 -26.3384 -20.6143 -20.5867 -20.5866
-20.5534 -11.4134 -11.3793 -11.3088 -11.3069 -11.3044 -11.3037 -11.3018
-11.3001 -11.2897 -11.2881 -11.2843 -11.2831 -11.2822 -11.2790 -11.2736
-11.2716 -11.2576 -11.2566 -11.2488 -11.2354  -9.0116  -9.0041  -8.9803
 -8.9599  -6.6923  -6.6915  -6.6911  -6.6853  -6.6847  -6.6834  -6.6614
 -6.6606  -6.6593  -6.6412  -6.6402  -6.6392  -1.6516  -1.4742  -1.4101
 -1.4084  -1.3699  -1.2427  -1.2085  -1.1749  -1.1451  -1.0993  -1.0537
 -1.0457  -1.0310  -1.0082  -0.9978  -0.9738  -0.9598  -0.9486  -0.9414
 -0.8936  -0.8752  -0.8609  -0.8077  -0.7967  -0.7857  -0.7781  -0.7735
 -0.7610  -0.7337  -0.7217  -0.7181  -0.6977  -0.6935  -0.6857  -0.6805
 -0.6758  -0.6729  -0.6557  -0.6482  -0.6370  -0.6270  -0.6193  -0.6144
 -0.6114  -0.6089  -0.5991  -0.5944  -0.5804  -0.5680  -0.5579  -0.5559
 -0.5428  -0.5335  -0.5298  -0.5231  -0.5123  -0.5073  -0.5063  -0.5013
 -0.4884  -0.4835  -0.4737  -0.4687  -0.4633  -0.4630  -0.4593  -0.4455
 -0.4263  -0.3987  -0.3851  -0.3693  -0.3509  -0.2959  -0.2877  -0.2165
 -- Virtual --
  0.0138   0.0554   0.1107   0.1268   0.1397   0.1456   0.1532   0.1551
  0.1583   0.1598   0.1625   0.1734   0.1820   0.1864   0.1875   0.1967
  0.1997   0.2031   0.2060   0.2075   0.2163   0.2218   0.2231   0.2275
  0.2291   0.2330   0.2405   0.2458   0.2542   0.2560   0.2648   0.2710
  0.2757   0.2890   0.3091   0.3111   0.3257   0.3362   0.3436   0.3471
  0.3510   0.3581   0.3598   0.3651   0.3680   0.3714   0.3795   0.3796
  0.3876   0.3898   0.3918   0.4039   0.4100   0.4125   0.4187   0.4199
  0.4282   0.4283   0.4301   0.4352   0.4370   0.4409   0.4435   0.4480
  0.4549   0.4635   0.4658   0.4687   0.4716   0.4738   0.4776   0.4838
  0.4858   0.4913   0.4958   0.4985   0.5058   0.5107   0.5140   0.5187
  0.5259   0.5279   0.5307   0.5355   0.5394   0.5452   0.5466   0.5508
  0.5569   0.5600   0.5606   0.5641   0.5678   0.5700   0.5782   0.5824
  0.5862   0.5879   0.5904   0.5957   0.5989   0.6015   0.6087   0.6119
  0.6160   0.6177   0.6206   0.6218   0.6231   0.6267   0.6306   0.6338
  0.6378   0.6404   0.6420   0.6479   0.6494   0.6501   0.6547   0.6572
  0.6605   0.6647   0.6759   0.6775   0.6799   0.6811   0.6927   0.6985
  0.7016   0.7024   0.7104   0.7133   0.7186   0.7250   0.7284   0.7404
  0.7459   0.7513   0.7593   0.7642   0.7714   0.7773   0.7827   0.7874
  0.7954   0.7984   0.8012   0.8053   0.8060   0.8100   0.8200   0.8270
  0.8297   0.8375   0.8448   0.8553   0.8631   0.8659   0.8716   0.8812
  0.8858   0.8920   0.8972   0.8991   0.9041   0.9086   0.9111   0.9172
  0.9209   0.9291   0.9353   0.9415   0.9427   0.9475   0.9533   0.9550
  0.9617   0.9632   0.9656   0.9722   0.9768   0.9848   0.9886   0.9930
  0.9968   1.0029   1.0047   1.0101   1.0180   1.0202   1.0230   1.0294
  1.0334   1.0471   1.0495   1.0534   1.0551   1.0594   1.0633   1.0663
  1.0703   1.0744   1.0802   1.0884   1.0934   1.0943   1.1058   1.1136
  1.1162   1.1206   1.1274   1.1339   1.1406   1.1422   1.1477   1.1522
  1.1580   1.1624   1.1648   1.1705   1.1714   1.1759   1.1788   1.1840
  1.1875   1.1923   1.1959   1.2036   1.2071   1.2082   1.2145   1.2174
  1.2230   1.2312   1.2375   1.2409   1.2448   1.2496   1.2563   1.2585
  1.2623   1.2687   1.2732   1.2801   1.2860   1.2919   1.2950   1.2975
  1.3034   1.3108   1.3177   1.3217   1.3289   1.3384   1.3405   1.3455
  1.3463   1.3506   1.3599   1.3658   1.3767   1.3853   1.3875   1.3986
  1.4088   1.4105   1.4148   1.4247   1.4306   1.4351   1.4418   1.4555
  1.4649   1.4700   1.4788   1.4801   1.4854   1.4904   1.4926   1.5001
  1.5069   1.5111   1.5144   1.5191   1.5257   1.5290   1.5334   1.5400
  1.5418   1.5470   1.5530   1.5571   1.5608   1.5685   1.5718   1.5791
  1.5845   1.5962   1.6025   1.6076   1.6186   1.6227   1.6296   1.6332
  1.6449   1.6485   1.6569   1.6585   1.6655   1.6740   1.6779   1.6864
  1.6947   1.7005   1.7053   1.7208   1.7257   1.7307   1.7375   1.7438
  1.7534   1.7609   1.7651   1.7760   1.7919   1.8019   1.8082   1.8164
  1.8297   1.8298   1.8327   1.8373   1.8565   1.8619   1.8690   1.8707
  1.8830   1.8856   1.9015   1.9133   1.9144   1.9243   1.9309   1.9339
  1.9434   1.9537   1.9608   1.9738   1.9744   1.9868   1.9929   1.9988
  2.0166   2.0214   2.0283   2.0363   2.0402   2.0413   2.0524   2.0629
  2.0750   2.0782   2.0937   2.0954   2.1045   2.1105   2.1234   2.1355
  2.1424   2.1464   2.1549   2.1644   2.1689   2.1790   2.1857   2.1943
  2.1948   2.2027   2.2141   2.2181   2.2243   2.2315   2.2354   2.2376
  2.2532   2.2596   2.2629   2.2733   2.2764   2.2827   2.2881   2.2991
  2.3033   2.3080   2.3195   2.3274   2.3325   2.3481   2.3569   2.3622
  2.3716   2.3908   2.3977   2.4009   2.4064   2.4099   2.4182   2.4294
  2.4387   2.4475   2.4585   2.4643   2.4698   2.4820   2.4895   2.5038
  2.5091   2.5163   2.5255   2.5308   2.5357   2.5420   2.5637   2.5759
  2.5806   2.5845   2.5961   2.6071   2.6137   2.6215   2.6235   2.6270
  2.6291   2.6392   2.6431   2.6474   2.6515   2.6588   2.6705   2.6751
  2.6843   2.6902   2.6933   2.6961   2.7023   2.7041   2.7204   2.7293
  2.7305   2.7368   2.7378   2.7453   2.7564   2.7629   2.7684   2.7722
  2.7766   2.7901   2.7929   2.8017   2.8072   2.8163   2.8267   2.8350
  2.8459   2.8479   2.8561   2.8605   2.8668   2.8687   2.8727   2.8766
  2.8844   2.8867   2.8997   2.9107   2.9242   2.9276   2.9393   2.9510
  2.9522   2.9555   2.9608   2.9693   2.9816   2.9851   2.9978   3.0103
  3.0124   3.0171   3.0219   3.0334   3.0361   3.0419   3.0442   3.0489
  3.0596   3.0628   3.0729   3.0841   3.0894   3.0906   3.0978   3.1020
  3.1080   3.1091   3.1209   3.1258   3.1333   3.1394   3.1406   3.1476
  3.1528   3.1605   3.1634   3.1671   3.1681   3.1731   3.1824   3.1859
  3.1891   3.1935   3.2013   3.2050   3.2122   3.2143   3.2195   3.2253
  3.2311   3.2353   3.2403   3.2444   3.2531   3.2587   3.2630   3.2695
  3.2737   3.2763   3.2810   3.2822   3.2890   3.2929   3.2944   3.2986
  3.3031   3.3094   3.3140   3.3159   3.3245   3.3347   3.3423   3.3479
  3.3492   3.3543   3.3556   3.3584   3.3617   3.3625   3.3715   3.3756
  3.3781   3.3816   3.3829   3.3949   3.3983   3.4020   3.4053   3.4078
  3.4122   3.4191   3.4280   3.4310   3.4370   3.4394   3.4439   3.4481
  3.4516   3.4563   3.4590   3.4628   3.4735   3.4755   3.4792   3.4827
  3.4897   3.5008   3.5054   3.5081   3.5144   3.5229   3.5256   3.5273
  3.5434   3.5469   3.5520   3.5554   3.5605   3.5750   3.5837   3.5861
  3.5874   3.5911   3.5979   3.6035   3.6051   3.6105   3.6129   3.6153
  3.6292   3.6370   3.6380   3.6418   3.6475   3.6500   3.6552   3.6608
  3.6649   3.6657   3.6754   3.6807   3.6825   3.6879   3.6964   3.6987
  3.7061   3.7094   3.7142   3.7175   3.7234   3.7258   3.7285   3.7335
  3.7374   3.7407   3.7534   3.7583   3.7614   3.7650   3.7740   3.7805
  3.7894   3.7946   3.8007   3.8052   3.8082   3.8142   3.8207   3.8284
  3.8316   3.8348   3.8377   3.8456   3.8484   3.8518   3.8537   3.8631
  3.8665   3.8741   3.8789   3.8849   3.8885   3.8960   3.9100   3.9172
  3.9245   3.9283   3.9343   3.9380   3.9411   3.9542   3.9641   3.9648
  3.9718   3.9775   3.9819   3.9929   3.9998   4.0029   4.0132   4.0190
  4.0221   4.0261   4.0366   4.0498   4.0517   4.0589   4.0679   4.0686
  4.0776   4.0814   4.0893   4.0939   4.0976   4.1030   4.1159   4.1236
  4.1279   4.1454   4.1592   4.1641   4.1675   4.1732   4.1782   4.1813
  4.1876   4.1892   4.1982   4.2087   4.2152   4.2219   4.2420   4.2438
  4.2494   4.2601   4.2647   4.2725   4.2814   4.2849   4.3060   4.3110
  4.3182   4.3268   4.3357   4.3457   4.3484   4.3544   4.3599   4.3698
  4.3749   4.3773   4.3808   4.3906   4.3990   4.4086   4.4128   4.4200
  4.4230   4.4263   4.4284   4.4310   4.4440   4.4490   4.4575   4.4673
  4.4711   4.4824   4.4874   4.4963   4.5060   4.5146   4.5185   4.5233
  4.5376   4.5494   4.5559   4.5600   4.5682   4.5752   4.5800   4.5977
  4.5987   4.6134   4.6175   4.6289   4.6335   4.6396   4.6429   4.6568
  4.6646   4.6717   4.6776   4.6824   4.6881   4.7045   4.7181   4.7278
  4.7363   4.7424   4.7459   4.7803   4.7906   4.7969   4.8107   4.8206
  4.8259   4.8353   4.8442   4.8505   4.8737   4.8761   4.8833   4.8943
  4.9187   4.9254   4.9407   4.9441   4.9572   4.9633   4.9728   4.9844
  4.9884   5.0003   5.0093   5.0108   5.0140   5.0255   5.0458   5.0479
  5.0756   5.0780   5.1036   5.1080   5.1225   5.1454   5.1642   5.1713
  5.1899   5.1923   5.1995   5.2001   5.2168   5.2220   5.2285   5.2474
  5.2575   5.2587   5.2771   5.2876   5.2954   5.3156   5.3268   5.3322
  5.3353   5.3484   5.3539   5.3653   5.3676   5.3840   5.3946   5.3996
  5.4042   5.4080   5.4200   5.4444   5.4720   5.4792   5.4957   5.4975
  5.5073   5.5172   5.5220   5.5398   5.5655   5.5722   5.5756   5.5903
  5.5963   5.6101   5.6148   5.6150   5.6360   5.6443   5.6725   5.6919
  5.7245   5.7352   5.7651   5.7862   5.7988   5.8248   5.8364   5.8472
  5.8595   5.8858   5.9053   5.9488   5.9598   5.9675   5.9801   6.0045
  6.0340   6.0528   6.1115   6.1252   6.1321   6.1408   6.1721   6.1775
  6.1842   6.1950   6.2287   6.2432   6.2522   6.2695   6.2860   6.2948
  6.3067   6.3453   6.3635   6.4345   6.4627   6.4948   6.5203   6.5520
  6.5541   6.5715   6.6485   6.6739   6.6828   6.7190   6.7366   6.7462
  6.8105   6.8576   6.8590   6.8806   6.8995   6.9884   7.1317   7.1469
  7.1764   7.2091   7.2225   7.2406   7.3238   7.3289   7.3426   7.3703
  7.3732   7.4250   7.4605   7.4831   7.4867   7.4980   7.5175   7.5464
  7.6099   7.7389   7.7679   7.8039   7.8296   7.9061   7.9283   7.9573
  8.0032   8.1185   8.3533   8.5706   8.9370   9.0095   9.3636   9.4970
  9.6978  10.3098  11.2343  11.3916  11.9349  12.0598  12.1272  12.3607
 12.4697  12.4988  12.6723  12.9383  12.9805  13.2434  13.4799  13.5113
 13.7454  13.8721  13.9215  13.9684  14.1722  14.3184  15.1154  15.2428
 --------------------------------------------------------------
 
          Ground-State Mulliken Net Atomic Charges

     Atom                 Charge (a.u.)
  ----------------------------------------
      1 C                    -0.069908
      2 C                    -0.264549
      3 S                    -0.137245
      4 C                    -0.045732
      5 H                     0.192818
      6 C                    -0.053537
      7 C                     0.225690
      8 C                     0.230031
      9 C                    -0.071626
     10 C                    -0.042595
     11 O                    -0.334888
     12 O                    -0.343330
     13 C                    -0.082704
     14 H                     0.120150
     15 H                     0.092294
     16 H                     0.092477
     17 C                    -0.087295
     18 H                     0.124080
     19 H                     0.092724
     20 H                     0.089697
     21 C                    -0.298527
     22 S                    -0.095076
     23 C                     0.096295
     24 H                     0.203690
     25 C                    -0.091998
     26 S                     0.112392
     27 C                    -0.210728
     28 C                    -0.096376
     29 C                    -0.013862
     30 C                     0.362345
     31 C                    -0.135250
     32 S                     0.055265
     33 C                     0.459744
     34 O                    -0.446021
     35 O                    -0.297617
     36 F                    -0.213903
     37 C                    -0.054718
     38 H                     0.117119
     39 H                     0.085173
     40 H                     0.084999
     41 H                     0.215917
     42 H                     0.116825
     43 H                     0.114404
     44 H                     0.203355
  ----------------------------------------
  Sum of atomic charges =     0.000000

 -----------------------------------------------------------------
                    Cartesian Multipole Moments
 -----------------------------------------------------------------
    Charge (ESU x 10^10)
                 0.0000
    Dipole Moment (Debye)
         X       2.2400      Y       3.5319      Z       2.6365
       Tot       4.9440
    Quadrupole Moments (Debye-Ang)
        XX    -180.6106     XY      11.1516     YY    -182.1094
        XZ     -15.8489     YZ     -11.7323     ZZ    -200.1807
    Octopole Moments (Debye-Ang^2)
       XXX    -347.9373    XXY     392.1690    XYY    -111.3047
       YYY    1118.9547    XXZ     161.2654    XYZ      12.3399
       YYZ     183.0943    XZZ     -48.0890    YZZ     503.5085
       ZZZ     576.7441
    Hexadecapole Moments (Debye-Ang^3)
      XXXX   -2506.8993   XXXY    -284.7922   XXYY   -3705.7443
      XYYY     -96.2503   YYYY  -19001.1736   XXXZ    1369.9406
      XXYZ     190.2306   XYYZ     254.8976   YYYZ     418.2313
      XXZZ   -1261.0938   XYZZ     165.1379   YYZZ   -4394.1336
      XZZZ     982.4027   YZZZ     162.2615   ZZZZ   -6763.9064
 -----------------------------------------------------------------
 Total job time:  331.02s(wall), 10793.67s(cpu) 
 Sun Sep 24 18:35:25 2023

        *************************************************************
        *                                                           *
        *  Thank you very much for using Q-Chem.  Have a nice day.  *
        *                                                           *
        *************************************************************


0 sent ACK to 0 
now end server 0 ... 
cleanup process ... done
remove work dirs ./qchem947133.0 -- ./qchem947133.0
rm -rf ./qchem947133.0
rm -rf ./qchem947133
