You are running Q-Chem version: 5.4.0

#
# job setting
#
local host:  exp-2-55
current dir: /expanse/lustre/projects/csd626/rramji/aromodel/PTB7_fin/Hydrogenated_Rotation_Test
input file:  fin_bdt_Phi_10_Theta_330_fin_ftt_Hydrogenated.qcin
output file: 
nprocs     : 1
nthreads   : 64
#
# qchem installation setting
#
QC:          /cm/shared/apps/spack/cpu/opt/spack/linux-centos8-zen2/gcc-10.2.0/qchem-5.4-akfmr7b3t57bfs6qan3padb2wnb2i7cl
QCAUX:       /cm/shared/apps/spack/cpu/opt/spack/linux-centos8-zen2/gcc-10.2.0/qchem-5.4-akfmr7b3t57bfs6qan3padb2wnb2i7cl/qcaux
QCPROG:      /cm/shared/apps/spack/cpu/opt/spack/linux-centos8-zen2/gcc-10.2.0/qchem-5.4-akfmr7b3t57bfs6qan3padb2wnb2i7cl/exe/qcprog.exe
QCPROG_S:    /cm/shared/apps/spack/cpu/opt/spack/linux-centos8-zen2/gcc-10.2.0/qchem-5.4-akfmr7b3t57bfs6qan3padb2wnb2i7cl/exe/qcprog.exe_s
PARALLEL:    -DPARALLEL
QCMPI:       mpich
#
# qchem directory setting
#
qcrun:       qchem3514358
QCSCRATCH:   .
QCLOCALSCR:  
QCTMPDIR:    .
QCFILEPREF:  ./qchem3514358
QCSAVEDIR:   
workdirs:    ./qchem3514358
workdir0:    ./qchem3514358
partmpdirs =  
#
# parallel setting
#
QCRSH:           ssh
QCMPI:           mpich
QCMPIRUN:        /cm/shared/apps/spack/cpu/opt/spack/linux-centos8-zen2/gcc-10.2.0/qchem-5.4-akfmr7b3t57bfs6qan3padb2wnb2i7cl/bin/mpi/mpirun_qchem
QCMACHINEFILE:   ./qchem3514358/hostfile
exp-2-55

#
# env setting
#
exported envs:   QC QCAUX QCSCRATCH QCRUNNAME QCFILEPREF QCPROG QCPROG_S GUIFILE

Running Job 1 of 1 fin_bdt_Phi_10_Theta_330_fin_ftt_Hydrogenated.qcin
qchem fin_bdt_Phi_10_Theta_330_fin_ftt_Hydrogenated.qcin_3514358.0 ./qchem3514358/ 1
/cm/shared/apps/spack/cpu/opt/spack/linux-centos8-zen2/gcc-10.2.0/qchem-5.4-akfmr7b3t57bfs6qan3padb2wnb2i7cl/bin/mpi/mpirun_qchem -machinefile ./qchem3514358/hostfile -np 1 /cm/shared/apps/spack/cpu/opt/spack/linux-centos8-zen2/gcc-10.2.0/qchem-5.4-akfmr7b3t57bfs6qan3padb2wnb2i7cl/exe/qcprog.exe fin_bdt_Phi_10_Theta_330_fin_ftt_Hydrogenated.qcin_3514358.0 ./qchem3514358/

Process 0 of 1 is on exp-2-55 - thread support 0
initial socket setup ...start
initial socket setup ...done 
now start server 0 ... 
                  Welcome to Q-Chem
     A Quantum Leap Into The Future Of Chemistry


 Q-Chem 5.4, Q-Chem, Inc., Pleasanton, CA (2021)

 License issued to: University of California, San Diego (site)

 E. Epifanovsky,  A. T. B. Gilbert,  Xintian Feng,  Joonho Lee,  Yuezhi Mao,  
 N. Mardirossian,  P. Pokhilko,  A. White,  M. Wormit,  M. P. Coons,  
 A. L. Dempwolff,  Zhengting Gan,  D. Hait,  P. R. Horn,  L. D. Jacobson,  
 I. Kaliman,  J. Kussmann,  A. W. Lange,  Ka Un Lao,  D. S. Levine,  Jie Liu,  
 S. C. McKenzie,  A. F. Morrison,  K. Nanda,  F. Plasser,  D. R. Rehn,  
 M. L. Vidal,  Zhi-Qiang You,  Ying Zhu,  B. Alam,  B. Albrecht,  
 A. Aldossary,  E. Alguire,  J. H. Andersen,  D. Barton,  K. Begam,  A. Behn,  
 Y. A. Bernard,  E. J. Berquist,  H. Burton,  A. Carreras,  K. Carter-Fenk,  
 R. Chakraborty,  A. D. Chien,  K. D. Closser,  V. Cofer-Shabica,  
 S. Dasgupta,  Jia Deng,  M. de Wergifosse,  M. Diedenhofen,  Hainam Do,  
 S. Ehlert,  Po-Tung Fang,  S. Fatehi,  Qingguo Feng,  J. Gayvert,  
 Qinghui Ge,  G. Gidofalvi,  M. Goldey,  J. Gomes,  C. Gonzalez-Espinoza,  
 S. Gulania,  A. Gunina,  M. W. D. Hanson-Heine,  P. H. P. Harbach,  
 A. W. Hauser,  M. F. Herbst,  M. Hernandez Vera,  M. Hodecker,  
 Z. C. Holden,  S. Houck,  Xunkun Huang,  Kerwin Hui,  B. C. Huynh,  
 M. Ivanov,  Hyunjun Ji,  Hanjie Jiang,  B. Kaduk,  S. Kaehler,  
 K. Khistyaev,  Jaehoon Kim,  P. Klunzinger,  Z. Koczor-Benda,  
 Joong Hoon Koh,  D. Kosenkov,  L. Koulias,  T. Kowalczyk,  C. M. Krauter,  
 K. Kue,  A. Kunitsa,  T. Kus,  A. Landau,  K. V. Lawler,  D. Lefrancois,  
 S. Lehtola,  Rain Li,  Yi-Pei Li,  Jiashu Liang,  M. Liebenthal,  
 Hung-Hsuan Lin,  You-Sheng Lin,  Fenglai Liu,  Kuan-Yu Liu,  
 M. Loipersberger,  A. Luenser,  A. Manjanath,  P. Manohar,  E. Mansoor,  
 S. F. Manzer,  Shan-Ping Mao,  A. V. Marenich,  T. Markovich,  S. Mason,  
 S. A. Maurer,  P. F. McLaughlin,  M. F. S. J. Menger,  J.-M. Mewes,  
 S. A. Mewes,  P. Morgante,  J. W. Mullinax,  T. S. Nguyen-Beck,  
 K. J. Oosterbaan,  G. Paran,  Alexander C. Paul,  Suranjan K. Paul,  
 F. Pavosevic,  Zheng Pei,  S. Prager,  E. I. Proynov,  E. Ramos,  B. Rana,  
 A. E. Rask,  A. Rettig,  R. M. Richard,  F. Rob,  E. Rossomme,  T. Scheele,  
 M. Scheurer,  M. Schneider,  N. Sergueev,  S. M. Sharada,  W. Skomorowski,  
 D. W. Small,  C. J. Stein,  Yu-Chuan Su,  E. J. Sundstrom,  Zhen Tao,  
 J. Thirman,  T. Tsuchimochi,  N. M. Tubman,  S. P. Veccham,  O. Vydrov,  
 J. Wenzel,  J. Witte,  A. Yamada,  Kun Yao,  S. Yeganeh,  S. R. Yost,  
 A. Zech,  Igor Ying Zhang,  Xing Zhang,  Yu Zhang,  D. Zuev,  
 A. Aspuru-Guzik,  A. T. Bell,  N. A. Besley,  K. B. Bravaya,  B. R. Brooks,  
 D. Casanova,  Jeng-Da Chai,  S. Coriani,  C. J. Cramer,  
 A. E. DePrince, III,  R. A. DiStasio Jr.,  A. Dreuw,  B. D. Dunietz,  
 T. R. Furlani,  W. A. Goddard III,  S. Grimme,  S. Hammes-Schiffer,  
 T. Head-Gordon,  W. J. Hehre,  Chao-Ping Hsu,  T.-C. Jagau,  Yousung Jung,  
 A. Klamt,  Jing Kong,  D. S. Lambrecht,  WanZhen Liang,  N. J. Mayhall,  
 C. W. McCurdy,  J. B. Neaton,  C. Ochsenfeld,  J. A. Parkhill,  R. Peverati,  
 V. A. Rassolov,  Yihan Shao,  L. V. Slipchenko,  T. Stauch,  R. P. Steele,  
 J. E. Subotnik,  A. J. W. Thom,  A. Tkatchenko,  D. G. Truhlar,  
 T. Van Voorhis,  T. A. Wesolowski,  K. B. Whaley,  H. L. Woodcock III,  
 P. M. Zimmerman,  S. Faraji,  P. M. W. Gill,  M. Head-Gordon,  
 J. M. Herbert,  A. I. Krylov

 Contributors to earlier versions of Q-Chem not listed above: 
 R. D. Adamson,  B. Austin,  R. Baer,  J. Baker,  G. J. O. Beran,  
 K. Brandhorst,  S. T. Brown,  E. F. C. Byrd,  A. K. Chakraborty,  
 G. K. L. Chan,  Chun-Min Chang,  Yunqing Chen,  C.-L. Cheng,  
 Siu Hung Chien,  D. M. Chipman,  D. L. Crittenden,  H. Dachsel,  
 R. J. Doerksen,  A. D. Dutoi,  R. G. Edgar,  J. Fosso-Tande,  
 L. Fusti-Molnar,  D. Ghosh,  A. Ghysels,  A. Golubeva-Zadorozhnaya,  
 J. Gonthier,  M. S. Gordon,  S. R. Gwaltney,  G. Hawkins,  J. E. Herr,  
 A. Heyden,  S. Hirata,  E. G. Hohenstein,  G. Kedziora,  F. J. Keil,  
 C. Kelley,  Jihan Kim,  R. A. King,  R. Z. Khaliullin,  P. P. Korambath,  
 W. Kurlancheek,  A. Laurent,  A. M. Lee,  M. S. Lee,  S. V. Levchenko,  
 Ching Yeh Lin,  D. Liotard,  E. Livshits,  R. C. Lochan,  I. Lotan,  
 L. A. Martinez-Martinez,  P. E. Maslen,  N. Nair,  D. P. O'Neill,  
 D. Neuhauser,  E. Neuscamman,  C. M. Oana,  R. Olivares-Amaya,  R. Olson,  
 T. M. Perrine,  B. Peters,  P. A. Pieniazek,  A. Prociuk,  Y. M. Rhee,  
 J. Ritchie,  M. A. Rohrdanz,  E. Rosta,  N. J. Russ,  H. F. Schaefer III,  
 M. W. Schmidt,  N. E. Schultz,  S. Sharma,  N. Shenvi,  C. D. Sherrill,  
 A. C. Simmonett,  A. Sodt,  T. Stein,  D. Stuck,  K. S. Thanthiriwatte,  
 V. Vanovschi,  L. Vogt,  Tao Wang,  A. Warshel,  M. A. Watson,  
 C. F. Williams,  Q. Wu,  X. Xu,  Jun Yang,  W. Zhang,  Yan Zhao

 Please cite Q-Chem as follows:
 Y. Shao et al., Mol. Phys. 113, 184-215 (2015)
 DOI: 10.1080/00268976.2014.952696

 Q-Chem 5.4.0 for Intel X86 EM64T Linux

 Parts of Q-Chem use Armadillo 9.800.1 (Horizon Scraper).
 http://arma.sourceforge.net/

 Q-Chem begins on Sun Sep 24 19:39:15 2023  

 Host: 
0

     Scratch files written to ./qchem3514358//
 May1621 |scratch|qcdevops|jenkins|workspace|build_RNUM    
 Parallel job on  1  processors
 Processing $rem in /cm/shared/apps/spack/cpu/opt/spack/linux-centos8-zen2/gcc-10.2.0/qchem-5.4-akfmr7b3t57bfs6qan3padb2wnb2i7cl/config/preferences:
 Processing $rem in /home/rramji/.qchemrc:
 Symmetry turned off for PCM/SM12/SMD calculation
 Core orbitals will be frozen

 Checking the input file for inconsistencies... 	...done.

 Q-Chem warning in module forms1/BasisType.C, line 2236:

 You are not using the predefined 5D/6D in this basis set.


--------------------------------------------------------------
User input:
--------------------------------------------------------------
$molecule
0 1
C	0.092419	-8.519741	0.255929
C	-0.449364	-7.635967	-0.666007
S	0.885736	-7.651740	1.592708
C	-0.254813	-6.261894	-0.332317
H	-0.980526	-7.954738	-1.571741
C	0.458965	-6.079985	0.904324
C	0.767823	-4.798382	1.385968
C	-0.681909	-5.153542	-1.118303
C	-0.369139	-3.869626	-0.638514
C	0.342916	-3.688927	0.600871
O	-1.368544	-5.481075	-2.248132
O	1.458570	-4.479871	2.520275
C	1.405396	-5.356026	3.639637
H	1.820940	-4.790496	4.495304
H	2.023129	-6.268513	3.490336
H	0.361595	-5.658187	3.873314
C	-1.480048	-4.546999	-3.314934
H	-1.899255	-5.107564	-4.171837
H	-0.490123	-4.131473	-3.601473
H	-2.171521	-3.712085	-3.068969
C	0.537642	-2.314326	0.930308
S	-0.785807	-2.295487	-1.334769
C	-0.000000	-1.435180	-0.000000
H	1.066134	-1.993211	1.836691
C	0.000000	0.000000	0.000000
S	0.158383	0.885376	1.510732
C	0.430876	2.436951	0.727629
C	0.157682	0.894430	-1.064665
C	0.397351	2.262384	-0.678287
C	0.147783	0.828765	-2.486150
C	0.367291	2.074406	-3.106916
S	0.580633	3.303533	-1.965735
C	0.416083	2.324204	-4.559972
O	0.256921	1.404367	-5.350277
O	0.642094	3.587338	-5.004375
F	-0.041828	-0.269113	-3.246290
C	0.714377	3.938827	-6.334976
H	0.906844	5.026898	-6.370268
H	-0.230661	3.710099	-6.875609
H	1.531918	3.398681	-6.861878
H	0.590699	3.342984	1.321510
H	0.866272	-9.146471	-0.202590
H	-0.682165	-9.150570	0.707539
H	0.931016	-1.444158	-0.547293
$end

$rem
JOBTYPE		SP
EXCHANGE	HF
CORRELATION	pRIMP2
BASIS		cc-pvtz
METHOD		rimp2
AUX_BASIS	rimp2-cc-pvtz
SOLVENT_METHOD	PCM
PURECART	11111
SYMMETRY	false
MEM_TOTAL	110000
SCF_CONVERGENCE = 6
THRESH=10
GUI = 2
$end



$solvent
dielectric 4.90
$end
--------------------------------------------------------------
 ----------------------------------------------------------------
             Standard Nuclear Orientation (Angstroms)
    I     Atom           X                Y                Z
 ----------------------------------------------------------------
    1      C       0.0924190000    -8.5197410000     0.2559290000
    2      C      -0.4493640000    -7.6359670000    -0.6660070000
    3      S       0.8857360000    -7.6517400000     1.5927080000
    4      C      -0.2548130000    -6.2618940000    -0.3323170000
    5      H      -0.9805260000    -7.9547380000    -1.5717410000
    6      C       0.4589650000    -6.0799850000     0.9043240000
    7      C       0.7678230000    -4.7983820000     1.3859680000
    8      C      -0.6819090000    -5.1535420000    -1.1183030000
    9      C      -0.3691390000    -3.8696260000    -0.6385140000
   10      C       0.3429160000    -3.6889270000     0.6008710000
   11      O      -1.3685440000    -5.4810750000    -2.2481320000
   12      O       1.4585700000    -4.4798710000     2.5202750000
   13      C       1.4053960000    -5.3560260000     3.6396370000
   14      H       1.8209400000    -4.7904960000     4.4953040000
   15      H       2.0231290000    -6.2685130000     3.4903360000
   16      H       0.3615950000    -5.6581870000     3.8733140000
   17      C      -1.4800480000    -4.5469990000    -3.3149340000
   18      H      -1.8992550000    -5.1075640000    -4.1718370000
   19      H      -0.4901230000    -4.1314730000    -3.6014730000
   20      H      -2.1715210000    -3.7120850000    -3.0689690000
   21      C       0.5376420000    -2.3143260000     0.9303080000
   22      S      -0.7858070000    -2.2954870000    -1.3347690000
   23      C       0.0000000000    -1.4351800000     0.0000000000
   24      H       1.0661340000    -1.9932110000     1.8366910000
   25      C       0.0000000000     0.0000000000     0.0000000000
   26      S       0.1583830000     0.8853760000     1.5107320000
   27      C       0.4308760000     2.4369510000     0.7276290000
   28      C       0.1576820000     0.8944300000    -1.0646650000
   29      C       0.3973510000     2.2623840000    -0.6782870000
   30      C       0.1477830000     0.8287650000    -2.4861500000
   31      C       0.3672910000     2.0744060000    -3.1069160000
   32      S       0.5806330000     3.3035330000    -1.9657350000
   33      C       0.4160830000     2.3242040000    -4.5599720000
   34      O       0.2569210000     1.4043670000    -5.3502770000
   35      O       0.6420940000     3.5873380000    -5.0043750000
   36      F      -0.0418280000    -0.2691130000    -3.2462900000
   37      C       0.7143770000     3.9388270000    -6.3349760000
   38      H       0.9068440000     5.0268980000    -6.3702680000
   39      H      -0.2306610000     3.7100990000    -6.8756090000
   40      H       1.5319180000     3.3986810000    -6.8618780000
   41      H       0.5906990000     3.3429840000     1.3215100000
   42      H       0.8662720000    -9.1464710000    -0.2025900000
   43      H      -0.6821650000    -9.1505700000     0.7075390000
   44      H       0.9310160000    -1.4441580000    -0.5472930000
 ----------------------------------------------------------------
 Nuclear Repulsion Energy =        3375.50518948 hartrees
 There are      120 alpha and      120 beta electrons
 Requested basis set is cc-pVTZ
 There are 388 shells and 1096 basis functions

 Total QAlloc Memory Limit 110000 MB
 Mega-Array Size       188 MB
 MEM_STATIC part       192 MB
 Discretize the solute cavity surface with Lebedev spheres
	Using 110 Lebedev grid points for each H atom
	Using 194 Lebedev grid points for other atoms
	Atomic van der Waals radii will be scaled by 1.20
 Remove points where switching function is < 1.0e-08
 Keep 2953 surface tesserae and discard 4323 interior tesserae
 Molecular Surface Area = 435.893 Angst**2
 Requested basis set is rimp2-cc-pVTZ
 There are 853 shells and 2963 basis functions
 A cutoff of  1.0D-10 yielded  33574 shell pairs
 There are    253396 function pairs (    327732 Cartesian)
 Smallest overlap matrix eigenvalue = 2.16E-05

 Scale SEOQF with 1.000000e-01/1.000000e-02/1.000000e-02

 Standard Electronic Orientation quadrupole field applied
 Nucleus-field energy     =     0.0000000187 hartrees
 Guess from superposition of atomic densities
 Warning:  Energy on first SCF cycle will be non-variational
 SAD guess density has 240.000000 electrons

 -----------------------------------------------------------------------
  General SCF calculation program by
  Eric Jon Sundstrom, Paul Horn, Yuezhi Mao, Dmitri Zuev, Alec White,
  David Stuck, Shaama M.S., Shane Yost, Joonho Lee, David Small,
  Daniel Levine, Susi Lehtola, Hugh Burton, Evgeny Epifanovsky,
  Bang C. Huynh
 -----------------------------------------------------------------------
 Hartree-Fock
 using 64 threads for integral computing
 -------------------------------------------------------
 OpenMP Integral computing Module                
 Release: version 1.0, May 2013, Q-Chem Inc. Pittsburgh 
 -------------------------------------------------------
 A restricted SCF calculation will be
 performed using DIIS
 SCF converges when DIIS error is below 1.0e-06
 ---------------------------------------
  Cycle       Energy         DIIS error
 ---------------------------------------
    1   -2767.3543421576      1.77e-02  
    2   -2754.8675917933      1.55e-03  
    3   -2755.2158662362      8.79e-04  
    4   -2755.3073161890      2.54e-04  
    5   -2755.3211197116      7.24e-05  
    6   -2755.3226627854      2.61e-05  
    7   -2755.3230698484      1.35e-05  
    8   -2755.3231914253      5.58e-06  
    9   -2755.3232170530      2.86e-06  
   10   -2755.3232232113      1.38e-06  
   11   -2755.3232251669      7.08e-07  Convergence criterion met
 ---------------------------------------
 SCF time:   CPU 7450.76s  wall 277.00s 

************** Final PCM Free Energy Summary **************
 G_electrostatic  =      -0.02149557 hartree =     -13.48867578 kcal/mol
 G_cavitation     =       0.00000000 hartree =       0.00000000 kcal/mol
 G_dispersion     =       0.00000000 hartree =       0.00000000 kcal/mol
 G_repulsion      =       0.00000000 hartree =       0.00000000 kcal/mol
 --------------------------------------------------
 Non-electrostatic Free Energy =       0.00000000 hartree =       0.00000000 kcal/mol
 Total                         =      -0.02149557 hartree =     -13.48867578 kcal/mol
 --------------------------------------------------
 SCF Energy (H0 + V/2)                       =   -2755.32322517 
 Solute Internal Energy (H0)                 =   -2755.30172959 
 Total Free Energy (H0 + V/2 + non-elec)     =   -2755.32322517 hartree
                                             = -1728991.41945849 kcal/mol
***********************************************************

 SCF   energy in the final basis set =    -2755.3232251669
 Total energy in the final basis set =    -2755.3232251669


 --------------------------------------------------------------
  Generalized many-body perturbation theory program
  by Joonho Lee, Fazle Rob, Xintian Feng, Evgeny Epifanovsky

 No regularization used 
 (reg. param. = 0.0000e+00)
  (P|Q)^-1/2 Time:  CPU 185.75 s  wall 2.97 s

 In RI-MP2 calculation: 
 # of frozen core orbitals: 45

 Components of the RIMP2 correlation energy:
        aaaa    correlation energy =        -0.6705255097 a.u.
        abab    correlation energy =        -3.7512699444 a.u.
        bbbb    correlation energy =        -0.6705255097 a.u.
        non-Brillouin singles      =        -0.0000000000 a.u.
        total same-spin energy     =        -1.3410510195 a.u.
        total opposite-spin energy =        -3.7512699444 a.u.

 Total  RIMP2   correlation energy =        -5.0923209639 a.u.
        RIMP2         total energy =     -2760.4155461308 a.u.

 RI-MP2 Energy Time:  CPU 2931.49 s  wall 48.06 s
 
 --------------------------------------------------------------
 
                    Orbital Energies (a.u.)
 --------------------------------------------------------------
 
 Alpha MOs
 -- Occupied --
-92.0152 -91.9931 -91.9765 -91.9601 -26.3349 -20.6111 -20.5880 -20.5875
-20.5479 -11.4086 -11.3788 -11.3243 -11.3098 -11.3092 -11.2972 -11.2929
-11.2881 -11.2858 -11.2843 -11.2839 -11.2836 -11.2833 -11.2773 -11.2757
-11.2724 -11.2618 -11.2595 -11.2514 -11.2408  -9.0136  -8.9972  -8.9791
 -8.9626  -6.6944  -6.6938  -6.6933  -6.6785  -6.6778  -6.6764  -6.6602
 -6.6593  -6.6579  -6.6439  -6.6429  -6.6419  -1.6494  -1.4707  -1.4111
 -1.4098  -1.3657  -1.2383  -1.2097  -1.1772  -1.1431  -1.1006  -1.0507
 -1.0469  -1.0288  -1.0086  -0.9996  -0.9714  -0.9600  -0.9492  -0.9405
 -0.8945  -0.8731  -0.8627  -0.8122  -0.7931  -0.7861  -0.7776  -0.7666
 -0.7621  -0.7339  -0.7191  -0.7172  -0.6981  -0.6941  -0.6855  -0.6778
 -0.6755  -0.6715  -0.6562  -0.6491  -0.6354  -0.6301  -0.6216  -0.6155
 -0.6107  -0.6050  -0.5964  -0.5917  -0.5791  -0.5666  -0.5617  -0.5588
 -0.5501  -0.5323  -0.5283  -0.5209  -0.5137  -0.5086  -0.5045  -0.4998
 -0.4861  -0.4830  -0.4802  -0.4683  -0.4612  -0.4607  -0.4594  -0.4473
 -0.4310  -0.3993  -0.3849  -0.3716  -0.3509  -0.2928  -0.2846  -0.2189
 -- Virtual --
  0.0284   0.0563   0.1175   0.1343   0.1417   0.1441   0.1530   0.1555
  0.1563   0.1603   0.1666   0.1718   0.1817   0.1840   0.1880   0.1937
  0.2015   0.2039   0.2067   0.2098   0.2163   0.2221   0.2227   0.2280
  0.2283   0.2332   0.2408   0.2475   0.2567   0.2592   0.2658   0.2733
  0.2883   0.2951   0.3082   0.3232   0.3309   0.3391   0.3435   0.3505
  0.3543   0.3578   0.3601   0.3635   0.3705   0.3776   0.3810   0.3823
  0.3861   0.3916   0.3969   0.4012   0.4056   0.4137   0.4176   0.4232
  0.4273   0.4284   0.4350   0.4380   0.4408   0.4456   0.4495   0.4522
  0.4545   0.4624   0.4645   0.4673   0.4733   0.4761   0.4829   0.4843
  0.4880   0.4897   0.4979   0.5006   0.5063   0.5133   0.5168   0.5205
  0.5243   0.5283   0.5321   0.5352   0.5387   0.5421   0.5490   0.5538
  0.5541   0.5573   0.5584   0.5684   0.5694   0.5751   0.5782   0.5834
  0.5845   0.5877   0.5926   0.5949   0.5999   0.6027   0.6068   0.6096
  0.6141   0.6152   0.6164   0.6195   0.6231   0.6264   0.6281   0.6307
  0.6345   0.6375   0.6418   0.6448   0.6482   0.6516   0.6564   0.6571
  0.6602   0.6650   0.6700   0.6780   0.6873   0.6886   0.6911   0.6966
  0.6975   0.7070   0.7112   0.7147   0.7197   0.7251   0.7327   0.7408
  0.7444   0.7572   0.7630   0.7702   0.7765   0.7841   0.7866   0.7917
  0.7950   0.7987   0.8028   0.8088   0.8145   0.8183   0.8241   0.8275
  0.8321   0.8408   0.8465   0.8569   0.8599   0.8729   0.8768   0.8869
  0.8937   0.8948   0.8987   0.9016   0.9055   0.9073   0.9135   0.9184
  0.9216   0.9272   0.9365   0.9373   0.9414   0.9492   0.9553   0.9576
  0.9667   0.9678   0.9717   0.9778   0.9804   0.9847   0.9893   0.9921
  1.0001   1.0009   1.0038   1.0132   1.0142   1.0192   1.0261   1.0271
  1.0362   1.0391   1.0455   1.0506   1.0554   1.0594   1.0661   1.0698
  1.0746   1.0792   1.0830   1.0856   1.0945   1.1009   1.1036   1.1066
  1.1116   1.1213   1.1256   1.1297   1.1327   1.1429   1.1458   1.1498
  1.1571   1.1622   1.1634   1.1693   1.1752   1.1757   1.1767   1.1805
  1.1857   1.1892   1.1923   1.1979   1.2051   1.2077   1.2162   1.2200
  1.2236   1.2308   1.2320   1.2369   1.2452   1.2486   1.2537   1.2592
  1.2633   1.2658   1.2744   1.2784   1.2839   1.2904   1.2914   1.2968
  1.3001   1.3162   1.3200   1.3281   1.3294   1.3397   1.3417   1.3427
  1.3495   1.3545   1.3642   1.3654   1.3768   1.3882   1.3910   1.3989
  1.4036   1.4065   1.4121   1.4244   1.4333   1.4410   1.4493   1.4504
  1.4557   1.4653   1.4780   1.4794   1.4890   1.4934   1.4995   1.5022
  1.5052   1.5087   1.5125   1.5190   1.5231   1.5263   1.5315   1.5386
  1.5403   1.5470   1.5490   1.5559   1.5597   1.5645   1.5711   1.5748
  1.5844   1.5866   1.6003   1.6059   1.6153   1.6250   1.6320   1.6416
  1.6504   1.6551   1.6566   1.6681   1.6697   1.6803   1.6832   1.6894
  1.6934   1.7051   1.7087   1.7153   1.7249   1.7270   1.7405   1.7492
  1.7623   1.7635   1.7734   1.7816   1.7917   1.8059   1.8115   1.8185
  1.8241   1.8350   1.8404   1.8415   1.8597   1.8669   1.8697   1.8746
  1.8798   1.8847   1.8964   1.9010   1.9114   1.9196   1.9321   1.9402
  1.9444   1.9488   1.9583   1.9743   1.9807   1.9837   1.9958   2.0047
  2.0159   2.0203   2.0303   2.0359   2.0387   2.0405   2.0451   2.0608
  2.0731   2.0794   2.0861   2.0936   2.1039   2.1101   2.1221   2.1330
  2.1436   2.1520   2.1581   2.1695   2.1765   2.1845   2.1869   2.1950
  2.2014   2.2028   2.2155   2.2195   2.2248   2.2295   2.2403   2.2443
  2.2536   2.2570   2.2692   2.2715   2.2809   2.2854   2.2936   2.3042
  2.3099   2.3253   2.3336   2.3455   2.3497   2.3562   2.3690   2.3760
  2.3828   2.3865   2.3962   2.4010   2.4074   2.4158   2.4173   2.4313
  2.4408   2.4527   2.4655   2.4683   2.4785   2.4840   2.4941   2.4982
  2.5125   2.5233   2.5296   2.5346   2.5448   2.5568   2.5687   2.5742
  2.5850   2.5877   2.5905   2.6009   2.6150   2.6200   2.6253   2.6284
  2.6376   2.6436   2.6441   2.6479   2.6562   2.6651   2.6713   2.6772
  2.6813   2.6886   2.6938   2.6981   2.7029   2.7090   2.7161   2.7218
  2.7287   2.7320   2.7377   2.7453   2.7541   2.7586   2.7604   2.7683
  2.7734   2.7770   2.7888   2.7966   2.8062   2.8147   2.8229   2.8328
  2.8411   2.8473   2.8517   2.8557   2.8589   2.8661   2.8749   2.8820
  2.8834   2.8864   2.8984   2.9076   2.9099   2.9146   2.9351   2.9458
  2.9519   2.9599   2.9620   2.9708   2.9782   2.9830   2.9873   3.0046
  3.0111   3.0142   3.0215   3.0335   3.0385   3.0445   3.0471   3.0483
  3.0539   3.0639   3.0700   3.0734   3.0905   3.0931   3.0972   3.0998
  3.1076   3.1114   3.1170   3.1223   3.1332   3.1391   3.1406   3.1491
  3.1530   3.1586   3.1658   3.1690   3.1711   3.1791   3.1812   3.1855
  3.1872   3.1931   3.2025   3.2039   3.2119   3.2135   3.2193   3.2226
  3.2349   3.2377   3.2416   3.2469   3.2510   3.2578   3.2642   3.2649
  3.2711   3.2773   3.2811   3.2862   3.2874   3.2893   3.2951   3.2970
  3.3045   3.3065   3.3156   3.3197   3.3260   3.3308   3.3377   3.3402
  3.3435   3.3470   3.3499   3.3558   3.3606   3.3612   3.3655   3.3680
  3.3717   3.3734   3.3767   3.3831   3.3948   3.3978   3.4014   3.4066
  3.4100   3.4162   3.4223   3.4313   3.4327   3.4376   3.4421   3.4458
  3.4512   3.4527   3.4600   3.4604   3.4724   3.4744   3.4809   3.4852
  3.4913   3.4941   3.5011   3.5071   3.5144   3.5220   3.5282   3.5315
  3.5404   3.5485   3.5562   3.5617   3.5704   3.5760   3.5792   3.5819
  3.5873   3.5889   3.5933   3.5985   3.6015   3.6056   3.6106   3.6149
  3.6233   3.6317   3.6336   3.6398   3.6418   3.6530   3.6551   3.6600
  3.6616   3.6656   3.6682   3.6768   3.6785   3.6842   3.6886   3.6970
  3.7060   3.7098   3.7113   3.7139   3.7156   3.7204   3.7251   3.7276
  3.7317   3.7352   3.7479   3.7527   3.7569   3.7621   3.7655   3.7734
  3.7770   3.7867   3.7936   3.8052   3.8079   3.8136   3.8193   3.8246
  3.8320   3.8365   3.8407   3.8454   3.8499   3.8514   3.8604   3.8637
  3.8668   3.8759   3.8798   3.8817   3.8924   3.9034   3.9088   3.9154
  3.9191   3.9252   3.9340   3.9427   3.9473   3.9525   3.9598   3.9637
  3.9671   3.9830   3.9844   3.9911   4.0019   4.0067   4.0108   4.0111
  4.0177   4.0295   4.0406   4.0464   4.0528   4.0625   4.0649   4.0664
  4.0715   4.0779   4.0855   4.0961   4.0999   4.1087   4.1187   4.1234
  4.1340   4.1422   4.1454   4.1501   4.1622   4.1708   4.1715   4.1747
  4.1828   4.1892   4.2009   4.2072   4.2129   4.2242   4.2304   4.2350
  4.2475   4.2570   4.2660   4.2729   4.2831   4.2874   4.2976   4.3079
  4.3178   4.3263   4.3329   4.3435   4.3485   4.3491   4.3602   4.3617
  4.3770   4.3797   4.3874   4.3968   4.3984   4.4055   4.4109   4.4178
  4.4210   4.4254   4.4318   4.4359   4.4388   4.4439   4.4524   4.4636
  4.4730   4.4745   4.4912   4.5010   4.5074   4.5156   4.5215   4.5263
  4.5388   4.5482   4.5499   4.5587   4.5645   4.5690   4.5729   4.5902
  4.5986   4.6044   4.6173   4.6219   4.6346   4.6402   4.6418   4.6487
  4.6540   4.6687   4.6713   4.6967   4.7008   4.7042   4.7130   4.7241
  4.7326   4.7407   4.7491   4.7732   4.7840   4.7901   4.7988   4.8124
  4.8261   4.8312   4.8402   4.8454   4.8697   4.8795   4.8929   4.9079
  4.9211   4.9366   4.9373   4.9477   4.9592   4.9659   4.9710   4.9762
  4.9912   5.0076   5.0122   5.0153   5.0287   5.0402   5.0502   5.0530
  5.0738   5.0770   5.1000   5.1122   5.1304   5.1529   5.1592   5.1713
  5.1842   5.1937   5.2029   5.2119   5.2167   5.2276   5.2316   5.2514
  5.2581   5.2598   5.2878   5.2894   5.2976   5.3128   5.3193   5.3267
  5.3367   5.3530   5.3557   5.3598   5.3759   5.3855   5.3862   5.3987
  5.4032   5.4129   5.4366   5.4413   5.4594   5.4699   5.4734   5.5014
  5.5104   5.5142   5.5193   5.5424   5.5592   5.5685   5.5810   5.5927
  5.5935   5.6106   5.6192   5.6253   5.6433   5.6592   5.6802   5.6889
  5.7199   5.7338   5.7649   5.7863   5.8018   5.8229   5.8352   5.8585
  5.8747   5.8921   5.9091   5.9527   5.9712   5.9721   5.9837   6.0043
  6.0443   6.0897   6.1200   6.1271   6.1343   6.1554   6.1724   6.1805
  6.1867   6.2044   6.2194   6.2429   6.2610   6.2726   6.2861   6.3004
  6.3095   6.3439   6.3755   6.4396   6.4626   6.4973   6.5374   6.5477
  6.5577   6.5678   6.6449   6.6783   6.6922   6.7168   6.7440   6.7525
  6.8072   6.8591   6.8622   6.8860   6.8996   6.9937   7.1312   7.1457
  7.1795   7.2130   7.2218   7.2387   7.3264   7.3282   7.3413   7.3729
  7.3772   7.4330   7.4636   7.4851   7.4873   7.4965   7.5239   7.5516
  7.6269   7.7415   7.7693   7.8023   7.8333   7.9177   7.9264   7.9564
  8.0085   8.1274   8.3909   8.6924   8.9331   9.0240   9.3641   9.5066
  9.7226  10.3103  11.2750  11.4294  11.8980  11.9557  12.1219  12.3697
 12.3987  12.5000  12.7247  12.9394  13.0047  13.2171  13.4801  13.5961
 13.6621  13.8698  13.9324  14.0216  14.2944  14.4603  15.0234  15.2283
 --------------------------------------------------------------
 
          Ground-State Mulliken Net Atomic Charges

     Atom                 Charge (a.u.)
  ----------------------------------------
      1 C                    -0.070784
      2 C                    -0.247779
      3 S                    -0.131469
      4 C                    -0.048007
      5 H                     0.195156
      6 C                    -0.049486
      7 C                     0.221473
      8 C                     0.232761
      9 C                    -0.085215
     10 C                    -0.044605
     11 O                    -0.334983
     12 O                    -0.344051
     13 C                    -0.082496
     14 H                     0.120099
     15 H                     0.091995
     16 H                     0.092936
     17 C                    -0.087619
     18 H                     0.123688
     19 H                     0.094094
     20 H                     0.090116
     21 C                    -0.286699
     22 S                    -0.068195
     23 C                     0.089566
     24 H                     0.202595
     25 C                    -0.029957
     26 S                     0.088769
     27 C                    -0.261993
     28 C                    -0.115343
     29 C                    -0.008066
     30 C                     0.387905
     31 C                    -0.150100
     32 S                     0.032977
     33 C                     0.459747
     34 O                    -0.454947
     35 O                    -0.298541
     36 F                    -0.208987
     37 C                    -0.055100
     38 H                     0.116387
     39 H                     0.084134
     40 H                     0.084007
     41 H                     0.213707
     42 H                     0.119139
     43 H                     0.116731
     44 H                     0.206438
  ----------------------------------------
  Sum of atomic charges =     0.000000

 -----------------------------------------------------------------
                    Cartesian Multipole Moments
 -----------------------------------------------------------------
    Charge (ESU x 10^10)
                -0.0000
    Dipole Moment (Debye)
         X       0.9346      Y       1.8430      Z       2.7400
       Tot       3.4319
    Quadrupole Moments (Debye-Ang)
        XX    -200.4445     XY       4.5394     YY    -169.9438
        XZ       1.8470     YZ      -6.1253     ZZ    -189.3749
    Octopole Moments (Debye-Ang^2)
       XXX    -106.6789    XXY     391.5271    XYY     -45.7126
       YYY     958.7845    XXZ     157.9360    XYZ     -25.1697
       YYZ      89.7464    XZZ     -16.6836    YZZ     416.3629
       ZZZ     520.9241
    Hexadecapole Moments (Debye-Ang^3)
      XXXX    -862.6690   XXXY     -48.5415   XXYY   -3959.8167
      XYYY     171.5055   YYYY  -19389.5689   XXXZ    -232.7064
      XXYZ     648.2154   XYYZ     -52.9944   YYYZ    1918.7519
      XXZZ   -1358.2678   XYZZ      74.5410   YYZZ   -4182.2767
      XZZZ    -227.2864   YZZZ    1195.0130   ZZZZ   -7275.4894
 -----------------------------------------------------------------
 Total job time:  329.71s(wall), 10506.54s(cpu) 
 Sun Sep 24 19:44:45 2023

        *************************************************************
        *                                                           *
        *  Thank you very much for using Q-Chem.  Have a nice day.  *
        *                                                           *
        *************************************************************


0 sent ACK to 0 
now end server 0 ... 
cleanup process ... done
remove work dirs ./qchem3514358.0 -- ./qchem3514358.0
rm -rf ./qchem3514358.0
rm -rf ./qchem3514358
