You are running Q-Chem version: 5.4.0

#
# job setting
#
local host:  exp-5-07
current dir: /expanse/lustre/projects/csd626/rramji/aromodel/PTB7_fin/Hydrogenated_Rotation_Test
input file:  fin_bdt_Phi_5_Theta_90_fin_ftt_Hydrogenated.qcin
output file: 
nprocs     : 1
nthreads   : 64
#
# qchem installation setting
#
QC:          /cm/shared/apps/spack/cpu/opt/spack/linux-centos8-zen2/gcc-10.2.0/qchem-5.4-akfmr7b3t57bfs6qan3padb2wnb2i7cl
QCAUX:       /cm/shared/apps/spack/cpu/opt/spack/linux-centos8-zen2/gcc-10.2.0/qchem-5.4-akfmr7b3t57bfs6qan3padb2wnb2i7cl/qcaux
QCPROG:      /cm/shared/apps/spack/cpu/opt/spack/linux-centos8-zen2/gcc-10.2.0/qchem-5.4-akfmr7b3t57bfs6qan3padb2wnb2i7cl/exe/qcprog.exe
QCPROG_S:    /cm/shared/apps/spack/cpu/opt/spack/linux-centos8-zen2/gcc-10.2.0/qchem-5.4-akfmr7b3t57bfs6qan3padb2wnb2i7cl/exe/qcprog.exe_s
PARALLEL:    -DPARALLEL
QCMPI:       mpich
#
# qchem directory setting
#
qcrun:       qchem466589
QCSCRATCH:   .
QCLOCALSCR:  
QCTMPDIR:    .
QCFILEPREF:  ./qchem466589
QCSAVEDIR:   
workdirs:    ./qchem466589
workdir0:    ./qchem466589
partmpdirs =  
#
# parallel setting
#
QCRSH:           ssh
QCMPI:           mpich
QCMPIRUN:        /cm/shared/apps/spack/cpu/opt/spack/linux-centos8-zen2/gcc-10.2.0/qchem-5.4-akfmr7b3t57bfs6qan3padb2wnb2i7cl/bin/mpi/mpirun_qchem
QCMACHINEFILE:   ./qchem466589/hostfile
exp-5-07

#
# env setting
#
exported envs:   QC QCAUX QCSCRATCH QCRUNNAME QCFILEPREF QCPROG QCPROG_S GUIFILE

Running Job 1 of 1 fin_bdt_Phi_5_Theta_90_fin_ftt_Hydrogenated.qcin
qchem fin_bdt_Phi_5_Theta_90_fin_ftt_Hydrogenated.qcin_466589.0 ./qchem466589/ 1
/cm/shared/apps/spack/cpu/opt/spack/linux-centos8-zen2/gcc-10.2.0/qchem-5.4-akfmr7b3t57bfs6qan3padb2wnb2i7cl/bin/mpi/mpirun_qchem -machinefile ./qchem466589/hostfile -np 1 /cm/shared/apps/spack/cpu/opt/spack/linux-centos8-zen2/gcc-10.2.0/qchem-5.4-akfmr7b3t57bfs6qan3padb2wnb2i7cl/exe/qcprog.exe fin_bdt_Phi_5_Theta_90_fin_ftt_Hydrogenated.qcin_466589.0 ./qchem466589/

Process 0 of 1 is on exp-5-07 - thread support 0
initial socket setup ...start
initial socket setup ...done 
now start server 0 ... 
                  Welcome to Q-Chem
     A Quantum Leap Into The Future Of Chemistry


 Q-Chem 5.4, Q-Chem, Inc., Pleasanton, CA (2021)

 License issued to: University of California, San Diego (site)

 E. Epifanovsky,  A. T. B. Gilbert,  Xintian Feng,  Joonho Lee,  Yuezhi Mao,  
 N. Mardirossian,  P. Pokhilko,  A. White,  M. Wormit,  M. P. Coons,  
 A. L. Dempwolff,  Zhengting Gan,  D. Hait,  P. R. Horn,  L. D. Jacobson,  
 I. Kaliman,  J. Kussmann,  A. W. Lange,  Ka Un Lao,  D. S. Levine,  Jie Liu,  
 S. C. McKenzie,  A. F. Morrison,  K. Nanda,  F. Plasser,  D. R. Rehn,  
 M. L. Vidal,  Zhi-Qiang You,  Ying Zhu,  B. Alam,  B. Albrecht,  
 A. Aldossary,  E. Alguire,  J. H. Andersen,  D. Barton,  K. Begam,  A. Behn,  
 Y. A. Bernard,  E. J. Berquist,  H. Burton,  A. Carreras,  K. Carter-Fenk,  
 R. Chakraborty,  A. D. Chien,  K. D. Closser,  V. Cofer-Shabica,  
 S. Dasgupta,  Jia Deng,  M. de Wergifosse,  M. Diedenhofen,  Hainam Do,  
 S. Ehlert,  Po-Tung Fang,  S. Fatehi,  Qingguo Feng,  J. Gayvert,  
 Qinghui Ge,  G. Gidofalvi,  M. Goldey,  J. Gomes,  C. Gonzalez-Espinoza,  
 S. Gulania,  A. Gunina,  M. W. D. Hanson-Heine,  P. H. P. Harbach,  
 A. W. Hauser,  M. F. Herbst,  M. Hernandez Vera,  M. Hodecker,  
 Z. C. Holden,  S. Houck,  Xunkun Huang,  Kerwin Hui,  B. C. Huynh,  
 M. Ivanov,  Hyunjun Ji,  Hanjie Jiang,  B. Kaduk,  S. Kaehler,  
 K. Khistyaev,  Jaehoon Kim,  P. Klunzinger,  Z. Koczor-Benda,  
 Joong Hoon Koh,  D. Kosenkov,  L. Koulias,  T. Kowalczyk,  C. M. Krauter,  
 K. Kue,  A. Kunitsa,  T. Kus,  A. Landau,  K. V. Lawler,  D. Lefrancois,  
 S. Lehtola,  Rain Li,  Yi-Pei Li,  Jiashu Liang,  M. Liebenthal,  
 Hung-Hsuan Lin,  You-Sheng Lin,  Fenglai Liu,  Kuan-Yu Liu,  
 M. Loipersberger,  A. Luenser,  A. Manjanath,  P. Manohar,  E. Mansoor,  
 S. F. Manzer,  Shan-Ping Mao,  A. V. Marenich,  T. Markovich,  S. Mason,  
 S. A. Maurer,  P. F. McLaughlin,  M. F. S. J. Menger,  J.-M. Mewes,  
 S. A. Mewes,  P. Morgante,  J. W. Mullinax,  T. S. Nguyen-Beck,  
 K. J. Oosterbaan,  G. Paran,  Alexander C. Paul,  Suranjan K. Paul,  
 F. Pavosevic,  Zheng Pei,  S. Prager,  E. I. Proynov,  E. Ramos,  B. Rana,  
 A. E. Rask,  A. Rettig,  R. M. Richard,  F. Rob,  E. Rossomme,  T. Scheele,  
 M. Scheurer,  M. Schneider,  N. Sergueev,  S. M. Sharada,  W. Skomorowski,  
 D. W. Small,  C. J. Stein,  Yu-Chuan Su,  E. J. Sundstrom,  Zhen Tao,  
 J. Thirman,  T. Tsuchimochi,  N. M. Tubman,  S. P. Veccham,  O. Vydrov,  
 J. Wenzel,  J. Witte,  A. Yamada,  Kun Yao,  S. Yeganeh,  S. R. Yost,  
 A. Zech,  Igor Ying Zhang,  Xing Zhang,  Yu Zhang,  D. Zuev,  
 A. Aspuru-Guzik,  A. T. Bell,  N. A. Besley,  K. B. Bravaya,  B. R. Brooks,  
 D. Casanova,  Jeng-Da Chai,  S. Coriani,  C. J. Cramer,  
 A. E. DePrince, III,  R. A. DiStasio Jr.,  A. Dreuw,  B. D. Dunietz,  
 T. R. Furlani,  W. A. Goddard III,  S. Grimme,  S. Hammes-Schiffer,  
 T. Head-Gordon,  W. J. Hehre,  Chao-Ping Hsu,  T.-C. Jagau,  Yousung Jung,  
 A. Klamt,  Jing Kong,  D. S. Lambrecht,  WanZhen Liang,  N. J. Mayhall,  
 C. W. McCurdy,  J. B. Neaton,  C. Ochsenfeld,  J. A. Parkhill,  R. Peverati,  
 V. A. Rassolov,  Yihan Shao,  L. V. Slipchenko,  T. Stauch,  R. P. Steele,  
 J. E. Subotnik,  A. J. W. Thom,  A. Tkatchenko,  D. G. Truhlar,  
 T. Van Voorhis,  T. A. Wesolowski,  K. B. Whaley,  H. L. Woodcock III,  
 P. M. Zimmerman,  S. Faraji,  P. M. W. Gill,  M. Head-Gordon,  
 J. M. Herbert,  A. I. Krylov

 Contributors to earlier versions of Q-Chem not listed above: 
 R. D. Adamson,  B. Austin,  R. Baer,  J. Baker,  G. J. O. Beran,  
 K. Brandhorst,  S. T. Brown,  E. F. C. Byrd,  A. K. Chakraborty,  
 G. K. L. Chan,  Chun-Min Chang,  Yunqing Chen,  C.-L. Cheng,  
 Siu Hung Chien,  D. M. Chipman,  D. L. Crittenden,  H. Dachsel,  
 R. J. Doerksen,  A. D. Dutoi,  R. G. Edgar,  J. Fosso-Tande,  
 L. Fusti-Molnar,  D. Ghosh,  A. Ghysels,  A. Golubeva-Zadorozhnaya,  
 J. Gonthier,  M. S. Gordon,  S. R. Gwaltney,  G. Hawkins,  J. E. Herr,  
 A. Heyden,  S. Hirata,  E. G. Hohenstein,  G. Kedziora,  F. J. Keil,  
 C. Kelley,  Jihan Kim,  R. A. King,  R. Z. Khaliullin,  P. P. Korambath,  
 W. Kurlancheek,  A. Laurent,  A. M. Lee,  M. S. Lee,  S. V. Levchenko,  
 Ching Yeh Lin,  D. Liotard,  E. Livshits,  R. C. Lochan,  I. Lotan,  
 L. A. Martinez-Martinez,  P. E. Maslen,  N. Nair,  D. P. O'Neill,  
 D. Neuhauser,  E. Neuscamman,  C. M. Oana,  R. Olivares-Amaya,  R. Olson,  
 T. M. Perrine,  B. Peters,  P. A. Pieniazek,  A. Prociuk,  Y. M. Rhee,  
 J. Ritchie,  M. A. Rohrdanz,  E. Rosta,  N. J. Russ,  H. F. Schaefer III,  
 M. W. Schmidt,  N. E. Schultz,  S. Sharma,  N. Shenvi,  C. D. Sherrill,  
 A. C. Simmonett,  A. Sodt,  T. Stein,  D. Stuck,  K. S. Thanthiriwatte,  
 V. Vanovschi,  L. Vogt,  Tao Wang,  A. Warshel,  M. A. Watson,  
 C. F. Williams,  Q. Wu,  X. Xu,  Jun Yang,  W. Zhang,  Yan Zhao

 Please cite Q-Chem as follows:
 Y. Shao et al., Mol. Phys. 113, 184-215 (2015)
 DOI: 10.1080/00268976.2014.952696

 Q-Chem 5.4.0 for Intel X86 EM64T Linux

 Parts of Q-Chem use Armadillo 9.800.1 (Horizon Scraper).
 http://arma.sourceforge.net/

 Q-Chem begins on Tue Sep 26 18:09:57 2023  

 Host: 
0

     Scratch files written to ./qchem466589//
 May1621 |scratch|qcdevops|jenkins|workspace|build_RNUM    
 Parallel job on  1  processors
 Processing $rem in /cm/shared/apps/spack/cpu/opt/spack/linux-centos8-zen2/gcc-10.2.0/qchem-5.4-akfmr7b3t57bfs6qan3padb2wnb2i7cl/config/preferences:
 Processing $rem in /home/rramji/.qchemrc:
 Symmetry turned off for PCM/SM12/SMD calculation
 Core orbitals will be frozen

 Checking the input file for inconsistencies... 	...done.

 Q-Chem warning in module forms1/BasisType.C, line 2236:

 You are not using the predefined 5D/6D in this basis set.


--------------------------------------------------------------
User input:
--------------------------------------------------------------
$molecule
0 1
C	-0.267851	-8.519741	-0.047927
C	0.801461	-7.635967	-0.056157
S	-1.822194	-7.651740	-0.029285
C	0.415201	-6.261894	-0.054516
H	1.851431	-7.954738	-0.063290
C	-1.012650	-6.079985	-0.054687
C	-1.584194	-4.798382	-0.028030
C	1.309433	-5.153542	-0.031399
C	0.737539	-3.869626	-0.000427
C	-0.691828	-3.688927	-0.003462
O	2.631211	-5.481075	-0.061128
O	-2.911907	-4.479871	0.003021
C	-3.854716	-5.356026	-0.602710
H	-4.803517	-4.790496	-0.670671
H	-4.034285	-6.268513	0.006913
H	-3.535185	-5.658187	-1.623507
C	3.610841	-4.546999	0.375708
H	4.562544	-5.107564	0.441115
H	3.364029	-4.131473	1.376277
H	3.743566	-3.712085	-0.346107
C	-1.074491	-2.314326	0.000458
S	1.548848	-2.295487	-0.013144
C	0.000000	-1.435180	0.000000
H	-2.123688	-1.993211	0.004953
C	0.000000	0.000000	0.000000
S	0.080615	0.895811	1.510732
C	0.216842	2.465231	0.727629
C	0.079127	0.904769	-1.064665
C	0.198659	2.288406	-0.678287
C	0.074988	0.838492	-2.486150
C	0.185097	2.098524	-3.106916
S	0.290501	3.341568	-1.965735
C	0.211932	2.351623	-4.559972
O	0.133545	1.421416	-5.350277
O	0.326994	3.629649	-5.004375
F	-0.018214	-0.271734	-3.246290
C	0.368367	3.986101	-6.334976
H	0.465270	5.086806	-6.370268
H	-0.553140	3.675878	-6.875609
H	1.229874	3.519263	-6.861878
H	0.297091	3.381746	1.321510
H	-0.257688	-9.146471	0.851509
H	-0.271664	-9.150570	-0.944542
H	0.008462	-1.444158	1.079930
$end

$rem
JOBTYPE		SP
EXCHANGE	HF
CORRELATION	pRIMP2
BASIS		cc-pvtz
METHOD		rimp2
AUX_BASIS	rimp2-cc-pvtz
SOLVENT_METHOD	PCM
PURECART	11111
SYMMETRY	false
MEM_TOTAL	110000
SCF_CONVERGENCE = 6
THRESH=10
GUI = 2
$end



$solvent
dielectric 4.90
$end
--------------------------------------------------------------
 ----------------------------------------------------------------
             Standard Nuclear Orientation (Angstroms)
    I     Atom           X                Y                Z
 ----------------------------------------------------------------
    1      C      -0.2678510000    -8.5197410000    -0.0479270000
    2      C       0.8014610000    -7.6359670000    -0.0561570000
    3      S      -1.8221940000    -7.6517400000    -0.0292850000
    4      C       0.4152010000    -6.2618940000    -0.0545160000
    5      H       1.8514310000    -7.9547380000    -0.0632900000
    6      C      -1.0126500000    -6.0799850000    -0.0546870000
    7      C      -1.5841940000    -4.7983820000    -0.0280300000
    8      C       1.3094330000    -5.1535420000    -0.0313990000
    9      C       0.7375390000    -3.8696260000    -0.0004270000
   10      C      -0.6918280000    -3.6889270000    -0.0034620000
   11      O       2.6312110000    -5.4810750000    -0.0611280000
   12      O      -2.9119070000    -4.4798710000     0.0030210000
   13      C      -3.8547160000    -5.3560260000    -0.6027100000
   14      H      -4.8035170000    -4.7904960000    -0.6706710000
   15      H      -4.0342850000    -6.2685130000     0.0069130000
   16      H      -3.5351850000    -5.6581870000    -1.6235070000
   17      C       3.6108410000    -4.5469990000     0.3757080000
   18      H       4.5625440000    -5.1075640000     0.4411150000
   19      H       3.3640290000    -4.1314730000     1.3762770000
   20      H       3.7435660000    -3.7120850000    -0.3461070000
   21      C      -1.0744910000    -2.3143260000     0.0004580000
   22      S       1.5488480000    -2.2954870000    -0.0131440000
   23      C       0.0000000000    -1.4351800000     0.0000000000
   24      H      -2.1236880000    -1.9932110000     0.0049530000
   25      C       0.0000000000     0.0000000000     0.0000000000
   26      S       0.0806150000     0.8958110000     1.5107320000
   27      C       0.2168420000     2.4652310000     0.7276290000
   28      C       0.0791270000     0.9047690000    -1.0646650000
   29      C       0.1986590000     2.2884060000    -0.6782870000
   30      C       0.0749880000     0.8384920000    -2.4861500000
   31      C       0.1850970000     2.0985240000    -3.1069160000
   32      S       0.2905010000     3.3415680000    -1.9657350000
   33      C       0.2119320000     2.3516230000    -4.5599720000
   34      O       0.1335450000     1.4214160000    -5.3502770000
   35      O       0.3269940000     3.6296490000    -5.0043750000
   36      F      -0.0182140000    -0.2717340000    -3.2462900000
   37      C       0.3683670000     3.9861010000    -6.3349760000
   38      H       0.4652700000     5.0868060000    -6.3702680000
   39      H      -0.5531400000     3.6758780000    -6.8756090000
   40      H       1.2298740000     3.5192630000    -6.8618780000
   41      H       0.2970910000     3.3817460000     1.3215100000
   42      H      -0.2576880000    -9.1464710000     0.8515090000
   43      H      -0.2716640000    -9.1505700000    -0.9445420000
   44      H       0.0084620000    -1.4441580000     1.0799300000
 ----------------------------------------------------------------
 Nuclear Repulsion Energy =        3356.07504996 hartrees
 There are      120 alpha and      120 beta electrons
 Requested basis set is cc-pVTZ
 There are 388 shells and 1096 basis functions

 Total QAlloc Memory Limit 110000 MB
 Mega-Array Size       188 MB
 MEM_STATIC part       192 MB
 Discretize the solute cavity surface with Lebedev spheres
	Using 110 Lebedev grid points for each H atom
	Using 194 Lebedev grid points for other atoms
	Atomic van der Waals radii will be scaled by 1.20
 Remove points where switching function is < 1.0e-08
 Keep 3000 surface tesserae and discard 4276 interior tesserae
 Molecular Surface Area = 445.709 Angst**2
 Requested basis set is rimp2-cc-pVTZ
 There are 853 shells and 2963 basis functions
 A cutoff of  1.0D-10 yielded  33178 shell pairs
 There are    250276 function pairs (    323744 Cartesian)
 Smallest overlap matrix eigenvalue = 2.21E-05

 Scale SEOQF with 1.000000e-01/1.000000e-02/1.000000e-02

 Standard Electronic Orientation quadrupole field applied
 Nucleus-field energy     =     0.0000000381 hartrees
 Guess from superposition of atomic densities
 Warning:  Energy on first SCF cycle will be non-variational
 SAD guess density has 240.000000 electrons

 -----------------------------------------------------------------------
  General SCF calculation program by
  Eric Jon Sundstrom, Paul Horn, Yuezhi Mao, Dmitri Zuev, Alec White,
  David Stuck, Shaama M.S., Shane Yost, Joonho Lee, David Small,
  Daniel Levine, Susi Lehtola, Hugh Burton, Evgeny Epifanovsky,
  Bang C. Huynh
 -----------------------------------------------------------------------
 Hartree-Fock
 using 64 threads for integral computing
 -------------------------------------------------------
 OpenMP Integral computing Module                
 Release: version 1.0, May 2013, Q-Chem Inc. Pittsburgh 
 -------------------------------------------------------
 A restricted SCF calculation will be
 performed using DIIS
 SCF converges when DIIS error is below 1.0e-06
 ---------------------------------------
  Cycle       Energy         DIIS error
 ---------------------------------------
    1   -2767.3413968200      1.77e-02  
    2   -2754.8726826182      1.54e-03  
    3   -2755.2223385926      8.72e-04  
    4   -2755.3110494672      2.55e-04  
    5   -2755.3244340600      7.22e-05  
    6   -2755.3258916563      2.56e-05  
    7   -2755.3262683802      1.34e-05  
    8   -2755.3263915384      5.76e-06  
    9   -2755.3264229578      3.06e-06  
   10   -2755.3264309156      1.47e-06  
   11   -2755.3264332629      7.46e-07  Convergence criterion met
 ---------------------------------------
 SCF time:   CPU 7613.52s  wall 279.00s 

************** Final PCM Free Energy Summary **************
 G_electrostatic  =      -0.02267189 hartree =     -14.22682757 kcal/mol
 G_cavitation     =       0.00000000 hartree =       0.00000000 kcal/mol
 G_dispersion     =       0.00000000 hartree =       0.00000000 kcal/mol
 G_repulsion      =       0.00000000 hartree =       0.00000000 kcal/mol
 --------------------------------------------------
 Non-electrostatic Free Energy =       0.00000000 hartree =       0.00000000 kcal/mol
 Total                         =      -0.02267189 hartree =     -14.22682757 kcal/mol
 --------------------------------------------------
 SCF Energy (H0 + V/2)                       =   -2755.32643326 
 Solute Internal Energy (H0)                 =   -2755.30376137 
 Total Free Energy (H0 + V/2 + non-elec)     =   -2755.32643326 hartree
                                             = -1728993.43256911 kcal/mol
***********************************************************

 SCF   energy in the final basis set =    -2755.3264332629
 Total energy in the final basis set =    -2755.3264332629


 --------------------------------------------------------------
  Generalized many-body perturbation theory program
  by Joonho Lee, Fazle Rob, Xintian Feng, Evgeny Epifanovsky

 No regularization used 
 (reg. param. = 0.0000e+00)
  (P|Q)^-1/2 Time:  CPU 134.83 s  wall 2.12 s

 In RI-MP2 calculation: 
 # of frozen core orbitals: 45

 Components of the RIMP2 correlation energy:
        aaaa    correlation energy =        -0.6696296251 a.u.
        abab    correlation energy =        -3.7507407125 a.u.
        bbbb    correlation energy =        -0.6696296251 a.u.
        non-Brillouin singles      =        -0.0000000000 a.u.
        total same-spin energy     =        -1.3392592501 a.u.
        total opposite-spin energy =        -3.7507407125 a.u.

 Total  RIMP2   correlation energy =        -5.0899999626 a.u.
        RIMP2         total energy =     -2760.4164332255 a.u.

 RI-MP2 Energy Time:  CPU 2911.81 s  wall 47.11 s
 
 --------------------------------------------------------------
 
                    Orbital Energies (a.u.)
 --------------------------------------------------------------
 
 Alpha MOs
 -- Occupied --
-92.0198 -91.9957 -91.9774 -91.9578 -26.3352 -20.6128 -20.5869 -20.5865
-20.5512 -11.4113 -11.3776 -11.3112 -11.3087 -11.3068 -11.2993 -11.2979
-11.2967 -11.2888 -11.2842 -11.2826 -11.2824 -11.2812 -11.2807 -11.2724
-11.2723 -11.2579 -11.2572 -11.2493 -11.2363  -9.0180  -8.9998  -8.9796
 -8.9604  -6.6987  -6.6982  -6.6977  -6.6811  -6.6804  -6.6791  -6.6607
 -6.6597  -6.6585  -6.6416  -6.6407  -6.6397  -1.6481  -1.4726  -1.4100
 -1.4086  -1.3680  -1.2378  -1.2087  -1.1750  -1.1440  -1.0990  -1.0501
 -1.0454  -1.0313  -1.0083  -0.9973  -0.9727  -0.9594  -0.9483  -0.9404
 -0.8929  -0.8715  -0.8646  -0.8086  -0.7933  -0.7847  -0.7775  -0.7744
 -0.7653  -0.7331  -0.7213  -0.7163  -0.6970  -0.6923  -0.6813  -0.6791
 -0.6726  -0.6640  -0.6560  -0.6483  -0.6323  -0.6298  -0.6197  -0.6145
 -0.6108  -0.6072  -0.5958  -0.5924  -0.5827  -0.5647  -0.5593  -0.5547
 -0.5496  -0.5348  -0.5279  -0.5221  -0.5127  -0.5072  -0.5035  -0.5014
 -0.4877  -0.4862  -0.4776  -0.4698  -0.4623  -0.4618  -0.4609  -0.4460
 -0.4228  -0.4031  -0.3851  -0.3699  -0.3511  -0.2922  -0.2892  -0.2209
 -- Virtual --
  0.0273   0.0530   0.1138   0.1193   0.1399   0.1486   0.1537   0.1551
  0.1586   0.1601   0.1668   0.1785   0.1809   0.1860   0.1882   0.1922
  0.2013   0.2038   0.2057   0.2101   0.2191   0.2211   0.2239   0.2265
  0.2298   0.2350   0.2388   0.2484   0.2525   0.2582   0.2657   0.2716
  0.2768   0.2844   0.3095   0.3191   0.3281   0.3305   0.3344   0.3433
  0.3475   0.3582   0.3612   0.3628   0.3683   0.3729   0.3799   0.3815
  0.3849   0.3888   0.3953   0.3976   0.4020   0.4079   0.4116   0.4196
  0.4214   0.4266   0.4297   0.4334   0.4361   0.4408   0.4458   0.4473
  0.4562   0.4609   0.4676   0.4680   0.4739   0.4764   0.4780   0.4836
  0.4864   0.4953   0.4987   0.5018   0.5040   0.5129   0.5181   0.5195
  0.5224   0.5307   0.5322   0.5383   0.5414   0.5465   0.5472   0.5539
  0.5564   0.5583   0.5609   0.5625   0.5694   0.5729   0.5771   0.5787
  0.5838   0.5877   0.5898   0.5932   0.5974   0.6000   0.6026   0.6076
  0.6132   0.6158   0.6179   0.6219   0.6231   0.6241   0.6288   0.6334
  0.6383   0.6397   0.6426   0.6465   0.6475   0.6502   0.6564   0.6579
  0.6617   0.6655   0.6713   0.6774   0.6841   0.6850   0.6892   0.6955
  0.6996   0.7030   0.7106   0.7148   0.7169   0.7190   0.7261   0.7425
  0.7462   0.7505   0.7594   0.7655   0.7694   0.7711   0.7769   0.7846
  0.7930   0.7963   0.8016   0.8044   0.8098   0.8151   0.8196   0.8215
  0.8248   0.8327   0.8348   0.8520   0.8582   0.8672   0.8786   0.8835
  0.8889   0.8924   0.8958   0.8976   0.9033   0.9073   0.9106   0.9179
  0.9214   0.9222   0.9330   0.9342   0.9375   0.9474   0.9525   0.9547
  0.9618   0.9678   0.9727   0.9747   0.9781   0.9846   0.9889   0.9903
  0.9958   0.9986   1.0018   1.0079   1.0123   1.0150   1.0219   1.0276
  1.0353   1.0391   1.0459   1.0496   1.0518   1.0558   1.0613   1.0677
  1.0739   1.0754   1.0812   1.0887   1.0929   1.0972   1.0990   1.1050
  1.1108   1.1183   1.1224   1.1303   1.1338   1.1380   1.1466   1.1519
  1.1545   1.1587   1.1643   1.1686   1.1698   1.1739   1.1785   1.1815
  1.1837   1.1915   1.1929   1.1986   1.1990   1.2044   1.2126   1.2177
  1.2231   1.2271   1.2379   1.2401   1.2423   1.2486   1.2531   1.2575
  1.2621   1.2667   1.2740   1.2824   1.2853   1.2899   1.2935   1.3004
  1.3053   1.3097   1.3166   1.3195   1.3260   1.3311   1.3418   1.3432
  1.3451   1.3522   1.3617   1.3718   1.3777   1.3874   1.3926   1.3970
  1.4045   1.4065   1.4126   1.4205   1.4273   1.4350   1.4414   1.4538
  1.4646   1.4716   1.4764   1.4790   1.4885   1.4912   1.4949   1.4995
  1.5017   1.5083   1.5123   1.5125   1.5200   1.5333   1.5357   1.5384
  1.5429   1.5481   1.5508   1.5545   1.5624   1.5642   1.5699   1.5791
  1.5844   1.5975   1.6051   1.6112   1.6197   1.6234   1.6288   1.6424
  1.6514   1.6544   1.6586   1.6655   1.6700   1.6734   1.6807   1.6838
  1.6913   1.6985   1.7043   1.7186   1.7213   1.7276   1.7347   1.7495
  1.7535   1.7621   1.7740   1.7800   1.7877   1.7980   1.8093   1.8135
  1.8244   1.8309   1.8344   1.8420   1.8553   1.8600   1.8613   1.8767
  1.8787   1.8876   1.8880   1.9052   1.9176   1.9220   1.9298   1.9336
  1.9379   1.9413   1.9532   1.9601   1.9723   1.9877   1.9903   2.0149
  2.0161   2.0205   2.0254   2.0317   2.0354   2.0418   2.0511   2.0570
  2.0693   2.0720   2.0831   2.0955   2.0995   2.1115   2.1156   2.1351
  2.1440   2.1448   2.1504   2.1565   2.1685   2.1799   2.1839   2.1929
  2.1936   2.2020   2.2111   2.2198   2.2228   2.2288   2.2313   2.2457
  2.2524   2.2555   2.2619   2.2707   2.2785   2.2803   2.2941   2.3066
  2.3154   2.3203   2.3256   2.3409   2.3488   2.3504   2.3597   2.3654
  2.3828   2.3868   2.3932   2.4048   2.4122   2.4189   2.4219   2.4287
  2.4350   2.4567   2.4578   2.4705   2.4806   2.4849   2.4851   2.5024
  2.5138   2.5230   2.5291   2.5330   2.5431   2.5613   2.5661   2.5693
  2.5787   2.5849   2.5950   2.6041   2.6094   2.6167   2.6230   2.6266
  2.6360   2.6393   2.6427   2.6489   2.6552   2.6593   2.6695   2.6728
  2.6819   2.6879   2.6912   2.6943   2.6989   2.7067   2.7170   2.7197
  2.7259   2.7310   2.7365   2.7398   2.7446   2.7579   2.7638   2.7682
  2.7738   2.7807   2.7955   2.8053   2.8090   2.8164   2.8175   2.8285
  2.8364   2.8470   2.8491   2.8569   2.8630   2.8713   2.8739   2.8801
  2.8842   2.8899   2.9007   2.9047   2.9176   2.9289   2.9387   2.9459
  2.9582   2.9607   2.9641   2.9695   2.9766   2.9842   2.9897   2.9978
  3.0094   3.0151   3.0258   3.0320   3.0408   3.0425   3.0453   3.0475
  3.0499   3.0664   3.0749   3.0893   3.0902   3.0941   3.1017   3.1027
  3.1094   3.1129   3.1218   3.1289   3.1310   3.1350   3.1417   3.1491
  3.1539   3.1580   3.1591   3.1650   3.1676   3.1762   3.1795   3.1815
  3.1927   3.1957   3.2000   3.2081   3.2114   3.2144   3.2195   3.2236
  3.2336   3.2355   3.2467   3.2497   3.2545   3.2606   3.2622   3.2660
  3.2740   3.2764   3.2800   3.2838   3.2847   3.2905   3.2942   3.2993
  3.3063   3.3109   3.3159   3.3189   3.3280   3.3310   3.3365   3.3421
  3.3446   3.3491   3.3515   3.3548   3.3606   3.3645   3.3669   3.3682
  3.3697   3.3812   3.3851   3.3920   3.3976   3.4017   3.4046   3.4063
  3.4133   3.4153   3.4264   3.4307   3.4317   3.4334   3.4385   3.4453
  3.4479   3.4553   3.4596   3.4669   3.4701   3.4728   3.4797   3.4845
  3.4921   3.4963   3.5048   3.5091   3.5126   3.5195   3.5235   3.5307
  3.5433   3.5484   3.5582   3.5620   3.5678   3.5679   3.5780   3.5815
  3.5819   3.5883   3.5958   3.6007   3.6024   3.6080   3.6147   3.6183
  3.6269   3.6326   3.6343   3.6442   3.6465   3.6499   3.6533   3.6560
  3.6595   3.6693   3.6753   3.6776   3.6799   3.6823   3.6895   3.6994
  3.7031   3.7074   3.7106   3.7133   3.7162   3.7228   3.7258   3.7309
  3.7327   3.7357   3.7391   3.7488   3.7554   3.7607   3.7671   3.7774
  3.7805   3.7871   3.7924   3.7940   3.8044   3.8076   3.8143   3.8213
  3.8249   3.8305   3.8390   3.8440   3.8470   3.8494   3.8516   3.8591
  3.8691   3.8716   3.8772   3.8839   3.8882   3.8968   3.9039   3.9164
  3.9186   3.9252   3.9336   3.9418   3.9439   3.9569   3.9578   3.9651
  3.9658   3.9687   3.9800   3.9886   3.9996   4.0091   4.0174   4.0177
  4.0235   4.0319   4.0376   4.0487   4.0516   4.0618   4.0660   4.0719
  4.0749   4.0820   4.0882   4.0972   4.1019   4.1087   4.1148   4.1219
  4.1350   4.1412   4.1545   4.1569   4.1710   4.1715   4.1734   4.1772
  4.1809   4.1880   4.1987   4.2098   4.2114   4.2193   4.2283   4.2357
  4.2475   4.2534   4.2704   4.2744   4.2836   4.2940   4.3023   4.3129
  4.3144   4.3257   4.3273   4.3354   4.3462   4.3483   4.3525   4.3643
  4.3699   4.3764   4.3858   4.3924   4.3949   4.4022   4.4117   4.4142
  4.4221   4.4243   4.4285   4.4337   4.4338   4.4382   4.4533   4.4556
  4.4695   4.4891   4.4919   4.4936   4.4976   4.5110   4.5223   4.5262
  4.5343   4.5497   4.5524   4.5646   4.5676   4.5722   4.5789   4.5963
  4.5989   4.6042   4.6180   4.6225   4.6353   4.6370   4.6414   4.6472
  4.6610   4.6632   4.6706   4.6835   4.6973   4.7031   4.7100   4.7259
  4.7314   4.7393   4.7464   4.7586   4.7760   4.7796   4.7992   4.8094
  4.8225   4.8269   4.8302   4.8588   4.8650   4.8798   4.8921   4.8961
  4.9166   4.9243   4.9444   4.9513   4.9557   4.9659   4.9685   4.9791
  4.9947   5.0041   5.0115   5.0128   5.0204   5.0402   5.0511   5.0562
  5.0605   5.0884   5.1014   5.1225   5.1433   5.1581   5.1682   5.1768
  5.1896   5.1960   5.2034   5.2055   5.2119   5.2149   5.2322   5.2534
  5.2586   5.2669   5.2773   5.2916   5.2952   5.3165   5.3202   5.3274
  5.3376   5.3538   5.3549   5.3643   5.3685   5.3786   5.3904   5.4024
  5.4037   5.4092   5.4347   5.4451   5.4666   5.4728   5.4845   5.4984
  5.5090   5.5213   5.5227   5.5432   5.5678   5.5700   5.5748   5.5907
  5.5974   5.6116   5.6168   5.6331   5.6415   5.6791   5.6919   5.6925
  5.7312   5.7350   5.7651   5.7901   5.8002   5.8214   5.8400   5.8588
  5.8650   5.8839   5.9057   5.9254   5.9657   5.9689   5.9843   6.0042
  6.0430   6.0674   6.1213   6.1272   6.1332   6.1500   6.1715   6.1778
  6.1854   6.1905   6.2234   6.2466   6.2633   6.2778   6.2863   6.3024
  6.3080   6.3411   6.3625   6.4286   6.4664   6.4906   6.5382   6.5474
  6.5557   6.5677   6.6451   6.6759   6.6996   6.7177   6.7389   6.7485
  6.8074   6.8563   6.8595   6.8825   6.8998   6.9912   7.1312   7.1464
  7.1777   7.2116   7.2224   7.2395   7.3256   7.3270   7.3422   7.3722
  7.3759   7.4279   7.4619   7.4855   7.4868   7.4971   7.5208   7.5494
  7.6157   7.7393   7.7700   7.8033   7.8312   7.9119   7.9273   7.9567
  8.0030   8.1317   8.3359   8.6781   8.9271   9.0138   9.3625   9.5041
  9.6970  10.3089  11.2376  11.4194  11.9036  11.9605  12.1211  12.3088
 12.4044  12.4965  12.7324  12.9203  12.9947  13.1703  13.4813  13.5813
 13.8333  13.9002  13.9482  13.9996  14.2039  14.3273  14.9350  15.2015
 --------------------------------------------------------------
 
          Ground-State Mulliken Net Atomic Charges

     Atom                 Charge (a.u.)
  ----------------------------------------
      1 C                    -0.070058
      2 C                    -0.260418
      3 S                    -0.136146
      4 C                    -0.043565
      5 H                     0.193358
      6 C                    -0.052814
      7 C                     0.229308
      8 C                     0.225043
      9 C                    -0.078432
     10 C                    -0.059188
     11 O                    -0.334743
     12 O                    -0.343429
     13 C                    -0.082364
     14 H                     0.119867
     15 H                     0.091549
     16 H                     0.093340
     17 C                    -0.086413
     18 H                     0.122998
     19 H                     0.091562
     20 H                     0.090801
     21 C                    -0.246611
     22 S                    -0.071591
     23 C                     0.068760
     24 H                     0.203607
     25 C                    -0.088186
     26 S                     0.103624
     27 C                    -0.239331
     28 C                    -0.082344
     29 C                    -0.002215
     30 C                     0.395536
     31 C                    -0.157267
     32 S                     0.039848
     33 C                     0.460352
     34 O                    -0.448476
     35 O                    -0.297576
     36 F                    -0.212158
     37 C                    -0.055143
     38 H                     0.116687
     39 H                     0.084788
     40 H                     0.084807
     41 H                     0.216916
     42 H                     0.116948
     43 H                     0.114965
     44 H                     0.183806
  ----------------------------------------
  Sum of atomic charges =     0.000000

 -----------------------------------------------------------------
                    Cartesian Multipole Moments
 -----------------------------------------------------------------
    Charge (ESU x 10^10)
                -0.0000
    Dipole Moment (Debye)
         X       0.4503      Y       3.8779      Z       3.7397
       Tot       5.4062
    Quadrupole Moments (Debye-Ang)
        XX    -184.8622     XY      -2.2945     YY    -174.9380
        XZ       4.6519     YZ     -10.7101     ZZ    -203.9278
    Octopole Moments (Debye-Ang^2)
       XXX      -2.3760    XXY     315.3545    XYY      37.0416
       YYY    1021.0252    XXZ     175.8549    XYZ     -33.1671
       YYZ     123.3624    XZZ       9.4736    YZZ     500.8678
       ZZZ     562.8544
    Hexadecapole Moments (Debye-Ang^3)
      XXXX   -2368.2999   XXXY    -644.0791   XXYY   -3963.2507
      XYYY    -895.9584   YYYY  -19897.0051   XXXZ     123.7713
      XXYZ     478.6537   XYYZ     132.0903   YYYZ    1188.2978
      XXZZ   -1408.1170   XYZZ    -168.5402   YYZZ   -4198.8146
      XZZZ     -14.7372   YZZZ     632.4346   ZZZZ   -5548.9203
 -----------------------------------------------------------------
 Total job time:  329.36s(wall), 10631.96s(cpu) 
 Tue Sep 26 18:15:27 2023

        *************************************************************
        *                                                           *
        *  Thank you very much for using Q-Chem.  Have a nice day.  *
        *                                                           *
        *************************************************************


0 sent ACK to 0 
now end server 0 ... 
cleanup process ... done
remove work dirs ./qchem466589.0 -- ./qchem466589.0
rm -rf ./qchem466589.0
rm -rf ./qchem466589
