You are running Q-Chem version: 5.4.0

#
# job setting
#
local host:  exp-8-24
current dir: /expanse/lustre/projects/csd626/rramji/aromodel/PTB7_fin/Hydrogenated_Rotation_Test
input file:  fin_bdt_Phi_40_Theta_350_fin_ftt_Hydrogenated.qcin
output file: 
nprocs     : 1
nthreads   : 64
#
# qchem installation setting
#
QC:          /cm/shared/apps/spack/cpu/opt/spack/linux-centos8-zen2/gcc-10.2.0/qchem-5.4-akfmr7b3t57bfs6qan3padb2wnb2i7cl
QCAUX:       /cm/shared/apps/spack/cpu/opt/spack/linux-centos8-zen2/gcc-10.2.0/qchem-5.4-akfmr7b3t57bfs6qan3padb2wnb2i7cl/qcaux
QCPROG:      /cm/shared/apps/spack/cpu/opt/spack/linux-centos8-zen2/gcc-10.2.0/qchem-5.4-akfmr7b3t57bfs6qan3padb2wnb2i7cl/exe/qcprog.exe
QCPROG_S:    /cm/shared/apps/spack/cpu/opt/spack/linux-centos8-zen2/gcc-10.2.0/qchem-5.4-akfmr7b3t57bfs6qan3padb2wnb2i7cl/exe/qcprog.exe_s
PARALLEL:    -DPARALLEL
QCMPI:       mpich
#
# qchem directory setting
#
qcrun:       qchem960457
QCSCRATCH:   .
QCLOCALSCR:  
QCTMPDIR:    .
QCFILEPREF:  ./qchem960457
QCSAVEDIR:   
workdirs:    ./qchem960457
workdir0:    ./qchem960457
partmpdirs =  
#
# parallel setting
#
QCRSH:           ssh
QCMPI:           mpich
QCMPIRUN:        /cm/shared/apps/spack/cpu/opt/spack/linux-centos8-zen2/gcc-10.2.0/qchem-5.4-akfmr7b3t57bfs6qan3padb2wnb2i7cl/bin/mpi/mpirun_qchem
QCMACHINEFILE:   ./qchem960457/hostfile
exp-8-24

#
# env setting
#
exported envs:   QC QCAUX QCSCRATCH QCRUNNAME QCFILEPREF QCPROG QCPROG_S GUIFILE

Running Job 1 of 1 fin_bdt_Phi_40_Theta_350_fin_ftt_Hydrogenated.qcin
qchem fin_bdt_Phi_40_Theta_350_fin_ftt_Hydrogenated.qcin_960457.0 ./qchem960457/ 1
/cm/shared/apps/spack/cpu/opt/spack/linux-centos8-zen2/gcc-10.2.0/qchem-5.4-akfmr7b3t57bfs6qan3padb2wnb2i7cl/bin/mpi/mpirun_qchem -machinefile ./qchem960457/hostfile -np 1 /cm/shared/apps/spack/cpu/opt/spack/linux-centos8-zen2/gcc-10.2.0/qchem-5.4-akfmr7b3t57bfs6qan3padb2wnb2i7cl/exe/qcprog.exe fin_bdt_Phi_40_Theta_350_fin_ftt_Hydrogenated.qcin_960457.0 ./qchem960457/

Process 0 of 1 is on exp-8-24 - thread support 0
initial socket setup ...start
initial socket setup ...done 
now start server 0 ... 
                  Welcome to Q-Chem
     A Quantum Leap Into The Future Of Chemistry


 Q-Chem 5.4, Q-Chem, Inc., Pleasanton, CA (2021)

 License issued to: University of California, San Diego (site)

 E. Epifanovsky,  A. T. B. Gilbert,  Xintian Feng,  Joonho Lee,  Yuezhi Mao,  
 N. Mardirossian,  P. Pokhilko,  A. White,  M. Wormit,  M. P. Coons,  
 A. L. Dempwolff,  Zhengting Gan,  D. Hait,  P. R. Horn,  L. D. Jacobson,  
 I. Kaliman,  J. Kussmann,  A. W. Lange,  Ka Un Lao,  D. S. Levine,  Jie Liu,  
 S. C. McKenzie,  A. F. Morrison,  K. Nanda,  F. Plasser,  D. R. Rehn,  
 M. L. Vidal,  Zhi-Qiang You,  Ying Zhu,  B. Alam,  B. Albrecht,  
 A. Aldossary,  E. Alguire,  J. H. Andersen,  D. Barton,  K. Begam,  A. Behn,  
 Y. A. Bernard,  E. J. Berquist,  H. Burton,  A. Carreras,  K. Carter-Fenk,  
 R. Chakraborty,  A. D. Chien,  K. D. Closser,  V. Cofer-Shabica,  
 S. Dasgupta,  Jia Deng,  M. de Wergifosse,  M. Diedenhofen,  Hainam Do,  
 S. Ehlert,  Po-Tung Fang,  S. Fatehi,  Qingguo Feng,  J. Gayvert,  
 Qinghui Ge,  G. Gidofalvi,  M. Goldey,  J. Gomes,  C. Gonzalez-Espinoza,  
 S. Gulania,  A. Gunina,  M. W. D. Hanson-Heine,  P. H. P. Harbach,  
 A. W. Hauser,  M. F. Herbst,  M. Hernandez Vera,  M. Hodecker,  
 Z. C. Holden,  S. Houck,  Xunkun Huang,  Kerwin Hui,  B. C. Huynh,  
 M. Ivanov,  Hyunjun Ji,  Hanjie Jiang,  B. Kaduk,  S. Kaehler,  
 K. Khistyaev,  Jaehoon Kim,  P. Klunzinger,  Z. Koczor-Benda,  
 Joong Hoon Koh,  D. Kosenkov,  L. Koulias,  T. Kowalczyk,  C. M. Krauter,  
 K. Kue,  A. Kunitsa,  T. Kus,  A. Landau,  K. V. Lawler,  D. Lefrancois,  
 S. Lehtola,  Rain Li,  Yi-Pei Li,  Jiashu Liang,  M. Liebenthal,  
 Hung-Hsuan Lin,  You-Sheng Lin,  Fenglai Liu,  Kuan-Yu Liu,  
 M. Loipersberger,  A. Luenser,  A. Manjanath,  P. Manohar,  E. Mansoor,  
 S. F. Manzer,  Shan-Ping Mao,  A. V. Marenich,  T. Markovich,  S. Mason,  
 S. A. Maurer,  P. F. McLaughlin,  M. F. S. J. Menger,  J.-M. Mewes,  
 S. A. Mewes,  P. Morgante,  J. W. Mullinax,  T. S. Nguyen-Beck,  
 K. J. Oosterbaan,  G. Paran,  Alexander C. Paul,  Suranjan K. Paul,  
 F. Pavosevic,  Zheng Pei,  S. Prager,  E. I. Proynov,  E. Ramos,  B. Rana,  
 A. E. Rask,  A. Rettig,  R. M. Richard,  F. Rob,  E. Rossomme,  T. Scheele,  
 M. Scheurer,  M. Schneider,  N. Sergueev,  S. M. Sharada,  W. Skomorowski,  
 D. W. Small,  C. J. Stein,  Yu-Chuan Su,  E. J. Sundstrom,  Zhen Tao,  
 J. Thirman,  T. Tsuchimochi,  N. M. Tubman,  S. P. Veccham,  O. Vydrov,  
 J. Wenzel,  J. Witte,  A. Yamada,  Kun Yao,  S. Yeganeh,  S. R. Yost,  
 A. Zech,  Igor Ying Zhang,  Xing Zhang,  Yu Zhang,  D. Zuev,  
 A. Aspuru-Guzik,  A. T. Bell,  N. A. Besley,  K. B. Bravaya,  B. R. Brooks,  
 D. Casanova,  Jeng-Da Chai,  S. Coriani,  C. J. Cramer,  
 A. E. DePrince, III,  R. A. DiStasio Jr.,  A. Dreuw,  B. D. Dunietz,  
 T. R. Furlani,  W. A. Goddard III,  S. Grimme,  S. Hammes-Schiffer,  
 T. Head-Gordon,  W. J. Hehre,  Chao-Ping Hsu,  T.-C. Jagau,  Yousung Jung,  
 A. Klamt,  Jing Kong,  D. S. Lambrecht,  WanZhen Liang,  N. J. Mayhall,  
 C. W. McCurdy,  J. B. Neaton,  C. Ochsenfeld,  J. A. Parkhill,  R. Peverati,  
 V. A. Rassolov,  Yihan Shao,  L. V. Slipchenko,  T. Stauch,  R. P. Steele,  
 J. E. Subotnik,  A. J. W. Thom,  A. Tkatchenko,  D. G. Truhlar,  
 T. Van Voorhis,  T. A. Wesolowski,  K. B. Whaley,  H. L. Woodcock III,  
 P. M. Zimmerman,  S. Faraji,  P. M. W. Gill,  M. Head-Gordon,  
 J. M. Herbert,  A. I. Krylov

 Contributors to earlier versions of Q-Chem not listed above: 
 R. D. Adamson,  B. Austin,  R. Baer,  J. Baker,  G. J. O. Beran,  
 K. Brandhorst,  S. T. Brown,  E. F. C. Byrd,  A. K. Chakraborty,  
 G. K. L. Chan,  Chun-Min Chang,  Yunqing Chen,  C.-L. Cheng,  
 Siu Hung Chien,  D. M. Chipman,  D. L. Crittenden,  H. Dachsel,  
 R. J. Doerksen,  A. D. Dutoi,  R. G. Edgar,  J. Fosso-Tande,  
 L. Fusti-Molnar,  D. Ghosh,  A. Ghysels,  A. Golubeva-Zadorozhnaya,  
 J. Gonthier,  M. S. Gordon,  S. R. Gwaltney,  G. Hawkins,  J. E. Herr,  
 A. Heyden,  S. Hirata,  E. G. Hohenstein,  G. Kedziora,  F. J. Keil,  
 C. Kelley,  Jihan Kim,  R. A. King,  R. Z. Khaliullin,  P. P. Korambath,  
 W. Kurlancheek,  A. Laurent,  A. M. Lee,  M. S. Lee,  S. V. Levchenko,  
 Ching Yeh Lin,  D. Liotard,  E. Livshits,  R. C. Lochan,  I. Lotan,  
 L. A. Martinez-Martinez,  P. E. Maslen,  N. Nair,  D. P. O'Neill,  
 D. Neuhauser,  E. Neuscamman,  C. M. Oana,  R. Olivares-Amaya,  R. Olson,  
 T. M. Perrine,  B. Peters,  P. A. Pieniazek,  A. Prociuk,  Y. M. Rhee,  
 J. Ritchie,  M. A. Rohrdanz,  E. Rosta,  N. J. Russ,  H. F. Schaefer III,  
 M. W. Schmidt,  N. E. Schultz,  S. Sharma,  N. Shenvi,  C. D. Sherrill,  
 A. C. Simmonett,  A. Sodt,  T. Stein,  D. Stuck,  K. S. Thanthiriwatte,  
 V. Vanovschi,  L. Vogt,  Tao Wang,  A. Warshel,  M. A. Watson,  
 C. F. Williams,  Q. Wu,  X. Xu,  Jun Yang,  W. Zhang,  Yan Zhao

 Please cite Q-Chem as follows:
 Y. Shao et al., Mol. Phys. 113, 184-215 (2015)
 DOI: 10.1080/00268976.2014.952696

 Q-Chem 5.4.0 for Intel X86 EM64T Linux

 Parts of Q-Chem use Armadillo 9.800.1 (Horizon Scraper).
 http://arma.sourceforge.net/

 Q-Chem begins on Sun Sep 24 19:43:55 2023  

 Host: 
0

     Scratch files written to ./qchem960457//
 May1621 |scratch|qcdevops|jenkins|workspace|build_RNUM    
 Parallel job on  1  processors
 Processing $rem in /cm/shared/apps/spack/cpu/opt/spack/linux-centos8-zen2/gcc-10.2.0/qchem-5.4-akfmr7b3t57bfs6qan3padb2wnb2i7cl/config/preferences:
 Processing $rem in /home/rramji/.qchemrc:
 Symmetry turned off for PCM/SM12/SMD calculation
 Core orbitals will be frozen

 Checking the input file for inconsistencies... 	...done.

 Q-Chem warning in module forms1/BasisType.C, line 2236:

 You are not using the predefined 5D/6D in this basis set.


--------------------------------------------------------------
User input:
--------------------------------------------------------------
$molecule
0 1
C	-0.000687	-8.519741	0.272104
C	-0.194476	-7.635967	-0.779533
S	0.287581	-7.651740	1.799596
C	-0.125787	-6.261894	-0.399427
H	-0.383826	-7.954738	-1.812314
C	0.121989	-6.079985	1.006762
C	0.247488	-4.798382	1.564994
C	-0.258303	-5.153542	-1.284087
C	-0.128493	-3.869626	-0.726260
C	0.116725	-3.688927	0.681918
O	-0.517104	-5.481075	-2.580622
O	0.508622	-4.479871	2.867144
C	0.075811	-5.356026	3.900814
H	0.173640	-4.790496	4.847002
H	0.707354	-6.268513	3.971794
H	-0.984963	-5.658187	3.763397
C	-0.257016	-4.546999	-3.621225
H	-0.357864	-5.107564	-4.569828
H	0.771211	-4.131473	-3.551910
H	-0.990913	-3.712085	-3.626592
C	0.187034	-2.314326	1.058088
S	-0.281899	-2.295487	-1.523035
C	-0.000000	-1.435180	-0.000000
H	0.373653	-1.993211	2.090565
C	0.000000	0.000000	0.000000
S	0.579852	0.687566	1.510732
C	1.591625	1.895024	0.727629
C	0.583771	0.695758	-1.064665
C	1.475308	1.760606	-0.678287
C	0.542366	0.643841	-2.486150
C	1.355286	1.612843	-3.106916
S	2.154609	2.570627	-1.965735
C	1.522440	1.804778	-4.559972
O	0.924684	1.087757	-5.350277
O	2.349739	2.785679	-5.004375
F	-0.170780	-0.212144	-3.246290
C	2.588082	3.053936	-6.334976
H	3.298799	3.899999	-6.370268
H	1.655291	3.328371	-6.875609
H	3.026021	2.177385	-6.861878
H	2.183053	2.599759	1.321510
H	0.883319	-9.146471	0.105910
H	-0.883019	-9.150570	0.431555
H	1.062054	-1.444158	-0.195861
$end

$rem
JOBTYPE		SP
EXCHANGE	HF
CORRELATION	pRIMP2
BASIS		cc-pvtz
METHOD		rimp2
AUX_BASIS	rimp2-cc-pvtz
SOLVENT_METHOD	PCM
PURECART	11111
SYMMETRY	false
MEM_TOTAL	110000
SCF_CONVERGENCE = 6
THRESH=10
GUI = 2
$end



$solvent
dielectric 4.90
$end
--------------------------------------------------------------
 ----------------------------------------------------------------
             Standard Nuclear Orientation (Angstroms)
    I     Atom           X                Y                Z
 ----------------------------------------------------------------
    1      C      -0.0006870000    -8.5197410000     0.2721040000
    2      C      -0.1944760000    -7.6359670000    -0.7795330000
    3      S       0.2875810000    -7.6517400000     1.7995960000
    4      C      -0.1257870000    -6.2618940000    -0.3994270000
    5      H      -0.3838260000    -7.9547380000    -1.8123140000
    6      C       0.1219890000    -6.0799850000     1.0067620000
    7      C       0.2474880000    -4.7983820000     1.5649940000
    8      C      -0.2583030000    -5.1535420000    -1.2840870000
    9      C      -0.1284930000    -3.8696260000    -0.7262600000
   10      C       0.1167250000    -3.6889270000     0.6819180000
   11      O      -0.5171040000    -5.4810750000    -2.5806220000
   12      O       0.5086220000    -4.4798710000     2.8671440000
   13      C       0.0758110000    -5.3560260000     3.9008140000
   14      H       0.1736400000    -4.7904960000     4.8470020000
   15      H       0.7073540000    -6.2685130000     3.9717940000
   16      H      -0.9849630000    -5.6581870000     3.7633970000
   17      C      -0.2570160000    -4.5469990000    -3.6212250000
   18      H      -0.3578640000    -5.1075640000    -4.5698280000
   19      H       0.7712110000    -4.1314730000    -3.5519100000
   20      H      -0.9909130000    -3.7120850000    -3.6265920000
   21      C       0.1870340000    -2.3143260000     1.0580880000
   22      S      -0.2818990000    -2.2954870000    -1.5230350000
   23      C       0.0000000000    -1.4351800000     0.0000000000
   24      H       0.3736530000    -1.9932110000     2.0905650000
   25      C       0.0000000000     0.0000000000     0.0000000000
   26      S       0.5798520000     0.6875660000     1.5107320000
   27      C       1.5916250000     1.8950240000     0.7276290000
   28      C       0.5837710000     0.6957580000    -1.0646650000
   29      C       1.4753080000     1.7606060000    -0.6782870000
   30      C       0.5423660000     0.6438410000    -2.4861500000
   31      C       1.3552860000     1.6128430000    -3.1069160000
   32      S       2.1546090000     2.5706270000    -1.9657350000
   33      C       1.5224400000     1.8047780000    -4.5599720000
   34      O       0.9246840000     1.0877570000    -5.3502770000
   35      O       2.3497390000     2.7856790000    -5.0043750000
   36      F      -0.1707800000    -0.2121440000    -3.2462900000
   37      C       2.5880820000     3.0539360000    -6.3349760000
   38      H       3.2987990000     3.8999990000    -6.3702680000
   39      H       1.6552910000     3.3283710000    -6.8756090000
   40      H       3.0260210000     2.1773850000    -6.8618780000
   41      H       2.1830530000     2.5997590000     1.3215100000
   42      H       0.8833190000    -9.1464710000     0.1059100000
   43      H      -0.8830190000    -9.1505700000     0.4315550000
   44      H       1.0620540000    -1.4441580000    -0.1958610000
 ----------------------------------------------------------------
 Nuclear Repulsion Energy =        3412.30853966 hartrees
 There are      120 alpha and      120 beta electrons
 Requested basis set is cc-pVTZ
 There are 388 shells and 1096 basis functions

 Total QAlloc Memory Limit 110000 MB
 Mega-Array Size       188 MB
 MEM_STATIC part       192 MB
 Discretize the solute cavity surface with Lebedev spheres
	Using 110 Lebedev grid points for each H atom
	Using 194 Lebedev grid points for other atoms
	Atomic van der Waals radii will be scaled by 1.20
 Remove points where switching function is < 1.0e-08
 Keep 2904 surface tesserae and discard 4372 interior tesserae
 Molecular Surface Area = 432.352 Angst**2
 Requested basis set is rimp2-cc-pVTZ
 There are 853 shells and 2963 basis functions
 A cutoff of  1.0D-10 yielded  34233 shell pairs
 There are    257707 function pairs (    333025 Cartesian)
 Smallest overlap matrix eigenvalue = 2.16E-05

 Scale SEOQF with 1.000000e-01/1.000000e-02/1.000000e-02

 Standard Electronic Orientation quadrupole field applied
 Nucleus-field energy     =     0.0000000209 hartrees
 Guess from superposition of atomic densities
 Warning:  Energy on first SCF cycle will be non-variational
 SAD guess density has 240.000000 electrons

 -----------------------------------------------------------------------
  General SCF calculation program by
  Eric Jon Sundstrom, Paul Horn, Yuezhi Mao, Dmitri Zuev, Alec White,
  David Stuck, Shaama M.S., Shane Yost, Joonho Lee, David Small,
  Daniel Levine, Susi Lehtola, Hugh Burton, Evgeny Epifanovsky,
  Bang C. Huynh
 -----------------------------------------------------------------------
 Hartree-Fock
 using 64 threads for integral computing
 -------------------------------------------------------
 OpenMP Integral computing Module                
 Release: version 1.0, May 2013, Q-Chem Inc. Pittsburgh 
 -------------------------------------------------------
 A restricted SCF calculation will be
 performed using DIIS
 SCF converges when DIIS error is below 1.0e-06
 ---------------------------------------
  Cycle       Energy         DIIS error
 ---------------------------------------
    1   -2767.4364828014      1.77e-02  
    2   -2754.8392769713      1.54e-03  
    3   -2755.1870279998      8.70e-04  
    4   -2755.2764860368      2.56e-04  
    5   -2755.2906128074      7.26e-05  
    6   -2755.2922649594      2.68e-05  
    7   -2755.2927255872      1.35e-05  
    8   -2755.2928558603      5.36e-06  
    9   -2755.2928790921      2.61e-06  
   10   -2755.2928837797      1.24e-06  
   11   -2755.2928851196      5.96e-07  Convergence criterion met
 ---------------------------------------
 SCF time:   CPU 7871.93s  wall 282.00s 

************** Final PCM Free Energy Summary **************
 G_electrostatic  =      -0.02136748 hartree =     -13.40829643 kcal/mol
 G_cavitation     =       0.00000000 hartree =       0.00000000 kcal/mol
 G_dispersion     =       0.00000000 hartree =       0.00000000 kcal/mol
 G_repulsion      =       0.00000000 hartree =       0.00000000 kcal/mol
 --------------------------------------------------
 Non-electrostatic Free Energy =       0.00000000 hartree =       0.00000000 kcal/mol
 Total                         =      -0.02136748 hartree =     -13.40829643 kcal/mol
 --------------------------------------------------
 SCF Energy (H0 + V/2)                       =   -2755.29288512 
 Solute Internal Energy (H0)                 =   -2755.27151764 
 Total Free Energy (H0 + V/2 + non-elec)     =   -2755.29288512 hartree
                                             = -1728972.38079145 kcal/mol
***********************************************************

 SCF   energy in the final basis set =    -2755.2928851196
 Total energy in the final basis set =    -2755.2928851196


 --------------------------------------------------------------
  Generalized many-body perturbation theory program
  by Joonho Lee, Fazle Rob, Xintian Feng, Evgeny Epifanovsky

 No regularization used 
 (reg. param. = 0.0000e+00)
  (P|Q)^-1/2 Time:  CPU 159.76 s  wall 2.97 s

 In RI-MP2 calculation: 
 # of frozen core orbitals: 45

 Components of the RIMP2 correlation energy:
        aaaa    correlation energy =        -0.6729707089 a.u.
        abab    correlation energy =        -3.7579967841 a.u.
        bbbb    correlation energy =        -0.6729707089 a.u.
        non-Brillouin singles      =        -0.0000000000 a.u.
        total same-spin energy     =        -1.3459414179 a.u.
        total opposite-spin energy =        -3.7579967841 a.u.

 Total  RIMP2   correlation energy =        -5.1039382019 a.u.
        RIMP2         total energy =     -2760.3968233215 a.u.

 RI-MP2 Energy Time:  CPU 3006.38 s  wall 49.01 s
 
 --------------------------------------------------------------
 
                    Orbital Energies (a.u.)
 --------------------------------------------------------------
 
 Alpha MOs
 -- Occupied --
-92.0138 -91.9953 -91.9737 -91.9600 -26.3349 -20.6117 -20.5877 -20.5876
-20.5489 -11.4095 -11.3785 -11.3149 -11.3097 -11.3092 -11.2987 -11.2953
-11.2929 -11.2884 -11.2844 -11.2834 -11.2834 -11.2810 -11.2781 -11.2752
-11.2692 -11.2604 -11.2593 -11.2516 -11.2417  -9.0127  -8.9993  -8.9765
 -8.9625  -6.6935  -6.6928  -6.6924  -6.6806  -6.6799  -6.6786  -6.6574
 -6.6566  -6.6552  -6.6438  -6.6428  -6.6418  -1.6505  -1.4713  -1.4109
 -1.4095  -1.3665  -1.2430  -1.2084  -1.1779  -1.1448  -1.0990  -1.0524
 -1.0464  -1.0306  -1.0068  -0.9991  -0.9726  -0.9593  -0.9494  -0.9407
 -0.8941  -0.8732  -0.8604  -0.8133  -0.7956  -0.7860  -0.7763  -0.7653
 -0.7609  -0.7332  -0.7216  -0.7173  -0.6988  -0.6952  -0.6855  -0.6784
 -0.6748  -0.6733  -0.6558  -0.6488  -0.6357  -0.6289  -0.6218  -0.6153
 -0.6110  -0.6059  -0.5980  -0.5943  -0.5750  -0.5672  -0.5627  -0.5587
 -0.5490  -0.5321  -0.5299  -0.5208  -0.5131  -0.5083  -0.5042  -0.5000
 -0.4849  -0.4835  -0.4783  -0.4635  -0.4610  -0.4600  -0.4577  -0.4475
 -0.4311  -0.3994  -0.3825  -0.3717  -0.3514  -0.2943  -0.2846  -0.2167
 -- Virtual --
  0.0144   0.0593   0.1117   0.1369   0.1386   0.1470   0.1532   0.1556
  0.1568   0.1603   0.1686   0.1733   0.1812   0.1861   0.1892   0.1899
  0.1964   0.2021   0.2043   0.2124   0.2160   0.2229   0.2238   0.2266
  0.2287   0.2305   0.2444   0.2476   0.2572   0.2592   0.2675   0.2748
  0.2954   0.2980   0.3073   0.3223   0.3294   0.3410   0.3425   0.3524
  0.3543   0.3560   0.3623   0.3634   0.3723   0.3760   0.3778   0.3811
  0.3860   0.3901   0.3926   0.3976   0.4090   0.4112   0.4153   0.4221
  0.4243   0.4271   0.4323   0.4362   0.4397   0.4403   0.4484   0.4496
  0.4554   0.4650   0.4659   0.4706   0.4730   0.4781   0.4797   0.4835
  0.4879   0.4921   0.4981   0.5029   0.5059   0.5135   0.5162   0.5182
  0.5225   0.5267   0.5320   0.5357   0.5398   0.5444   0.5466   0.5527
  0.5537   0.5586   0.5659   0.5663   0.5719   0.5736   0.5822   0.5840
  0.5898   0.5900   0.5907   0.5983   0.6007   0.6037   0.6102   0.6108
  0.6150   0.6186   0.6198   0.6211   0.6254   0.6268   0.6310   0.6364
  0.6389   0.6412   0.6440   0.6469   0.6487   0.6525   0.6554   0.6577
  0.6630   0.6689   0.6715   0.6802   0.6835   0.6857   0.6960   0.6981
  0.7043   0.7114   0.7140   0.7163   0.7181   0.7230   0.7236   0.7381
  0.7456   0.7558   0.7612   0.7685   0.7759   0.7778   0.7879   0.7910
  0.7954   0.7983   0.8019   0.8085   0.8105   0.8133   0.8187   0.8282
  0.8349   0.8419   0.8498   0.8515   0.8665   0.8691   0.8779   0.8813
  0.8890   0.8920   0.8960   0.9008   0.9024   0.9056   0.9138   0.9176
  0.9234   0.9283   0.9324   0.9358   0.9437   0.9469   0.9512   0.9540
  0.9585   0.9644   0.9675   0.9811   0.9836   0.9858   0.9903   0.9931
  1.0018   1.0039   1.0065   1.0087   1.0166   1.0206   1.0244   1.0283
  1.0391   1.0395   1.0470   1.0501   1.0540   1.0578   1.0640   1.0689
  1.0717   1.0739   1.0781   1.0927   1.0990   1.1040   1.1058   1.1122
  1.1133   1.1178   1.1264   1.1304   1.1411   1.1456   1.1497   1.1511
  1.1608   1.1635   1.1669   1.1714   1.1770   1.1784   1.1852   1.1873
  1.1924   1.1928   1.1997   1.2015   1.2071   1.2098   1.2176   1.2214
  1.2293   1.2313   1.2339   1.2401   1.2474   1.2486   1.2543   1.2593
  1.2617   1.2685   1.2732   1.2783   1.2812   1.2905   1.2954   1.3017
  1.3062   1.3099   1.3199   1.3298   1.3322   1.3370   1.3380   1.3412
  1.3460   1.3493   1.3573   1.3737   1.3775   1.3837   1.3889   1.3993
  1.4036   1.4044   1.4157   1.4249   1.4301   1.4317   1.4419   1.4523
  1.4639   1.4664   1.4729   1.4789   1.4880   1.4914   1.5014   1.5019
  1.5036   1.5080   1.5125   1.5190   1.5197   1.5290   1.5342   1.5363
  1.5457   1.5472   1.5504   1.5566   1.5633   1.5697   1.5728   1.5791
  1.5814   1.5873   1.6034   1.6103   1.6134   1.6260   1.6379   1.6429
  1.6495   1.6513   1.6549   1.6614   1.6650   1.6773   1.6841   1.6909
  1.6933   1.6978   1.7086   1.7157   1.7229   1.7270   1.7325   1.7475
  1.7539   1.7576   1.7714   1.7783   1.7876   1.7990   1.8090   1.8172
  1.8182   1.8316   1.8357   1.8401   1.8487   1.8663   1.8706   1.8747
  1.8814   1.8839   1.8944   1.9110   1.9197   1.9263   1.9395   1.9494
  1.9517   1.9562   1.9570   1.9647   1.9810   1.9885   2.0010   2.0054
  2.0141   2.0210   2.0270   2.0299   2.0362   2.0416   2.0482   2.0592
  2.0732   2.0884   2.0950   2.1007   2.1027   2.1135   2.1180   2.1391
  2.1452   2.1510   2.1529   2.1684   2.1785   2.1838   2.1861   2.1953
  2.2050   2.2082   2.2155   2.2182   2.2215   2.2294   2.2359   2.2393
  2.2508   2.2604   2.2682   2.2766   2.2823   2.2908   2.2989   2.3028
  2.3093   2.3140   2.3368   2.3378   2.3474   2.3538   2.3652   2.3779
  2.3862   2.3888   2.3931   2.3987   2.4095   2.4152   2.4203   2.4313
  2.4435   2.4453   2.4594   2.4660   2.4737   2.4838   2.4855   2.5022
  2.5128   2.5253   2.5294   2.5343   2.5443   2.5505   2.5586   2.5684
  2.5764   2.5893   2.5957   2.6025   2.6101   2.6189   2.6210   2.6262
  2.6304   2.6391   2.6442   2.6459   2.6562   2.6598   2.6695   2.6762
  2.6829   2.6924   2.6951   2.6967   2.7023   2.7076   2.7150   2.7211
  2.7272   2.7339   2.7407   2.7466   2.7512   2.7564   2.7635   2.7660
  2.7713   2.7842   2.8048   2.8084   2.8106   2.8153   2.8326   2.8378
  2.8413   2.8481   2.8548   2.8592   2.8656   2.8689   2.8752   2.8777
  2.8843   2.8922   2.9002   2.9091   2.9140   2.9340   2.9399   2.9542
  2.9577   2.9637   2.9673   2.9693   2.9813   2.9852   2.9943   3.0022
  3.0082   3.0122   3.0232   3.0362   3.0412   3.0445   3.0476   3.0559
  3.0627   3.0672   3.0730   3.0768   3.0850   3.0916   3.0938   3.1097
  3.1164   3.1192   3.1209   3.1332   3.1355   3.1401   3.1454   3.1470
  3.1578   3.1594   3.1623   3.1686   3.1734   3.1816   3.1827   3.1848
  3.1902   3.1960   3.2001   3.2052   3.2107   3.2142   3.2201   3.2226
  3.2333   3.2433   3.2456   3.2525   3.2546   3.2581   3.2639   3.2652
  3.2687   3.2817   3.2847   3.2878   3.2902   3.2933   3.2996   3.3039
  3.3050   3.3133   3.3232   3.3272   3.3300   3.3304   3.3361   3.3406
  3.3454   3.3485   3.3568   3.3601   3.3608   3.3652   3.3698   3.3735
  3.3770   3.3783   3.3837   3.3888   3.3914   3.4001   3.4017   3.4047
  3.4107   3.4223   3.4287   3.4323   3.4375   3.4399   3.4402   3.4455
  3.4527   3.4587   3.4645   3.4669   3.4715   3.4766   3.4834   3.4864
  3.4875   3.4939   3.5035   3.5107   3.5228   3.5244   3.5309   3.5338
  3.5432   3.5493   3.5565   3.5688   3.5730   3.5748   3.5789   3.5856
  3.5875   3.5913   3.5988   3.6003   3.6033   3.6054   3.6183   3.6209
  3.6246   3.6338   3.6370   3.6405   3.6441   3.6542   3.6562   3.6632
  3.6659   3.6718   3.6733   3.6776   3.6838   3.6850   3.6973   3.7014
  3.7054   3.7112   3.7185   3.7190   3.7228   3.7286   3.7303   3.7323
  3.7373   3.7447   3.7509   3.7527   3.7608   3.7643   3.7720   3.7771
  3.7844   3.7927   3.8003   3.8053   3.8119   3.8159   3.8214   3.8289
  3.8300   3.8375   3.8394   3.8437   3.8485   3.8517   3.8542   3.8633
  3.8675   3.8749   3.8849   3.8907   3.8986   3.9024   3.9082   3.9169
  3.9215   3.9319   3.9362   3.9441   3.9513   3.9578   3.9620   3.9717
  3.9782   3.9855   3.9924   3.9959   4.0015   4.0099   4.0181   4.0225
  4.0268   4.0393   4.0478   4.0504   4.0543   4.0654   4.0663   4.0713
  4.0750   4.0835   4.0882   4.0923   4.1033   4.1112   4.1234   4.1356
  4.1404   4.1460   4.1500   4.1567   4.1700   4.1709   4.1746   4.1787
  4.1850   4.1977   4.2078   4.2128   4.2186   4.2317   4.2383   4.2459
  4.2512   4.2595   4.2650   4.2686   4.2807   4.2859   4.2958   4.2993
  4.3144   4.3255   4.3332   4.3459   4.3483   4.3490   4.3590   4.3654
  4.3768   4.3783   4.3880   4.3937   4.3963   4.4078   4.4148   4.4172
  4.4214   4.4242   4.4306   4.4348   4.4461   4.4476   4.4547   4.4606
  4.4764   4.4811   4.4969   4.5082   4.5121   4.5165   4.5199   4.5275
  4.5355   4.5504   4.5556   4.5612   4.5698   4.5716   4.5787   4.5853
  4.6014   4.6088   4.6163   4.6303   4.6334   4.6378   4.6461   4.6476
  4.6520   4.6767   4.6770   4.6787   4.6956   4.7036   4.7217   4.7371
  4.7441   4.7494   4.7581   4.7697   4.7923   4.8006   4.8151   4.8211
  4.8360   4.8407   4.8519   4.8660   4.8732   4.8791   4.8890   4.9070
  4.9160   4.9313   4.9412   4.9482   4.9544   4.9658   4.9682   4.9877
  4.9936   5.0061   5.0123   5.0146   5.0217   5.0359   5.0452   5.0646
  5.0789   5.0882   5.1019   5.1179   5.1318   5.1374   5.1648   5.1702
  5.1913   5.1948   5.1994   5.2046   5.2103   5.2169   5.2327   5.2421
  5.2563   5.2594   5.2768   5.2900   5.2927   5.3158   5.3202   5.3289
  5.3394   5.3513   5.3554   5.3645   5.3733   5.3846   5.3902   5.4022
  5.4039   5.4054   5.4402   5.4433   5.4551   5.4732   5.4830   5.4990
  5.5075   5.5162   5.5207   5.5412   5.5657   5.5719   5.5762   5.5907
  5.6044   5.6115   5.6188   5.6310   5.6420   5.6587   5.6705   5.6887
  5.7189   5.7333   5.7657   5.7772   5.8012   5.8157   5.8372   5.8574
  5.8624   5.8835   5.9072   5.9220   5.9657   5.9701   5.9719   5.9995
  6.0296   6.0420   6.1106   6.1227   6.1339   6.1356   6.1713   6.1782
  6.1827   6.1863   6.2256   6.2493   6.2554   6.2678   6.2838   6.2951
  6.3090   6.3488   6.3731   6.4158   6.4458   6.5031   6.5152   6.5485
  6.5570   6.5722   6.6460   6.6725   6.6777   6.7167   6.7374   6.7473
  6.8084   6.8581   6.8617   6.8852   6.9015   6.9918   7.1322   7.1463
  7.1789   7.2119   7.2220   7.2396   7.3275   7.3278   7.3418   7.3739
  7.3824   7.4296   7.4632   7.4870   7.4887   7.4968   7.5201   7.5503
  7.6200   7.7416   7.7714   7.8032   7.8322   7.9098   7.9270   7.9573
  8.0107   8.1202   8.4079   8.5458   8.9628   9.0271   9.3700   9.5042
  9.7206  10.3143  11.2365  11.4377  11.9417  12.0693  12.1266  12.3652
 12.4732  12.5053  12.6417  12.9645  13.0096  13.2214  13.4797  13.5402
 13.7403  13.8752  13.9302  14.0262  14.2396  14.3346  14.9240  15.2310
 --------------------------------------------------------------
 
          Ground-State Mulliken Net Atomic Charges

     Atom                 Charge (a.u.)
  ----------------------------------------
      1 C                    -0.071064
      2 C                    -0.245126
      3 S                    -0.131971
      4 C                    -0.048823
      5 H                     0.195612
      6 C                    -0.046487
      7 C                     0.217640
      8 C                     0.231609
      9 C                    -0.075283
     10 C                    -0.031124
     11 O                    -0.334584
     12 O                    -0.344030
     13 C                    -0.082779
     14 H                     0.119937
     15 H                     0.091988
     16 H                     0.093007
     17 C                    -0.087702
     18 H                     0.123838
     19 H                     0.092839
     20 H                     0.092178
     21 C                    -0.309596
     22 S                    -0.091720
     23 C                     0.079470
     24 H                     0.199293
     25 C                    -0.012852
     26 S                     0.089488
     27 C                    -0.241371
     28 C                    -0.110219
     29 C                    -0.017522
     30 C                     0.360190
     31 C                    -0.138652
     32 S                     0.045289
     33 C                     0.457383
     34 O                    -0.453005
     35 O                    -0.298692
     36 F                    -0.207845
     37 C                    -0.054769
     38 H                     0.116520
     39 H                     0.084398
     40 H                     0.084043
     41 H                     0.215769
     42 H                     0.119427
     43 H                     0.117136
     44 H                     0.208163
  ----------------------------------------
  Sum of atomic charges =     0.000000

 -----------------------------------------------------------------
                    Cartesian Multipole Moments
 -----------------------------------------------------------------
    Charge (ESU x 10^10)
                -0.0000
    Dipole Moment (Debye)
         X       2.6917      Y       1.5056      Z       2.8447
       Tot       4.1957
    Quadrupole Moments (Debye-Ang)
        XX    -194.7873     XY       8.4698     YY    -173.9824
        XZ      -9.5661     YZ      -3.3317     ZZ    -188.4733
    Octopole Moments (Debye-Ang^2)
       XXX    -315.7033    XXY     450.9995    XYY     -98.4133
       YYY    1035.7571    XXZ     139.8390    XYZ     -10.1247
       YYZ     101.0802    XZZ     -42.5289    YZZ     430.8800
       ZZZ     512.7129
    Hexadecapole Moments (Debye-Ang^3)
      XXXX   -1485.8943   XXXY    -651.5123   XXYY   -3804.4269
      XYYY    -526.6221   YYYY  -18366.5986   XXXZ     731.7400
      XXYZ     481.2223   XYYZ     104.1176   YYYZ    1812.2754
      XXZZ   -1397.4040   XYZZ      48.6291   YYZZ   -4278.6587
      XZZZ     346.0142   YZZZ    1073.8079   ZZZZ   -7605.4022
 -----------------------------------------------------------------
 Total job time:  339.00s(wall), 11301.09s(cpu) 
 Sun Sep 24 19:49:34 2023

        *************************************************************
        *                                                           *
        *  Thank you very much for using Q-Chem.  Have a nice day.  *
        *                                                           *
        *************************************************************


0 sent ACK to 0 
now end server 0 ... 
cleanup process ... done
remove work dirs ./qchem960457.0 -- ./qchem960457.0
rm -rf ./qchem960457.0
rm -rf ./qchem960457
