You are running Q-Chem version: 5.4.0

#
# job setting
#
local host:  exp-3-23
current dir: /expanse/lustre/projects/csd626/rramji/aromodel/PTB7_fin/Hydrogenated_Rotation_Test
input file:  fin_bdt_Phi_20_Theta_80_fin_ftt_Hydrogenated.qcin
output file: 
nprocs     : 1
nthreads   : 64
#
# qchem installation setting
#
QC:          /cm/shared/apps/spack/cpu/opt/spack/linux-centos8-zen2/gcc-10.2.0/qchem-5.4-akfmr7b3t57bfs6qan3padb2wnb2i7cl
QCAUX:       /cm/shared/apps/spack/cpu/opt/spack/linux-centos8-zen2/gcc-10.2.0/qchem-5.4-akfmr7b3t57bfs6qan3padb2wnb2i7cl/qcaux
QCPROG:      /cm/shared/apps/spack/cpu/opt/spack/linux-centos8-zen2/gcc-10.2.0/qchem-5.4-akfmr7b3t57bfs6qan3padb2wnb2i7cl/exe/qcprog.exe
QCPROG_S:    /cm/shared/apps/spack/cpu/opt/spack/linux-centos8-zen2/gcc-10.2.0/qchem-5.4-akfmr7b3t57bfs6qan3padb2wnb2i7cl/exe/qcprog.exe_s
PARALLEL:    -DPARALLEL
QCMPI:       mpich
#
# qchem directory setting
#
qcrun:       qchem2521128
QCSCRATCH:   .
QCLOCALSCR:  
QCTMPDIR:    .
QCFILEPREF:  ./qchem2521128
QCSAVEDIR:   
workdirs:    ./qchem2521128
workdir0:    ./qchem2521128
partmpdirs =  
#
# parallel setting
#
QCRSH:           ssh
QCMPI:           mpich
QCMPIRUN:        /cm/shared/apps/spack/cpu/opt/spack/linux-centos8-zen2/gcc-10.2.0/qchem-5.4-akfmr7b3t57bfs6qan3padb2wnb2i7cl/bin/mpi/mpirun_qchem
QCMACHINEFILE:   ./qchem2521128/hostfile
exp-3-23

#
# env setting
#
exported envs:   QC QCAUX QCSCRATCH QCRUNNAME QCFILEPREF QCPROG QCPROG_S GUIFILE

Running Job 1 of 1 fin_bdt_Phi_20_Theta_80_fin_ftt_Hydrogenated.qcin
qchem fin_bdt_Phi_20_Theta_80_fin_ftt_Hydrogenated.qcin_2521128.0 ./qchem2521128/ 1
/cm/shared/apps/spack/cpu/opt/spack/linux-centos8-zen2/gcc-10.2.0/qchem-5.4-akfmr7b3t57bfs6qan3padb2wnb2i7cl/bin/mpi/mpirun_qchem -machinefile ./qchem2521128/hostfile -np 1 /cm/shared/apps/spack/cpu/opt/spack/linux-centos8-zen2/gcc-10.2.0/qchem-5.4-akfmr7b3t57bfs6qan3padb2wnb2i7cl/exe/qcprog.exe fin_bdt_Phi_20_Theta_80_fin_ftt_Hydrogenated.qcin_2521128.0 ./qchem2521128/

Process 0 of 1 is on exp-3-23 - thread support 0
initial socket setup ...start
initial socket setup ...done 
now start server 0 ... 
                  Welcome to Q-Chem
     A Quantum Leap Into The Future Of Chemistry


 Q-Chem 5.4, Q-Chem, Inc., Pleasanton, CA (2021)

 License issued to: University of California, San Diego (site)

 E. Epifanovsky,  A. T. B. Gilbert,  Xintian Feng,  Joonho Lee,  Yuezhi Mao,  
 N. Mardirossian,  P. Pokhilko,  A. White,  M. Wormit,  M. P. Coons,  
 A. L. Dempwolff,  Zhengting Gan,  D. Hait,  P. R. Horn,  L. D. Jacobson,  
 I. Kaliman,  J. Kussmann,  A. W. Lange,  Ka Un Lao,  D. S. Levine,  Jie Liu,  
 S. C. McKenzie,  A. F. Morrison,  K. Nanda,  F. Plasser,  D. R. Rehn,  
 M. L. Vidal,  Zhi-Qiang You,  Ying Zhu,  B. Alam,  B. Albrecht,  
 A. Aldossary,  E. Alguire,  J. H. Andersen,  D. Barton,  K. Begam,  A. Behn,  
 Y. A. Bernard,  E. J. Berquist,  H. Burton,  A. Carreras,  K. Carter-Fenk,  
 R. Chakraborty,  A. D. Chien,  K. D. Closser,  V. Cofer-Shabica,  
 S. Dasgupta,  Jia Deng,  M. de Wergifosse,  M. Diedenhofen,  Hainam Do,  
 S. Ehlert,  Po-Tung Fang,  S. Fatehi,  Qingguo Feng,  J. Gayvert,  
 Qinghui Ge,  G. Gidofalvi,  M. Goldey,  J. Gomes,  C. Gonzalez-Espinoza,  
 S. Gulania,  A. Gunina,  M. W. D. Hanson-Heine,  P. H. P. Harbach,  
 A. W. Hauser,  M. F. Herbst,  M. Hernandez Vera,  M. Hodecker,  
 Z. C. Holden,  S. Houck,  Xunkun Huang,  Kerwin Hui,  B. C. Huynh,  
 M. Ivanov,  Hyunjun Ji,  Hanjie Jiang,  B. Kaduk,  S. Kaehler,  
 K. Khistyaev,  Jaehoon Kim,  P. Klunzinger,  Z. Koczor-Benda,  
 Joong Hoon Koh,  D. Kosenkov,  L. Koulias,  T. Kowalczyk,  C. M. Krauter,  
 K. Kue,  A. Kunitsa,  T. Kus,  A. Landau,  K. V. Lawler,  D. Lefrancois,  
 S. Lehtola,  Rain Li,  Yi-Pei Li,  Jiashu Liang,  M. Liebenthal,  
 Hung-Hsuan Lin,  You-Sheng Lin,  Fenglai Liu,  Kuan-Yu Liu,  
 M. Loipersberger,  A. Luenser,  A. Manjanath,  P. Manohar,  E. Mansoor,  
 S. F. Manzer,  Shan-Ping Mao,  A. V. Marenich,  T. Markovich,  S. Mason,  
 S. A. Maurer,  P. F. McLaughlin,  M. F. S. J. Menger,  J.-M. Mewes,  
 S. A. Mewes,  P. Morgante,  J. W. Mullinax,  T. S. Nguyen-Beck,  
 K. J. Oosterbaan,  G. Paran,  Alexander C. Paul,  Suranjan K. Paul,  
 F. Pavosevic,  Zheng Pei,  S. Prager,  E. I. Proynov,  E. Ramos,  B. Rana,  
 A. E. Rask,  A. Rettig,  R. M. Richard,  F. Rob,  E. Rossomme,  T. Scheele,  
 M. Scheurer,  M. Schneider,  N. Sergueev,  S. M. Sharada,  W. Skomorowski,  
 D. W. Small,  C. J. Stein,  Yu-Chuan Su,  E. J. Sundstrom,  Zhen Tao,  
 J. Thirman,  T. Tsuchimochi,  N. M. Tubman,  S. P. Veccham,  O. Vydrov,  
 J. Wenzel,  J. Witte,  A. Yamada,  Kun Yao,  S. Yeganeh,  S. R. Yost,  
 A. Zech,  Igor Ying Zhang,  Xing Zhang,  Yu Zhang,  D. Zuev,  
 A. Aspuru-Guzik,  A. T. Bell,  N. A. Besley,  K. B. Bravaya,  B. R. Brooks,  
 D. Casanova,  Jeng-Da Chai,  S. Coriani,  C. J. Cramer,  
 A. E. DePrince, III,  R. A. DiStasio Jr.,  A. Dreuw,  B. D. Dunietz,  
 T. R. Furlani,  W. A. Goddard III,  S. Grimme,  S. Hammes-Schiffer,  
 T. Head-Gordon,  W. J. Hehre,  Chao-Ping Hsu,  T.-C. Jagau,  Yousung Jung,  
 A. Klamt,  Jing Kong,  D. S. Lambrecht,  WanZhen Liang,  N. J. Mayhall,  
 C. W. McCurdy,  J. B. Neaton,  C. Ochsenfeld,  J. A. Parkhill,  R. Peverati,  
 V. A. Rassolov,  Yihan Shao,  L. V. Slipchenko,  T. Stauch,  R. P. Steele,  
 J. E. Subotnik,  A. J. W. Thom,  A. Tkatchenko,  D. G. Truhlar,  
 T. Van Voorhis,  T. A. Wesolowski,  K. B. Whaley,  H. L. Woodcock III,  
 P. M. Zimmerman,  S. Faraji,  P. M. W. Gill,  M. Head-Gordon,  
 J. M. Herbert,  A. I. Krylov

 Contributors to earlier versions of Q-Chem not listed above: 
 R. D. Adamson,  B. Austin,  R. Baer,  J. Baker,  G. J. O. Beran,  
 K. Brandhorst,  S. T. Brown,  E. F. C. Byrd,  A. K. Chakraborty,  
 G. K. L. Chan,  Chun-Min Chang,  Yunqing Chen,  C.-L. Cheng,  
 Siu Hung Chien,  D. M. Chipman,  D. L. Crittenden,  H. Dachsel,  
 R. J. Doerksen,  A. D. Dutoi,  R. G. Edgar,  J. Fosso-Tande,  
 L. Fusti-Molnar,  D. Ghosh,  A. Ghysels,  A. Golubeva-Zadorozhnaya,  
 J. Gonthier,  M. S. Gordon,  S. R. Gwaltney,  G. Hawkins,  J. E. Herr,  
 A. Heyden,  S. Hirata,  E. G. Hohenstein,  G. Kedziora,  F. J. Keil,  
 C. Kelley,  Jihan Kim,  R. A. King,  R. Z. Khaliullin,  P. P. Korambath,  
 W. Kurlancheek,  A. Laurent,  A. M. Lee,  M. S. Lee,  S. V. Levchenko,  
 Ching Yeh Lin,  D. Liotard,  E. Livshits,  R. C. Lochan,  I. Lotan,  
 L. A. Martinez-Martinez,  P. E. Maslen,  N. Nair,  D. P. O'Neill,  
 D. Neuhauser,  E. Neuscamman,  C. M. Oana,  R. Olivares-Amaya,  R. Olson,  
 T. M. Perrine,  B. Peters,  P. A. Pieniazek,  A. Prociuk,  Y. M. Rhee,  
 J. Ritchie,  M. A. Rohrdanz,  E. Rosta,  N. J. Russ,  H. F. Schaefer III,  
 M. W. Schmidt,  N. E. Schultz,  S. Sharma,  N. Shenvi,  C. D. Sherrill,  
 A. C. Simmonett,  A. Sodt,  T. Stein,  D. Stuck,  K. S. Thanthiriwatte,  
 V. Vanovschi,  L. Vogt,  Tao Wang,  A. Warshel,  M. A. Watson,  
 C. F. Williams,  Q. Wu,  X. Xu,  Jun Yang,  W. Zhang,  Yan Zhao

 Please cite Q-Chem as follows:
 Y. Shao et al., Mol. Phys. 113, 184-215 (2015)
 DOI: 10.1080/00268976.2014.952696

 Q-Chem 5.4.0 for Intel X86 EM64T Linux

 Parts of Q-Chem use Armadillo 9.800.1 (Horizon Scraper).
 http://arma.sourceforge.net/

 Q-Chem begins on Sun Sep 24 17:09:01 2023  

 Host: 
0

     Scratch files written to ./qchem2521128//
 May1621 |scratch|qcdevops|jenkins|workspace|build_RNUM    
 Parallel job on  1  processors
 Processing $rem in /cm/shared/apps/spack/cpu/opt/spack/linux-centos8-zen2/gcc-10.2.0/qchem-5.4-akfmr7b3t57bfs6qan3padb2wnb2i7cl/config/preferences:
 Processing $rem in /home/rramji/.qchemrc:
 Symmetry turned off for PCM/SM12/SMD calculation
 Core orbitals will be frozen

 Checking the input file for inconsistencies... 	...done.

 Q-Chem warning in module forms1/BasisType.C, line 2236:

 You are not using the predefined 5D/6D in this basis set.


--------------------------------------------------------------
User input:
--------------------------------------------------------------
$molecule
0 1
C	-0.272104	-8.519741	-0.000687
C	0.779533	-7.635967	-0.194476
S	-1.799596	-7.651740	0.287581
C	0.399427	-6.261894	-0.125787
H	1.812314	-7.954738	-0.383826
C	-1.006762	-6.079985	0.121989
C	-1.564994	-4.798382	0.247488
C	1.284087	-5.153542	-0.258303
C	0.726260	-3.869626	-0.128493
C	-0.681918	-3.688927	0.116725
O	2.580622	-5.481075	-0.517104
O	-2.867144	-4.479871	0.508622
C	-3.900814	-5.356026	0.075811
H	-4.847002	-4.790496	0.173640
H	-3.971794	-6.268513	0.707354
H	-3.763397	-5.658187	-0.984963
C	3.621225	-4.546999	-0.257016
H	4.569828	-5.107564	-0.357864
H	3.551910	-4.131473	0.771211
H	3.626592	-3.712085	-0.990913
C	-1.058088	-2.314326	0.187034
S	1.523035	-2.295487	-0.281899
C	0.000000	-1.435180	0.000000
H	-2.090565	-1.993211	0.373653
C	0.000000	0.000000	0.000000
S	0.309721	0.844422	1.510732
C	0.847502	2.325108	0.727629
C	0.310602	0.853460	-1.064665
C	0.784173	2.159014	-0.678287
C	0.289451	0.790512	-2.486150
C	0.721927	1.979112	-3.106916
S	1.145464	3.152519	-1.965735
C	0.813355	2.216642	-4.559972
O	0.496884	1.338418	-5.350277
O	1.255274	3.421340	-5.004375
F	-0.087923	-0.257761	-3.246290
C	1.387494	3.754937	-6.334976
H	1.765978	4.793056	-6.370268
H	0.417095	3.693789	-6.875609
H	2.098820	3.081033	-6.861878
H	1.162229	3.189623	1.321510
H	-0.105910	-9.146471	0.883319
H	-0.431555	-9.150570	-0.883019
H	0.195861	-1.444158	1.062054
$end

$rem
JOBTYPE		SP
EXCHANGE	HF
CORRELATION	pRIMP2
BASIS		cc-pvtz
METHOD		rimp2
AUX_BASIS	rimp2-cc-pvtz
SOLVENT_METHOD	PCM
PURECART	11111
SYMMETRY	false
MEM_TOTAL	110000
SCF_CONVERGENCE = 6
THRESH=10
GUI = 2
$end



$solvent
dielectric 4.90
$end
--------------------------------------------------------------
 ----------------------------------------------------------------
             Standard Nuclear Orientation (Angstroms)
    I     Atom           X                Y                Z
 ----------------------------------------------------------------
    1      C      -0.2721040000    -8.5197410000    -0.0006870000
    2      C       0.7795330000    -7.6359670000    -0.1944760000
    3      S      -1.7995960000    -7.6517400000     0.2875810000
    4      C       0.3994270000    -6.2618940000    -0.1257870000
    5      H       1.8123140000    -7.9547380000    -0.3838260000
    6      C      -1.0067620000    -6.0799850000     0.1219890000
    7      C      -1.5649940000    -4.7983820000     0.2474880000
    8      C       1.2840870000    -5.1535420000    -0.2583030000
    9      C       0.7262600000    -3.8696260000    -0.1284930000
   10      C      -0.6819180000    -3.6889270000     0.1167250000
   11      O       2.5806220000    -5.4810750000    -0.5171040000
   12      O      -2.8671440000    -4.4798710000     0.5086220000
   13      C      -3.9008140000    -5.3560260000     0.0758110000
   14      H      -4.8470020000    -4.7904960000     0.1736400000
   15      H      -3.9717940000    -6.2685130000     0.7073540000
   16      H      -3.7633970000    -5.6581870000    -0.9849630000
   17      C       3.6212250000    -4.5469990000    -0.2570160000
   18      H       4.5698280000    -5.1075640000    -0.3578640000
   19      H       3.5519100000    -4.1314730000     0.7712110000
   20      H       3.6265920000    -3.7120850000    -0.9909130000
   21      C      -1.0580880000    -2.3143260000     0.1870340000
   22      S       1.5230350000    -2.2954870000    -0.2818990000
   23      C       0.0000000000    -1.4351800000     0.0000000000
   24      H      -2.0905650000    -1.9932110000     0.3736530000
   25      C       0.0000000000     0.0000000000     0.0000000000
   26      S       0.3097210000     0.8444220000     1.5107320000
   27      C       0.8475020000     2.3251080000     0.7276290000
   28      C       0.3106020000     0.8534600000    -1.0646650000
   29      C       0.7841730000     2.1590140000    -0.6782870000
   30      C       0.2894510000     0.7905120000    -2.4861500000
   31      C       0.7219270000     1.9791120000    -3.1069160000
   32      S       1.1454640000     3.1525190000    -1.9657350000
   33      C       0.8133550000     2.2166420000    -4.5599720000
   34      O       0.4968840000     1.3384180000    -5.3502770000
   35      O       1.2552740000     3.4213400000    -5.0043750000
   36      F      -0.0879230000    -0.2577610000    -3.2462900000
   37      C       1.3874940000     3.7549370000    -6.3349760000
   38      H       1.7659780000     4.7930560000    -6.3702680000
   39      H       0.4170950000     3.6937890000    -6.8756090000
   40      H       2.0988200000     3.0810330000    -6.8618780000
   41      H       1.1622290000     3.1896230000     1.3215100000
   42      H      -0.1059100000    -9.1464710000     0.8833190000
   43      H      -0.4315550000    -9.1505700000    -0.8830190000
   44      H       0.1958610000    -1.4441580000     1.0620540000
 ----------------------------------------------------------------
 Nuclear Repulsion Energy =        3367.24006017 hartrees
 There are      120 alpha and      120 beta electrons
 Requested basis set is cc-pVTZ
 There are 388 shells and 1096 basis functions

 Total QAlloc Memory Limit 110000 MB
 Mega-Array Size       188 MB
 MEM_STATIC part       192 MB
 Discretize the solute cavity surface with Lebedev spheres
	Using 110 Lebedev grid points for each H atom
	Using 194 Lebedev grid points for other atoms
	Atomic van der Waals radii will be scaled by 1.20
 Remove points where switching function is < 1.0e-08
 Keep 2982 surface tesserae and discard 4294 interior tesserae
 Molecular Surface Area = 444.904 Angst**2
 Requested basis set is rimp2-cc-pVTZ
 There are 853 shells and 2963 basis functions
 A cutoff of  1.0D-10 yielded  33311 shell pairs
 There are    251105 function pairs (    324817 Cartesian)
 Smallest overlap matrix eigenvalue = 2.19E-05

 Scale SEOQF with 1.000000e-01/1.000000e-02/1.000000e-02

 Standard Electronic Orientation quadrupole field applied
 Nucleus-field energy     =     0.0000000398 hartrees
 Guess from superposition of atomic densities
 Warning:  Energy on first SCF cycle will be non-variational
 SAD guess density has 240.000000 electrons

 -----------------------------------------------------------------------
  General SCF calculation program by
  Eric Jon Sundstrom, Paul Horn, Yuezhi Mao, Dmitri Zuev, Alec White,
  David Stuck, Shaama M.S., Shane Yost, Joonho Lee, David Small,
  Daniel Levine, Susi Lehtola, Hugh Burton, Evgeny Epifanovsky,
  Bang C. Huynh
 -----------------------------------------------------------------------
 Hartree-Fock
 using 64 threads for integral computing
 -------------------------------------------------------
 OpenMP Integral computing Module                
 Release: version 1.0, May 2013, Q-Chem Inc. Pittsburgh 
 -------------------------------------------------------
 A restricted SCF calculation will be
 performed using DIIS
 SCF converges when DIIS error is below 1.0e-06
 ---------------------------------------
  Cycle       Energy         DIIS error
 ---------------------------------------
    1   -2767.3558207010      1.77e-02  
    2   -2754.8648717554      1.54e-03  
    3   -2755.2148357142      8.72e-04  
    4   -2755.3036931492      2.55e-04  
    5   -2755.3171269860      7.24e-05  
    6   -2755.3186014343      2.58e-05  
    7   -2755.3189864996      1.35e-05  
    8   -2755.3191131618      5.82e-06  
    9   -2755.3191455685      3.08e-06  
   10   -2755.3191537730      1.49e-06  
   11   -2755.3191561900      7.51e-07  Convergence criterion met
 ---------------------------------------
 SCF time:   CPU 7598.39s  wall 288.00s 

************** Final PCM Free Energy Summary **************
 G_electrostatic  =      -0.02273696 hartree =     -14.26765493 kcal/mol
 G_cavitation     =       0.00000000 hartree =       0.00000000 kcal/mol
 G_dispersion     =       0.00000000 hartree =       0.00000000 kcal/mol
 G_repulsion      =       0.00000000 hartree =       0.00000000 kcal/mol
 --------------------------------------------------
 Non-electrostatic Free Energy =       0.00000000 hartree =       0.00000000 kcal/mol
 Total                         =      -0.02273696 hartree =     -14.26765493 kcal/mol
 --------------------------------------------------
 SCF Energy (H0 + V/2)                       =   -2755.31915619 
 Solute Internal Energy (H0)                 =   -2755.29641923 
 Total Free Energy (H0 + V/2 + non-elec)     =   -2755.31915619 hartree
                                             = -1728988.86613692 kcal/mol
***********************************************************

 SCF   energy in the final basis set =    -2755.3191561900
 Total energy in the final basis set =    -2755.3191561900


 --------------------------------------------------------------
  Generalized many-body perturbation theory program
  by Joonho Lee, Fazle Rob, Xintian Feng, Evgeny Epifanovsky

 No regularization used 
 (reg. param. = 0.0000e+00)
  (P|Q)^-1/2 Time:  CPU 130.74 s  wall 2.07 s

 In RI-MP2 calculation: 
 # of frozen core orbitals: 45

 Components of the RIMP2 correlation energy:
        aaaa    correlation energy =        -0.6700916555 a.u.
        abab    correlation energy =        -3.7520740050 a.u.
        bbbb    correlation energy =        -0.6700916555 a.u.
        non-Brillouin singles      =        -0.0000000000 a.u.
        total same-spin energy     =        -1.3401833110 a.u.
        total opposite-spin energy =        -3.7520740050 a.u.

 Total  RIMP2   correlation energy =        -5.0922573160 a.u.
        RIMP2         total energy =     -2760.4114135060 a.u.

 RI-MP2 Energy Time:  CPU 2927.37 s  wall 47.58 s
 
 --------------------------------------------------------------
 
                    Orbital Energies (a.u.)
 --------------------------------------------------------------
 
 Alpha MOs
 -- Occupied --
-92.0187 -91.9966 -91.9776 -91.9573 -26.3352 -20.6132 -20.5868 -20.5863
-20.5518 -11.4118 -11.3776 -11.3085 -11.3083 -11.3064 -11.3008 -11.2998
-11.2977 -11.2890 -11.2841 -11.2827 -11.2825 -11.2824 -11.2798 -11.2719
-11.2716 -11.2575 -11.2559 -11.2488 -11.2353  -9.0171  -9.0006  -8.9798
 -8.9599  -6.6978  -6.6972  -6.6968  -6.6819  -6.6812  -6.6799  -6.6609
 -6.6600  -6.6587  -6.6411  -6.6402  -6.6392  -1.6481  -1.4730  -1.4098
 -1.4084  -1.3685  -1.2391  -1.2085  -1.1747  -1.1444  -1.0985  -1.0508
 -1.0450  -1.0319  -1.0080  -0.9969  -0.9731  -0.9595  -0.9481  -0.9403
 -0.8927  -0.8720  -0.8638  -0.8090  -0.7933  -0.7845  -0.7763  -0.7750
 -0.7649  -0.7331  -0.7212  -0.7164  -0.6967  -0.6927  -0.6811  -0.6794
 -0.6730  -0.6642  -0.6558  -0.6481  -0.6332  -0.6289  -0.6192  -0.6144
 -0.6111  -0.6077  -0.5966  -0.5925  -0.5816  -0.5637  -0.5605  -0.5557
 -0.5478  -0.5351  -0.5281  -0.5217  -0.5123  -0.5070  -0.5038  -0.5011
 -0.4879  -0.4856  -0.4762  -0.4701  -0.4627  -0.4621  -0.4607  -0.4458
 -0.4227  -0.4031  -0.3850  -0.3696  -0.3509  -0.2932  -0.2889  -0.2200
 -- Virtual --
  0.0229   0.0540   0.1112   0.1219   0.1398   0.1485   0.1536   0.1553
  0.1583   0.1589   0.1645   0.1785   0.1812   0.1864   0.1890   0.1935
  0.2020   0.2040   0.2060   0.2096   0.2179   0.2211   0.2241   0.2267
  0.2310   0.2334   0.2378   0.2459   0.2532   0.2586   0.2656   0.2724
  0.2752   0.2837   0.3074   0.3192   0.3260   0.3288   0.3366   0.3446
  0.3482   0.3572   0.3589   0.3623   0.3682   0.3740   0.3794   0.3820
  0.3867   0.3919   0.3956   0.3958   0.4018   0.4067   0.4106   0.4169
  0.4221   0.4264   0.4303   0.4326   0.4362   0.4406   0.4452   0.4477
  0.4559   0.4606   0.4655   0.4696   0.4715   0.4776   0.4778   0.4848
  0.4875   0.4942   0.5004   0.5025   0.5054   0.5127   0.5166   0.5212
  0.5246   0.5256   0.5324   0.5378   0.5416   0.5459   0.5485   0.5515
  0.5527   0.5579   0.5622   0.5674   0.5696   0.5744   0.5774   0.5778
  0.5871   0.5895   0.5928   0.5932   0.5974   0.6007   0.6025   0.6072
  0.6122   0.6167   0.6187   0.6209   0.6212   0.6248   0.6299   0.6336
  0.6382   0.6389   0.6436   0.6469   0.6484   0.6498   0.6569   0.6608
  0.6618   0.6661   0.6705   0.6797   0.6812   0.6884   0.6914   0.6965
  0.6995   0.7007   0.7090   0.7117   0.7168   0.7188   0.7274   0.7418
  0.7459   0.7551   0.7558   0.7623   0.7691   0.7710   0.7756   0.7897
  0.7922   0.7937   0.7996   0.8014   0.8100   0.8129   0.8154   0.8216
  0.8271   0.8297   0.8336   0.8480   0.8591   0.8638   0.8746   0.8815
  0.8855   0.8928   0.8937   0.8965   0.9043   0.9086   0.9106   0.9203
  0.9215   0.9285   0.9309   0.9357   0.9387   0.9453   0.9488   0.9530
  0.9614   0.9698   0.9751   0.9799   0.9814   0.9834   0.9853   0.9916
  0.9965   0.9973   1.0005   1.0138   1.0170   1.0177   1.0208   1.0302
  1.0379   1.0393   1.0429   1.0482   1.0534   1.0602   1.0639   1.0677
  1.0701   1.0761   1.0809   1.0838   1.0950   1.0981   1.0997   1.1039
  1.1093   1.1150   1.1235   1.1299   1.1313   1.1409   1.1469   1.1510
  1.1531   1.1595   1.1642   1.1672   1.1704   1.1759   1.1771   1.1811
  1.1852   1.1887   1.1923   1.1964   1.1990   1.2030   1.2117   1.2176
  1.2231   1.2267   1.2383   1.2394   1.2428   1.2457   1.2506   1.2565
  1.2606   1.2672   1.2715   1.2823   1.2836   1.2872   1.2906   1.2983
  1.3047   1.3116   1.3165   1.3223   1.3284   1.3311   1.3393   1.3409
  1.3461   1.3522   1.3561   1.3651   1.3817   1.3856   1.3945   1.3994
  1.4015   1.4085   1.4191   1.4249   1.4293   1.4302   1.4413   1.4525
  1.4629   1.4640   1.4771   1.4797   1.4854   1.4917   1.4964   1.4998
  1.5026   1.5090   1.5107   1.5129   1.5227   1.5340   1.5380   1.5396
  1.5419   1.5484   1.5506   1.5571   1.5606   1.5621   1.5675   1.5739
  1.5876   1.5890   1.6083   1.6120   1.6149   1.6192   1.6239   1.6427
  1.6471   1.6558   1.6579   1.6623   1.6731   1.6805   1.6838   1.6866
  1.6891   1.7003   1.7017   1.7150   1.7221   1.7280   1.7322   1.7497
  1.7534   1.7614   1.7682   1.7765   1.7787   1.8035   1.8105   1.8130
  1.8228   1.8309   1.8343   1.8419   1.8578   1.8623   1.8648   1.8715
  1.8744   1.8853   1.8916   1.9124   1.9202   1.9233   1.9285   1.9323
  1.9362   1.9454   1.9541   1.9607   1.9743   1.9806   1.9926   1.9970
  2.0158   2.0204   2.0271   2.0286   2.0339   2.0425   2.0497   2.0622
  2.0670   2.0754   2.0894   2.0955   2.1004   2.1115   2.1211   2.1293
  2.1424   2.1473   2.1553   2.1592   2.1692   2.1769   2.1848   2.1905
  2.1947   2.2017   2.2130   2.2200   2.2263   2.2315   2.2349   2.2474
  2.2496   2.2593   2.2639   2.2737   2.2806   2.2830   2.2935   2.3011
  2.3077   2.3101   2.3246   2.3334   2.3386   2.3492   2.3568   2.3647
  2.3812   2.3845   2.3986   2.4011   2.4123   2.4158   2.4236   2.4316
  2.4373   2.4529   2.4603   2.4661   2.4789   2.4841   2.4966   2.5038
  2.5124   2.5161   2.5286   2.5336   2.5431   2.5565   2.5677   2.5716
  2.5813   2.5874   2.5955   2.6052   2.6134   2.6175   2.6202   2.6252
  2.6369   2.6389   2.6419   2.6493   2.6507   2.6587   2.6649   2.6709
  2.6820   2.6877   2.6900   2.6955   2.6982   2.7108   2.7161   2.7219
  2.7221   2.7339   2.7373   2.7430   2.7457   2.7544   2.7617   2.7706
  2.7776   2.7800   2.8022   2.8024   2.8061   2.8191   2.8234   2.8345
  2.8437   2.8492   2.8512   2.8589   2.8607   2.8737   2.8770   2.8800
  2.8872   2.8895   2.8940   2.9038   2.9161   2.9279   2.9335   2.9479
  2.9510   2.9572   2.9614   2.9700   2.9747   2.9827   2.9940   3.0001
  3.0043   3.0182   3.0214   3.0299   3.0335   3.0424   3.0446   3.0452
  3.0499   3.0651   3.0770   3.0810   3.0859   3.0905   3.0924   3.1039
  3.1093   3.1148   3.1222   3.1267   3.1298   3.1322   3.1428   3.1465
  3.1537   3.1597   3.1604   3.1638   3.1680   3.1735   3.1798   3.1846
  3.1901   3.1969   3.2014   3.2071   3.2108   3.2154   3.2188   3.2268
  3.2273   3.2327   3.2476   3.2513   3.2542   3.2577   3.2638   3.2667
  3.2717   3.2746   3.2826   3.2859   3.2865   3.2899   3.3001   3.3059
  3.3066   3.3124   3.3145   3.3200   3.3320   3.3371   3.3388   3.3440
  3.3477   3.3513   3.3536   3.3573   3.3612   3.3634   3.3670   3.3698
  3.3716   3.3765   3.3887   3.3955   3.3977   3.4001   3.4041   3.4118
  3.4145   3.4234   3.4249   3.4323   3.4344   3.4364   3.4444   3.4454
  3.4482   3.4581   3.4619   3.4655   3.4668   3.4759   3.4793   3.4838
  3.4915   3.4963   3.5000   3.5079   3.5154   3.5253   3.5282   3.5386
  3.5422   3.5476   3.5597   3.5669   3.5722   3.5737   3.5791   3.5835
  3.5862   3.5951   3.5975   3.5991   3.6023   3.6112   3.6182   3.6213
  3.6291   3.6320   3.6372   3.6385   3.6488   3.6553   3.6575   3.6613
  3.6663   3.6688   3.6747   3.6819   3.6851   3.6877   3.6979   3.6983
  3.7011   3.7077   3.7098   3.7138   3.7167   3.7201   3.7286   3.7299
  3.7320   3.7442   3.7453   3.7501   3.7524   3.7655   3.7675   3.7754
  3.7826   3.7847   3.7888   3.7997   3.8058   3.8104   3.8140   3.8218
  3.8259   3.8285   3.8395   3.8412   3.8487   3.8500   3.8537   3.8594
  3.8657   3.8679   3.8756   3.8817   3.8872   3.8942   3.9079   3.9131
  3.9177   3.9219   3.9304   3.9351   3.9450   3.9534   3.9551   3.9619
  3.9680   3.9753   3.9789   3.9878   3.9988   4.0061   4.0102   4.0157
  4.0180   4.0280   4.0321   4.0483   4.0532   4.0599   4.0643   4.0692
  4.0716   4.0843   4.0896   4.0922   4.1030   4.1113   4.1132   4.1205
  4.1415   4.1537   4.1539   4.1599   4.1709   4.1720   4.1757   4.1771
  4.1843   4.1888   4.1991   4.2064   4.2120   4.2215   4.2298   4.2340
  4.2392   4.2509   4.2660   4.2733   4.2845   4.2927   4.3066   4.3097
  4.3138   4.3208   4.3295   4.3370   4.3441   4.3474   4.3532   4.3611
  4.3711   4.3765   4.3855   4.3894   4.3921   4.4010   4.4136   4.4164
  4.4213   4.4241   4.4275   4.4335   4.4342   4.4388   4.4503   4.4566
  4.4681   4.4806   4.4848   4.4970   4.5010   4.5104   4.5211   4.5231
  4.5286   4.5472   4.5507   4.5620   4.5662   4.5724   4.5782   4.5934
  4.5991   4.6064   4.6168   4.6216   4.6295   4.6352   4.6394   4.6412
  4.6599   4.6661   4.6708   4.6911   4.6996   4.7023   4.7164   4.7229
  4.7281   4.7364   4.7435   4.7713   4.7743   4.7808   4.8005   4.8087
  4.8209   4.8282   4.8308   4.8561   4.8640   4.8789   4.8899   4.8942
  4.9075   4.9206   4.9390   4.9443   4.9550   4.9628   4.9673   4.9779
  4.9926   5.0040   5.0103   5.0118   5.0283   5.0307   5.0448   5.0535
  5.0651   5.0920   5.1135   5.1174   5.1381   5.1597   5.1635   5.1845
  5.1865   5.1955   5.2035   5.2051   5.2063   5.2176   5.2344   5.2533
  5.2583   5.2610   5.2711   5.2902   5.2949   5.3181   5.3224   5.3273
  5.3396   5.3494   5.3547   5.3597   5.3711   5.3842   5.3856   5.4004
  5.4024   5.4053   5.4309   5.4451   5.4588   5.4726   5.4903   5.5008
  5.5095   5.5201   5.5231   5.5401   5.5677   5.5682   5.5723   5.5889
  5.5972   5.6107   5.6163   5.6283   5.6413   5.6686   5.6873   5.6925
  5.7161   5.7364   5.7635   5.7880   5.7999   5.8180   5.8518   5.8570
  5.8597   5.8837   5.9028   5.9144   5.9655   5.9685   5.9828   6.0046
  6.0387   6.0436   6.1184   6.1271   6.1330   6.1537   6.1708   6.1789
  6.1850   6.1948   6.2194   6.2471   6.2621   6.2743   6.2873   6.2971
  6.3077   6.3407   6.3645   6.4252   6.4611   6.4864   6.5253   6.5473
  6.5553   6.5682   6.6455   6.6755   6.6930   6.7138   6.7368   6.7443
  6.8071   6.8571   6.8590   6.8808   6.9002   6.9903   7.1308   7.1466
  7.1774   7.2106   7.2227   7.2394   7.3251   7.3273   7.3423   7.3725
  7.3755   7.4270   7.4616   7.4857   7.4869   7.4973   7.5205   7.5484
  7.6114   7.7385   7.7705   7.8034   7.8308   7.9088   7.9267   7.9566
  8.0035   8.1287   8.3417   8.6025   8.9280   9.0121   9.3627   9.5029
  9.6959  10.3336  11.2408  11.4246  11.9235  11.9575  12.1236  12.3211
 12.3895  12.4892  12.6933  12.9305  12.9995  13.2070  13.4810  13.5721
 13.7914  13.8856  13.9236  13.9624  14.1897  14.3184  14.8277  15.2006
 --------------------------------------------------------------
 
          Ground-State Mulliken Net Atomic Charges

     Atom                 Charge (a.u.)
  ----------------------------------------
      1 C                    -0.069950
      2 C                    -0.263557
      3 S                    -0.137535
      4 C                    -0.042842
      5 H                     0.192913
      6 C                    -0.053240
      7 C                     0.225981
      8 C                     0.223443
      9 C                    -0.073351
     10 C                    -0.045110
     11 O                    -0.334860
     12 O                    -0.343419
     13 C                    -0.082450
     14 H                     0.119728
     15 H                     0.091775
     16 H                     0.093315
     17 C                    -0.086885
     18 H                     0.123163
     19 H                     0.091665
     20 H                     0.090788
     21 C                    -0.267067
     22 S                    -0.071727
     23 C                     0.049054
     24 H                     0.203177
     25 C                    -0.033970
     26 S                     0.102389
     27 C                    -0.230515
     28 C                    -0.125336
     29 C                     0.004460
     30 C                     0.386081
     31 C                    -0.151740
     32 S                     0.044207
     33 C                     0.459418
     34 O                    -0.446960
     35 O                    -0.297567
     36 F                    -0.211273
     37 C                    -0.054924
     38 H                     0.116748
     39 H                     0.084918
     40 H                     0.084880
     41 H                     0.217029
     42 H                     0.116639
     43 H                     0.114605
     44 H                     0.187903
  ----------------------------------------
  Sum of atomic charges =     0.000000

 -----------------------------------------------------------------
                    Cartesian Multipole Moments
 -----------------------------------------------------------------
    Charge (ESU x 10^10)
                -0.0000
    Dipole Moment (Debye)
         X       1.5636      Y       4.0339      Z       3.6201
       Tot       5.6411
    Quadrupole Moments (Debye-Ang)
        XX    -181.5510     XY       1.6593     YY    -178.0505
        XZ      -1.1129     YZ      -9.6189     ZZ    -204.9536
    Octopole Moments (Debye-Ang^2)
       XXX    -133.8658    XXY     326.0566    XYY       7.0164
       YYY    1054.1928    XXZ     167.6852    XYZ     -31.8212
       YYZ     120.8905    XZZ      -2.2797    YZZ     512.8872
       ZZZ     552.3810
    Hexadecapole Moments (Debye-Ang^3)
      XXXX   -2650.2491   XXXY    -975.1829   XXYY   -3891.4903
      XYYY   -1170.1242   YYYY  -19746.2728   XXXZ     620.1504
      XXYZ     450.9839   XYYZ     216.8655   YYYZ    1280.1162
      XXZZ   -1410.2870   XYZZ    -163.7595   YYZZ   -4246.8052
      XZZZ     387.5506   YZZZ     681.3993   ZZZZ   -5558.1890
 -----------------------------------------------------------------
 Total job time:  339.00s(wall), 10624.19s(cpu) 
 Sun Sep 24 17:14:40 2023

        *************************************************************
        *                                                           *
        *  Thank you very much for using Q-Chem.  Have a nice day.  *
        *                                                           *
        *************************************************************


0 sent ACK to 0 
now end server 0 ... 
cleanup process ... done
remove work dirs ./qchem2521128.0 -- ./qchem2521128.0
rm -rf ./qchem2521128.0
rm -rf ./qchem2521128
