You are running Q-Chem version: 5.4.0

#
# job setting
#
local host:  exp-8-24
current dir: /expanse/lustre/projects/csd626/rramji/aromodel/PTB7_fin/Hydrogenated_Rotation_Test
input file:  fin_bdt_Phi_50_Theta_120_fin_ftt_Hydrogenated.qcin
output file: 
nprocs     : 1
nthreads   : 64
#
# qchem installation setting
#
QC:          /cm/shared/apps/spack/cpu/opt/spack/linux-centos8-zen2/gcc-10.2.0/qchem-5.4-akfmr7b3t57bfs6qan3padb2wnb2i7cl
QCAUX:       /cm/shared/apps/spack/cpu/opt/spack/linux-centos8-zen2/gcc-10.2.0/qchem-5.4-akfmr7b3t57bfs6qan3padb2wnb2i7cl/qcaux
QCPROG:      /cm/shared/apps/spack/cpu/opt/spack/linux-centos8-zen2/gcc-10.2.0/qchem-5.4-akfmr7b3t57bfs6qan3padb2wnb2i7cl/exe/qcprog.exe
QCPROG_S:    /cm/shared/apps/spack/cpu/opt/spack/linux-centos8-zen2/gcc-10.2.0/qchem-5.4-akfmr7b3t57bfs6qan3padb2wnb2i7cl/exe/qcprog.exe_s
PARALLEL:    -DPARALLEL
QCMPI:       mpich
#
# qchem directory setting
#
qcrun:       qchem937254
QCSCRATCH:   .
QCLOCALSCR:  
QCTMPDIR:    .
QCFILEPREF:  ./qchem937254
QCSAVEDIR:   
workdirs:    ./qchem937254
workdir0:    ./qchem937254
partmpdirs =  
#
# parallel setting
#
QCRSH:           ssh
QCMPI:           mpich
QCMPIRUN:        /cm/shared/apps/spack/cpu/opt/spack/linux-centos8-zen2/gcc-10.2.0/qchem-5.4-akfmr7b3t57bfs6qan3padb2wnb2i7cl/bin/mpi/mpirun_qchem
QCMACHINEFILE:   ./qchem937254/hostfile
exp-8-24

#
# env setting
#
exported envs:   QC QCAUX QCSCRATCH QCRUNNAME QCFILEPREF QCPROG QCPROG_S GUIFILE

Running Job 1 of 1 fin_bdt_Phi_50_Theta_120_fin_ftt_Hydrogenated.qcin
qchem fin_bdt_Phi_50_Theta_120_fin_ftt_Hydrogenated.qcin_937254.0 ./qchem937254/ 1
/cm/shared/apps/spack/cpu/opt/spack/linux-centos8-zen2/gcc-10.2.0/qchem-5.4-akfmr7b3t57bfs6qan3padb2wnb2i7cl/bin/mpi/mpirun_qchem -machinefile ./qchem937254/hostfile -np 1 /cm/shared/apps/spack/cpu/opt/spack/linux-centos8-zen2/gcc-10.2.0/qchem-5.4-akfmr7b3t57bfs6qan3padb2wnb2i7cl/exe/qcprog.exe fin_bdt_Phi_50_Theta_120_fin_ftt_Hydrogenated.qcin_937254.0 ./qchem937254/

Process 0 of 1 is on exp-8-24 - thread support 0
initial socket setup ...start
initial socket setup ...done 
now start server 0 ... 
                  Welcome to Q-Chem
     A Quantum Leap Into The Future Of Chemistry


 Q-Chem 5.4, Q-Chem, Inc., Pleasanton, CA (2021)

 License issued to: University of California, San Diego (site)

 E. Epifanovsky,  A. T. B. Gilbert,  Xintian Feng,  Joonho Lee,  Yuezhi Mao,  
 N. Mardirossian,  P. Pokhilko,  A. White,  M. Wormit,  M. P. Coons,  
 A. L. Dempwolff,  Zhengting Gan,  D. Hait,  P. R. Horn,  L. D. Jacobson,  
 I. Kaliman,  J. Kussmann,  A. W. Lange,  Ka Un Lao,  D. S. Levine,  Jie Liu,  
 S. C. McKenzie,  A. F. Morrison,  K. Nanda,  F. Plasser,  D. R. Rehn,  
 M. L. Vidal,  Zhi-Qiang You,  Ying Zhu,  B. Alam,  B. Albrecht,  
 A. Aldossary,  E. Alguire,  J. H. Andersen,  D. Barton,  K. Begam,  A. Behn,  
 Y. A. Bernard,  E. J. Berquist,  H. Burton,  A. Carreras,  K. Carter-Fenk,  
 R. Chakraborty,  A. D. Chien,  K. D. Closser,  V. Cofer-Shabica,  
 S. Dasgupta,  Jia Deng,  M. de Wergifosse,  M. Diedenhofen,  Hainam Do,  
 S. Ehlert,  Po-Tung Fang,  S. Fatehi,  Qingguo Feng,  J. Gayvert,  
 Qinghui Ge,  G. Gidofalvi,  M. Goldey,  J. Gomes,  C. Gonzalez-Espinoza,  
 S. Gulania,  A. Gunina,  M. W. D. Hanson-Heine,  P. H. P. Harbach,  
 A. W. Hauser,  M. F. Herbst,  M. Hernandez Vera,  M. Hodecker,  
 Z. C. Holden,  S. Houck,  Xunkun Huang,  Kerwin Hui,  B. C. Huynh,  
 M. Ivanov,  Hyunjun Ji,  Hanjie Jiang,  B. Kaduk,  S. Kaehler,  
 K. Khistyaev,  Jaehoon Kim,  P. Klunzinger,  Z. Koczor-Benda,  
 Joong Hoon Koh,  D. Kosenkov,  L. Koulias,  T. Kowalczyk,  C. M. Krauter,  
 K. Kue,  A. Kunitsa,  T. Kus,  A. Landau,  K. V. Lawler,  D. Lefrancois,  
 S. Lehtola,  Rain Li,  Yi-Pei Li,  Jiashu Liang,  M. Liebenthal,  
 Hung-Hsuan Lin,  You-Sheng Lin,  Fenglai Liu,  Kuan-Yu Liu,  
 M. Loipersberger,  A. Luenser,  A. Manjanath,  P. Manohar,  E. Mansoor,  
 S. F. Manzer,  Shan-Ping Mao,  A. V. Marenich,  T. Markovich,  S. Mason,  
 S. A. Maurer,  P. F. McLaughlin,  M. F. S. J. Menger,  J.-M. Mewes,  
 S. A. Mewes,  P. Morgante,  J. W. Mullinax,  T. S. Nguyen-Beck,  
 K. J. Oosterbaan,  G. Paran,  Alexander C. Paul,  Suranjan K. Paul,  
 F. Pavosevic,  Zheng Pei,  S. Prager,  E. I. Proynov,  E. Ramos,  B. Rana,  
 A. E. Rask,  A. Rettig,  R. M. Richard,  F. Rob,  E. Rossomme,  T. Scheele,  
 M. Scheurer,  M. Schneider,  N. Sergueev,  S. M. Sharada,  W. Skomorowski,  
 D. W. Small,  C. J. Stein,  Yu-Chuan Su,  E. J. Sundstrom,  Zhen Tao,  
 J. Thirman,  T. Tsuchimochi,  N. M. Tubman,  S. P. Veccham,  O. Vydrov,  
 J. Wenzel,  J. Witte,  A. Yamada,  Kun Yao,  S. Yeganeh,  S. R. Yost,  
 A. Zech,  Igor Ying Zhang,  Xing Zhang,  Yu Zhang,  D. Zuev,  
 A. Aspuru-Guzik,  A. T. Bell,  N. A. Besley,  K. B. Bravaya,  B. R. Brooks,  
 D. Casanova,  Jeng-Da Chai,  S. Coriani,  C. J. Cramer,  
 A. E. DePrince, III,  R. A. DiStasio Jr.,  A. Dreuw,  B. D. Dunietz,  
 T. R. Furlani,  W. A. Goddard III,  S. Grimme,  S. Hammes-Schiffer,  
 T. Head-Gordon,  W. J. Hehre,  Chao-Ping Hsu,  T.-C. Jagau,  Yousung Jung,  
 A. Klamt,  Jing Kong,  D. S. Lambrecht,  WanZhen Liang,  N. J. Mayhall,  
 C. W. McCurdy,  J. B. Neaton,  C. Ochsenfeld,  J. A. Parkhill,  R. Peverati,  
 V. A. Rassolov,  Yihan Shao,  L. V. Slipchenko,  T. Stauch,  R. P. Steele,  
 J. E. Subotnik,  A. J. W. Thom,  A. Tkatchenko,  D. G. Truhlar,  
 T. Van Voorhis,  T. A. Wesolowski,  K. B. Whaley,  H. L. Woodcock III,  
 P. M. Zimmerman,  S. Faraji,  P. M. W. Gill,  M. Head-Gordon,  
 J. M. Herbert,  A. I. Krylov

 Contributors to earlier versions of Q-Chem not listed above: 
 R. D. Adamson,  B. Austin,  R. Baer,  J. Baker,  G. J. O. Beran,  
 K. Brandhorst,  S. T. Brown,  E. F. C. Byrd,  A. K. Chakraborty,  
 G. K. L. Chan,  Chun-Min Chang,  Yunqing Chen,  C.-L. Cheng,  
 Siu Hung Chien,  D. M. Chipman,  D. L. Crittenden,  H. Dachsel,  
 R. J. Doerksen,  A. D. Dutoi,  R. G. Edgar,  J. Fosso-Tande,  
 L. Fusti-Molnar,  D. Ghosh,  A. Ghysels,  A. Golubeva-Zadorozhnaya,  
 J. Gonthier,  M. S. Gordon,  S. R. Gwaltney,  G. Hawkins,  J. E. Herr,  
 A. Heyden,  S. Hirata,  E. G. Hohenstein,  G. Kedziora,  F. J. Keil,  
 C. Kelley,  Jihan Kim,  R. A. King,  R. Z. Khaliullin,  P. P. Korambath,  
 W. Kurlancheek,  A. Laurent,  A. M. Lee,  M. S. Lee,  S. V. Levchenko,  
 Ching Yeh Lin,  D. Liotard,  E. Livshits,  R. C. Lochan,  I. Lotan,  
 L. A. Martinez-Martinez,  P. E. Maslen,  N. Nair,  D. P. O'Neill,  
 D. Neuhauser,  E. Neuscamman,  C. M. Oana,  R. Olivares-Amaya,  R. Olson,  
 T. M. Perrine,  B. Peters,  P. A. Pieniazek,  A. Prociuk,  Y. M. Rhee,  
 J. Ritchie,  M. A. Rohrdanz,  E. Rosta,  N. J. Russ,  H. F. Schaefer III,  
 M. W. Schmidt,  N. E. Schultz,  S. Sharma,  N. Shenvi,  C. D. Sherrill,  
 A. C. Simmonett,  A. Sodt,  T. Stein,  D. Stuck,  K. S. Thanthiriwatte,  
 V. Vanovschi,  L. Vogt,  Tao Wang,  A. Warshel,  M. A. Watson,  
 C. F. Williams,  Q. Wu,  X. Xu,  Jun Yang,  W. Zhang,  Yan Zhao

 Please cite Q-Chem as follows:
 Y. Shao et al., Mol. Phys. 113, 184-215 (2015)
 DOI: 10.1080/00268976.2014.952696

 Q-Chem 5.4.0 for Intel X86 EM64T Linux

 Parts of Q-Chem use Armadillo 9.800.1 (Horizon Scraper).
 http://arma.sourceforge.net/

 Q-Chem begins on Sun Sep 24 17:31:44 2023  

 Host: 
0

     Scratch files written to ./qchem937254//
 May1621 |scratch|qcdevops|jenkins|workspace|build_RNUM    
 Parallel job on  1  processors
 Processing $rem in /cm/shared/apps/spack/cpu/opt/spack/linux-centos8-zen2/gcc-10.2.0/qchem-5.4-akfmr7b3t57bfs6qan3padb2wnb2i7cl/config/preferences:
 Processing $rem in /home/rramji/.qchemrc:
 Symmetry turned off for PCM/SM12/SMD calculation
 Core orbitals will be frozen

 Checking the input file for inconsistencies... 	...done.

 Q-Chem warning in module forms1/BasisType.C, line 2236:

 You are not using the predefined 5D/6D in this basis set.


--------------------------------------------------------------
User input:
--------------------------------------------------------------
$molecule
0 1
C	-0.208002	-8.519741	-0.175432
C	0.722164	-7.635967	0.352097
S	-1.563424	-7.651740	-0.936458
C	0.386833	-6.261894	0.160388
H	1.635031	-7.954738	0.870905
C	-0.849637	-6.079985	-0.553685
C	-1.357938	-4.798382	-0.816372
C	1.149702	-5.153542	0.627524
C	0.638941	-3.869626	0.368399
C	-0.597409	-3.688927	-0.348912
O	2.309260	-5.481075	1.262667
O	-2.523296	-4.479871	-1.453338
C	-3.036927	-5.356026	-2.449320
H	-3.824632	-4.790496	-2.982577
H	-3.497250	-6.268513	-2.011155
H	-2.249807	-5.658187	-3.173591
C	2.939226	-4.546999	2.130793
H	3.730721	-5.107564	2.663289
H	2.225196	-4.131473	2.873906
H	3.415077	-3.712085	1.572045
C	-0.930765	-2.314326	-0.536849
S	1.347913	-2.295487	0.763041
C	-0.000000	-1.435180	-0.000000
H	-1.841645	-1.993211	-1.057554
C	0.000000	0.000000	0.000000
S	0.690437	0.576430	1.510732
C	1.896512	1.589852	0.727629
C	0.695720	0.583817	-1.064665
C	1.758621	1.477674	-0.678287
C	0.645928	0.539878	-2.486150
C	1.614763	1.352997	-3.106916
S	2.568261	2.157430	-1.965735
C	1.812707	1.512991	-4.559972
O	1.099523	0.910662	-5.350277
O	2.797769	2.335330	-5.004375
F	-0.205024	-0.179266	-3.246290
C	3.079074	2.558124	-6.334976
H	3.925910	3.267919	-6.370268
H	2.208109	2.990367	-6.875609
H	3.358147	1.618843	-6.861878
H	2.601331	2.181180	1.321510
H	-0.648918	-9.146471	0.608584
H	0.237003	-9.150570	-0.953830
H	-0.532637	-1.444158	0.939477
$end

$rem
JOBTYPE		SP
EXCHANGE	HF
CORRELATION	pRIMP2
BASIS		cc-pvtz
METHOD		rimp2
AUX_BASIS	rimp2-cc-pvtz
SOLVENT_METHOD	PCM
PURECART	11111
SYMMETRY	false
MEM_TOTAL	110000
SCF_CONVERGENCE = 6
THRESH=10
GUI = 2
$end



$solvent
dielectric 4.90
$end
--------------------------------------------------------------
 ----------------------------------------------------------------
             Standard Nuclear Orientation (Angstroms)
    I     Atom           X                Y                Z
 ----------------------------------------------------------------
    1      C      -0.2080020000    -8.5197410000    -0.1754320000
    2      C       0.7221640000    -7.6359670000     0.3520970000
    3      S      -1.5634240000    -7.6517400000    -0.9364580000
    4      C       0.3868330000    -6.2618940000     0.1603880000
    5      H       1.6350310000    -7.9547380000     0.8709050000
    6      C      -0.8496370000    -6.0799850000    -0.5536850000
    7      C      -1.3579380000    -4.7983820000    -0.8163720000
    8      C       1.1497020000    -5.1535420000     0.6275240000
    9      C       0.6389410000    -3.8696260000     0.3683990000
   10      C      -0.5974090000    -3.6889270000    -0.3489120000
   11      O       2.3092600000    -5.4810750000     1.2626670000
   12      O      -2.5232960000    -4.4798710000    -1.4533380000
   13      C      -3.0369270000    -5.3560260000    -2.4493200000
   14      H      -3.8246320000    -4.7904960000    -2.9825770000
   15      H      -3.4972500000    -6.2685130000    -2.0111550000
   16      H      -2.2498070000    -5.6581870000    -3.1735910000
   17      C       2.9392260000    -4.5469990000     2.1307930000
   18      H       3.7307210000    -5.1075640000     2.6632890000
   19      H       2.2251960000    -4.1314730000     2.8739060000
   20      H       3.4150770000    -3.7120850000     1.5720450000
   21      C      -0.9307650000    -2.3143260000    -0.5368490000
   22      S       1.3479130000    -2.2954870000     0.7630410000
   23      C       0.0000000000    -1.4351800000     0.0000000000
   24      H      -1.8416450000    -1.9932110000    -1.0575540000
   25      C       0.0000000000     0.0000000000     0.0000000000
   26      S       0.6904370000     0.5764300000     1.5107320000
   27      C       1.8965120000     1.5898520000     0.7276290000
   28      C       0.6957200000     0.5838170000    -1.0646650000
   29      C       1.7586210000     1.4776740000    -0.6782870000
   30      C       0.6459280000     0.5398780000    -2.4861500000
   31      C       1.6147630000     1.3529970000    -3.1069160000
   32      S       2.5682610000     2.1574300000    -1.9657350000
   33      C       1.8127070000     1.5129910000    -4.5599720000
   34      O       1.0995230000     0.9106620000    -5.3502770000
   35      O       2.7977690000     2.3353300000    -5.0043750000
   36      F      -0.2050240000    -0.1792660000    -3.2462900000
   37      C       3.0790740000     2.5581240000    -6.3349760000
   38      H       3.9259100000     3.2679190000    -6.3702680000
   39      H       2.2081090000     2.9903670000    -6.8756090000
   40      H       3.3581470000     1.6188430000    -6.8618780000
   41      H       2.6013310000     2.1811800000     1.3215100000
   42      H      -0.6489180000    -9.1464710000     0.6085840000
   43      H       0.2370030000    -9.1505700000    -0.9538300000
   44      H      -0.5326370000    -1.4441580000     0.9394770000
 ----------------------------------------------------------------
 Nuclear Repulsion Energy =        3414.64923915 hartrees
 There are      120 alpha and      120 beta electrons
 Requested basis set is cc-pVTZ
 There are 388 shells and 1096 basis functions

 Total QAlloc Memory Limit 110000 MB
 Mega-Array Size       188 MB
 MEM_STATIC part       192 MB
 Discretize the solute cavity surface with Lebedev spheres
	Using 110 Lebedev grid points for each H atom
	Using 194 Lebedev grid points for other atoms
	Atomic van der Waals radii will be scaled by 1.20
 Remove points where switching function is < 1.0e-08
 Keep 2927 surface tesserae and discard 4349 interior tesserae
 Molecular Surface Area = 438.090 Angst**2
 Requested basis set is rimp2-cc-pVTZ
 There are 853 shells and 2963 basis functions
 A cutoff of  1.0D-10 yielded  34090 shell pairs
 There are    256880 function pairs (    332087 Cartesian)
 Smallest overlap matrix eigenvalue = 2.17E-05

 Scale SEOQF with 1.000000e-01/1.000000e-02/1.000000e-02

 Standard Electronic Orientation quadrupole field applied
 Nucleus-field energy     =     0.0000000407 hartrees
 Guess from superposition of atomic densities
 Warning:  Energy on first SCF cycle will be non-variational
 SAD guess density has 240.000000 electrons

 -----------------------------------------------------------------------
  General SCF calculation program by
  Eric Jon Sundstrom, Paul Horn, Yuezhi Mao, Dmitri Zuev, Alec White,
  David Stuck, Shaama M.S., Shane Yost, Joonho Lee, David Small,
  Daniel Levine, Susi Lehtola, Hugh Burton, Evgeny Epifanovsky,
  Bang C. Huynh
 -----------------------------------------------------------------------
 Hartree-Fock
 using 64 threads for integral computing
 -------------------------------------------------------
 OpenMP Integral computing Module                
 Release: version 1.0, May 2013, Q-Chem Inc. Pittsburgh 
 -------------------------------------------------------
 A restricted SCF calculation will be
 performed using DIIS
 SCF converges when DIIS error is below 1.0e-06
 ---------------------------------------
  Cycle       Energy         DIIS error
 ---------------------------------------
    1   -2767.4335457269      1.77e-02  
    2   -2754.8223480093      1.54e-03  
    3   -2755.1728867720      8.75e-04  
    4   -2755.2620402774      2.57e-04  
    5   -2755.2755966913      7.36e-05  
    6   -2755.2771356033      2.72e-05  
    7   -2755.2775455277      1.38e-05  
    8   -2755.2776885841      6.38e-06  
    9   -2755.2777250241      3.35e-06  
   10   -2755.2777349579      1.70e-06  
   11   -2755.2777377974      7.38e-07  Convergence criterion met
 ---------------------------------------
 SCF time:   CPU 7565.21s  wall 277.00s 

************** Final PCM Free Energy Summary **************
 G_electrostatic  =      -0.02326068 hartree =     -14.59629908 kcal/mol
 G_cavitation     =       0.00000000 hartree =       0.00000000 kcal/mol
 G_dispersion     =       0.00000000 hartree =       0.00000000 kcal/mol
 G_repulsion      =       0.00000000 hartree =       0.00000000 kcal/mol
 --------------------------------------------------
 Non-electrostatic Free Energy =       0.00000000 hartree =       0.00000000 kcal/mol
 Total                         =      -0.02326068 hartree =     -14.59629908 kcal/mol
 --------------------------------------------------
 SCF Energy (H0 + V/2)                       =   -2755.27773780 
 Solute Internal Energy (H0)                 =   -2755.25447711 
 Total Free Energy (H0 + V/2 + non-elec)     =   -2755.27773780 hartree
                                             = -1728962.87570332 kcal/mol
***********************************************************

 SCF   energy in the final basis set =    -2755.2777377974
 Total energy in the final basis set =    -2755.2777377974


 --------------------------------------------------------------
  Generalized many-body perturbation theory program
  by Joonho Lee, Fazle Rob, Xintian Feng, Evgeny Epifanovsky

 No regularization used 
 (reg. param. = 0.0000e+00)
  (P|Q)^-1/2 Time:  CPU 161.99 s  wall 2.91 s

 In RI-MP2 calculation: 
 # of frozen core orbitals: 45

 Components of the RIMP2 correlation energy:
        aaaa    correlation energy =        -0.6731257922 a.u.
        abab    correlation energy =        -3.7599847616 a.u.
        bbbb    correlation energy =        -0.6731257922 a.u.
        non-Brillouin singles      =        -0.0000000000 a.u.
        total same-spin energy     =        -1.3462515844 a.u.
        total opposite-spin energy =        -3.7599847616 a.u.

 Total  RIMP2   correlation energy =        -5.1062363460 a.u.
        RIMP2         total energy =     -2760.3839741434 a.u.

 RI-MP2 Energy Time:  CPU 2952.35 s  wall 47.76 s
 
 --------------------------------------------------------------
 
                    Orbital Energies (a.u.)
 --------------------------------------------------------------
 
 Alpha MOs
 -- Occupied --
-92.0177 -92.0036 -91.9721 -91.9550 -26.3357 -20.6156 -20.5852 -20.5840
-20.5562 -11.4156 -11.3767 -11.3196 -11.3097 -11.3069 -11.3018 -11.3002
-11.2903 -11.2891 -11.2832 -11.2829 -11.2809 -11.2794 -11.2737 -11.2699
-11.2683 -11.2552 -11.2513 -11.2465 -11.2302  -9.0169  -9.0073  -8.9748
 -8.9576  -6.6975  -6.6967  -6.6965  -6.6885  -6.6879  -6.6866  -6.6558
 -6.6549  -6.6536  -6.6389  -6.6380  -6.6369  -1.6488  -1.4757  -1.4077
 -1.4066  -1.3718  -1.2447  -1.2065  -1.1732  -1.1461  -1.0961  -1.0538
 -1.0429  -1.0339  -1.0062  -0.9945  -0.9756  -0.9594  -0.9464  -0.9390
 -0.8913  -0.8756  -0.8593  -0.8075  -0.7971  -0.7834  -0.7783  -0.7724
 -0.7619  -0.7329  -0.7206  -0.7178  -0.6964  -0.6939  -0.6815  -0.6793
 -0.6768  -0.6639  -0.6540  -0.6466  -0.6323  -0.6283  -0.6170  -0.6128
 -0.6111  -0.6107  -0.6021  -0.5912  -0.5742  -0.5635  -0.5578  -0.5532
 -0.5408  -0.5368  -0.5296  -0.5225  -0.5121  -0.5062  -0.5054  -0.4985
 -0.4895  -0.4837  -0.4747  -0.4685  -0.4661  -0.4638  -0.4549  -0.4433
 -0.4223  -0.3971  -0.3832  -0.3665  -0.3488  -0.2997  -0.2855  -0.2157
 -- Virtual --
  0.0040   0.0564   0.1055   0.1215   0.1416   0.1492   0.1517   0.1559
  0.1568   0.1615   0.1718   0.1774   0.1786   0.1866   0.1889   0.1922
  0.2030   0.2055   0.2062   0.2075   0.2183   0.2219   0.2241   0.2242
  0.2315   0.2334   0.2341   0.2473   0.2519   0.2568   0.2634   0.2660
  0.2751   0.2885   0.3045   0.3132   0.3253   0.3298   0.3381   0.3433
  0.3486   0.3522   0.3604   0.3658   0.3670   0.3693   0.3707   0.3794
  0.3846   0.3871   0.3925   0.3968   0.3995   0.4043   0.4091   0.4233
  0.4272   0.4294   0.4307   0.4332   0.4334   0.4415   0.4455   0.4493
  0.4579   0.4595   0.4637   0.4679   0.4751   0.4776   0.4832   0.4879
  0.4892   0.4943   0.4983   0.4987   0.5092   0.5127   0.5194   0.5214
  0.5255   0.5291   0.5315   0.5354   0.5394   0.5437   0.5484   0.5515
  0.5564   0.5592   0.5610   0.5662   0.5682   0.5699   0.5762   0.5795
  0.5860   0.5906   0.5941   0.5959   0.5977   0.6026   0.6088   0.6104
  0.6139   0.6164   0.6198   0.6230   0.6240   0.6258   0.6277   0.6307
  0.6354   0.6407   0.6447   0.6474   0.6514   0.6528   0.6552   0.6577
  0.6644   0.6675   0.6709   0.6779   0.6821   0.6871   0.6926   0.6988
  0.7034   0.7079   0.7128   0.7154   0.7172   0.7246   0.7291   0.7397
  0.7534   0.7598   0.7634   0.7699   0.7736   0.7744   0.7787   0.7836
  0.7914   0.7926   0.8011   0.8040   0.8073   0.8133   0.8172   0.8227
  0.8312   0.8425   0.8432   0.8466   0.8602   0.8691   0.8743   0.8812
  0.8855   0.8866   0.8925   0.8971   0.9061   0.9086   0.9135   0.9189
  0.9204   0.9282   0.9327   0.9366   0.9429   0.9480   0.9510   0.9569
  0.9622   0.9636   0.9706   0.9745   0.9854   0.9905   0.9931   0.9938
  0.9985   1.0017   1.0025   1.0098   1.0131   1.0220   1.0275   1.0314
  1.0377   1.0401   1.0453   1.0489   1.0545   1.0612   1.0625   1.0667
  1.0738   1.0760   1.0835   1.0870   1.0933   1.0981   1.1064   1.1117
  1.1146   1.1182   1.1199   1.1299   1.1364   1.1439   1.1486   1.1491
  1.1577   1.1652   1.1684   1.1704   1.1732   1.1757   1.1771   1.1791
  1.1866   1.1908   1.1939   1.2016   1.2046   1.2131   1.2148   1.2171
  1.2281   1.2285   1.2353   1.2402   1.2464   1.2491   1.2506   1.2591
  1.2651   1.2654   1.2760   1.2807   1.2851   1.2874   1.2893   1.2967
  1.3007   1.3122   1.3173   1.3237   1.3274   1.3350   1.3366   1.3428
  1.3450   1.3574   1.3591   1.3631   1.3763   1.3880   1.3933   1.4008
  1.4069   1.4126   1.4190   1.4220   1.4320   1.4384   1.4482   1.4494
  1.4671   1.4704   1.4754   1.4823   1.4877   1.4925   1.4989   1.5020
  1.5098   1.5106   1.5165   1.5213   1.5252   1.5265   1.5350   1.5374
  1.5431   1.5493   1.5514   1.5540   1.5559   1.5596   1.5645   1.5744
  1.5873   1.5934   1.6094   1.6152   1.6231   1.6258   1.6345   1.6419
  1.6516   1.6543   1.6597   1.6636   1.6675   1.6756   1.6814   1.6850
  1.6929   1.6985   1.7045   1.7194   1.7253   1.7352   1.7380   1.7457
  1.7485   1.7647   1.7734   1.7779   1.7933   1.8019   1.8074   1.8093
  1.8149   1.8278   1.8298   1.8402   1.8521   1.8564   1.8615   1.8715
  1.8768   1.8905   1.8914   1.8991   1.9204   1.9244   1.9271   1.9320
  1.9399   1.9470   1.9562   1.9675   1.9795   1.9831   1.9930   2.0073
  2.0114   2.0203   2.0267   2.0287   2.0374   2.0416   2.0531   2.0718
  2.0754   2.0814   2.0933   2.0951   2.1032   2.1192   2.1224   2.1330
  2.1396   2.1414   2.1531   2.1572   2.1685   2.1805   2.1875   2.1902
  2.1939   2.1983   2.2072   2.2183   2.2241   2.2288   2.2372   2.2444
  2.2507   2.2568   2.2626   2.2693   2.2787   2.2818   2.2884   2.2990
  2.3064   2.3196   2.3260   2.3288   2.3417   2.3542   2.3629   2.3669
  2.3811   2.3887   2.3986   2.4126   2.4165   2.4226   2.4315   2.4369
  2.4421   2.4490   2.4595   2.4656   2.4799   2.4856   2.4885   2.5109
  2.5135   2.5160   2.5271   2.5355   2.5444   2.5479   2.5612   2.5678
  2.5802   2.5840   2.6036   2.6092   2.6193   2.6223   2.6283   2.6335
  2.6383   2.6422   2.6455   2.6505   2.6546   2.6573   2.6683   2.6763
  2.6849   2.6881   2.6951   2.6996   2.7041   2.7105   2.7162   2.7216
  2.7272   2.7310   2.7410   2.7482   2.7530   2.7636   2.7703   2.7737
  2.7798   2.7837   2.7912   2.8076   2.8154   2.8180   2.8263   2.8349
  2.8421   2.8493   2.8552   2.8604   2.8630   2.8705   2.8760   2.8800
  2.8854   2.8984   2.9041   2.9103   2.9259   2.9313   2.9430   2.9488
  2.9583   2.9602   2.9670   2.9727   2.9824   2.9889   2.9940   2.9975
  3.0115   3.0227   3.0260   3.0322   3.0364   3.0422   3.0452   3.0489
  3.0537   3.0599   3.0672   3.0831   3.0869   3.0920   3.0955   3.0988
  3.1041   3.1115   3.1151   3.1262   3.1356   3.1420   3.1455   3.1559
  3.1580   3.1594   3.1642   3.1669   3.1704   3.1745   3.1845   3.1876
  3.1921   3.1983   3.2004   3.2077   3.2123   3.2135   3.2205   3.2258
  3.2320   3.2401   3.2436   3.2487   3.2540   3.2646   3.2662   3.2676
  3.2725   3.2763   3.2842   3.2904   3.2938   3.2949   3.3020   3.3044
  3.3071   3.3102   3.3182   3.3238   3.3330   3.3395   3.3442   3.3464
  3.3504   3.3514   3.3580   3.3595   3.3647   3.3696   3.3699   3.3754
  3.3810   3.3820   3.3919   3.3932   3.4008   3.4037   3.4062   3.4120
  3.4186   3.4235   3.4272   3.4329   3.4346   3.4403   3.4491   3.4518
  3.4562   3.4589   3.4657   3.4688   3.4759   3.4814   3.4834   3.4904
  3.4951   3.5017   3.5068   3.5113   3.5174   3.5280   3.5304   3.5377
  3.5418   3.5511   3.5553   3.5653   3.5691   3.5734   3.5745   3.5857
  3.5875   3.5934   3.6003   3.6031   3.6101   3.6157   3.6195   3.6266
  3.6278   3.6357   3.6402   3.6455   3.6510   3.6551   3.6585   3.6652
  3.6665   3.6719   3.6760   3.6810   3.6862   3.6909   3.7014   3.7035
  3.7108   3.7128   3.7156   3.7224   3.7231   3.7243   3.7287   3.7354
  3.7420   3.7455   3.7567   3.7591   3.7663   3.7688   3.7774   3.7836
  3.7914   3.7948   3.8009   3.8077   3.8089   3.8160   3.8182   3.8226
  3.8273   3.8303   3.8370   3.8432   3.8519   3.8547   3.8600   3.8647
  3.8660   3.8759   3.8844   3.8851   3.8951   3.8994   3.9124   3.9151
  3.9301   3.9322   3.9378   3.9482   3.9538   3.9559   3.9595   3.9624
  3.9689   3.9755   3.9880   4.0018   4.0064   4.0087   4.0182   4.0245
  4.0334   4.0360   4.0448   4.0522   4.0587   4.0626   4.0666   4.0701
  4.0720   4.0855   4.0866   4.0914   4.0941   4.1154   4.1202   4.1278
  4.1393   4.1463   4.1595   4.1650   4.1717   4.1756   4.1770   4.1814
  4.1826   4.1926   4.2054   4.2112   4.2163   4.2218   4.2377   4.2408
  4.2504   4.2509   4.2697   4.2723   4.2887   4.2939   4.2986   4.3095
  4.3240   4.3344   4.3416   4.3424   4.3463   4.3520   4.3617   4.3698
  4.3758   4.3762   4.3836   4.3903   4.3982   4.4043   4.4120   4.4165
  4.4218   4.4252   4.4305   4.4358   4.4430   4.4512   4.4622   4.4683
  4.4696   4.4789   4.4866   4.4998   4.5054   4.5104   4.5207   4.5246
  4.5407   4.5490   4.5522   4.5658   4.5745   4.5762   4.5847   4.5937
  4.5953   4.6131   4.6244   4.6250   4.6295   4.6381   4.6432   4.6482
  4.6560   4.6699   4.6758   4.6897   4.6935   4.7010   4.7160   4.7212
  4.7354   4.7460   4.7542   4.7684   4.7866   4.7960   4.8066   4.8136
  4.8292   4.8392   4.8507   4.8561   4.8634   4.8828   4.8880   4.8983
  4.9171   4.9198   4.9298   4.9535   4.9569   4.9689   4.9734   4.9793
  4.9967   5.0075   5.0103   5.0183   5.0206   5.0347   5.0431   5.0576
  5.0647   5.0901   5.0951   5.1115   5.1254   5.1510   5.1619   5.1770
  5.1825   5.1929   5.1970   5.1994   5.2079   5.2186   5.2367   5.2431
  5.2531   5.2573   5.2808   5.2901   5.2984   5.3124   5.3211   5.3298
  5.3434   5.3527   5.3534   5.3628   5.3665   5.3846   5.3919   5.3974
  5.4033   5.4080   5.4333   5.4470   5.4566   5.4714   5.4795   5.5053
  5.5096   5.5219   5.5240   5.5344   5.5661   5.5720   5.5747   5.5824
  5.6010   5.6127   5.6132   5.6251   5.6398   5.6640   5.6817   5.6951
  5.7263   5.7319   5.7655   5.7868   5.7975   5.8218   5.8394   5.8456
  5.8615   5.8820   5.9052   5.9496   5.9617   5.9653   5.9885   5.9987
  6.0425   6.0672   6.1035   6.1172   6.1313   6.1385   6.1739   6.1787
  6.1832   6.1841   6.2319   6.2524   6.2661   6.2730   6.2886   6.2942
  6.3056   6.3547   6.3651   6.3960   6.4407   6.4849   6.5008   6.5492
  6.5524   6.5694   6.6498   6.6633   6.6722   6.7168   6.7281   6.7376
  6.8103   6.8552   6.8578   6.8775   6.9012   6.9852   7.1335   7.1484
  7.1750   7.2074   7.2251   7.2415   7.3216   7.3293   7.3437   7.3720
  7.3746   7.4231   7.4593   7.4853   7.4897   7.4988   7.5164   7.5446
  7.6057   7.7413   7.7702   7.8053   7.8280   7.9058   7.9291   7.9592
  8.0036   8.1183   8.3585   8.5310   8.9288   9.0135   9.3642   9.4968
  9.6915  10.2982  11.2150  11.3720  11.9290  12.1197  12.1352  12.3231
 12.3896  12.4886  12.6831  12.9623  12.9985  13.2275  13.4850  13.6070
 13.7205  13.8730  13.9385  13.9885  14.1953  14.3183  14.8536  15.2115
 --------------------------------------------------------------
 
          Ground-State Mulliken Net Atomic Charges

     Atom                 Charge (a.u.)
  ----------------------------------------
      1 C                    -0.069210
      2 C                    -0.278217
      3 S                    -0.141585
      4 C                    -0.040111
      5 H                     0.190783
      6 C                    -0.054568
      7 C                     0.223469
      8 C                     0.217999
      9 C                    -0.079208
     10 C                    -0.053845
     11 O                    -0.336100
     12 O                    -0.343193
     13 C                    -0.082178
     14 H                     0.119682
     15 H                     0.091365
     16 H                     0.092896
     17 C                    -0.086738
     18 H                     0.122641
     19 H                     0.090460
     20 H                     0.089011
     21 C                    -0.270221
     22 S                    -0.081839
     23 C                     0.019668
     24 H                     0.205722
     25 C                    -0.136723
     26 S                     0.114077
     27 C                    -0.168361
     28 C                    -0.010626
     29 C                    -0.020962
     30 C                     0.354876
     31 C                    -0.122983
     32 S                     0.064638
     33 C                     0.457385
     34 O                    -0.440206
     35 O                    -0.296729
     36 F                    -0.210563
     37 C                    -0.054672
     38 H                     0.117410
     39 H                     0.085447
     40 H                     0.085739
     41 H                     0.221204
     42 H                     0.114627
     43 H                     0.112462
     44 H                     0.187276
  ----------------------------------------
  Sum of atomic charges =     0.000000

 -----------------------------------------------------------------
                    Cartesian Multipole Moments
 -----------------------------------------------------------------
    Charge (ESU x 10^10)
                 0.0000
    Dipole Moment (Debye)
         X       3.8638      Y       4.9182      Z       3.2353
       Tot       7.0416
    Quadrupole Moments (Debye-Ang)
        XX    -182.3041     XY       7.2162     YY    -193.0674
        XZ      -0.4357     YZ      -9.1330     ZZ    -192.3119
    Octopole Moments (Debye-Ang^2)
       XXX    -324.1165    XXY     454.2093    XYY     -69.3862
       YYY    1242.4343    XXZ     154.5584    XYZ     -68.5462
       YYZ     173.9953    XZZ     -29.6188    YZZ     486.4963
       ZZZ     564.9408
    Hexadecapole Moments (Debye-Ang^3)
      XXXX   -3484.2314   XXXY   -1050.2469   XXYY   -3968.6475
      XYYY   -1312.6277   YYYY  -19083.4855   XXXZ     556.6986
      XXYZ     117.5497   XYYZ     292.9109   YYYZ     450.6727
      XXZZ   -1245.7515   XYZZ     -79.8295   YYZZ   -4173.1996
      XZZZ      22.2440   YZZZ     120.3525   ZZZZ   -6168.5916
 -----------------------------------------------------------------
 Total job time:  328.15s(wall), 10627.35s(cpu) 
 Sun Sep 24 17:37:12 2023

        *************************************************************
        *                                                           *
        *  Thank you very much for using Q-Chem.  Have a nice day.  *
        *                                                           *
        *************************************************************


0 sent ACK to 0 
now end server 0 ... 
cleanup process ... done
remove work dirs ./qchem937254.0 -- ./qchem937254.0
rm -rf ./qchem937254.0
rm -rf ./qchem937254
