You are running Q-Chem version: 5.4.0

#
# job setting
#
local host:  exp-3-23
current dir: /expanse/lustre/projects/csd626/rramji/aromodel/PTB7_fin/Hydrogenated_Rotation_Test
input file:  fin_bdt_Phi_20_Theta_150_fin_ftt_Hydrogenated.qcin
output file: 
nprocs     : 1
nthreads   : 64
#
# qchem installation setting
#
QC:          /cm/shared/apps/spack/cpu/opt/spack/linux-centos8-zen2/gcc-10.2.0/qchem-5.4-akfmr7b3t57bfs6qan3padb2wnb2i7cl
QCAUX:       /cm/shared/apps/spack/cpu/opt/spack/linux-centos8-zen2/gcc-10.2.0/qchem-5.4-akfmr7b3t57bfs6qan3padb2wnb2i7cl/qcaux
QCPROG:      /cm/shared/apps/spack/cpu/opt/spack/linux-centos8-zen2/gcc-10.2.0/qchem-5.4-akfmr7b3t57bfs6qan3padb2wnb2i7cl/exe/qcprog.exe
QCPROG_S:    /cm/shared/apps/spack/cpu/opt/spack/linux-centos8-zen2/gcc-10.2.0/qchem-5.4-akfmr7b3t57bfs6qan3padb2wnb2i7cl/exe/qcprog.exe_s
PARALLEL:    -DPARALLEL
QCMPI:       mpich
#
# qchem directory setting
#
qcrun:       qchem2526781
QCSCRATCH:   .
QCLOCALSCR:  
QCTMPDIR:    .
QCFILEPREF:  ./qchem2526781
QCSAVEDIR:   
workdirs:    ./qchem2526781
workdir0:    ./qchem2526781
partmpdirs =  
#
# parallel setting
#
QCRSH:           ssh
QCMPI:           mpich
QCMPIRUN:        /cm/shared/apps/spack/cpu/opt/spack/linux-centos8-zen2/gcc-10.2.0/qchem-5.4-akfmr7b3t57bfs6qan3padb2wnb2i7cl/bin/mpi/mpirun_qchem
QCMACHINEFILE:   ./qchem2526781/hostfile
exp-3-23

#
# env setting
#
exported envs:   QC QCAUX QCSCRATCH QCRUNNAME QCFILEPREF QCPROG QCPROG_S GUIFILE

Running Job 1 of 1 fin_bdt_Phi_20_Theta_150_fin_ftt_Hydrogenated.qcin
qchem fin_bdt_Phi_20_Theta_150_fin_ftt_Hydrogenated.qcin_2526781.0 ./qchem2526781/ 1
/cm/shared/apps/spack/cpu/opt/spack/linux-centos8-zen2/gcc-10.2.0/qchem-5.4-akfmr7b3t57bfs6qan3padb2wnb2i7cl/bin/mpi/mpirun_qchem -machinefile ./qchem2526781/hostfile -np 1 /cm/shared/apps/spack/cpu/opt/spack/linux-centos8-zen2/gcc-10.2.0/qchem-5.4-akfmr7b3t57bfs6qan3padb2wnb2i7cl/exe/qcprog.exe fin_bdt_Phi_20_Theta_150_fin_ftt_Hydrogenated.qcin_2526781.0 ./qchem2526781/

Process 0 of 1 is on exp-3-23 - thread support 0
initial socket setup ...start
initial socket setup ...done 
now start server 0 ... 
                  Welcome to Q-Chem
     A Quantum Leap Into The Future Of Chemistry


 Q-Chem 5.4, Q-Chem, Inc., Pleasanton, CA (2021)

 License issued to: University of California, San Diego (site)

 E. Epifanovsky,  A. T. B. Gilbert,  Xintian Feng,  Joonho Lee,  Yuezhi Mao,  
 N. Mardirossian,  P. Pokhilko,  A. White,  M. Wormit,  M. P. Coons,  
 A. L. Dempwolff,  Zhengting Gan,  D. Hait,  P. R. Horn,  L. D. Jacobson,  
 I. Kaliman,  J. Kussmann,  A. W. Lange,  Ka Un Lao,  D. S. Levine,  Jie Liu,  
 S. C. McKenzie,  A. F. Morrison,  K. Nanda,  F. Plasser,  D. R. Rehn,  
 M. L. Vidal,  Zhi-Qiang You,  Ying Zhu,  B. Alam,  B. Albrecht,  
 A. Aldossary,  E. Alguire,  J. H. Andersen,  D. Barton,  K. Begam,  A. Behn,  
 Y. A. Bernard,  E. J. Berquist,  H. Burton,  A. Carreras,  K. Carter-Fenk,  
 R. Chakraborty,  A. D. Chien,  K. D. Closser,  V. Cofer-Shabica,  
 S. Dasgupta,  Jia Deng,  M. de Wergifosse,  M. Diedenhofen,  Hainam Do,  
 S. Ehlert,  Po-Tung Fang,  S. Fatehi,  Qingguo Feng,  J. Gayvert,  
 Qinghui Ge,  G. Gidofalvi,  M. Goldey,  J. Gomes,  C. Gonzalez-Espinoza,  
 S. Gulania,  A. Gunina,  M. W. D. Hanson-Heine,  P. H. P. Harbach,  
 A. W. Hauser,  M. F. Herbst,  M. Hernandez Vera,  M. Hodecker,  
 Z. C. Holden,  S. Houck,  Xunkun Huang,  Kerwin Hui,  B. C. Huynh,  
 M. Ivanov,  Hyunjun Ji,  Hanjie Jiang,  B. Kaduk,  S. Kaehler,  
 K. Khistyaev,  Jaehoon Kim,  P. Klunzinger,  Z. Koczor-Benda,  
 Joong Hoon Koh,  D. Kosenkov,  L. Koulias,  T. Kowalczyk,  C. M. Krauter,  
 K. Kue,  A. Kunitsa,  T. Kus,  A. Landau,  K. V. Lawler,  D. Lefrancois,  
 S. Lehtola,  Rain Li,  Yi-Pei Li,  Jiashu Liang,  M. Liebenthal,  
 Hung-Hsuan Lin,  You-Sheng Lin,  Fenglai Liu,  Kuan-Yu Liu,  
 M. Loipersberger,  A. Luenser,  A. Manjanath,  P. Manohar,  E. Mansoor,  
 S. F. Manzer,  Shan-Ping Mao,  A. V. Marenich,  T. Markovich,  S. Mason,  
 S. A. Maurer,  P. F. McLaughlin,  M. F. S. J. Menger,  J.-M. Mewes,  
 S. A. Mewes,  P. Morgante,  J. W. Mullinax,  T. S. Nguyen-Beck,  
 K. J. Oosterbaan,  G. Paran,  Alexander C. Paul,  Suranjan K. Paul,  
 F. Pavosevic,  Zheng Pei,  S. Prager,  E. I. Proynov,  E. Ramos,  B. Rana,  
 A. E. Rask,  A. Rettig,  R. M. Richard,  F. Rob,  E. Rossomme,  T. Scheele,  
 M. Scheurer,  M. Schneider,  N. Sergueev,  S. M. Sharada,  W. Skomorowski,  
 D. W. Small,  C. J. Stein,  Yu-Chuan Su,  E. J. Sundstrom,  Zhen Tao,  
 J. Thirman,  T. Tsuchimochi,  N. M. Tubman,  S. P. Veccham,  O. Vydrov,  
 J. Wenzel,  J. Witte,  A. Yamada,  Kun Yao,  S. Yeganeh,  S. R. Yost,  
 A. Zech,  Igor Ying Zhang,  Xing Zhang,  Yu Zhang,  D. Zuev,  
 A. Aspuru-Guzik,  A. T. Bell,  N. A. Besley,  K. B. Bravaya,  B. R. Brooks,  
 D. Casanova,  Jeng-Da Chai,  S. Coriani,  C. J. Cramer,  
 A. E. DePrince, III,  R. A. DiStasio Jr.,  A. Dreuw,  B. D. Dunietz,  
 T. R. Furlani,  W. A. Goddard III,  S. Grimme,  S. Hammes-Schiffer,  
 T. Head-Gordon,  W. J. Hehre,  Chao-Ping Hsu,  T.-C. Jagau,  Yousung Jung,  
 A. Klamt,  Jing Kong,  D. S. Lambrecht,  WanZhen Liang,  N. J. Mayhall,  
 C. W. McCurdy,  J. B. Neaton,  C. Ochsenfeld,  J. A. Parkhill,  R. Peverati,  
 V. A. Rassolov,  Yihan Shao,  L. V. Slipchenko,  T. Stauch,  R. P. Steele,  
 J. E. Subotnik,  A. J. W. Thom,  A. Tkatchenko,  D. G. Truhlar,  
 T. Van Voorhis,  T. A. Wesolowski,  K. B. Whaley,  H. L. Woodcock III,  
 P. M. Zimmerman,  S. Faraji,  P. M. W. Gill,  M. Head-Gordon,  
 J. M. Herbert,  A. I. Krylov

 Contributors to earlier versions of Q-Chem not listed above: 
 R. D. Adamson,  B. Austin,  R. Baer,  J. Baker,  G. J. O. Beran,  
 K. Brandhorst,  S. T. Brown,  E. F. C. Byrd,  A. K. Chakraborty,  
 G. K. L. Chan,  Chun-Min Chang,  Yunqing Chen,  C.-L. Cheng,  
 Siu Hung Chien,  D. M. Chipman,  D. L. Crittenden,  H. Dachsel,  
 R. J. Doerksen,  A. D. Dutoi,  R. G. Edgar,  J. Fosso-Tande,  
 L. Fusti-Molnar,  D. Ghosh,  A. Ghysels,  A. Golubeva-Zadorozhnaya,  
 J. Gonthier,  M. S. Gordon,  S. R. Gwaltney,  G. Hawkins,  J. E. Herr,  
 A. Heyden,  S. Hirata,  E. G. Hohenstein,  G. Kedziora,  F. J. Keil,  
 C. Kelley,  Jihan Kim,  R. A. King,  R. Z. Khaliullin,  P. P. Korambath,  
 W. Kurlancheek,  A. Laurent,  A. M. Lee,  M. S. Lee,  S. V. Levchenko,  
 Ching Yeh Lin,  D. Liotard,  E. Livshits,  R. C. Lochan,  I. Lotan,  
 L. A. Martinez-Martinez,  P. E. Maslen,  N. Nair,  D. P. O'Neill,  
 D. Neuhauser,  E. Neuscamman,  C. M. Oana,  R. Olivares-Amaya,  R. Olson,  
 T. M. Perrine,  B. Peters,  P. A. Pieniazek,  A. Prociuk,  Y. M. Rhee,  
 J. Ritchie,  M. A. Rohrdanz,  E. Rosta,  N. J. Russ,  H. F. Schaefer III,  
 M. W. Schmidt,  N. E. Schultz,  S. Sharma,  N. Shenvi,  C. D. Sherrill,  
 A. C. Simmonett,  A. Sodt,  T. Stein,  D. Stuck,  K. S. Thanthiriwatte,  
 V. Vanovschi,  L. Vogt,  Tao Wang,  A. Warshel,  M. A. Watson,  
 C. F. Williams,  Q. Wu,  X. Xu,  Jun Yang,  W. Zhang,  Yan Zhao

 Please cite Q-Chem as follows:
 Y. Shao et al., Mol. Phys. 113, 184-215 (2015)
 DOI: 10.1080/00268976.2014.952696

 Q-Chem 5.4.0 for Intel X86 EM64T Linux

 Parts of Q-Chem use Armadillo 9.800.1 (Horizon Scraper).
 http://arma.sourceforge.net/

 Q-Chem begins on Sun Sep 24 17:47:45 2023  

 Host: 
0

     Scratch files written to ./qchem2526781//
 May1621 |scratch|qcdevops|jenkins|workspace|build_RNUM    
 Parallel job on  1  processors
 Processing $rem in /cm/shared/apps/spack/cpu/opt/spack/linux-centos8-zen2/gcc-10.2.0/qchem-5.4-akfmr7b3t57bfs6qan3padb2wnb2i7cl/config/preferences:
 Processing $rem in /home/rramji/.qchemrc:
 Symmetry turned off for PCM/SM12/SMD calculation
 Core orbitals will be frozen

 Checking the input file for inconsistencies... 	...done.

 Q-Chem warning in module forms1/BasisType.C, line 2236:

 You are not using the predefined 5D/6D in this basis set.


--------------------------------------------------------------
User input:
--------------------------------------------------------------
$molecule
0 1
C	-0.092419	-8.519741	-0.255929
C	0.449364	-7.635967	0.666007
S	-0.885736	-7.651740	-1.592708
C	0.254813	-6.261894	0.332317
H	0.980526	-7.954738	1.571741
C	-0.458965	-6.079985	-0.904324
C	-0.767823	-4.798382	-1.385968
C	0.681909	-5.153542	1.118303
C	0.369139	-3.869626	0.638514
C	-0.342916	-3.688927	-0.600871
O	1.368544	-5.481075	2.248132
O	-1.458570	-4.479871	-2.520275
C	-1.405396	-5.356026	-3.639637
H	-1.820940	-4.790496	-4.495304
H	-2.023129	-6.268513	-3.490336
H	-0.361595	-5.658187	-3.873314
C	1.480048	-4.546999	3.314934
H	1.899255	-5.107564	4.171837
H	0.490123	-4.131473	3.601473
H	2.171521	-3.712085	3.068969
C	-0.537642	-2.314326	-0.930308
S	0.785807	-2.295487	1.334769
C	0.000000	-1.435180	0.000000
H	-1.066134	-1.993211	-1.836691
C	0.000000	0.000000	0.000000
S	0.309721	0.844422	1.510732
C	0.847502	2.325108	0.727629
C	0.310602	0.853460	-1.064665
C	0.784173	2.159014	-0.678287
C	0.289451	0.790512	-2.486150
C	0.721927	1.979112	-3.106916
S	1.145464	3.152519	-1.965735
C	0.813355	2.216642	-4.559972
O	0.496884	1.338418	-5.350277
O	1.255274	3.421340	-5.004375
F	-0.087923	-0.257761	-3.246290
C	1.387494	3.754937	-6.334976
H	1.765978	4.793056	-6.370268
H	0.417095	3.693789	-6.875609
H	2.098820	3.081033	-6.861878
H	1.162229	3.189623	1.321510
H	-0.866272	-9.146471	0.202590
H	0.682165	-9.150570	-0.707539
H	-0.931016	-1.444158	0.547293
$end

$rem
JOBTYPE		SP
EXCHANGE	HF
CORRELATION	pRIMP2
BASIS		cc-pvtz
METHOD		rimp2
AUX_BASIS	rimp2-cc-pvtz
SOLVENT_METHOD	PCM
PURECART	11111
SYMMETRY	false
MEM_TOTAL	110000
SCF_CONVERGENCE = 6
THRESH=10
GUI = 2
$end



$solvent
dielectric 4.90
$end
--------------------------------------------------------------
 ----------------------------------------------------------------
             Standard Nuclear Orientation (Angstroms)
    I     Atom           X                Y                Z
 ----------------------------------------------------------------
    1      C      -0.0924190000    -8.5197410000    -0.2559290000
    2      C       0.4493640000    -7.6359670000     0.6660070000
    3      S      -0.8857360000    -7.6517400000    -1.5927080000
    4      C       0.2548130000    -6.2618940000     0.3323170000
    5      H       0.9805260000    -7.9547380000     1.5717410000
    6      C      -0.4589650000    -6.0799850000    -0.9043240000
    7      C      -0.7678230000    -4.7983820000    -1.3859680000
    8      C       0.6819090000    -5.1535420000     1.1183030000
    9      C       0.3691390000    -3.8696260000     0.6385140000
   10      C      -0.3429160000    -3.6889270000    -0.6008710000
   11      O       1.3685440000    -5.4810750000     2.2481320000
   12      O      -1.4585700000    -4.4798710000    -2.5202750000
   13      C      -1.4053960000    -5.3560260000    -3.6396370000
   14      H      -1.8209400000    -4.7904960000    -4.4953040000
   15      H      -2.0231290000    -6.2685130000    -3.4903360000
   16      H      -0.3615950000    -5.6581870000    -3.8733140000
   17      C       1.4800480000    -4.5469990000     3.3149340000
   18      H       1.8992550000    -5.1075640000     4.1718370000
   19      H       0.4901230000    -4.1314730000     3.6014730000
   20      H       2.1715210000    -3.7120850000     3.0689690000
   21      C      -0.5376420000    -2.3143260000    -0.9303080000
   22      S       0.7858070000    -2.2954870000     1.3347690000
   23      C       0.0000000000    -1.4351800000     0.0000000000
   24      H      -1.0661340000    -1.9932110000    -1.8366910000
   25      C       0.0000000000     0.0000000000     0.0000000000
   26      S       0.3097210000     0.8444220000     1.5107320000
   27      C       0.8475020000     2.3251080000     0.7276290000
   28      C       0.3106020000     0.8534600000    -1.0646650000
   29      C       0.7841730000     2.1590140000    -0.6782870000
   30      C       0.2894510000     0.7905120000    -2.4861500000
   31      C       0.7219270000     1.9791120000    -3.1069160000
   32      S       1.1454640000     3.1525190000    -1.9657350000
   33      C       0.8133550000     2.2166420000    -4.5599720000
   34      O       0.4968840000     1.3384180000    -5.3502770000
   35      O       1.2552740000     3.4213400000    -5.0043750000
   36      F      -0.0879230000    -0.2577610000    -3.2462900000
   37      C       1.3874940000     3.7549370000    -6.3349760000
   38      H       1.7659780000     4.7930560000    -6.3702680000
   39      H       0.4170950000     3.6937890000    -6.8756090000
   40      H       2.0988200000     3.0810330000    -6.8618780000
   41      H       1.1622290000     3.1896230000     1.3215100000
   42      H      -0.8662720000    -9.1464710000     0.2025900000
   43      H       0.6821650000    -9.1505700000    -0.7075390000
   44      H      -0.9310160000    -1.4441580000     0.5472930000
 ----------------------------------------------------------------
 Nuclear Repulsion Energy =        3373.83668480 hartrees
 There are      120 alpha and      120 beta electrons
 Requested basis set is cc-pVTZ
 There are 388 shells and 1096 basis functions

 Total QAlloc Memory Limit 110000 MB
 Mega-Array Size       188 MB
 MEM_STATIC part       192 MB
 Discretize the solute cavity surface with Lebedev spheres
	Using 110 Lebedev grid points for each H atom
	Using 194 Lebedev grid points for other atoms
	Atomic van der Waals radii will be scaled by 1.20
 Remove points where switching function is < 1.0e-08
 Keep 2949 surface tesserae and discard 4327 interior tesserae
 Molecular Surface Area = 436.783 Angst**2
 Requested basis set is rimp2-cc-pVTZ
 There are 853 shells and 2963 basis functions
 A cutoff of  1.0D-10 yielded  33596 shell pairs
 There are    253486 function pairs (    327823 Cartesian)
 Smallest overlap matrix eigenvalue = 2.18E-05

 Scale SEOQF with 1.000000e-01/1.000000e-02/1.000000e-02

 Standard Electronic Orientation quadrupole field applied
 Nucleus-field energy     =     0.0000000202 hartrees
 Guess from superposition of atomic densities
 Warning:  Energy on first SCF cycle will be non-variational
 SAD guess density has 240.000000 electrons

 -----------------------------------------------------------------------
  General SCF calculation program by
  Eric Jon Sundstrom, Paul Horn, Yuezhi Mao, Dmitri Zuev, Alec White,
  David Stuck, Shaama M.S., Shane Yost, Joonho Lee, David Small,
  Daniel Levine, Susi Lehtola, Hugh Burton, Evgeny Epifanovsky,
  Bang C. Huynh
 -----------------------------------------------------------------------
 Hartree-Fock
 using 64 threads for integral computing
 -------------------------------------------------------
 OpenMP Integral computing Module                
 Release: version 1.0, May 2013, Q-Chem Inc. Pittsburgh 
 -------------------------------------------------------
 A restricted SCF calculation will be
 performed using DIIS
 SCF converges when DIIS error is below 1.0e-06
 ---------------------------------------
  Cycle       Energy         DIIS error
 ---------------------------------------
    1   -2767.3600310417      1.77e-02  
    2   -2754.8609177534      1.54e-03  
    3   -2755.2108347504      8.74e-04  
    4   -2755.3010959885      2.55e-04  
    5   -2755.3148897339      7.34e-05  
    6   -2755.3164749871      2.65e-05  
    7   -2755.3169010774      1.37e-05  
    8   -2755.3170336097      5.76e-06  
    9   -2755.3170629469      3.03e-06  
   10   -2755.3170701192      1.45e-06  
   11   -2755.3170723278      7.56e-07  Convergence criterion met
 ---------------------------------------
 SCF time:   CPU 7531.28s  wall 274.00s 

************** Final PCM Free Energy Summary **************
 G_electrostatic  =      -0.02142711 hartree =     -13.44571412 kcal/mol
 G_cavitation     =       0.00000000 hartree =       0.00000000 kcal/mol
 G_dispersion     =       0.00000000 hartree =       0.00000000 kcal/mol
 G_repulsion      =       0.00000000 hartree =       0.00000000 kcal/mol
 --------------------------------------------------
 Non-electrostatic Free Energy =       0.00000000 hartree =       0.00000000 kcal/mol
 Total                         =      -0.02142711 hartree =     -13.44571412 kcal/mol
 --------------------------------------------------
 SCF Energy (H0 + V/2)                       =   -2755.31707233 
 Solute Internal Energy (H0)                 =   -2755.29564522 
 Total Free Energy (H0 + V/2 + non-elec)     =   -2755.31707233 hartree
                                             = -1728987.55849371 kcal/mol
***********************************************************

 SCF   energy in the final basis set =    -2755.3170723278
 Total energy in the final basis set =    -2755.3170723278


 --------------------------------------------------------------
  Generalized many-body perturbation theory program
  by Joonho Lee, Fazle Rob, Xintian Feng, Evgeny Epifanovsky

 No regularization used 
 (reg. param. = 0.0000e+00)
  (P|Q)^-1/2 Time:  CPU 139.40 s  wall 2.80 s

 In RI-MP2 calculation: 
 # of frozen core orbitals: 45

 Components of the RIMP2 correlation energy:
        aaaa    correlation energy =        -0.6705906253 a.u.
        abab    correlation energy =        -3.7524547576 a.u.
        bbbb    correlation energy =        -0.6705906253 a.u.
        non-Brillouin singles      =        -0.0000000000 a.u.
        total same-spin energy     =        -1.3411812505 a.u.
        total opposite-spin energy =        -3.7524547576 a.u.

 Total  RIMP2   correlation energy =        -5.0936360082 a.u.
        RIMP2         total energy =     -2760.4107083360 a.u.

 RI-MP2 Energy Time:  CPU 2964.15 s  wall 48.59 s
 
 --------------------------------------------------------------
 
                    Orbital Energies (a.u.)
 --------------------------------------------------------------
 
 Alpha MOs
 -- Occupied --
-92.0160 -91.9940 -91.9823 -91.9584 -26.3376 -20.6120 -20.5883 -20.5867
-20.5495 -11.4099 -11.3789 -11.3178 -11.3093 -11.3093 -11.2973 -11.2960
-11.2910 -11.2885 -11.2857 -11.2842 -11.2832 -11.2819 -11.2792 -11.2733
-11.2723 -11.2589 -11.2589 -11.2500 -11.2381  -9.0146  -8.9982  -8.9844
 -8.9610  -6.6954  -6.6948  -6.6943  -6.6794  -6.6788  -6.6774  -6.6655
 -6.6646  -6.6633  -6.6423  -6.6413  -6.6403  -1.6511  -1.4716  -1.4116
 -1.4086  -1.3669  -1.2385  -1.2102  -1.1762  -1.1440  -1.0998  -1.0503
 -1.0472  -1.0299  -1.0096  -0.9991  -0.9722  -0.9598  -0.9493  -0.9404
 -0.8950  -0.8720  -0.8641  -0.8086  -0.7970  -0.7867  -0.7766  -0.7705
 -0.7645  -0.7324  -0.7228  -0.7187  -0.6979  -0.6932  -0.6837  -0.6785
 -0.6725  -0.6670  -0.6572  -0.6488  -0.6383  -0.6301  -0.6204  -0.6148
 -0.6098  -0.6062  -0.5953  -0.5929  -0.5772  -0.5695  -0.5592  -0.5523
 -0.5480  -0.5366  -0.5324  -0.5227  -0.5146  -0.5086  -0.5061  -0.5005
 -0.4850  -0.4846  -0.4786  -0.4721  -0.4620  -0.4611  -0.4587  -0.4464
 -0.4307  -0.3987  -0.3868  -0.3708  -0.3514  -0.2940  -0.2853  -0.2179
 -- Virtual --
  0.0247   0.0564   0.1108   0.1249   0.1395   0.1475   0.1535   0.1548
  0.1581   0.1610   0.1687   0.1801   0.1835   0.1872   0.1891   0.1957
  0.2003   0.2035   0.2044   0.2124   0.2180   0.2231   0.2234   0.2269
  0.2295   0.2328   0.2423   0.2460   0.2538   0.2569   0.2688   0.2742
  0.2764   0.2967   0.3045   0.3186   0.3366   0.3419   0.3428   0.3473
  0.3505   0.3534   0.3578   0.3654   0.3706   0.3761   0.3791   0.3838
  0.3848   0.3912   0.3961   0.4027   0.4074   0.4114   0.4184   0.4215
  0.4263   0.4283   0.4313   0.4337   0.4353   0.4441   0.4459   0.4529
  0.4555   0.4602   0.4650   0.4688   0.4727   0.4766   0.4804   0.4845
  0.4883   0.4951   0.4976   0.5018   0.5050   0.5112   0.5174   0.5221
  0.5281   0.5293   0.5300   0.5343   0.5377   0.5429   0.5506   0.5518
  0.5563   0.5606   0.5623   0.5662   0.5693   0.5771   0.5783   0.5809
  0.5833   0.5892   0.5911   0.5933   0.5957   0.5995   0.6029   0.6088
  0.6128   0.6152   0.6168   0.6233   0.6244   0.6254   0.6263   0.6300
  0.6347   0.6371   0.6423   0.6453   0.6474   0.6502   0.6537   0.6589
  0.6626   0.6674   0.6722   0.6748   0.6829   0.6887   0.6921   0.6963
  0.7015   0.7067   0.7131   0.7163   0.7201   0.7214   0.7289   0.7424
  0.7494   0.7570   0.7592   0.7675   0.7737   0.7782   0.7839   0.7886
  0.7932   0.7985   0.8001   0.8041   0.8096   0.8152   0.8171   0.8246
  0.8342   0.8379   0.8475   0.8512   0.8646   0.8665   0.8715   0.8763
  0.8921   0.8953   0.8976   0.9028   0.9063   0.9088   0.9123   0.9208
  0.9273   0.9314   0.9350   0.9388   0.9417   0.9486   0.9530   0.9575
  0.9615   0.9660   0.9720   0.9789   0.9832   0.9855   0.9935   0.9974
  0.9987   1.0005   1.0040   1.0083   1.0156   1.0168   1.0237   1.0257
  1.0344   1.0374   1.0433   1.0498   1.0516   1.0559   1.0626   1.0666
  1.0757   1.0794   1.0816   1.0887   1.0940   1.0995   1.1018   1.1113
  1.1140   1.1219   1.1260   1.1270   1.1363   1.1372   1.1433   1.1531
  1.1568   1.1604   1.1646   1.1690   1.1707   1.1770   1.1790   1.1820
  1.1873   1.1911   1.1961   1.2002   1.2030   1.2094   1.2161   1.2203
  1.2221   1.2268   1.2338   1.2408   1.2469   1.2489   1.2539   1.2571
  1.2607   1.2683   1.2773   1.2810   1.2832   1.2898   1.2951   1.2958
  1.3008   1.3067   1.3090   1.3135   1.3274   1.3355   1.3392   1.3434
  1.3469   1.3536   1.3566   1.3707   1.3777   1.3781   1.3911   1.3931
  1.3974   1.4110   1.4118   1.4182   1.4290   1.4375   1.4432   1.4494
  1.4595   1.4655   1.4746   1.4843   1.4870   1.4939   1.4958   1.4999
  1.5034   1.5108   1.5128   1.5185   1.5276   1.5313   1.5324   1.5380
  1.5408   1.5478   1.5514   1.5568   1.5581   1.5663   1.5759   1.5803
  1.5913   1.5993   1.6015   1.6121   1.6209   1.6252   1.6313   1.6341
  1.6463   1.6580   1.6596   1.6650   1.6690   1.6716   1.6809   1.6892
  1.6920   1.7084   1.7111   1.7185   1.7243   1.7303   1.7369   1.7509
  1.7576   1.7656   1.7764   1.7793   1.7807   1.7857   1.8033   1.8148
  1.8201   1.8237   1.8336   1.8432   1.8556   1.8646   1.8696   1.8741
  1.8791   1.8904   1.8945   1.9081   1.9211   1.9240   1.9297   1.9379
  1.9436   1.9521   1.9561   1.9611   1.9797   1.9898   1.9943   2.0003
  2.0130   2.0193   2.0240   2.0313   2.0325   2.0427   2.0475   2.0539
  2.0639   2.0698   2.0945   2.0991   2.1092   2.1173   2.1287   2.1346
  2.1453   2.1582   2.1621   2.1670   2.1725   2.1800   2.1865   2.1940
  2.1954   2.1966   2.2041   2.2115   2.2237   2.2247   2.2410   2.2435
  2.2473   2.2585   2.2692   2.2781   2.2822   2.2866   2.2934   2.2993
  2.3072   2.3197   2.3277   2.3347   2.3382   2.3452   2.3587   2.3645
  2.3748   2.3857   2.3864   2.4000   2.4086   2.4161   2.4195   2.4319
  2.4342   2.4448   2.4649   2.4683   2.4801   2.4876   2.4957   2.5013
  2.5082   2.5123   2.5293   2.5318   2.5426   2.5603   2.5625   2.5668
  2.5752   2.5827   2.5989   2.6029   2.6103   2.6198   2.6248   2.6279
  2.6316   2.6419   2.6459   2.6482   2.6528   2.6593   2.6693   2.6719
  2.6803   2.6864   2.6949   2.6991   2.7055   2.7125   2.7188   2.7217
  2.7317   2.7383   2.7422   2.7436   2.7519   2.7585   2.7661   2.7703
  2.7761   2.7857   2.7882   2.7974   2.8104   2.8144   2.8292   2.8381
  2.8436   2.8466   2.8524   2.8553   2.8617   2.8697   2.8722   2.8840
  2.8859   2.8910   2.8931   2.9038   2.9177   2.9283   2.9304   2.9510
  2.9577   2.9613   2.9688   2.9768   2.9820   2.9846   2.9891   3.0016
  3.0026   3.0120   3.0190   3.0297   3.0353   3.0433   3.0460   3.0511
  3.0595   3.0622   3.0760   3.0824   3.0868   3.0920   3.1016   3.1059
  3.1111   3.1162   3.1197   3.1248   3.1311   3.1338   3.1424   3.1471
  3.1505   3.1558   3.1624   3.1644   3.1700   3.1775   3.1793   3.1869
  3.1897   3.1940   3.2012   3.2040   3.2100   3.2142   3.2200   3.2298
  3.2319   3.2331   3.2458   3.2530   3.2591   3.2619   3.2667   3.2683
  3.2756   3.2794   3.2819   3.2834   3.2891   3.2910   3.2966   3.3013
  3.3065   3.3103   3.3162   3.3199   3.3255   3.3310   3.3354   3.3451
  3.3464   3.3497   3.3531   3.3552   3.3575   3.3621   3.3649   3.3689
  3.3706   3.3789   3.3840   3.3932   3.3971   3.4011   3.4053   3.4104
  3.4173   3.4241   3.4289   3.4313   3.4340   3.4399   3.4444   3.4491
  3.4513   3.4518   3.4561   3.4613   3.4722   3.4764   3.4796   3.4831
  3.4870   3.4971   3.5024   3.5100   3.5157   3.5221   3.5333   3.5349
  3.5421   3.5472   3.5554   3.5578   3.5647   3.5699   3.5800   3.5816
  3.5876   3.5900   3.5954   3.6011   3.6038   3.6112   3.6144   3.6206
  3.6239   3.6277   3.6333   3.6371   3.6400   3.6466   3.6519   3.6604
  3.6616   3.6670   3.6739   3.6793   3.6806   3.6815   3.6924   3.6968
  3.7040   3.7060   3.7097   3.7120   3.7172   3.7193   3.7274   3.7299
  3.7322   3.7347   3.7439   3.7527   3.7555   3.7587   3.7658   3.7755
  3.7821   3.7913   3.7980   3.8007   3.8087   3.8163   3.8174   3.8226
  3.8242   3.8295   3.8368   3.8386   3.8446   3.8490   3.8558   3.8612
  3.8669   3.8705   3.8765   3.8807   3.8913   3.8933   3.9093   3.9125
  3.9159   3.9273   3.9324   3.9373   3.9454   3.9544   3.9597   3.9656
  3.9711   3.9738   3.9784   3.9936   4.0008   4.0080   4.0133   4.0176
  4.0268   4.0347   4.0405   4.0424   4.0496   4.0553   4.0609   4.0672
  4.0707   4.0710   4.0846   4.0929   4.0985   4.1106   4.1206   4.1294
  4.1363   4.1410   4.1490   4.1558   4.1659   4.1691   4.1709   4.1784
  4.1823   4.1880   4.1955   4.1993   4.2128   4.2149   4.2329   4.2386
  4.2471   4.2556   4.2619   4.2698   4.2852   4.2936   4.3044   4.3172
  4.3244   4.3275   4.3364   4.3444   4.3477   4.3502   4.3632   4.3641
  4.3715   4.3770   4.3794   4.3963   4.4026   4.4065   4.4114   4.4127
  4.4232   4.4269   4.4274   4.4364   4.4427   4.4450   4.4473   4.4643
  4.4697   4.4780   4.4854   4.5002   4.5059   4.5131   4.5203   4.5252
  4.5345   4.5396   4.5539   4.5655   4.5691   4.5743   4.5749   4.5888
  4.6039   4.6119   4.6147   4.6224   4.6357   4.6412   4.6445   4.6489
  4.6588   4.6675   4.6751   4.6828   4.6974   4.7071   4.7119   4.7252
  4.7322   4.7407   4.7497   4.7663   4.7761   4.7914   4.8062   4.8098
  4.8249   4.8277   4.8313   4.8464   4.8675   4.8801   4.8821   4.8913
  4.9135   4.9214   4.9312   4.9349   4.9574   4.9642   4.9679   4.9738
  4.9985   5.0045   5.0119   5.0126   5.0205   5.0358   5.0407   5.0431
  5.0642   5.0865   5.0936   5.1150   5.1459   5.1524   5.1650   5.1710
  5.1906   5.1970   5.2008   5.2089   5.2099   5.2211   5.2308   5.2543
  5.2592   5.2682   5.2846   5.2907   5.2936   5.3106   5.3182   5.3272
  5.3371   5.3532   5.3553   5.3636   5.3795   5.3840   5.3934   5.4026
  5.4124   5.4186   5.4334   5.4426   5.4535   5.4731   5.4830   5.5012
  5.5092   5.5196   5.5219   5.5558   5.5656   5.5779   5.5868   5.5930
  5.5986   5.6116   5.6181   5.6309   5.6433   5.6551   5.6750   5.6903
  5.7151   5.7384   5.7631   5.7843   5.8010   5.8236   5.8343   5.8576
  5.8630   5.8808   5.9027   5.9554   5.9670   5.9702   5.9833   6.0030
  6.0403   6.0831   6.1231   6.1256   6.1337   6.1631   6.1714   6.1787
  6.1863   6.1934   6.2418   6.2485   6.2594   6.2709   6.2849   6.2915
  6.3088   6.3442   6.3535   6.4356   6.4747   6.4997   6.5298   6.5556
  6.5567   6.5673   6.6462   6.6771   6.6976   6.7160   6.7433   6.7462
  6.8075   6.8565   6.8608   6.8846   6.8983   6.9920   7.1315   7.1449
  7.1786   7.2119   7.2212   7.2397   7.3268   7.3278   7.3409   7.3700
  7.3739   7.4315   7.4627   7.4834   7.4855   7.4975   7.5221   7.5501
  7.6165   7.7384   7.7680   7.8027   7.8322   7.9111   7.9281   7.9559
  8.0053   8.1231   8.3285   8.6509   8.9301   9.0232   9.3631   9.5043
  9.7061  10.3398  11.2612  11.4237  11.9345  11.9479  12.1242  12.3345
 12.3925  12.5263  12.7146  12.9257  13.0212  13.2491  13.4767  13.6009
 13.7759  13.8880  13.9387  13.9451  14.1742  14.3133  14.9920  15.2169
 --------------------------------------------------------------
 
          Ground-State Mulliken Net Atomic Charges

     Atom                 Charge (a.u.)
  ----------------------------------------
      1 C                    -0.070357
      2 C                    -0.257394
      3 S                    -0.134186
      4 C                    -0.045331
      5 H                     0.193706
      6 C                    -0.052589
      7 C                     0.224436
      8 C                     0.225344
      9 C                    -0.077366
     10 C                    -0.047079
     11 O                    -0.333922
     12 O                    -0.343074
     13 C                    -0.082466
     14 H                     0.121215
     15 H                     0.091547
     16 H                     0.092959
     17 C                    -0.088236
     18 H                     0.124345
     19 H                     0.092691
     20 H                     0.089857
     21 C                    -0.275878
     22 S                    -0.078588
     23 C                     0.087493
     24 H                     0.205309
     25 C                    -0.094298
     26 S                     0.079666
     27 C                    -0.233287
     28 C                    -0.039761
     29 C                    -0.021508
     30 C                     0.377848
     31 C                    -0.144679
     32 S                     0.035616
     33 C                     0.458093
     34 O                    -0.451968
     35 O                    -0.298140
     36 F                    -0.213464
     37 C                    -0.054928
     38 H                     0.116590
     39 H                     0.084359
     40 H                     0.084422
     41 H                     0.215893
     42 H                     0.117718
     43 H                     0.115553
     44 H                     0.203837
  ----------------------------------------
  Sum of atomic charges =     0.000000

 -----------------------------------------------------------------
                    Cartesian Multipole Moments
 -----------------------------------------------------------------
    Charge (ESU x 10^10)
                -0.0000
    Dipole Moment (Debye)
         X       0.6623      Y       2.6712      Z       3.8012
       Tot       4.6929
    Quadrupole Moments (Debye-Ang)
        XX    -199.0086     XY       2.8507     YY    -174.6047
        XZ      -0.0169     YZ     -13.2791     ZZ    -188.7602
    Octopole Moments (Debye-Ang^2)
       XXX    -162.9728    XXY     406.4880    XYY     -12.4426
       YYY    1013.7617    XXZ     189.5302    XYZ     -32.7017
       YYZ     172.5805    XZZ     -14.7773    YZZ     422.9408
       ZZZ     595.2287
    Hexadecapole Moments (Debye-Ang^3)
      XXXX   -1119.5064   XXXY    -679.5164   XXYY   -3938.4636
      XYYY    -760.8974   YYYY  -19484.2169   XXXZ       3.2193
      XXYZ     250.3247   XYYZ      -3.9103   YYYZ     470.7334
      XXZZ   -1351.6314   XYZZ     -45.5559   YYZZ   -4187.3946
      XZZZ    -107.8114   YZZZ     224.4968   ZZZZ   -7248.6472
 -----------------------------------------------------------------
 Total job time:  326.94s(wall), 10588.04s(cpu) 
 Sun Sep 24 17:53:12 2023

        *************************************************************
        *                                                           *
        *  Thank you very much for using Q-Chem.  Have a nice day.  *
        *                                                           *
        *************************************************************


0 sent ACK to 0 
now end server 0 ... 
cleanup process ... done
remove work dirs ./qchem2526781.0 -- ./qchem2526781.0
rm -rf ./qchem2526781.0
rm -rf ./qchem2526781
