You are running Q-Chem version: 5.4.0

#
# job setting
#
local host:  exp-5-42
current dir: /expanse/lustre/projects/csd626/rramji/aromodel/PTB7_fin/Hydrogenated_Rotation_Test
input file:  fin_bdt_Phi_0_Theta_300_fin_ftt_Hydrogenated.qcin
output file: 
nprocs     : 1
nthreads   : 64
#
# qchem installation setting
#
QC:          /cm/shared/apps/spack/cpu/opt/spack/linux-centos8-zen2/gcc-10.2.0/qchem-5.4-akfmr7b3t57bfs6qan3padb2wnb2i7cl
QCAUX:       /cm/shared/apps/spack/cpu/opt/spack/linux-centos8-zen2/gcc-10.2.0/qchem-5.4-akfmr7b3t57bfs6qan3padb2wnb2i7cl/qcaux
QCPROG:      /cm/shared/apps/spack/cpu/opt/spack/linux-centos8-zen2/gcc-10.2.0/qchem-5.4-akfmr7b3t57bfs6qan3padb2wnb2i7cl/exe/qcprog.exe
QCPROG_S:    /cm/shared/apps/spack/cpu/opt/spack/linux-centos8-zen2/gcc-10.2.0/qchem-5.4-akfmr7b3t57bfs6qan3padb2wnb2i7cl/exe/qcprog.exe_s
PARALLEL:    -DPARALLEL
QCMPI:       mpich
#
# qchem directory setting
#
qcrun:       qchem970980
QCSCRATCH:   .
QCLOCALSCR:  
QCTMPDIR:    .
QCFILEPREF:  ./qchem970980
QCSAVEDIR:   
workdirs:    ./qchem970980
workdir0:    ./qchem970980
partmpdirs =  
#
# parallel setting
#
QCRSH:           ssh
QCMPI:           mpich
QCMPIRUN:        /cm/shared/apps/spack/cpu/opt/spack/linux-centos8-zen2/gcc-10.2.0/qchem-5.4-akfmr7b3t57bfs6qan3padb2wnb2i7cl/bin/mpi/mpirun_qchem
QCMACHINEFILE:   ./qchem970980/hostfile
exp-5-42

#
# env setting
#
exported envs:   QC QCAUX QCSCRATCH QCRUNNAME QCFILEPREF QCPROG QCPROG_S GUIFILE

Running Job 1 of 1 fin_bdt_Phi_0_Theta_300_fin_ftt_Hydrogenated.qcin
qchem fin_bdt_Phi_0_Theta_300_fin_ftt_Hydrogenated.qcin_970980.0 ./qchem970980/ 1
/cm/shared/apps/spack/cpu/opt/spack/linux-centos8-zen2/gcc-10.2.0/qchem-5.4-akfmr7b3t57bfs6qan3padb2wnb2i7cl/bin/mpi/mpirun_qchem -machinefile ./qchem970980/hostfile -np 1 /cm/shared/apps/spack/cpu/opt/spack/linux-centos8-zen2/gcc-10.2.0/qchem-5.4-akfmr7b3t57bfs6qan3padb2wnb2i7cl/exe/qcprog.exe fin_bdt_Phi_0_Theta_300_fin_ftt_Hydrogenated.qcin_970980.0 ./qchem970980/

Process 0 of 1 is on exp-5-42 - thread support 0
initial socket setup ...start
initial socket setup ...done 
now start server 0 ... 
                  Welcome to Q-Chem
     A Quantum Leap Into The Future Of Chemistry


 Q-Chem 5.4, Q-Chem, Inc., Pleasanton, CA (2021)

 License issued to: University of California, San Diego (site)

 E. Epifanovsky,  A. T. B. Gilbert,  Xintian Feng,  Joonho Lee,  Yuezhi Mao,  
 N. Mardirossian,  P. Pokhilko,  A. White,  M. Wormit,  M. P. Coons,  
 A. L. Dempwolff,  Zhengting Gan,  D. Hait,  P. R. Horn,  L. D. Jacobson,  
 I. Kaliman,  J. Kussmann,  A. W. Lange,  Ka Un Lao,  D. S. Levine,  Jie Liu,  
 S. C. McKenzie,  A. F. Morrison,  K. Nanda,  F. Plasser,  D. R. Rehn,  
 M. L. Vidal,  Zhi-Qiang You,  Ying Zhu,  B. Alam,  B. Albrecht,  
 A. Aldossary,  E. Alguire,  J. H. Andersen,  D. Barton,  K. Begam,  A. Behn,  
 Y. A. Bernard,  E. J. Berquist,  H. Burton,  A. Carreras,  K. Carter-Fenk,  
 R. Chakraborty,  A. D. Chien,  K. D. Closser,  V. Cofer-Shabica,  
 S. Dasgupta,  Jia Deng,  M. de Wergifosse,  M. Diedenhofen,  Hainam Do,  
 S. Ehlert,  Po-Tung Fang,  S. Fatehi,  Qingguo Feng,  J. Gayvert,  
 Qinghui Ge,  G. Gidofalvi,  M. Goldey,  J. Gomes,  C. Gonzalez-Espinoza,  
 S. Gulania,  A. Gunina,  M. W. D. Hanson-Heine,  P. H. P. Harbach,  
 A. W. Hauser,  M. F. Herbst,  M. Hernandez Vera,  M. Hodecker,  
 Z. C. Holden,  S. Houck,  Xunkun Huang,  Kerwin Hui,  B. C. Huynh,  
 M. Ivanov,  Hyunjun Ji,  Hanjie Jiang,  B. Kaduk,  S. Kaehler,  
 K. Khistyaev,  Jaehoon Kim,  P. Klunzinger,  Z. Koczor-Benda,  
 Joong Hoon Koh,  D. Kosenkov,  L. Koulias,  T. Kowalczyk,  C. M. Krauter,  
 K. Kue,  A. Kunitsa,  T. Kus,  A. Landau,  K. V. Lawler,  D. Lefrancois,  
 S. Lehtola,  Rain Li,  Yi-Pei Li,  Jiashu Liang,  M. Liebenthal,  
 Hung-Hsuan Lin,  You-Sheng Lin,  Fenglai Liu,  Kuan-Yu Liu,  
 M. Loipersberger,  A. Luenser,  A. Manjanath,  P. Manohar,  E. Mansoor,  
 S. F. Manzer,  Shan-Ping Mao,  A. V. Marenich,  T. Markovich,  S. Mason,  
 S. A. Maurer,  P. F. McLaughlin,  M. F. S. J. Menger,  J.-M. Mewes,  
 S. A. Mewes,  P. Morgante,  J. W. Mullinax,  T. S. Nguyen-Beck,  
 K. J. Oosterbaan,  G. Paran,  Alexander C. Paul,  Suranjan K. Paul,  
 F. Pavosevic,  Zheng Pei,  S. Prager,  E. I. Proynov,  E. Ramos,  B. Rana,  
 A. E. Rask,  A. Rettig,  R. M. Richard,  F. Rob,  E. Rossomme,  T. Scheele,  
 M. Scheurer,  M. Schneider,  N. Sergueev,  S. M. Sharada,  W. Skomorowski,  
 D. W. Small,  C. J. Stein,  Yu-Chuan Su,  E. J. Sundstrom,  Zhen Tao,  
 J. Thirman,  T. Tsuchimochi,  N. M. Tubman,  S. P. Veccham,  O. Vydrov,  
 J. Wenzel,  J. Witte,  A. Yamada,  Kun Yao,  S. Yeganeh,  S. R. Yost,  
 A. Zech,  Igor Ying Zhang,  Xing Zhang,  Yu Zhang,  D. Zuev,  
 A. Aspuru-Guzik,  A. T. Bell,  N. A. Besley,  K. B. Bravaya,  B. R. Brooks,  
 D. Casanova,  Jeng-Da Chai,  S. Coriani,  C. J. Cramer,  
 A. E. DePrince, III,  R. A. DiStasio Jr.,  A. Dreuw,  B. D. Dunietz,  
 T. R. Furlani,  W. A. Goddard III,  S. Grimme,  S. Hammes-Schiffer,  
 T. Head-Gordon,  W. J. Hehre,  Chao-Ping Hsu,  T.-C. Jagau,  Yousung Jung,  
 A. Klamt,  Jing Kong,  D. S. Lambrecht,  WanZhen Liang,  N. J. Mayhall,  
 C. W. McCurdy,  J. B. Neaton,  C. Ochsenfeld,  J. A. Parkhill,  R. Peverati,  
 V. A. Rassolov,  Yihan Shao,  L. V. Slipchenko,  T. Stauch,  R. P. Steele,  
 J. E. Subotnik,  A. J. W. Thom,  A. Tkatchenko,  D. G. Truhlar,  
 T. Van Voorhis,  T. A. Wesolowski,  K. B. Whaley,  H. L. Woodcock III,  
 P. M. Zimmerman,  S. Faraji,  P. M. W. Gill,  M. Head-Gordon,  
 J. M. Herbert,  A. I. Krylov

 Contributors to earlier versions of Q-Chem not listed above: 
 R. D. Adamson,  B. Austin,  R. Baer,  J. Baker,  G. J. O. Beran,  
 K. Brandhorst,  S. T. Brown,  E. F. C. Byrd,  A. K. Chakraborty,  
 G. K. L. Chan,  Chun-Min Chang,  Yunqing Chen,  C.-L. Cheng,  
 Siu Hung Chien,  D. M. Chipman,  D. L. Crittenden,  H. Dachsel,  
 R. J. Doerksen,  A. D. Dutoi,  R. G. Edgar,  J. Fosso-Tande,  
 L. Fusti-Molnar,  D. Ghosh,  A. Ghysels,  A. Golubeva-Zadorozhnaya,  
 J. Gonthier,  M. S. Gordon,  S. R. Gwaltney,  G. Hawkins,  J. E. Herr,  
 A. Heyden,  S. Hirata,  E. G. Hohenstein,  G. Kedziora,  F. J. Keil,  
 C. Kelley,  Jihan Kim,  R. A. King,  R. Z. Khaliullin,  P. P. Korambath,  
 W. Kurlancheek,  A. Laurent,  A. M. Lee,  M. S. Lee,  S. V. Levchenko,  
 Ching Yeh Lin,  D. Liotard,  E. Livshits,  R. C. Lochan,  I. Lotan,  
 L. A. Martinez-Martinez,  P. E. Maslen,  N. Nair,  D. P. O'Neill,  
 D. Neuhauser,  E. Neuscamman,  C. M. Oana,  R. Olivares-Amaya,  R. Olson,  
 T. M. Perrine,  B. Peters,  P. A. Pieniazek,  A. Prociuk,  Y. M. Rhee,  
 J. Ritchie,  M. A. Rohrdanz,  E. Rosta,  N. J. Russ,  H. F. Schaefer III,  
 M. W. Schmidt,  N. E. Schultz,  S. Sharma,  N. Shenvi,  C. D. Sherrill,  
 A. C. Simmonett,  A. Sodt,  T. Stein,  D. Stuck,  K. S. Thanthiriwatte,  
 V. Vanovschi,  L. Vogt,  Tao Wang,  A. Warshel,  M. A. Watson,  
 C. F. Williams,  Q. Wu,  X. Xu,  Jun Yang,  W. Zhang,  Yan Zhao

 Please cite Q-Chem as follows:
 Y. Shao et al., Mol. Phys. 113, 184-215 (2015)
 DOI: 10.1080/00268976.2014.952696

 Q-Chem 5.4.0 for Intel X86 EM64T Linux

 Parts of Q-Chem use Armadillo 9.800.1 (Horizon Scraper).
 http://arma.sourceforge.net/

 Q-Chem begins on Sun Sep 24 19:11:22 2023  

 Host: 
0

     Scratch files written to ./qchem970980//
 May1621 |scratch|qcdevops|jenkins|workspace|build_RNUM    
 Parallel job on  1  processors
 Processing $rem in /cm/shared/apps/spack/cpu/opt/spack/linux-centos8-zen2/gcc-10.2.0/qchem-5.4-akfmr7b3t57bfs6qan3padb2wnb2i7cl/config/preferences:
 Processing $rem in /home/rramji/.qchemrc:
 Symmetry turned off for PCM/SM12/SMD calculation
 Core orbitals will be frozen

 Checking the input file for inconsistencies... 	...done.

 Q-Chem warning in module forms1/BasisType.C, line 2236:

 You are not using the predefined 5D/6D in this basis set.


--------------------------------------------------------------
User input:
--------------------------------------------------------------
$molecule
0 1
C	0.208002	-8.519741	0.175432
C	-0.722164	-7.635967	-0.352097
S	1.563424	-7.651740	0.936458
C	-0.386833	-6.261894	-0.160388
H	-1.635031	-7.954738	-0.870905
C	0.849637	-6.079985	0.553685
C	1.357938	-4.798382	0.816372
C	-1.149702	-5.153542	-0.627524
C	-0.638941	-3.869626	-0.368399
C	0.597409	-3.688927	0.348912
O	-2.309260	-5.481075	-1.262667
O	2.523296	-4.479871	1.453338
C	3.036927	-5.356026	2.449320
H	3.824632	-4.790496	2.982577
H	3.497250	-6.268513	2.011155
H	2.249807	-5.658187	3.173591
C	-2.939226	-4.546999	-2.130793
H	-3.730721	-5.107564	-2.663289
H	-2.225196	-4.131473	-2.873906
H	-3.415077	-3.712085	-1.572045
C	0.930765	-2.314326	0.536849
S	-1.347913	-2.295487	-0.763041
C	0.000000	-1.435180	0.000000
H	1.841645	-1.993211	1.057554
C	0.000000	0.000000	0.000000
S	0.002233	0.899428	1.510732
C	0.001157	2.474749	0.727629
C	-0.000030	0.908223	-1.064665
C	-0.001545	2.297013	-0.678287
C	0.001624	0.841837	-2.486150
C	0.001494	2.106670	-3.106916
S	-0.001841	3.354171	-1.965735
C	0.006168	2.361146	-4.559972
O	0.009152	1.427646	-5.350277
O	0.009405	3.644337	-5.004375
F	0.005539	-0.272288	-3.246290
C	0.019554	4.003038	-6.334976
H	0.020155	5.108000	-6.370268
H	-0.871409	3.613681	-6.875609
H	0.918470	3.613062	-6.861878
H	0.001222	3.394771	1.321510
H	0.648918	-9.146471	-0.608584
H	-0.237003	-9.150570	0.953830
H	0.532637	-1.444158	-0.939477
$end

$rem
JOBTYPE		SP
EXCHANGE	HF
CORRELATION	pRIMP2
BASIS		cc-pvtz
METHOD		rimp2
AUX_BASIS	rimp2-cc-pvtz
SOLVENT_METHOD	PCM
PURECART	11111
SYMMETRY	false
MEM_TOTAL	110000
SCF_CONVERGENCE = 6
THRESH=10
GUI = 2
$end



$solvent
dielectric 4.90
$end
--------------------------------------------------------------
 ----------------------------------------------------------------
             Standard Nuclear Orientation (Angstroms)
    I     Atom           X                Y                Z
 ----------------------------------------------------------------
    1      C       0.2080020000    -8.5197410000     0.1754320000
    2      C      -0.7221640000    -7.6359670000    -0.3520970000
    3      S       1.5634240000    -7.6517400000     0.9364580000
    4      C      -0.3868330000    -6.2618940000    -0.1603880000
    5      H      -1.6350310000    -7.9547380000    -0.8709050000
    6      C       0.8496370000    -6.0799850000     0.5536850000
    7      C       1.3579380000    -4.7983820000     0.8163720000
    8      C      -1.1497020000    -5.1535420000    -0.6275240000
    9      C      -0.6389410000    -3.8696260000    -0.3683990000
   10      C       0.5974090000    -3.6889270000     0.3489120000
   11      O      -2.3092600000    -5.4810750000    -1.2626670000
   12      O       2.5232960000    -4.4798710000     1.4533380000
   13      C       3.0369270000    -5.3560260000     2.4493200000
   14      H       3.8246320000    -4.7904960000     2.9825770000
   15      H       3.4972500000    -6.2685130000     2.0111550000
   16      H       2.2498070000    -5.6581870000     3.1735910000
   17      C      -2.9392260000    -4.5469990000    -2.1307930000
   18      H      -3.7307210000    -5.1075640000    -2.6632890000
   19      H      -2.2251960000    -4.1314730000    -2.8739060000
   20      H      -3.4150770000    -3.7120850000    -1.5720450000
   21      C       0.9307650000    -2.3143260000     0.5368490000
   22      S      -1.3479130000    -2.2954870000    -0.7630410000
   23      C       0.0000000000    -1.4351800000     0.0000000000
   24      H       1.8416450000    -1.9932110000     1.0575540000
   25      C       0.0000000000     0.0000000000     0.0000000000
   26      S       0.0022330000     0.8994280000     1.5107320000
   27      C       0.0011570000     2.4747490000     0.7276290000
   28      C      -0.0000300000     0.9082230000    -1.0646650000
   29      C      -0.0015450000     2.2970130000    -0.6782870000
   30      C       0.0016240000     0.8418370000    -2.4861500000
   31      C       0.0014940000     2.1066700000    -3.1069160000
   32      S      -0.0018410000     3.3541710000    -1.9657350000
   33      C       0.0061680000     2.3611460000    -4.5599720000
   34      O       0.0091520000     1.4276460000    -5.3502770000
   35      O       0.0094050000     3.6443370000    -5.0043750000
   36      F       0.0055390000    -0.2722880000    -3.2462900000
   37      C       0.0195540000     4.0030380000    -6.3349760000
   38      H       0.0201550000     5.1080000000    -6.3702680000
   39      H      -0.8714090000     3.6136810000    -6.8756090000
   40      H       0.9184700000     3.6130620000    -6.8618780000
   41      H       0.0012220000     3.3947710000     1.3215100000
   42      H       0.6489180000    -9.1464710000    -0.6085840000
   43      H      -0.2370030000    -9.1505700000     0.9538300000
   44      H       0.5326370000    -1.4441580000    -0.9394770000
 ----------------------------------------------------------------
 Nuclear Repulsion Energy =        3362.33954774 hartrees
 There are      120 alpha and      120 beta electrons
 Requested basis set is cc-pVTZ
 There are 388 shells and 1096 basis functions

 Total QAlloc Memory Limit 110000 MB
 Mega-Array Size       188 MB
 MEM_STATIC part       192 MB
 Discretize the solute cavity surface with Lebedev spheres
	Using 110 Lebedev grid points for each H atom
	Using 194 Lebedev grid points for other atoms
	Atomic van der Waals radii will be scaled by 1.20
 Remove points where switching function is < 1.0e-08
 Keep 2945 surface tesserae and discard 4331 interior tesserae
 Molecular Surface Area = 441.477 Angst**2
 Requested basis set is rimp2-cc-pVTZ
 There are 853 shells and 2963 basis functions
 A cutoff of  1.0D-10 yielded  33355 shell pairs
 There are    251937 function pairs (    325974 Cartesian)
 Smallest overlap matrix eigenvalue = 2.21E-05

 Scale SEOQF with 1.000000e-01/1.000000e-02/1.000000e-02

 Standard Electronic Orientation quadrupole field applied
 Nucleus-field energy     =     0.0000000304 hartrees
 Guess from superposition of atomic densities
 Warning:  Energy on first SCF cycle will be non-variational
 SAD guess density has 240.000000 electrons

 -----------------------------------------------------------------------
  General SCF calculation program by
  Eric Jon Sundstrom, Paul Horn, Yuezhi Mao, Dmitri Zuev, Alec White,
  David Stuck, Shaama M.S., Shane Yost, Joonho Lee, David Small,
  Daniel Levine, Susi Lehtola, Hugh Burton, Evgeny Epifanovsky,
  Bang C. Huynh
 -----------------------------------------------------------------------
 Hartree-Fock
 using 64 threads for integral computing
 -------------------------------------------------------
 OpenMP Integral computing Module                
 Release: version 1.0, May 2013, Q-Chem Inc. Pittsburgh 
 -------------------------------------------------------
 A restricted SCF calculation will be
 performed using DIIS
 SCF converges when DIIS error is below 1.0e-06
 ---------------------------------------
  Cycle       Energy         DIIS error
 ---------------------------------------
    1   -2767.3356109176      1.77e-02  
    2   -2754.8749068128      1.54e-03  
    3   -2755.2229594217      8.78e-04  
    4   -2755.3135361420      2.54e-04  
    5   -2755.3270476959      7.18e-05  
    6   -2755.3285161460      2.56e-05  
    7   -2755.3288995010      1.34e-05  
    8   -2755.3290216803      5.72e-06  
    9   -2755.3290513729      3.02e-06  
   10   -2755.3290587117      1.44e-06  
   11   -2755.3290608826      7.32e-07  Convergence criterion met
 ---------------------------------------
 SCF time:   CPU 7577.01s  wall 277.00s 

************** Final PCM Free Energy Summary **************
 G_electrostatic  =      -0.02148350 hartree =     -13.48109737 kcal/mol
 G_cavitation     =       0.00000000 hartree =       0.00000000 kcal/mol
 G_dispersion     =       0.00000000 hartree =       0.00000000 kcal/mol
 G_repulsion      =       0.00000000 hartree =       0.00000000 kcal/mol
 --------------------------------------------------
 Non-electrostatic Free Energy =       0.00000000 hartree =       0.00000000 kcal/mol
 Total                         =      -0.02148350 hartree =     -13.48109737 kcal/mol
 --------------------------------------------------
 SCF Energy (H0 + V/2)                       =   -2755.32906088 
 Solute Internal Energy (H0)                 =   -2755.30757739 
 Total Free Energy (H0 + V/2 + non-elec)     =   -2755.32906088 hartree
                                             = -1728995.08142535 kcal/mol
***********************************************************

 SCF   energy in the final basis set =    -2755.3290608826
 Total energy in the final basis set =    -2755.3290608826


 --------------------------------------------------------------
  Generalized many-body perturbation theory program
  by Joonho Lee, Fazle Rob, Xintian Feng, Evgeny Epifanovsky

 No regularization used 
 (reg. param. = 0.0000e+00)
  (P|Q)^-1/2 Time:  CPU 143.20 s  wall 2.74 s

 In RI-MP2 calculation: 
 # of frozen core orbitals: 45

 Components of the RIMP2 correlation energy:
        aaaa    correlation energy =        -0.6700730405 a.u.
        abab    correlation energy =        -3.7511340505 a.u.
        bbbb    correlation energy =        -0.6700730405 a.u.
        non-Brillouin singles      =        -0.0000000000 a.u.
        total same-spin energy     =        -1.3401460811 a.u.
        total opposite-spin energy =        -3.7511340505 a.u.

 Total  RIMP2   correlation energy =        -5.0912801316 a.u.
        RIMP2         total energy =     -2760.4203410141 a.u.

 RI-MP2 Energy Time:  CPU 2964.66 s  wall 48.45 s
 
 --------------------------------------------------------------
 
                    Orbital Energies (a.u.)
 --------------------------------------------------------------
 
 Alpha MOs
 -- Occupied --
-92.0141 -91.9958 -91.9776 -91.9587 -26.3376 -20.6128 -20.5875 -20.5869
-20.5509 -11.4112 -11.3793 -11.3168 -11.3093 -11.3078 -11.2985 -11.2977
-11.2926 -11.2890 -11.2839 -11.2837 -11.2832 -11.2831 -11.2821 -11.2738
-11.2726 -11.2592 -11.2585 -11.2501 -11.2381  -9.0125  -8.9998  -8.9799
 -8.9613  -6.6933  -6.6927  -6.6923  -6.6811  -6.6804  -6.6790  -6.6610
 -6.6601  -6.6588  -6.6426  -6.6416  -6.6406  -1.6508  -1.4726  -1.4104
 -1.4092  -1.3679  -1.2387  -1.2090  -1.1756  -1.1433  -1.1003  -1.0516
 -1.0461  -1.0294  -1.0090  -0.9982  -0.9724  -0.9598  -0.9488  -0.9409
 -0.8935  -0.8741  -0.8630  -0.8109  -0.7925  -0.7857  -0.7805  -0.7682
 -0.7630  -0.7338  -0.7193  -0.7187  -0.6977  -0.6926  -0.6871  -0.6792
 -0.6762  -0.6728  -0.6555  -0.6486  -0.6318  -0.6300  -0.6204  -0.6151
 -0.6108  -0.6070  -0.5958  -0.5933  -0.5828  -0.5651  -0.5586  -0.5573
 -0.5501  -0.5324  -0.5282  -0.5213  -0.5134  -0.5079  -0.5037  -0.5006
 -0.4881  -0.4847  -0.4791  -0.4692  -0.4623  -0.4619  -0.4606  -0.4463
 -0.4262  -0.4018  -0.3857  -0.3705  -0.3504  -0.2927  -0.2878  -0.2203
 -- Virtual --
  0.0285   0.0517   0.1149   0.1321   0.1400   0.1471   0.1540   0.1554
  0.1585   0.1613   0.1654   0.1729   0.1825   0.1837   0.1872   0.1952
  0.2017   0.2024   0.2055   0.2091   0.2178   0.2212   0.2228   0.2256
  0.2291   0.2332   0.2390   0.2461   0.2522   0.2571   0.2669   0.2719
  0.2809   0.2927   0.3071   0.3184   0.3267   0.3348   0.3399   0.3480
  0.3543   0.3578   0.3591   0.3629   0.3697   0.3737   0.3801   0.3844
  0.3852   0.3884   0.3956   0.3985   0.4043   0.4123   0.4159   0.4202
  0.4269   0.4292   0.4323   0.4369   0.4385   0.4400   0.4459   0.4485
  0.4534   0.4582   0.4640   0.4674   0.4715   0.4756   0.4779   0.4828
  0.4879   0.4905   0.4988   0.4992   0.5049   0.5061   0.5163   0.5167
  0.5237   0.5286   0.5317   0.5364   0.5415   0.5431   0.5481   0.5517
  0.5537   0.5562   0.5578   0.5651   0.5694   0.5736   0.5776   0.5813
  0.5847   0.5875   0.5904   0.5932   0.5971   0.5997   0.6064   0.6086
  0.6123   0.6159   0.6176   0.6215   0.6228   0.6259   0.6288   0.6310
  0.6355   0.6386   0.6439   0.6445   0.6486   0.6517   0.6543   0.6579
  0.6614   0.6653   0.6759   0.6784   0.6805   0.6897   0.6930   0.6939
  0.7012   0.7070   0.7126   0.7151   0.7175   0.7210   0.7265   0.7392
  0.7467   0.7559   0.7625   0.7639   0.7730   0.7769   0.7839   0.7904
  0.7942   0.7960   0.7985   0.8032   0.8091   0.8127   0.8205   0.8271
  0.8280   0.8336   0.8453   0.8508   0.8625   0.8684   0.8750   0.8859
  0.8894   0.8915   0.8962   0.9015   0.9036   0.9084   0.9105   0.9190
  0.9212   0.9273   0.9303   0.9365   0.9389   0.9437   0.9518   0.9564
  0.9618   0.9646   0.9729   0.9750   0.9826   0.9836   0.9885   0.9914
  0.9981   0.9996   1.0061   1.0128   1.0178   1.0184   1.0225   1.0298
  1.0330   1.0385   1.0425   1.0493   1.0506   1.0579   1.0638   1.0658
  1.0754   1.0795   1.0845   1.0872   1.0905   1.0982   1.1001   1.1049
  1.1139   1.1200   1.1236   1.1276   1.1332   1.1416   1.1459   1.1493
  1.1548   1.1586   1.1651   1.1675   1.1715   1.1751   1.1762   1.1828
  1.1850   1.1920   1.1951   1.2012   1.2048   1.2100   1.2122   1.2135
  1.2265   1.2271   1.2386   1.2437   1.2457   1.2476   1.2535   1.2543
  1.2633   1.2720   1.2754   1.2764   1.2861   1.2911   1.2923   1.2978
  1.3041   1.3095   1.3159   1.3170   1.3324   1.3335   1.3383   1.3417
  1.3454   1.3552   1.3576   1.3663   1.3725   1.3894   1.3922   1.4014
  1.4038   1.4081   1.4169   1.4255   1.4276   1.4419   1.4430   1.4493
  1.4628   1.4755   1.4761   1.4832   1.4886   1.4911   1.4958   1.5008
  1.5037   1.5086   1.5119   1.5177   1.5226   1.5252   1.5338   1.5396
  1.5426   1.5477   1.5516   1.5567   1.5606   1.5620   1.5715   1.5817
  1.5899   1.5924   1.5987   1.6126   1.6220   1.6262   1.6329   1.6414
  1.6483   1.6546   1.6568   1.6607   1.6688   1.6744   1.6860   1.6886
  1.6910   1.7042   1.7078   1.7122   1.7227   1.7246   1.7377   1.7430
  1.7533   1.7672   1.7693   1.7815   1.7874   1.8051   1.8074   1.8178
  1.8228   1.8312   1.8326   1.8444   1.8495   1.8635   1.8651   1.8708
  1.8761   1.8836   1.8907   1.8977   1.9112   1.9217   1.9243   1.9304
  1.9388   1.9467   1.9474   1.9649   1.9672   1.9887   1.9942   2.0136
  2.0170   2.0208   2.0319   2.0356   2.0394   2.0410   2.0490   2.0591
  2.0690   2.0738   2.0862   2.0972   2.1077   2.1146   2.1251   2.1321
  2.1446   2.1494   2.1537   2.1698   2.1784   2.1827   2.1858   2.1921
  2.1942   2.2024   2.2075   2.2184   2.2216   2.2285   2.2332   2.2427
  2.2503   2.2629   2.2669   2.2749   2.2834   2.2942   2.2999   2.3066
  2.3114   2.3274   2.3356   2.3410   2.3450   2.3612   2.3685   2.3740
  2.3758   2.3835   2.3898   2.3932   2.4012   2.4154   2.4213   2.4327
  2.4384   2.4484   2.4616   2.4681   2.4810   2.4852   2.4940   2.4975
  2.5120   2.5183   2.5289   2.5335   2.5445   2.5650   2.5698   2.5730
  2.5852   2.5876   2.5903   2.6027   2.6167   2.6212   2.6250   2.6326
  2.6350   2.6373   2.6467   2.6492   2.6574   2.6639   2.6713   2.6761
  2.6787   2.6875   2.6952   2.6997   2.7007   2.7038   2.7144   2.7218
  2.7286   2.7330   2.7364   2.7395   2.7424   2.7546   2.7601   2.7681
  2.7720   2.7834   2.7956   2.7988   2.8056   2.8135   2.8179   2.8233
  2.8353   2.8438   2.8469   2.8551   2.8580   2.8732   2.8756   2.8789
  2.8819   2.8934   2.9021   2.9068   2.9105   2.9214   2.9347   2.9495
  2.9587   2.9619   2.9668   2.9680   2.9797   2.9840   2.9889   3.0007
  3.0128   3.0167   3.0224   3.0344   3.0390   3.0433   3.0438   3.0448
  3.0495   3.0654   3.0679   3.0737   3.0888   3.0903   3.1010   3.1072
  3.1101   3.1137   3.1211   3.1294   3.1337   3.1389   3.1415   3.1457
  3.1506   3.1544   3.1593   3.1655   3.1664   3.1768   3.1781   3.1817
  3.1896   3.1946   3.1974   3.2010   3.2097   3.2117   3.2172   3.2243
  3.2290   3.2321   3.2454   3.2503   3.2560   3.2583   3.2632   3.2656
  3.2684   3.2749   3.2803   3.2821   3.2850   3.2884   3.2925   3.2963
  3.2992   3.3076   3.3146   3.3183   3.3216   3.3321   3.3381   3.3407
  3.3430   3.3479   3.3506   3.3579   3.3588   3.3616   3.3633   3.3692
  3.3701   3.3750   3.3808   3.3866   3.3949   3.3961   3.3989   3.4024
  3.4086   3.4188   3.4283   3.4305   3.4331   3.4364   3.4375   3.4475
  3.4503   3.4527   3.4597   3.4642   3.4695   3.4720   3.4802   3.4852
  3.4903   3.4966   3.5021   3.5053   3.5147   3.5189   3.5230   3.5291
  3.5342   3.5523   3.5546   3.5661   3.5721   3.5734   3.5748   3.5801
  3.5848   3.5887   3.5923   3.5965   3.6020   3.6091   3.6131   3.6183
  3.6294   3.6311   3.6361   3.6415   3.6456   3.6526   3.6565   3.6599
  3.6675   3.6697   3.6723   3.6774   3.6813   3.6840   3.6883   3.6972
  3.6998   3.7045   3.7108   3.7122   3.7164   3.7233   3.7265   3.7307
  3.7346   3.7398   3.7520   3.7556   3.7591   3.7638   3.7679   3.7792
  3.7828   3.7922   3.7935   3.7986   3.8029   3.8097   3.8157   3.8203
  3.8239   3.8314   3.8370   3.8421   3.8478   3.8486   3.8562   3.8594
  3.8674   3.8722   3.8751   3.8885   3.8937   3.9023   3.9026   3.9129
  3.9279   3.9328   3.9354   3.9399   3.9501   3.9572   3.9597   3.9639
  3.9685   3.9729   3.9806   3.9922   3.9977   4.0051   4.0081   4.0144
  4.0217   4.0260   4.0400   4.0465   4.0494   4.0565   4.0638   4.0675
  4.0733   4.0765   4.0820   4.0867   4.1002   4.1075   4.1094   4.1198
  4.1284   4.1425   4.1456   4.1606   4.1667   4.1710   4.1718   4.1774
  4.1870   4.1900   4.1954   4.2069   4.2128   4.2208   4.2319   4.2386
  4.2493   4.2583   4.2674   4.2731   4.2846   4.2877   4.3063   4.3124
  4.3138   4.3282   4.3325   4.3386   4.3478   4.3508   4.3580   4.3628
  4.3762   4.3809   4.3902   4.3941   4.3977   4.4026   4.4114   4.4160
  4.4214   4.4256   4.4297   4.4354   4.4404   4.4442   4.4468   4.4606
  4.4694   4.4734   4.4934   4.5031   4.5046   4.5162   4.5190   4.5283
  4.5298   4.5516   4.5615   4.5648   4.5673   4.5719   4.5739   4.5828
  4.5987   4.6055   4.6126   4.6258   4.6313   4.6366   4.6443   4.6525
  4.6542   4.6656   4.6705   4.6879   4.6992   4.7053   4.7106   4.7213
  4.7333   4.7422   4.7503   4.7702   4.7765   4.7929   4.8020   4.8070
  4.8229   4.8260   4.8367   4.8444   4.8666   4.8829   4.8940   4.9017
  4.9160   4.9186   4.9342   4.9454   4.9580   4.9605   4.9679   4.9751
  4.9936   5.0091   5.0113   5.0132   5.0343   5.0418   5.0455   5.0546
  5.0651   5.0895   5.0990   5.1134   5.1308   5.1511   5.1570   5.1763
  5.1809   5.1944   5.1998   5.2043   5.2094   5.2183   5.2326   5.2539
  5.2578   5.2591   5.2863   5.2893   5.2986   5.3048   5.3179   5.3276
  5.3372   5.3474   5.3547   5.3597   5.3699   5.3840   5.3923   5.3985
  5.4049   5.4130   5.4397   5.4427   5.4663   5.4726   5.4756   5.4971
  5.5104   5.5160   5.5200   5.5409   5.5630   5.5689   5.5808   5.5884
  5.6012   5.6111   5.6171   5.6310   5.6397   5.6648   5.6875   5.6915
  5.7121   5.7420   5.7658   5.7863   5.8002   5.8229   5.8325   5.8588
  5.8706   5.8885   5.9065   5.9529   5.9690   5.9773   5.9836   6.0060
  6.0438   6.0921   6.1200   6.1242   6.1331   6.1591   6.1723   6.1800
  6.1855   6.2065   6.2177   6.2405   6.2608   6.2699   6.2843   6.2970
  6.3080   6.3369   6.3663   6.4312   6.4540   6.4881   6.5317   6.5476
  6.5557   6.5652   6.6461   6.6760   6.6929   6.7155   6.7423   6.7455
  6.8066   6.8574   6.8597   6.8827   6.8990   6.9914   7.1317   7.1465
  7.1777   7.2112   7.2221   7.2391   7.3257   7.3264   7.3417   7.3701
  7.3739   7.4291   7.4619   7.4834   7.4867   7.4968   7.5187   7.5491
  7.6205   7.7411   7.7673   7.8028   7.8312   7.9162   7.9274   7.9565
  8.0056   8.1277   8.3627   8.7002   8.9287   9.0106   9.3614   9.4992
  9.7068  10.2842  11.2464  11.4330  11.8840  11.9518  12.1200  12.3525
 12.4267  12.5013  12.7418  12.9550  12.9990  13.2003  13.4793  13.5965
 13.6810  13.8717  13.9313  14.0137  14.2768  14.3696  14.9444  15.2096
 --------------------------------------------------------------
 
          Ground-State Mulliken Net Atomic Charges

     Atom                 Charge (a.u.)
  ----------------------------------------
      1 C                    -0.070408
      2 C                    -0.255400
      3 S                    -0.134025
      4 C                    -0.045386
      5 H                     0.194033
      6 C                    -0.050415
      7 C                     0.224653
      8 C                     0.229595
      9 C                    -0.080881
     10 C                    -0.056741
     11 O                    -0.335053
     12 O                    -0.343836
     13 C                    -0.082565
     14 H                     0.119934
     15 H                     0.092124
     16 H                     0.092726
     17 C                    -0.087245
     18 H                     0.123027
     19 H                     0.094186
     20 H                     0.089745
     21 C                    -0.249734
     22 S                    -0.068239
     23 C                     0.073860
     24 H                     0.207709
     25 C                    -0.087862
     26 S                     0.098580
     27 C                    -0.241444
     28 C                    -0.097353
     29 C                    -0.006301
     30 C                     0.383333
     31 C                    -0.138018
     32 S                     0.038443
     33 C                     0.459928
     34 O                    -0.450321
     35 O                    -0.297712
     36 F                    -0.214049
     37 C                    -0.055109
     38 H                     0.116820
     39 H                     0.084683
     40 H                     0.084591
     41 H                     0.214538
     42 H                     0.118031
     43 H                     0.115504
     44 H                     0.192055
  ----------------------------------------
  Sum of atomic charges =     0.000000

 -----------------------------------------------------------------
                    Cartesian Multipole Moments
 -----------------------------------------------------------------
    Charge (ESU x 10^10)
                -0.0000
    Dipole Moment (Debye)
         X       0.1466      Y       3.1622      Z       2.5572
       Tot       4.0694
    Quadrupole Moments (Debye-Ang)
        XX    -193.4802     XY       3.4237     YY    -172.2921
        XZ       9.2930     YZ      -9.0150     ZZ    -195.7982
    Octopole Moments (Debye-Ang^2)
       XXX     -38.8129    XXY     354.0890    XYY     -41.6876
       YYY     994.2631    XXZ     167.3647    XYZ     -44.4844
       YYZ     104.8088    XZZ      -7.9492    YZZ     456.8330
       ZZZ     523.4064
    Hexadecapole Moments (Debye-Ang^3)
      XXXX   -1863.8807   XXXY     431.2925   XXYY   -4027.2742
      XYYY     670.7823   YYYY  -19724.6536   XXXZ    -434.3852
      XXYZ     585.3088   XYYZ      10.0281   YYYZ    1641.7487
      XXZZ   -1297.3360   XYZZ     123.6649   YYZZ   -4126.5412
      XZZZ    -493.6427   YZZZ    1034.8733   ZZZZ   -6263.2804
 -----------------------------------------------------------------
 Total job time:  338.86s(wall), 11164.37s(cpu) 
 Sun Sep 24 19:17:00 2023

        *************************************************************
        *                                                           *
        *  Thank you very much for using Q-Chem.  Have a nice day.  *
        *                                                           *
        *************************************************************


0 sent ACK to 0 
now end server 0 ... 
cleanup process ... done
remove work dirs ./qchem970980.0 -- ./qchem970980.0
rm -rf ./qchem970980.0
rm -rf ./qchem970980
