You are running Q-Chem version: 5.4.0

#
# job setting
#
local host:  exp-8-24
current dir: /expanse/lustre/projects/csd626/rramji/aromodel/PTB7_fin/Hydrogenated_Rotation_Test
input file:  fin_bdt_Phi_50_Theta_340_fin_ftt_Hydrogenated.qcin
output file: 
nprocs     : 1
nthreads   : 64
#
# qchem installation setting
#
QC:          /cm/shared/apps/spack/cpu/opt/spack/linux-centos8-zen2/gcc-10.2.0/qchem-5.4-akfmr7b3t57bfs6qan3padb2wnb2i7cl
QCAUX:       /cm/shared/apps/spack/cpu/opt/spack/linux-centos8-zen2/gcc-10.2.0/qchem-5.4-akfmr7b3t57bfs6qan3padb2wnb2i7cl/qcaux
QCPROG:      /cm/shared/apps/spack/cpu/opt/spack/linux-centos8-zen2/gcc-10.2.0/qchem-5.4-akfmr7b3t57bfs6qan3padb2wnb2i7cl/exe/qcprog.exe
QCPROG_S:    /cm/shared/apps/spack/cpu/opt/spack/linux-centos8-zen2/gcc-10.2.0/qchem-5.4-akfmr7b3t57bfs6qan3padb2wnb2i7cl/exe/qcprog.exe_s
PARALLEL:    -DPARALLEL
QCMPI:       mpich
#
# qchem directory setting
#
qcrun:       qchem958958
QCSCRATCH:   .
QCLOCALSCR:  
QCTMPDIR:    .
QCFILEPREF:  ./qchem958958
QCSAVEDIR:   
workdirs:    ./qchem958958
workdir0:    ./qchem958958
partmpdirs =  
#
# parallel setting
#
QCRSH:           ssh
QCMPI:           mpich
QCMPIRUN:        /cm/shared/apps/spack/cpu/opt/spack/linux-centos8-zen2/gcc-10.2.0/qchem-5.4-akfmr7b3t57bfs6qan3padb2wnb2i7cl/bin/mpi/mpirun_qchem
QCMACHINEFILE:   ./qchem958958/hostfile
exp-8-24

#
# env setting
#
exported envs:   QC QCAUX QCSCRATCH QCRUNNAME QCFILEPREF QCPROG QCPROG_S GUIFILE

Running Job 1 of 1 fin_bdt_Phi_50_Theta_340_fin_ftt_Hydrogenated.qcin
qchem fin_bdt_Phi_50_Theta_340_fin_ftt_Hydrogenated.qcin_958958.0 ./qchem958958/ 1
/cm/shared/apps/spack/cpu/opt/spack/linux-centos8-zen2/gcc-10.2.0/qchem-5.4-akfmr7b3t57bfs6qan3padb2wnb2i7cl/bin/mpi/mpirun_qchem -machinefile ./qchem958958/hostfile -np 1 /cm/shared/apps/spack/cpu/opt/spack/linux-centos8-zen2/gcc-10.2.0/qchem-5.4-akfmr7b3t57bfs6qan3padb2wnb2i7cl/exe/qcprog.exe fin_bdt_Phi_50_Theta_340_fin_ftt_Hydrogenated.qcin_958958.0 ./qchem958958/

Process 0 of 1 is on exp-8-24 - thread support 0
initial socket setup ...start
initial socket setup ...done 
now start server 0 ... 
                  Welcome to Q-Chem
     A Quantum Leap Into The Future Of Chemistry


 Q-Chem 5.4, Q-Chem, Inc., Pleasanton, CA (2021)

 License issued to: University of California, San Diego (site)

 E. Epifanovsky,  A. T. B. Gilbert,  Xintian Feng,  Joonho Lee,  Yuezhi Mao,  
 N. Mardirossian,  P. Pokhilko,  A. White,  M. Wormit,  M. P. Coons,  
 A. L. Dempwolff,  Zhengting Gan,  D. Hait,  P. R. Horn,  L. D. Jacobson,  
 I. Kaliman,  J. Kussmann,  A. W. Lange,  Ka Un Lao,  D. S. Levine,  Jie Liu,  
 S. C. McKenzie,  A. F. Morrison,  K. Nanda,  F. Plasser,  D. R. Rehn,  
 M. L. Vidal,  Zhi-Qiang You,  Ying Zhu,  B. Alam,  B. Albrecht,  
 A. Aldossary,  E. Alguire,  J. H. Andersen,  D. Barton,  K. Begam,  A. Behn,  
 Y. A. Bernard,  E. J. Berquist,  H. Burton,  A. Carreras,  K. Carter-Fenk,  
 R. Chakraborty,  A. D. Chien,  K. D. Closser,  V. Cofer-Shabica,  
 S. Dasgupta,  Jia Deng,  M. de Wergifosse,  M. Diedenhofen,  Hainam Do,  
 S. Ehlert,  Po-Tung Fang,  S. Fatehi,  Qingguo Feng,  J. Gayvert,  
 Qinghui Ge,  G. Gidofalvi,  M. Goldey,  J. Gomes,  C. Gonzalez-Espinoza,  
 S. Gulania,  A. Gunina,  M. W. D. Hanson-Heine,  P. H. P. Harbach,  
 A. W. Hauser,  M. F. Herbst,  M. Hernandez Vera,  M. Hodecker,  
 Z. C. Holden,  S. Houck,  Xunkun Huang,  Kerwin Hui,  B. C. Huynh,  
 M. Ivanov,  Hyunjun Ji,  Hanjie Jiang,  B. Kaduk,  S. Kaehler,  
 K. Khistyaev,  Jaehoon Kim,  P. Klunzinger,  Z. Koczor-Benda,  
 Joong Hoon Koh,  D. Kosenkov,  L. Koulias,  T. Kowalczyk,  C. M. Krauter,  
 K. Kue,  A. Kunitsa,  T. Kus,  A. Landau,  K. V. Lawler,  D. Lefrancois,  
 S. Lehtola,  Rain Li,  Yi-Pei Li,  Jiashu Liang,  M. Liebenthal,  
 Hung-Hsuan Lin,  You-Sheng Lin,  Fenglai Liu,  Kuan-Yu Liu,  
 M. Loipersberger,  A. Luenser,  A. Manjanath,  P. Manohar,  E. Mansoor,  
 S. F. Manzer,  Shan-Ping Mao,  A. V. Marenich,  T. Markovich,  S. Mason,  
 S. A. Maurer,  P. F. McLaughlin,  M. F. S. J. Menger,  J.-M. Mewes,  
 S. A. Mewes,  P. Morgante,  J. W. Mullinax,  T. S. Nguyen-Beck,  
 K. J. Oosterbaan,  G. Paran,  Alexander C. Paul,  Suranjan K. Paul,  
 F. Pavosevic,  Zheng Pei,  S. Prager,  E. I. Proynov,  E. Ramos,  B. Rana,  
 A. E. Rask,  A. Rettig,  R. M. Richard,  F. Rob,  E. Rossomme,  T. Scheele,  
 M. Scheurer,  M. Schneider,  N. Sergueev,  S. M. Sharada,  W. Skomorowski,  
 D. W. Small,  C. J. Stein,  Yu-Chuan Su,  E. J. Sundstrom,  Zhen Tao,  
 J. Thirman,  T. Tsuchimochi,  N. M. Tubman,  S. P. Veccham,  O. Vydrov,  
 J. Wenzel,  J. Witte,  A. Yamada,  Kun Yao,  S. Yeganeh,  S. R. Yost,  
 A. Zech,  Igor Ying Zhang,  Xing Zhang,  Yu Zhang,  D. Zuev,  
 A. Aspuru-Guzik,  A. T. Bell,  N. A. Besley,  K. B. Bravaya,  B. R. Brooks,  
 D. Casanova,  Jeng-Da Chai,  S. Coriani,  C. J. Cramer,  
 A. E. DePrince, III,  R. A. DiStasio Jr.,  A. Dreuw,  B. D. Dunietz,  
 T. R. Furlani,  W. A. Goddard III,  S. Grimme,  S. Hammes-Schiffer,  
 T. Head-Gordon,  W. J. Hehre,  Chao-Ping Hsu,  T.-C. Jagau,  Yousung Jung,  
 A. Klamt,  Jing Kong,  D. S. Lambrecht,  WanZhen Liang,  N. J. Mayhall,  
 C. W. McCurdy,  J. B. Neaton,  C. Ochsenfeld,  J. A. Parkhill,  R. Peverati,  
 V. A. Rassolov,  Yihan Shao,  L. V. Slipchenko,  T. Stauch,  R. P. Steele,  
 J. E. Subotnik,  A. J. W. Thom,  A. Tkatchenko,  D. G. Truhlar,  
 T. Van Voorhis,  T. A. Wesolowski,  K. B. Whaley,  H. L. Woodcock III,  
 P. M. Zimmerman,  S. Faraji,  P. M. W. Gill,  M. Head-Gordon,  
 J. M. Herbert,  A. I. Krylov

 Contributors to earlier versions of Q-Chem not listed above: 
 R. D. Adamson,  B. Austin,  R. Baer,  J. Baker,  G. J. O. Beran,  
 K. Brandhorst,  S. T. Brown,  E. F. C. Byrd,  A. K. Chakraborty,  
 G. K. L. Chan,  Chun-Min Chang,  Yunqing Chen,  C.-L. Cheng,  
 Siu Hung Chien,  D. M. Chipman,  D. L. Crittenden,  H. Dachsel,  
 R. J. Doerksen,  A. D. Dutoi,  R. G. Edgar,  J. Fosso-Tande,  
 L. Fusti-Molnar,  D. Ghosh,  A. Ghysels,  A. Golubeva-Zadorozhnaya,  
 J. Gonthier,  M. S. Gordon,  S. R. Gwaltney,  G. Hawkins,  J. E. Herr,  
 A. Heyden,  S. Hirata,  E. G. Hohenstein,  G. Kedziora,  F. J. Keil,  
 C. Kelley,  Jihan Kim,  R. A. King,  R. Z. Khaliullin,  P. P. Korambath,  
 W. Kurlancheek,  A. Laurent,  A. M. Lee,  M. S. Lee,  S. V. Levchenko,  
 Ching Yeh Lin,  D. Liotard,  E. Livshits,  R. C. Lochan,  I. Lotan,  
 L. A. Martinez-Martinez,  P. E. Maslen,  N. Nair,  D. P. O'Neill,  
 D. Neuhauser,  E. Neuscamman,  C. M. Oana,  R. Olivares-Amaya,  R. Olson,  
 T. M. Perrine,  B. Peters,  P. A. Pieniazek,  A. Prociuk,  Y. M. Rhee,  
 J. Ritchie,  M. A. Rohrdanz,  E. Rosta,  N. J. Russ,  H. F. Schaefer III,  
 M. W. Schmidt,  N. E. Schultz,  S. Sharma,  N. Shenvi,  C. D. Sherrill,  
 A. C. Simmonett,  A. Sodt,  T. Stein,  D. Stuck,  K. S. Thanthiriwatte,  
 V. Vanovschi,  L. Vogt,  Tao Wang,  A. Warshel,  M. A. Watson,  
 C. F. Williams,  Q. Wu,  X. Xu,  Jun Yang,  W. Zhang,  Yan Zhao

 Please cite Q-Chem as follows:
 Y. Shao et al., Mol. Phys. 113, 184-215 (2015)
 DOI: 10.1080/00268976.2014.952696

 Q-Chem 5.4.0 for Intel X86 EM64T Linux

 Parts of Q-Chem use Armadillo 9.800.1 (Horizon Scraper).
 http://arma.sourceforge.net/

 Q-Chem begins on Sun Sep 24 19:35:00 2023  

 Host: 
0

     Scratch files written to ./qchem958958//
 May1621 |scratch|qcdevops|jenkins|workspace|build_RNUM    
 Parallel job on  1  processors
 Processing $rem in /cm/shared/apps/spack/cpu/opt/spack/linux-centos8-zen2/gcc-10.2.0/qchem-5.4-akfmr7b3t57bfs6qan3padb2wnb2i7cl/config/preferences:
 Processing $rem in /home/rramji/.qchemrc:
 Symmetry turned off for PCM/SM12/SMD calculation
 Core orbitals will be frozen

 Checking the input file for inconsistencies... 	...done.

 Q-Chem warning in module forms1/BasisType.C, line 2236:

 You are not using the predefined 5D/6D in this basis set.


--------------------------------------------------------------
User input:
--------------------------------------------------------------
$molecule
0 1
C	0.046574	-8.519741	0.268090
C	-0.326886	-7.635967	-0.733920
S	0.595708	-7.651740	1.722318
C	-0.193236	-6.261894	-0.371516
H	-0.692700	-7.954738	-1.718130
C	0.294958	-6.079985	0.970283
C	0.515487	-4.798382	1.498243
C	-0.477358	-5.153542	-1.219725
C	-0.252655	-3.869626	-0.692914
C	0.233366	-3.688927	0.651289
O	-0.957369	-5.481075	-2.451623
O	0.998769	-4.479871	2.735264
C	0.752029	-5.356026	3.828387
H	1.012675	-4.790496	4.743213
H	1.386303	-6.268513	3.788623
H	-0.316492	-5.658187	3.877260
C	-0.881930	-4.546999	-3.521580
H	-1.145969	-5.107564	-4.438260
H	0.142712	-4.131473	-3.631868
H	-1.605610	-3.712085	-3.399425
C	0.367928	-2.314326	1.009535
S	-0.542088	-2.295487	-1.450945
C	-0.000000	-1.435180	-0.000000
H	0.730999	-1.993211	1.993920
C	0.000000	0.000000	0.000000
S	0.690437	0.576430	1.510732
C	1.896512	1.589852	0.727629
C	0.695720	0.583817	-1.064665
C	1.758621	1.477674	-0.678287
C	0.645928	0.539878	-2.486150
C	1.614763	1.352997	-3.106916
S	2.568261	2.157430	-1.965735
C	1.812707	1.512991	-4.559972
O	1.099523	0.910662	-5.350277
O	2.797769	2.335330	-5.004375
F	-0.205024	-0.179266	-3.246290
C	3.079074	2.558124	-6.334976
H	3.925910	3.267919	-6.370268
H	2.208109	2.990367	-6.875609
H	3.358147	1.618843	-6.861878
H	2.601331	2.181180	1.321510
H	0.888291	-9.146471	-0.049086
H	-0.794665	-9.150570	0.578334
H	1.011908	-1.444158	-0.377309
$end

$rem
JOBTYPE		SP
EXCHANGE	HF
CORRELATION	pRIMP2
BASIS		cc-pvtz
METHOD		rimp2
AUX_BASIS	rimp2-cc-pvtz
SOLVENT_METHOD	PCM
PURECART	11111
SYMMETRY	false
MEM_TOTAL	110000
SCF_CONVERGENCE = 6
THRESH=10
GUI = 2
$end



$solvent
dielectric 4.90
$end
--------------------------------------------------------------
 ----------------------------------------------------------------
             Standard Nuclear Orientation (Angstroms)
    I     Atom           X                Y                Z
 ----------------------------------------------------------------
    1      C       0.0465740000    -8.5197410000     0.2680900000
    2      C      -0.3268860000    -7.6359670000    -0.7339200000
    3      S       0.5957080000    -7.6517400000     1.7223180000
    4      C      -0.1932360000    -6.2618940000    -0.3715160000
    5      H      -0.6927000000    -7.9547380000    -1.7181300000
    6      C       0.2949580000    -6.0799850000     0.9702830000
    7      C       0.5154870000    -4.7983820000     1.4982430000
    8      C      -0.4773580000    -5.1535420000    -1.2197250000
    9      C      -0.2526550000    -3.8696260000    -0.6929140000
   10      C       0.2333660000    -3.6889270000     0.6512890000
   11      O      -0.9573690000    -5.4810750000    -2.4516230000
   12      O       0.9987690000    -4.4798710000     2.7352640000
   13      C       0.7520290000    -5.3560260000     3.8283870000
   14      H       1.0126750000    -4.7904960000     4.7432130000
   15      H       1.3863030000    -6.2685130000     3.7886230000
   16      H      -0.3164920000    -5.6581870000     3.8772600000
   17      C      -0.8819300000    -4.5469990000    -3.5215800000
   18      H      -1.1459690000    -5.1075640000    -4.4382600000
   19      H       0.1427120000    -4.1314730000    -3.6318680000
   20      H      -1.6056100000    -3.7120850000    -3.3994250000
   21      C       0.3679280000    -2.3143260000     1.0095350000
   22      S      -0.5420880000    -2.2954870000    -1.4509450000
   23      C       0.0000000000    -1.4351800000     0.0000000000
   24      H       0.7309990000    -1.9932110000     1.9939200000
   25      C       0.0000000000     0.0000000000     0.0000000000
   26      S       0.6904370000     0.5764300000     1.5107320000
   27      C       1.8965120000     1.5898520000     0.7276290000
   28      C       0.6957200000     0.5838170000    -1.0646650000
   29      C       1.7586210000     1.4776740000    -0.6782870000
   30      C       0.6459280000     0.5398780000    -2.4861500000
   31      C       1.6147630000     1.3529970000    -3.1069160000
   32      S       2.5682610000     2.1574300000    -1.9657350000
   33      C       1.8127070000     1.5129910000    -4.5599720000
   34      O       1.0995230000     0.9106620000    -5.3502770000
   35      O       2.7977690000     2.3353300000    -5.0043750000
   36      F      -0.2050240000    -0.1792660000    -3.2462900000
   37      C       3.0790740000     2.5581240000    -6.3349760000
   38      H       3.9259100000     3.2679190000    -6.3702680000
   39      H       2.2081090000     2.9903670000    -6.8756090000
   40      H       3.3581470000     1.6188430000    -6.8618780000
   41      H       2.6013310000     2.1811800000     1.3215100000
   42      H       0.8882910000    -9.1464710000    -0.0490860000
   43      H      -0.7946650000    -9.1505700000     0.5783340000
   44      H       1.0119080000    -1.4441580000    -0.3773090000
 ----------------------------------------------------------------
 Nuclear Repulsion Energy =        3427.39365032 hartrees
 There are      120 alpha and      120 beta electrons
 Requested basis set is cc-pVTZ
 There are 388 shells and 1096 basis functions

 Total QAlloc Memory Limit 110000 MB
 Mega-Array Size       188 MB
 MEM_STATIC part       192 MB
 Discretize the solute cavity surface with Lebedev spheres
	Using 110 Lebedev grid points for each H atom
	Using 194 Lebedev grid points for other atoms
	Atomic van der Waals radii will be scaled by 1.20
 Remove points where switching function is < 1.0e-08
 Keep 2887 surface tesserae and discard 4389 interior tesserae
 Molecular Surface Area = 430.985 Angst**2
 Requested basis set is rimp2-cc-pVTZ
 There are 853 shells and 2963 basis functions
 A cutoff of  1.0D-10 yielded  34487 shell pairs
 There are    259297 function pairs (    334904 Cartesian)
 Smallest overlap matrix eigenvalue = 2.18E-05

 Scale SEOQF with 1.000000e-01/1.000000e-02/1.000000e-02

 Standard Electronic Orientation quadrupole field applied
 Nucleus-field energy     =     0.0000000256 hartrees
 Guess from superposition of atomic densities
 Warning:  Energy on first SCF cycle will be non-variational
 SAD guess density has 240.000000 electrons

 -----------------------------------------------------------------------
  General SCF calculation program by
  Eric Jon Sundstrom, Paul Horn, Yuezhi Mao, Dmitri Zuev, Alec White,
  David Stuck, Shaama M.S., Shane Yost, Joonho Lee, David Small,
  Daniel Levine, Susi Lehtola, Hugh Burton, Evgeny Epifanovsky,
  Bang C. Huynh
 -----------------------------------------------------------------------
 Hartree-Fock
 using 64 threads for integral computing
 -------------------------------------------------------
 OpenMP Integral computing Module                
 Release: version 1.0, May 2013, Q-Chem Inc. Pittsburgh 
 -------------------------------------------------------
 A restricted SCF calculation will be
 performed using DIIS
 SCF converges when DIIS error is below 1.0e-06
 ---------------------------------------
  Cycle       Energy         DIIS error
 ---------------------------------------
    1   -2767.4796512599      1.77e-02  
    2   -2754.8166573183      1.54e-03  
    3   -2755.1647373676      8.72e-04  
    4   -2755.2545871015      2.56e-04  
    5   -2755.2688843720      7.31e-05  
    6   -2755.2706123864      2.74e-05  
    7   -2755.2711195390      1.40e-05  
    8   -2755.2712715764      5.65e-06  
    9   -2755.2713012050      2.91e-06  
   10   -2755.2713075659      1.41e-06  
   11   -2755.2713096029      7.21e-07  Convergence criterion met
 ---------------------------------------
 SCF time:   CPU 7693.35s  wall 280.00s 

************** Final PCM Free Energy Summary **************
 G_electrostatic  =      -0.02214460 hartree =     -13.89594530 kcal/mol
 G_cavitation     =       0.00000000 hartree =       0.00000000 kcal/mol
 G_dispersion     =       0.00000000 hartree =       0.00000000 kcal/mol
 G_repulsion      =       0.00000000 hartree =       0.00000000 kcal/mol
 --------------------------------------------------
 Non-electrostatic Free Energy =       0.00000000 hartree =       0.00000000 kcal/mol
 Total                         =      -0.02214460 hartree =     -13.89594530 kcal/mol
 --------------------------------------------------
 SCF Energy (H0 + V/2)                       =   -2755.27130960 
 Solute Internal Energy (H0)                 =   -2755.24916500 
 Total Free Energy (H0 + V/2 + non-elec)     =   -2755.27130960 hartree
                                             = -1728958.84195039 kcal/mol
***********************************************************

 SCF   energy in the final basis set =    -2755.2713096029
 Total energy in the final basis set =    -2755.2713096029


 --------------------------------------------------------------
  Generalized many-body perturbation theory program
  by Joonho Lee, Fazle Rob, Xintian Feng, Evgeny Epifanovsky

 No regularization used 
 (reg. param. = 0.0000e+00)
  (P|Q)^-1/2 Time:  CPU 156.39 s  wall 3.22 s

 In RI-MP2 calculation: 
 # of frozen core orbitals: 45

 Components of the RIMP2 correlation energy:
        aaaa    correlation energy =        -0.6746257469 a.u.
        abab    correlation energy =        -3.7627788979 a.u.
        bbbb    correlation energy =        -0.6746257469 a.u.
        non-Brillouin singles      =        -0.0000000000 a.u.
        total same-spin energy     =        -1.3492514937 a.u.
        total opposite-spin energy =        -3.7627788979 a.u.

 Total  RIMP2   correlation energy =        -5.1120303916 a.u.
        RIMP2         total energy =     -2760.3833399945 a.u.

 RI-MP2 Energy Time:  CPU 2967.11 s  wall 48.64 s
 
 --------------------------------------------------------------
 
                    Orbital Energies (a.u.)
 --------------------------------------------------------------
 
 Alpha MOs
 -- Occupied --
-92.0170 -92.0001 -91.9718 -91.9580 -26.3344 -20.6132 -20.5871 -20.5856
-20.5515 -11.4118 -11.3780 -11.3084 -11.3062 -11.3046 -11.3037 -11.3010
-11.3007 -11.2892 -11.2829 -11.2825 -11.2820 -11.2813 -11.2803 -11.2723
-11.2699 -11.2576 -11.2562 -11.2495 -11.2367  -9.0159  -9.0038  -8.9746
 -8.9606  -6.6966  -6.6959  -6.6956  -6.6850  -6.6844  -6.6831  -6.6556
 -6.6548  -6.6534  -6.6418  -6.6409  -6.6398  -1.6495  -1.4730  -1.4095
 -1.4084  -1.3684  -1.2473  -1.2078  -1.1764  -1.1460  -1.0981  -1.0541
 -1.0450  -1.0323  -1.0060  -0.9974  -0.9742  -0.9586  -0.9484  -0.9409
 -0.8926  -0.8758  -0.8577  -0.8135  -0.7953  -0.7857  -0.7769  -0.7647
 -0.7594  -0.7323  -0.7212  -0.7172  -0.6992  -0.6939  -0.6870  -0.6797
 -0.6757  -0.6749  -0.6546  -0.6479  -0.6345  -0.6282  -0.6198  -0.6144
 -0.6106  -0.6079  -0.6002  -0.5950  -0.5742  -0.5661  -0.5612  -0.5574
 -0.5494  -0.5323  -0.5294  -0.5210  -0.5120  -0.5075  -0.5043  -0.4993
 -0.4865  -0.4842  -0.4765  -0.4631  -0.4625  -0.4608  -0.4557  -0.4458
 -0.4307  -0.3975  -0.3805  -0.3695  -0.3518  -0.2959  -0.2857  -0.2139
 -- Virtual --
  0.0069   0.0579   0.1088   0.1344   0.1395   0.1474   0.1540   0.1549
  0.1576   0.1611   0.1671   0.1716   0.1800   0.1857   0.1885   0.1918
  0.1979   0.2029   0.2052   0.2102   0.2152   0.2229   0.2235   0.2254
  0.2286   0.2292   0.2446   0.2477   0.2558   0.2583   0.2666   0.2745
  0.2890   0.2958   0.3018   0.3156   0.3279   0.3358   0.3424   0.3467
  0.3535   0.3564   0.3607   0.3616   0.3678   0.3721   0.3764   0.3801
  0.3878   0.3893   0.3924   0.3962   0.4060   0.4103   0.4147   0.4228
  0.4252   0.4275   0.4283   0.4352   0.4389   0.4412   0.4487   0.4503
  0.4562   0.4648   0.4676   0.4696   0.4751   0.4778   0.4799   0.4859
  0.4882   0.4937   0.4985   0.5010   0.5045   0.5127   0.5161   0.5173
  0.5231   0.5296   0.5302   0.5348   0.5368   0.5418   0.5453   0.5521
  0.5538   0.5588   0.5639   0.5664   0.5723   0.5758   0.5815   0.5848
  0.5897   0.5904   0.5937   0.5983   0.6014   0.6082   0.6097   0.6125
  0.6153   0.6184   0.6221   0.6240   0.6254   0.6265   0.6298   0.6334
  0.6393   0.6415   0.6436   0.6469   0.6490   0.6532   0.6573   0.6610
  0.6643   0.6707   0.6732   0.6814   0.6834   0.6861   0.6894   0.6984
  0.7054   0.7124   0.7143   0.7183   0.7200   0.7236   0.7277   0.7363
  0.7471   0.7577   0.7635   0.7671   0.7722   0.7767   0.7837   0.7860
  0.7933   0.7951   0.8049   0.8090   0.8112   0.8136   0.8190   0.8271
  0.8322   0.8395   0.8455   0.8516   0.8605   0.8679   0.8766   0.8789
  0.8880   0.8897   0.8963   0.8995   0.9028   0.9057   0.9110   0.9194
  0.9218   0.9237   0.9271   0.9378   0.9406   0.9416   0.9527   0.9535
  0.9570   0.9642   0.9649   0.9788   0.9835   0.9872   0.9894   0.9924
  1.0012   1.0032   1.0070   1.0109   1.0132   1.0230   1.0242   1.0306
  1.0384   1.0423   1.0481   1.0518   1.0537   1.0566   1.0631   1.0680
  1.0746   1.0782   1.0791   1.0886   1.0977   1.1038   1.1055   1.1102
  1.1133   1.1220   1.1272   1.1319   1.1408   1.1438   1.1511   1.1552
  1.1597   1.1622   1.1681   1.1703   1.1748   1.1793   1.1838   1.1862
  1.1935   1.1940   1.1995   1.2065   1.2079   1.2097   1.2144   1.2211
  1.2296   1.2316   1.2399   1.2417   1.2489   1.2511   1.2537   1.2584
  1.2629   1.2671   1.2749   1.2796   1.2823   1.2877   1.3006   1.3024
  1.3073   1.3137   1.3172   1.3271   1.3301   1.3353   1.3386   1.3404
  1.3440   1.3469   1.3612   1.3716   1.3749   1.3836   1.3898   1.3983
  1.4012   1.4100   1.4158   1.4183   1.4312   1.4342   1.4430   1.4537
  1.4617   1.4650   1.4688   1.4756   1.4869   1.4897   1.4975   1.5025
  1.5050   1.5112   1.5120   1.5145   1.5227   1.5267   1.5368   1.5373
  1.5468   1.5494   1.5544   1.5583   1.5594   1.5641   1.5702   1.5805
  1.5827   1.5949   1.6010   1.6100   1.6179   1.6298   1.6365   1.6431
  1.6493   1.6532   1.6553   1.6628   1.6662   1.6763   1.6787   1.6916
  1.6932   1.6985   1.7084   1.7147   1.7250   1.7296   1.7418   1.7473
  1.7506   1.7618   1.7739   1.7781   1.7905   1.7983   1.8036   1.8107
  1.8203   1.8307   1.8349   1.8399   1.8478   1.8631   1.8660   1.8708
  1.8786   1.8900   1.8975   1.9045   1.9178   1.9299   1.9365   1.9440
  1.9512   1.9545   1.9623   1.9702   1.9828   1.9901   2.0067   2.0111
  2.0173   2.0213   2.0254   2.0276   2.0346   2.0459   2.0469   2.0689
  2.0746   2.0852   2.0905   2.0994   2.1014   2.1129   2.1168   2.1361
  2.1432   2.1464   2.1562   2.1667   2.1755   2.1785   2.1831   2.1915
  2.1993   2.2036   2.2125   2.2148   2.2215   2.2268   2.2374   2.2416
  2.2497   2.2528   2.2713   2.2760   2.2815   2.2880   2.2925   2.3014
  2.3063   2.3109   2.3355   2.3379   2.3494   2.3529   2.3645   2.3725
  2.3733   2.3862   2.3923   2.3985   2.4093   2.4122   2.4183   2.4261
  2.4396   2.4509   2.4572   2.4635   2.4716   2.4852   2.4885   2.5013
  2.5145   2.5278   2.5330   2.5340   2.5417   2.5509   2.5551   2.5655
  2.5675   2.5887   2.5984   2.6063   2.6133   2.6173   2.6224   2.6305
  2.6327   2.6434   2.6452   2.6493   2.6592   2.6608   2.6733   2.6775
  2.6850   2.6895   2.6927   2.6989   2.7014   2.7102   2.7116   2.7187
  2.7279   2.7333   2.7406   2.7461   2.7500   2.7575   2.7674   2.7698
  2.7745   2.7848   2.8034   2.8084   2.8140   2.8216   2.8264   2.8342
  2.8429   2.8493   2.8558   2.8586   2.8679   2.8720   2.8785   2.8808
  2.8831   2.8927   2.8960   2.9121   2.9187   2.9282   2.9429   2.9509
  2.9575   2.9655   2.9672   2.9711   2.9823   2.9882   2.9918   2.9967
  3.0150   3.0196   3.0253   3.0371   3.0421   3.0441   3.0474   3.0533
  3.0596   3.0664   3.0717   3.0858   3.0865   3.0915   3.0986   3.1102
  3.1152   3.1211   3.1338   3.1365   3.1375   3.1409   3.1445   3.1471
  3.1597   3.1609   3.1656   3.1720   3.1739   3.1794   3.1833   3.1841
  3.1910   3.1973   3.2027   3.2084   3.2111   3.2158   3.2219   3.2236
  3.2359   3.2405   3.2442   3.2488   3.2560   3.2612   3.2636   3.2684
  3.2749   3.2758   3.2827   3.2847   3.2890   3.2897   3.3002   3.3028
  3.3070   3.3136   3.3209   3.3231   3.3282   3.3304   3.3393   3.3449
  3.3473   3.3511   3.3569   3.3598   3.3618   3.3657   3.3703   3.3746
  3.3773   3.3807   3.3834   3.3900   3.3935   3.4011   3.4046   3.4057
  3.4113   3.4243   3.4282   3.4339   3.4380   3.4391   3.4473   3.4486
  3.4556   3.4571   3.4628   3.4658   3.4711   3.4748   3.4823   3.4847
  3.4929   3.4930   3.5063   3.5106   3.5187   3.5275   3.5287   3.5383
  3.5458   3.5508   3.5536   3.5650   3.5709   3.5743   3.5792   3.5851
  3.5881   3.5915   3.6002   3.6042   3.6067   3.6122   3.6203   3.6248
  3.6270   3.6354   3.6356   3.6413   3.6448   3.6558   3.6597   3.6624
  3.6699   3.6738   3.6781   3.6802   3.6866   3.6962   3.6994   3.7088
  3.7106   3.7117   3.7157   3.7208   3.7252   3.7283   3.7299   3.7317
  3.7366   3.7505   3.7524   3.7629   3.7654   3.7681   3.7774   3.7814
  3.7933   3.7958   3.8002   3.8083   3.8140   3.8188   3.8208   3.8247
  3.8315   3.8370   3.8403   3.8440   3.8491   3.8503   3.8560   3.8623
  3.8692   3.8749   3.8862   3.8921   3.8967   3.8981   3.9075   3.9182
  3.9243   3.9338   3.9394   3.9475   3.9532   3.9560   3.9664   3.9722
  3.9836   3.9850   3.9918   3.9983   4.0038   4.0095   4.0210   4.0220
  4.0338   4.0370   4.0379   4.0501   4.0553   4.0667   4.0711   4.0766
  4.0796   4.0880   4.0902   4.0944   4.1012   4.1087   4.1221   4.1324
  4.1372   4.1470   4.1521   4.1600   4.1685   4.1720   4.1779   4.1795
  4.1852   4.1962   4.2125   4.2168   4.2171   4.2337   4.2401   4.2465
  4.2490   4.2602   4.2670   4.2784   4.2820   4.2908   4.2991   4.3080
  4.3281   4.3322   4.3429   4.3474   4.3504   4.3537   4.3581   4.3651
  4.3759   4.3779   4.3883   4.3948   4.3970   4.4086   4.4166   4.4209
  4.4225   4.4270   4.4302   4.4369   4.4475   4.4490   4.4577   4.4651
  4.4786   4.4816   4.4989   4.5116   4.5170   4.5198   4.5275   4.5313
  4.5439   4.5510   4.5588   4.5664   4.5717   4.5763   4.5845   4.5970
  4.6048   4.6131   4.6159   4.6216   4.6363   4.6403   4.6478   4.6485
  4.6538   4.6682   4.6755   4.6825   4.6965   4.7089   4.7220   4.7387
  4.7452   4.7492   4.7547   4.7717   4.7958   4.8016   4.8230   4.8236
  4.8362   4.8386   4.8582   4.8631   4.8716   4.8897   4.8935   4.9102
  4.9185   4.9335   4.9464   4.9499   4.9564   4.9672   4.9702   4.9899
  4.9965   5.0067   5.0114   5.0131   5.0173   5.0412   5.0503   5.0610
  5.0826   5.0878   5.1024   5.1114   5.1307   5.1526   5.1625   5.1664
  5.1838   5.1929   5.1936   5.1998   5.2075   5.2172   5.2357   5.2399
  5.2559   5.2586   5.2769   5.2897   5.2945   5.3139   5.3180   5.3285
  5.3397   5.3529   5.3545   5.3609   5.3724   5.3843   5.3901   5.3973
  5.4038   5.4062   5.4410   5.4468   5.4544   5.4725   5.4829   5.4980
  5.5070   5.5152   5.5218   5.5378   5.5667   5.5698   5.5769   5.5899
  5.6031   5.6123   5.6168   5.6370   5.6463   5.6656   5.6794   5.6915
  5.7267   5.7310   5.7664   5.7804   5.7998   5.8175   5.8323   5.8538
  5.8608   5.8838   5.9077   5.9340   5.9616   5.9687   5.9784   5.9971
  6.0393   6.0500   6.1004   6.1179   6.1322   6.1330   6.1701   6.1772
  6.1828   6.1850   6.2327   6.2489   6.2560   6.2696   6.2854   6.2947
  6.3077   6.3489   6.3721   6.3996   6.4453   6.5047   6.5085   6.5484
  6.5553   6.5735   6.6468   6.6702   6.6757   6.7199   6.7342   6.7433
  6.8101   6.8591   6.8595   6.8829   6.9021   6.9892   7.1331   7.1479
  7.1774   7.2101   7.2236   7.2404   7.3255   7.3287   7.3439   7.3746
  7.3791   7.4271   7.4618   7.4872   7.4900   7.4975   7.5175   7.5480
  7.6156   7.7439   7.7719   7.8043   7.8305   7.9096   7.9280   7.9585
  8.0097   8.1200   8.4247   8.5300   8.9562   9.0206   9.3711   9.5020
  9.7113  10.3032  11.2247  11.4494  11.9383  12.1206  12.1994  12.3564
 12.4519  12.5014  12.6595  12.9614  13.0189  13.2354  13.4834  13.5764
 13.7654  13.8752  13.9330  14.0373  14.2322  14.3443  14.9343  15.2229
 --------------------------------------------------------------
 
          Ground-State Mulliken Net Atomic Charges

     Atom                 Charge (a.u.)
  ----------------------------------------
      1 C                    -0.070089
      2 C                    -0.259542
      3 S                    -0.136917
      4 C                    -0.044688
      5 H                     0.193707
      6 C                    -0.049031
      7 C                     0.220954
      8 C                     0.224950
      9 C                    -0.070306
     10 C                    -0.044105
     11 O                    -0.335324
     12 O                    -0.344498
     13 C                    -0.082746
     14 H                     0.119476
     15 H                     0.092111
     16 H                     0.092924
     17 C                    -0.087055
     18 H                     0.123038
     19 H                     0.092351
     20 H                     0.091094
     21 C                    -0.285754
     22 S                    -0.093683
     23 C                     0.068765
     24 H                     0.201042
     25 C                    -0.081073
     26 S                     0.107772
     27 C                    -0.215282
     28 C                    -0.074513
     29 C                    -0.020116
     30 C                     0.356771
     31 C                    -0.131061
     32 S                     0.058221
     33 C                     0.457554
     34 O                    -0.448643
     35 O                    -0.298259
     36 F                    -0.207476
     37 C                    -0.054707
     38 H                     0.116830
     39 H                     0.084777
     40 H                     0.084623
     41 H                     0.217999
     42 H                     0.117394
     43 H                     0.115100
     44 H                     0.197412
  ----------------------------------------
  Sum of atomic charges =     0.000000

 -----------------------------------------------------------------
                    Cartesian Multipole Moments
 -----------------------------------------------------------------
    Charge (ESU x 10^10)
                 0.0000
    Dipole Moment (Debye)
         X       3.6952      Y       2.7049      Z       2.7800
       Tot       5.3572
    Quadrupole Moments (Debye-Ang)
        XX    -191.4919     XY      10.0408     YY    -183.9706
        XZ      -8.2262     YZ      -3.1126     ZZ    -186.7365
    Octopole Moments (Debye-Ang^2)
       XXX    -372.1641    XXY     483.2923    XYY    -129.0828
       YYY    1156.1715    XXZ     128.7375    XYZ     -25.5862
       YYZ     113.3594    XZZ     -47.9485    YZZ     442.1543
       ZZZ     508.8419
    Hexadecapole Moments (Debye-Ang^3)
      XXXX   -2105.6415   XXXY    -516.2242   XXYY   -3852.7484
      XYYY    -417.4242   YYYY  -18421.9578   XXXZ     659.8861
      XXYZ     405.1121   XYYZ     176.1206   YYYZ    1633.3865
      XXZZ   -1361.1409   XYZZ      75.2383   YYZZ   -4262.3767
      XZZZ     297.4868   YZZZ     950.1742   ZZZZ   -7434.3180
 -----------------------------------------------------------------
 Total job time:  334.26s(wall), 10831.23s(cpu) 
 Sun Sep 24 19:40:34 2023

        *************************************************************
        *                                                           *
        *  Thank you very much for using Q-Chem.  Have a nice day.  *
        *                                                           *
        *************************************************************


0 sent ACK to 0 
now end server 0 ... 
cleanup process ... done
remove work dirs ./qchem958958.0 -- ./qchem958958.0
rm -rf ./qchem958958.0
rm -rf ./qchem958958
