You are running Q-Chem version: 5.4.0

#
# job setting
#
local host:  exp-4-53
current dir: /expanse/lustre/projects/csd626/rramji/aromodel/PTB7_fin/Hydrogenated_Rotation_Test
input file:  fin_bdt_Phi_25_Theta_20_fin_ftt_Hydrogenated.qcin
output file: 
nprocs     : 1
nthreads   : 64
#
# qchem installation setting
#
QC:          /cm/shared/apps/spack/cpu/opt/spack/linux-centos8-zen2/gcc-10.2.0/qchem-5.4-akfmr7b3t57bfs6qan3padb2wnb2i7cl
QCAUX:       /cm/shared/apps/spack/cpu/opt/spack/linux-centos8-zen2/gcc-10.2.0/qchem-5.4-akfmr7b3t57bfs6qan3padb2wnb2i7cl/qcaux
QCPROG:      /cm/shared/apps/spack/cpu/opt/spack/linux-centos8-zen2/gcc-10.2.0/qchem-5.4-akfmr7b3t57bfs6qan3padb2wnb2i7cl/exe/qcprog.exe
QCPROG_S:    /cm/shared/apps/spack/cpu/opt/spack/linux-centos8-zen2/gcc-10.2.0/qchem-5.4-akfmr7b3t57bfs6qan3padb2wnb2i7cl/exe/qcprog.exe_s
PARALLEL:    -DPARALLEL
QCMPI:       mpich
#
# qchem directory setting
#
qcrun:       qchem1541860
QCSCRATCH:   .
QCLOCALSCR:  
QCTMPDIR:    .
QCFILEPREF:  ./qchem1541860
QCSAVEDIR:   
workdirs:    ./qchem1541860
workdir0:    ./qchem1541860
partmpdirs =  
#
# parallel setting
#
QCRSH:           ssh
QCMPI:           mpich
QCMPIRUN:        /cm/shared/apps/spack/cpu/opt/spack/linux-centos8-zen2/gcc-10.2.0/qchem-5.4-akfmr7b3t57bfs6qan3padb2wnb2i7cl/bin/mpi/mpirun_qchem
QCMACHINEFILE:   ./qchem1541860/hostfile
exp-4-53

#
# env setting
#
exported envs:   QC QCAUX QCSCRATCH QCRUNNAME QCFILEPREF QCPROG QCPROG_S GUIFILE

Running Job 1 of 1 fin_bdt_Phi_25_Theta_20_fin_ftt_Hydrogenated.qcin
qchem fin_bdt_Phi_25_Theta_20_fin_ftt_Hydrogenated.qcin_1541860.0 ./qchem1541860/ 1
/cm/shared/apps/spack/cpu/opt/spack/linux-centos8-zen2/gcc-10.2.0/qchem-5.4-akfmr7b3t57bfs6qan3padb2wnb2i7cl/bin/mpi/mpirun_qchem -machinefile ./qchem1541860/hostfile -np 1 /cm/shared/apps/spack/cpu/opt/spack/linux-centos8-zen2/gcc-10.2.0/qchem-5.4-akfmr7b3t57bfs6qan3padb2wnb2i7cl/exe/qcprog.exe fin_bdt_Phi_25_Theta_20_fin_ftt_Hydrogenated.qcin_1541860.0 ./qchem1541860/

Process 0 of 1 is on exp-4-53 - thread support 0
initial socket setup ...start
initial socket setup ...done 
now start server 0 ... 
                  Welcome to Q-Chem
     A Quantum Leap Into The Future Of Chemistry


 Q-Chem 5.4, Q-Chem, Inc., Pleasanton, CA (2021)

 License issued to: University of California, San Diego (site)

 E. Epifanovsky,  A. T. B. Gilbert,  Xintian Feng,  Joonho Lee,  Yuezhi Mao,  
 N. Mardirossian,  P. Pokhilko,  A. White,  M. Wormit,  M. P. Coons,  
 A. L. Dempwolff,  Zhengting Gan,  D. Hait,  P. R. Horn,  L. D. Jacobson,  
 I. Kaliman,  J. Kussmann,  A. W. Lange,  Ka Un Lao,  D. S. Levine,  Jie Liu,  
 S. C. McKenzie,  A. F. Morrison,  K. Nanda,  F. Plasser,  D. R. Rehn,  
 M. L. Vidal,  Zhi-Qiang You,  Ying Zhu,  B. Alam,  B. Albrecht,  
 A. Aldossary,  E. Alguire,  J. H. Andersen,  D. Barton,  K. Begam,  A. Behn,  
 Y. A. Bernard,  E. J. Berquist,  H. Burton,  A. Carreras,  K. Carter-Fenk,  
 R. Chakraborty,  A. D. Chien,  K. D. Closser,  V. Cofer-Shabica,  
 S. Dasgupta,  Jia Deng,  M. de Wergifosse,  M. Diedenhofen,  Hainam Do,  
 S. Ehlert,  Po-Tung Fang,  S. Fatehi,  Qingguo Feng,  J. Gayvert,  
 Qinghui Ge,  G. Gidofalvi,  M. Goldey,  J. Gomes,  C. Gonzalez-Espinoza,  
 S. Gulania,  A. Gunina,  M. W. D. Hanson-Heine,  P. H. P. Harbach,  
 A. W. Hauser,  M. F. Herbst,  M. Hernandez Vera,  M. Hodecker,  
 Z. C. Holden,  S. Houck,  Xunkun Huang,  Kerwin Hui,  B. C. Huynh,  
 M. Ivanov,  Hyunjun Ji,  Hanjie Jiang,  B. Kaduk,  S. Kaehler,  
 K. Khistyaev,  Jaehoon Kim,  P. Klunzinger,  Z. Koczor-Benda,  
 Joong Hoon Koh,  D. Kosenkov,  L. Koulias,  T. Kowalczyk,  C. M. Krauter,  
 K. Kue,  A. Kunitsa,  T. Kus,  A. Landau,  K. V. Lawler,  D. Lefrancois,  
 S. Lehtola,  Rain Li,  Yi-Pei Li,  Jiashu Liang,  M. Liebenthal,  
 Hung-Hsuan Lin,  You-Sheng Lin,  Fenglai Liu,  Kuan-Yu Liu,  
 M. Loipersberger,  A. Luenser,  A. Manjanath,  P. Manohar,  E. Mansoor,  
 S. F. Manzer,  Shan-Ping Mao,  A. V. Marenich,  T. Markovich,  S. Mason,  
 S. A. Maurer,  P. F. McLaughlin,  M. F. S. J. Menger,  J.-M. Mewes,  
 S. A. Mewes,  P. Morgante,  J. W. Mullinax,  T. S. Nguyen-Beck,  
 K. J. Oosterbaan,  G. Paran,  Alexander C. Paul,  Suranjan K. Paul,  
 F. Pavosevic,  Zheng Pei,  S. Prager,  E. I. Proynov,  E. Ramos,  B. Rana,  
 A. E. Rask,  A. Rettig,  R. M. Richard,  F. Rob,  E. Rossomme,  T. Scheele,  
 M. Scheurer,  M. Schneider,  N. Sergueev,  S. M. Sharada,  W. Skomorowski,  
 D. W. Small,  C. J. Stein,  Yu-Chuan Su,  E. J. Sundstrom,  Zhen Tao,  
 J. Thirman,  T. Tsuchimochi,  N. M. Tubman,  S. P. Veccham,  O. Vydrov,  
 J. Wenzel,  J. Witte,  A. Yamada,  Kun Yao,  S. Yeganeh,  S. R. Yost,  
 A. Zech,  Igor Ying Zhang,  Xing Zhang,  Yu Zhang,  D. Zuev,  
 A. Aspuru-Guzik,  A. T. Bell,  N. A. Besley,  K. B. Bravaya,  B. R. Brooks,  
 D. Casanova,  Jeng-Da Chai,  S. Coriani,  C. J. Cramer,  
 A. E. DePrince, III,  R. A. DiStasio Jr.,  A. Dreuw,  B. D. Dunietz,  
 T. R. Furlani,  W. A. Goddard III,  S. Grimme,  S. Hammes-Schiffer,  
 T. Head-Gordon,  W. J. Hehre,  Chao-Ping Hsu,  T.-C. Jagau,  Yousung Jung,  
 A. Klamt,  Jing Kong,  D. S. Lambrecht,  WanZhen Liang,  N. J. Mayhall,  
 C. W. McCurdy,  J. B. Neaton,  C. Ochsenfeld,  J. A. Parkhill,  R. Peverati,  
 V. A. Rassolov,  Yihan Shao,  L. V. Slipchenko,  T. Stauch,  R. P. Steele,  
 J. E. Subotnik,  A. J. W. Thom,  A. Tkatchenko,  D. G. Truhlar,  
 T. Van Voorhis,  T. A. Wesolowski,  K. B. Whaley,  H. L. Woodcock III,  
 P. M. Zimmerman,  S. Faraji,  P. M. W. Gill,  M. Head-Gordon,  
 J. M. Herbert,  A. I. Krylov

 Contributors to earlier versions of Q-Chem not listed above: 
 R. D. Adamson,  B. Austin,  R. Baer,  J. Baker,  G. J. O. Beran,  
 K. Brandhorst,  S. T. Brown,  E. F. C. Byrd,  A. K. Chakraborty,  
 G. K. L. Chan,  Chun-Min Chang,  Yunqing Chen,  C.-L. Cheng,  
 Siu Hung Chien,  D. M. Chipman,  D. L. Crittenden,  H. Dachsel,  
 R. J. Doerksen,  A. D. Dutoi,  R. G. Edgar,  J. Fosso-Tande,  
 L. Fusti-Molnar,  D. Ghosh,  A. Ghysels,  A. Golubeva-Zadorozhnaya,  
 J. Gonthier,  M. S. Gordon,  S. R. Gwaltney,  G. Hawkins,  J. E. Herr,  
 A. Heyden,  S. Hirata,  E. G. Hohenstein,  G. Kedziora,  F. J. Keil,  
 C. Kelley,  Jihan Kim,  R. A. King,  R. Z. Khaliullin,  P. P. Korambath,  
 W. Kurlancheek,  A. Laurent,  A. M. Lee,  M. S. Lee,  S. V. Levchenko,  
 Ching Yeh Lin,  D. Liotard,  E. Livshits,  R. C. Lochan,  I. Lotan,  
 L. A. Martinez-Martinez,  P. E. Maslen,  N. Nair,  D. P. O'Neill,  
 D. Neuhauser,  E. Neuscamman,  C. M. Oana,  R. Olivares-Amaya,  R. Olson,  
 T. M. Perrine,  B. Peters,  P. A. Pieniazek,  A. Prociuk,  Y. M. Rhee,  
 J. Ritchie,  M. A. Rohrdanz,  E. Rosta,  N. J. Russ,  H. F. Schaefer III,  
 M. W. Schmidt,  N. E. Schultz,  S. Sharma,  N. Shenvi,  C. D. Sherrill,  
 A. C. Simmonett,  A. Sodt,  T. Stein,  D. Stuck,  K. S. Thanthiriwatte,  
 V. Vanovschi,  L. Vogt,  Tao Wang,  A. Warshel,  M. A. Watson,  
 C. F. Williams,  Q. Wu,  X. Xu,  Jun Yang,  W. Zhang,  Yan Zhao

 Please cite Q-Chem as follows:
 Y. Shao et al., Mol. Phys. 113, 184-215 (2015)
 DOI: 10.1080/00268976.2014.952696

 Q-Chem 5.4.0 for Intel X86 EM64T Linux

 Parts of Q-Chem use Armadillo 9.800.1 (Horizon Scraper).
 http://arma.sourceforge.net/

 Q-Chem begins on Tue Sep 26 17:26:43 2023  

 Host: 
0

     Scratch files written to ./qchem1541860//
 May1621 |scratch|qcdevops|jenkins|workspace|build_RNUM    
 Parallel job on  1  processors
 Processing $rem in /cm/shared/apps/spack/cpu/opt/spack/linux-centos8-zen2/gcc-10.2.0/qchem-5.4-akfmr7b3t57bfs6qan3padb2wnb2i7cl/config/preferences:
 Processing $rem in /home/rramji/.qchemrc:
 Symmetry turned off for PCM/SM12/SMD calculation
 Core orbitals will be frozen

 Checking the input file for inconsistencies... 	...done.

 Q-Chem warning in module forms1/BasisType.C, line 2236:

 You are not using the predefined 5D/6D in this basis set.


--------------------------------------------------------------
User input:
--------------------------------------------------------------
$molecule
0 1
C	-0.136647	-8.519741	0.235306
C	0.221346	-7.635967	-0.772334
S	-0.650746	-7.651740	1.702286
C	0.090779	-6.261894	-0.408807
H	0.573754	-7.954738	-1.761423
C	-0.397735	-6.079985	0.932876
C	-0.568166	-4.798382	1.479069
C	0.418347	-5.153542	-1.241204
C	0.251852	-3.869626	-0.693206
C	-0.239872	-3.688927	0.648921
O	0.842486	-5.481075	-2.493437
O	-0.993092	-4.479871	2.737331
C	-1.884752	-5.356026	3.416110
H	-2.273124	-4.790496	4.284447
H	-1.373310	-6.268513	3.793352
H	-2.734702	-5.658187	2.766716
C	1.588030	-4.546999	-3.264581
H	1.974995	-5.107564	-4.136519
H	2.443843	-4.131473	-2.690439
H	0.955140	-3.712085	-3.636177
C	-0.367068	-2.314326	1.009848
S	0.517386	-2.295487	-1.459936
C	-0.000000	-1.435180	-0.000000
H	-0.721689	-1.993211	1.997308
C	0.000000	0.000000	0.000000
S	0.382139	0.814215	1.510732
C	1.046923	2.242395	0.727629
C	0.383804	0.823142	-1.064665
C	0.969360	2.082453	-0.678287
C	0.357247	0.762277	-2.486150
C	0.891671	1.908660	-3.106916
S	1.415865	3.040689	-1.965735
C	1.003453	2.137318	-4.559972
O	0.611644	1.290019	-5.350277
O	1.548687	3.298916	-5.004375
F	-0.110054	-0.249117	-3.246290
C	1.709479	3.619721	-6.334976
H	2.177001	4.620902	-6.370268
H	0.737443	3.643380	-6.875609
H	2.359363	2.886384	-6.861878
H	1.435800	3.076190	1.321510
H	0.712022	-9.146471	0.533380
H	-0.980494	-9.150570	-0.067771
H	1.017696	-1.444158	0.361406
$end

$rem
JOBTYPE		SP
EXCHANGE	HF
CORRELATION	pRIMP2
BASIS		cc-pvtz
METHOD		rimp2
AUX_BASIS	rimp2-cc-pvtz
SOLVENT_METHOD	PCM
PURECART	11111
SYMMETRY	false
MEM_TOTAL	110000
SCF_CONVERGENCE = 6
THRESH=10
GUI = 2
$end



$solvent
dielectric 4.90
$end
--------------------------------------------------------------
 ----------------------------------------------------------------
             Standard Nuclear Orientation (Angstroms)
    I     Atom           X                Y                Z
 ----------------------------------------------------------------
    1      C      -0.1366470000    -8.5197410000     0.2353060000
    2      C       0.2213460000    -7.6359670000    -0.7723340000
    3      S      -0.6507460000    -7.6517400000     1.7022860000
    4      C       0.0907790000    -6.2618940000    -0.4088070000
    5      H       0.5737540000    -7.9547380000    -1.7614230000
    6      C      -0.3977350000    -6.0799850000     0.9328760000
    7      C      -0.5681660000    -4.7983820000     1.4790690000
    8      C       0.4183470000    -5.1535420000    -1.2412040000
    9      C       0.2518520000    -3.8696260000    -0.6932060000
   10      C      -0.2398720000    -3.6889270000     0.6489210000
   11      O       0.8424860000    -5.4810750000    -2.4934370000
   12      O      -0.9930920000    -4.4798710000     2.7373310000
   13      C      -1.8847520000    -5.3560260000     3.4161100000
   14      H      -2.2731240000    -4.7904960000     4.2844470000
   15      H      -1.3733100000    -6.2685130000     3.7933520000
   16      H      -2.7347020000    -5.6581870000     2.7667160000
   17      C       1.5880300000    -4.5469990000    -3.2645810000
   18      H       1.9749950000    -5.1075640000    -4.1365190000
   19      H       2.4438430000    -4.1314730000    -2.6904390000
   20      H       0.9551400000    -3.7120850000    -3.6361770000
   21      C      -0.3670680000    -2.3143260000     1.0098480000
   22      S       0.5173860000    -2.2954870000    -1.4599360000
   23      C       0.0000000000    -1.4351800000     0.0000000000
   24      H      -0.7216890000    -1.9932110000     1.9973080000
   25      C       0.0000000000     0.0000000000     0.0000000000
   26      S       0.3821390000     0.8142150000     1.5107320000
   27      C       1.0469230000     2.2423950000     0.7276290000
   28      C       0.3838040000     0.8231420000    -1.0646650000
   29      C       0.9693600000     2.0824530000    -0.6782870000
   30      C       0.3572470000     0.7622770000    -2.4861500000
   31      C       0.8916710000     1.9086600000    -3.1069160000
   32      S       1.4158650000     3.0406890000    -1.9657350000
   33      C       1.0034530000     2.1373180000    -4.5599720000
   34      O       0.6116440000     1.2900190000    -5.3502770000
   35      O       1.5486870000     3.2989160000    -5.0043750000
   36      F      -0.1100540000    -0.2491170000    -3.2462900000
   37      C       1.7094790000     3.6197210000    -6.3349760000
   38      H       2.1770010000     4.6209020000    -6.3702680000
   39      H       0.7374430000     3.6433800000    -6.8756090000
   40      H       2.3593630000     2.8863840000    -6.8618780000
   41      H       1.4358000000     3.0761900000     1.3215100000
   42      H       0.7120220000    -9.1464710000     0.5333800000
   43      H      -0.9804940000    -9.1505700000    -0.0677710000
   44      H       1.0176960000    -1.4441580000     0.3614060000
 ----------------------------------------------------------------
 Nuclear Repulsion Energy =        3392.30762332 hartrees
 There are      120 alpha and      120 beta electrons
 Requested basis set is cc-pVTZ
 There are 388 shells and 1096 basis functions

 Total QAlloc Memory Limit 110000 MB
 Mega-Array Size       188 MB
 MEM_STATIC part       192 MB
 Discretize the solute cavity surface with Lebedev spheres
	Using 110 Lebedev grid points for each H atom
	Using 194 Lebedev grid points for other atoms
	Atomic van der Waals radii will be scaled by 1.20
 Remove points where switching function is < 1.0e-08
 Keep 2944 surface tesserae and discard 4332 interior tesserae
 Molecular Surface Area = 434.155 Angst**2
 Requested basis set is rimp2-cc-pVTZ
 There are 853 shells and 2963 basis functions
 A cutoff of  1.0D-10 yielded  33823 shell pairs
 There are    255155 function pairs (    329927 Cartesian)
 Smallest overlap matrix eigenvalue = 2.12E-05

 Scale SEOQF with 1.000000e-01/1.000000e-02/1.000000e-02

 Standard Electronic Orientation quadrupole field applied
 Nucleus-field energy     =     0.0000000205 hartrees
 Guess from superposition of atomic densities
 Warning:  Energy on first SCF cycle will be non-variational
 SAD guess density has 240.000000 electrons

 -----------------------------------------------------------------------
  General SCF calculation program by
  Eric Jon Sundstrom, Paul Horn, Yuezhi Mao, Dmitri Zuev, Alec White,
  David Stuck, Shaama M.S., Shane Yost, Joonho Lee, David Small,
  Daniel Levine, Susi Lehtola, Hugh Burton, Evgeny Epifanovsky,
  Bang C. Huynh
 -----------------------------------------------------------------------
 Hartree-Fock
 using 64 threads for integral computing
 -------------------------------------------------------
 OpenMP Integral computing Module                
 Release: version 1.0, May 2013, Q-Chem Inc. Pittsburgh 
 -------------------------------------------------------
 A restricted SCF calculation will be
 performed using DIIS
 SCF converges when DIIS error is below 1.0e-06
 ---------------------------------------
  Cycle       Energy         DIIS error
 ---------------------------------------
    1   -2767.3871514950      1.77e-02  
    2   -2754.8574930037      1.54e-03  
    3   -2755.2063086437      8.76e-04  
    4   -2755.2971586356      2.55e-04  
    5   -2755.3111486986      7.26e-05  
    6   -2755.3127517611      2.66e-05  
    7   -2755.3131864242      1.35e-05  
    8   -2755.3133114637      5.45e-06  
    9   -2755.3133355351      2.72e-06  
   10   -2755.3133409691      1.33e-06  
   11   -2755.3133427339      6.87e-07  Convergence criterion met
 ---------------------------------------
 SCF time:   CPU 7452.55s  wall 289.00s 

************** Final PCM Free Energy Summary **************
 G_electrostatic  =      -0.02157194 hartree =     -13.53659951 kcal/mol
 G_cavitation     =       0.00000000 hartree =       0.00000000 kcal/mol
 G_dispersion     =       0.00000000 hartree =       0.00000000 kcal/mol
 G_repulsion      =       0.00000000 hartree =       0.00000000 kcal/mol
 --------------------------------------------------
 Non-electrostatic Free Energy =       0.00000000 hartree =       0.00000000 kcal/mol
 Total                         =      -0.02157194 hartree =     -13.53659951 kcal/mol
 --------------------------------------------------
 SCF Energy (H0 + V/2)                       =   -2755.31334273 
 Solute Internal Energy (H0)                 =   -2755.29177079 
 Total Free Energy (H0 + V/2 + non-elec)     =   -2755.31334273 hartree
                                             = -1728985.21813822 kcal/mol
***********************************************************

 SCF   energy in the final basis set =    -2755.3133427339
 Total energy in the final basis set =    -2755.3133427339


 --------------------------------------------------------------
  Generalized many-body perturbation theory program
  by Joonho Lee, Fazle Rob, Xintian Feng, Evgeny Epifanovsky

 No regularization used 
 (reg. param. = 0.0000e+00)
  (P|Q)^-1/2 Time:  CPU 149.34 s  wall 2.36 s

 In RI-MP2 calculation: 
 # of frozen core orbitals: 45

 Components of the RIMP2 correlation energy:
        aaaa    correlation energy =        -0.6708902725 a.u.
        abab    correlation energy =        -3.7527156514 a.u.
        bbbb    correlation energy =        -0.6708902725 a.u.
        non-Brillouin singles      =        -0.0000000000 a.u.
        total same-spin energy     =        -1.3417805450 a.u.
        total opposite-spin energy =        -3.7527156514 a.u.

 Total  RIMP2   correlation energy =        -5.0944961965 a.u.
        RIMP2         total energy =     -2760.4078389304 a.u.

 RI-MP2 Energy Time:  CPU 2806.08 s  wall 46.80 s
 
 --------------------------------------------------------------
 
                    Orbital Energies (a.u.)
 --------------------------------------------------------------
 
 Alpha MOs
 -- Occupied --
-92.0107 -91.9920 -91.9763 -91.9609 -26.3345 -20.6110 -20.5884 -20.5881
-20.5478 -11.4085 -11.3790 -11.3223 -11.3108 -11.3098 -11.2964 -11.2931
-11.2880 -11.2869 -11.2858 -11.2843 -11.2837 -11.2829 -11.2779 -11.2767
-11.2700 -11.2630 -11.2602 -11.2524 -11.2432  -9.0099  -8.9962  -8.9789
 -8.9634  -6.6907  -6.6901  -6.6895  -6.6775  -6.6768  -6.6754  -6.6598
 -6.6590  -6.6576  -6.6446  -6.6437  -6.6427  -1.6494  -1.4705  -1.4117
 -1.4100  -1.3656  -1.2397  -1.2096  -1.1784  -1.1439  -1.1001  -1.0512
 -1.0470  -1.0303  -1.0080  -0.9999  -0.9714  -0.9601  -0.9499  -0.9406
 -0.8951  -0.8710  -0.8633  -0.8122  -0.7948  -0.7860  -0.7762  -0.7662
 -0.7650  -0.7336  -0.7213  -0.7165  -0.6976  -0.6949  -0.6841  -0.6777
 -0.6718  -0.6713  -0.6568  -0.6494  -0.6383  -0.6292  -0.6225  -0.6159
 -0.6111  -0.6049  -0.5968  -0.5924  -0.5779  -0.5675  -0.5643  -0.5595
 -0.5484  -0.5339  -0.5285  -0.5211  -0.5138  -0.5088  -0.5043  -0.5004
 -0.4845  -0.4830  -0.4795  -0.4659  -0.4622  -0.4605  -0.4591  -0.4485
 -0.4295  -0.4013  -0.3840  -0.3731  -0.3512  -0.2941  -0.2834  -0.2186
 -- Virtual --
  0.0226   0.0596   0.1123   0.1360   0.1381   0.1467   0.1529   0.1559
  0.1585   0.1588   0.1698   0.1740   0.1793   0.1835   0.1920   0.1923
  0.1982   0.2022   0.2040   0.2126   0.2162   0.2223   0.2241   0.2274
  0.2290   0.2327   0.2413   0.2468   0.2558   0.2591   0.2695   0.2741
  0.2883   0.2994   0.3113   0.3205   0.3302   0.3380   0.3441   0.3472
  0.3558   0.3594   0.3622   0.3675   0.3718   0.3785   0.3821   0.3840
  0.3880   0.3941   0.3991   0.3997   0.4081   0.4127   0.4145   0.4211
  0.4225   0.4267   0.4340   0.4379   0.4413   0.4464   0.4488   0.4505
  0.4567   0.4617   0.4666   0.4677   0.4744   0.4786   0.4809   0.4851
  0.4918   0.4929   0.5008   0.5060   0.5114   0.5130   0.5141   0.5173
  0.5222   0.5288   0.5350   0.5359   0.5434   0.5444   0.5474   0.5535
  0.5577   0.5585   0.5620   0.5647   0.5686   0.5714   0.5746   0.5848
  0.5870   0.5879   0.5943   0.5977   0.5990   0.6018   0.6080   0.6099
  0.6139   0.6161   0.6188   0.6214   0.6228   0.6279   0.6289   0.6322
  0.6338   0.6375   0.6397   0.6453   0.6473   0.6499   0.6535   0.6585
  0.6614   0.6655   0.6699   0.6788   0.6841   0.6860   0.6909   0.6966
  0.7029   0.7097   0.7141   0.7151   0.7189   0.7264   0.7367   0.7388
  0.7463   0.7525   0.7540   0.7641   0.7703   0.7808   0.7833   0.7935
  0.7974   0.7988   0.8048   0.8100   0.8144   0.8202   0.8216   0.8293
  0.8400   0.8431   0.8518   0.8572   0.8705   0.8753   0.8785   0.8860
  0.8914   0.8945   0.9001   0.9024   0.9060   0.9087   0.9115   0.9196
  0.9233   0.9314   0.9365   0.9388   0.9414   0.9472   0.9517   0.9535
  0.9621   0.9661   0.9761   0.9788   0.9824   0.9827   0.9916   0.9960
  0.9987   1.0020   1.0037   1.0099   1.0112   1.0188   1.0239   1.0283
  1.0318   1.0397   1.0449   1.0507   1.0518   1.0613   1.0667   1.0719
  1.0759   1.0820   1.0866   1.0887   1.0946   1.0982   1.1038   1.1053
  1.1083   1.1168   1.1277   1.1349   1.1392   1.1425   1.1456   1.1539
  1.1589   1.1632   1.1676   1.1685   1.1691   1.1767   1.1815   1.1847
  1.1872   1.1922   1.1940   1.2032   1.2041   1.2107   1.2132   1.2185
  1.2243   1.2316   1.2360   1.2398   1.2456   1.2507   1.2517   1.2566
  1.2606   1.2650   1.2691   1.2823   1.2852   1.2890   1.2918   1.3038
  1.3064   1.3107   1.3278   1.3287   1.3315   1.3333   1.3349   1.3410
  1.3518   1.3549   1.3609   1.3662   1.3804   1.3838   1.3891   1.3948
  1.3972   1.4075   1.4152   1.4200   1.4331   1.4447   1.4466   1.4545
  1.4604   1.4644   1.4723   1.4811   1.4880   1.4886   1.4975   1.5003
  1.5051   1.5080   1.5126   1.5147   1.5177   1.5292   1.5349   1.5389
  1.5413   1.5473   1.5521   1.5567   1.5601   1.5673   1.5745   1.5823
  1.5901   1.5966   1.6041   1.6076   1.6142   1.6221   1.6395   1.6432
  1.6466   1.6565   1.6600   1.6626   1.6686   1.6750   1.6837   1.6893
  1.6988   1.7026   1.7081   1.7200   1.7260   1.7344   1.7407   1.7475
  1.7585   1.7633   1.7679   1.7815   1.7893   1.7998   1.8044   1.8175
  1.8259   1.8307   1.8373   1.8506   1.8582   1.8653   1.8733   1.8763
  1.8780   1.8846   1.8939   1.9008   1.9194   1.9297   1.9319   1.9348
  1.9409   1.9461   1.9658   1.9736   1.9788   1.9869   1.9913   1.9999
  2.0150   2.0184   2.0295   2.0310   2.0382   2.0427   2.0438   2.0653
  2.0736   2.0838   2.0916   2.0973   2.1022   2.1122   2.1187   2.1319
  2.1414   2.1540   2.1597   2.1650   2.1738   2.1823   2.1866   2.1946
  2.1986   2.2059   2.2085   2.2200   2.2217   2.2341   2.2416   2.2454
  2.2551   2.2615   2.2707   2.2782   2.2863   2.2952   2.2988   2.3021
  2.3067   2.3147   2.3299   2.3388   2.3425   2.3566   2.3642   2.3683
  2.3789   2.3848   2.3962   2.3976   2.4102   2.4136   2.4204   2.4245
  2.4411   2.4554   2.4644   2.4688   2.4728   2.4779   2.4939   2.4972
  2.5128   2.5210   2.5296   2.5325   2.5461   2.5512   2.5563   2.5679
  2.5814   2.5869   2.5916   2.6065   2.6110   2.6147   2.6194   2.6242
  2.6345   2.6411   2.6415   2.6455   2.6535   2.6614   2.6707   2.6742
  2.6856   2.6926   2.6956   2.7010   2.7043   2.7103   2.7177   2.7211
  2.7301   2.7344   2.7401   2.7476   2.7529   2.7601   2.7624   2.7659
  2.7741   2.7826   2.7902   2.8016   2.8077   2.8083   2.8159   2.8367
  2.8432   2.8465   2.8527   2.8560   2.8613   2.8651   2.8731   2.8757
  2.8812   2.8912   2.8969   2.9072   2.9185   2.9325   2.9435   2.9499
  2.9529   2.9573   2.9634   2.9760   2.9821   2.9861   2.9928   2.9990
  3.0052   3.0123   3.0221   3.0290   3.0330   3.0446   3.0492   3.0521
  3.0604   3.0635   3.0717   3.0824   3.0888   3.0900   3.0923   3.0984
  3.1089   3.1158   3.1197   3.1272   3.1316   3.1365   3.1451   3.1514
  3.1538   3.1560   3.1599   3.1611   3.1701   3.1737   3.1782   3.1873
  3.1906   3.1934   3.2023   3.2053   3.2126   3.2157   3.2190   3.2223
  3.2280   3.2394   3.2432   3.2480   3.2555   3.2581   3.2627   3.2656
  3.2723   3.2771   3.2821   3.2862   3.2890   3.2949   3.2967   3.3023
  3.3050   3.3114   3.3164   3.3185   3.3256   3.3309   3.3397   3.3436
  3.3466   3.3488   3.3556   3.3589   3.3634   3.3668   3.3691   3.3701
  3.3732   3.3805   3.3839   3.3884   3.3953   3.4003   3.4015   3.4071
  3.4139   3.4214   3.4262   3.4299   3.4330   3.4403   3.4425   3.4485
  3.4500   3.4556   3.4600   3.4634   3.4692   3.4753   3.4821   3.4876
  3.4960   3.4978   3.5080   3.5120   3.5164   3.5229   3.5279   3.5350
  3.5394   3.5518   3.5536   3.5577   3.5709   3.5784   3.5808   3.5824
  3.5896   3.5905   3.5975   3.6027   3.6064   3.6081   3.6143   3.6202
  3.6258   3.6287   3.6315   3.6373   3.6425   3.6516   3.6590   3.6644
  3.6668   3.6705   3.6755   3.6760   3.6809   3.6894   3.6925   3.6966
  3.7022   3.7110   3.7131   3.7137   3.7190   3.7264   3.7308   3.7340
  3.7367   3.7402   3.7452   3.7547   3.7591   3.7658   3.7695   3.7781
  3.7799   3.7898   3.7972   3.8020   3.8053   3.8128   3.8223   3.8253
  3.8263   3.8351   3.8406   3.8469   3.8492   3.8539   3.8573   3.8587
  3.8689   3.8775   3.8819   3.8842   3.8924   3.8995   3.9061   3.9082
  3.9183   3.9316   3.9337   3.9420   3.9461   3.9528   3.9584   3.9695
  3.9709   3.9721   3.9786   3.9908   3.9915   4.0076   4.0089   4.0134
  4.0218   4.0247   4.0426   4.0469   4.0536   4.0596   4.0643   4.0710
  4.0748   4.0843   4.0901   4.0962   4.1041   4.1098   4.1181   4.1281
  4.1336   4.1429   4.1448   4.1619   4.1663   4.1700   4.1733   4.1775
  4.1806   4.1933   4.2038   4.2094   4.2138   4.2269   4.2286   4.2396
  4.2482   4.2655   4.2680   4.2800   4.2849   4.2880   4.3001   4.3074
  4.3133   4.3222   4.3347   4.3452   4.3484   4.3493   4.3594   4.3635
  4.3736   4.3786   4.3793   4.3956   4.4012   4.4063   4.4110   4.4171
  4.4220   4.4245   4.4296   4.4365   4.4411   4.4442   4.4531   4.4655
  4.4678   4.4773   4.4817   4.4988   4.5049   4.5139   4.5205   4.5230
  4.5275   4.5494   4.5563   4.5591   4.5694   4.5708   4.5818   4.5872
  4.5939   4.6123   4.6187   4.6226   4.6306   4.6422   4.6452   4.6531
  4.6564   4.6633   4.6691   4.6834   4.6919   4.7109   4.7134   4.7221
  4.7376   4.7439   4.7595   4.7767   4.7887   4.8016   4.8075   4.8119
  4.8235   4.8321   4.8399   4.8463   4.8572   4.8708   4.8843   4.9006
  4.9147   4.9303   4.9434   4.9495   4.9602   4.9644   4.9649   4.9859
  4.9939   4.9978   5.0079   5.0122   5.0129   5.0337   5.0498   5.0651
  5.0746   5.0850   5.1091   5.1174   5.1316   5.1411   5.1605   5.1709
  5.1867   5.1932   5.1976   5.2119   5.2194   5.2218   5.2321   5.2537
  5.2574   5.2599   5.2808   5.2900   5.2918   5.3169   5.3228   5.3314
  5.3417   5.3558   5.3565   5.3631   5.3786   5.3882   5.3899   5.3980
  5.4031   5.4104   5.4269   5.4406   5.4562   5.4736   5.4841   5.4948
  5.5089   5.5173   5.5187   5.5400   5.5572   5.5673   5.5773   5.5831
  5.6030   5.6097   5.6144   5.6197   5.6354   5.6467   5.6778   5.6877
  5.7227   5.7394   5.7654   5.7849   5.8019   5.8186   5.8444   5.8579
  5.8702   5.8875   5.8984   5.9303   5.9712   5.9733   5.9845   6.0067
  6.0372   6.0438   6.1185   6.1235   6.1344   6.1533   6.1734   6.1792
  6.1863   6.2047   6.2138   6.2499   6.2591   6.2728   6.2888   6.2996
  6.3096   6.3485   6.3712   6.4365   6.4588   6.4954   6.5372   6.5485
  6.5579   6.5742   6.6444   6.6781   6.6837   6.7170   6.7425   6.7533
  6.8079   6.8583   6.8627   6.8850   6.8989   6.9935   7.1313   7.1449
  7.1796   7.2128   7.2214   7.2388   7.3266   7.3287   7.3411   7.3752
  7.3794   7.4301   7.4638   7.4850   7.4880   7.4965   7.5204   7.5513
  7.6205   7.7409   7.7717   7.8019   7.8331   7.9116   7.9257   7.9552
  8.0093   8.1249   8.3866   8.6163   8.9588   9.0132   9.3703   9.5078
  9.7131  10.3694  11.2590  11.4245  11.9216  11.9546  12.1253  12.3989
 12.4178  12.5001  12.6644  12.9527  13.0117  13.2837  13.4821  13.5878
 13.6801  13.8795  13.9310  13.9982  14.2392  14.3282  14.9388  15.2177
 --------------------------------------------------------------
 
          Ground-State Mulliken Net Atomic Charges

     Atom                 Charge (a.u.)
  ----------------------------------------
      1 C                    -0.071228
      2 C                    -0.241614
      3 S                    -0.129668
      4 C                    -0.053105
      5 H                     0.196060
      6 C                    -0.045633
      7 C                     0.215259
      8 C                     0.232735
      9 C                    -0.079489
     10 C                    -0.009124
     11 O                    -0.334108
     12 O                    -0.343667
     13 C                    -0.082710
     14 H                     0.120161
     15 H                     0.091838
     16 H                     0.093229
     17 C                    -0.090313
     18 H                     0.124635
     19 H                     0.092400
     20 H                     0.093576
     21 C                    -0.344867
     22 S                    -0.090473
     23 C                     0.132386
     24 H                     0.199180
     25 C                     0.037170
     26 S                     0.079586
     27 C                    -0.260996
     28 C                    -0.172231
     29 C                    -0.009387
     30 C                     0.366673
     31 C                    -0.145053
     32 S                     0.034232
     33 C                     0.458770
     34 O                    -0.454156
     35 O                    -0.298706
     36 F                    -0.206377
     37 C                    -0.054926
     38 H                     0.116415
     39 H                     0.084276
     40 H                     0.083918
     41 H                     0.213942
     42 H                     0.119954
     43 H                     0.117787
     44 H                     0.213651
  ----------------------------------------
  Sum of atomic charges =     0.000000

 -----------------------------------------------------------------
                    Cartesian Multipole Moments
 -----------------------------------------------------------------
    Charge (ESU x 10^10)
                 0.0000
    Dipole Moment (Debye)
         X       1.9111      Y       1.1619      Z       3.1178
       Tot       3.8370
    Quadrupole Moments (Debye-Ang)
        XX    -191.6597     XY       4.1084     YY    -168.3914
        XZ     -13.5242     YZ      -4.7156     ZZ    -195.9043
    Octopole Moments (Debye-Ang^2)
       XXX    -193.6512    XXY     380.2399    XYY     -38.0841
       YYY     956.5553    XXZ     159.1607    XYZ      25.4716
       YYZ      90.3352    XZZ     -20.0817    YZZ     453.3594
       ZZZ     515.2842
    Hexadecapole Moments (Debye-Ang^3)
      XXXX   -1185.8977   XXXY    -801.0621   XXYY   -3734.6502
      XYYY    -770.4398   YYYY  -18794.7562   XXXZ    1024.4283
      XXYZ     542.5458   XYYZ      70.0632   YYYZ    1899.4078
      XXZZ   -1320.5483   XYZZ     -47.6588   YYZZ   -4361.5244
      XZZZ     619.0987   YZZZ    1153.8194   ZZZZ   -7444.3332
 -----------------------------------------------------------------
 Total job time:  340.84s(wall), 10390.04s(cpu) 
 Tue Sep 26 17:32:24 2023

        *************************************************************
        *                                                           *
        *  Thank you very much for using Q-Chem.  Have a nice day.  *
        *                                                           *
        *************************************************************


0 sent ACK to 0 
now end server 0 ... 
cleanup process ... done
remove work dirs ./qchem1541860.0 -- ./qchem1541860.0
rm -rf ./qchem1541860.0
rm -rf ./qchem1541860
