You are running Q-Chem version: 5.4.0

#
# job setting
#
local host:  exp-3-23
current dir: /expanse/lustre/projects/csd626/rramji/aromodel/PTB7_fin/Hydrogenated_Rotation_Test
input file:  fin_bdt_Phi_20_Theta_290_fin_ftt_Hydrogenated.qcin
output file: 
nprocs     : 1
nthreads   : 64
#
# qchem installation setting
#
QC:          /cm/shared/apps/spack/cpu/opt/spack/linux-centos8-zen2/gcc-10.2.0/qchem-5.4-akfmr7b3t57bfs6qan3padb2wnb2i7cl
QCAUX:       /cm/shared/apps/spack/cpu/opt/spack/linux-centos8-zen2/gcc-10.2.0/qchem-5.4-akfmr7b3t57bfs6qan3padb2wnb2i7cl/qcaux
QCPROG:      /cm/shared/apps/spack/cpu/opt/spack/linux-centos8-zen2/gcc-10.2.0/qchem-5.4-akfmr7b3t57bfs6qan3padb2wnb2i7cl/exe/qcprog.exe
QCPROG_S:    /cm/shared/apps/spack/cpu/opt/spack/linux-centos8-zen2/gcc-10.2.0/qchem-5.4-akfmr7b3t57bfs6qan3padb2wnb2i7cl/exe/qcprog.exe_s
PARALLEL:    -DPARALLEL
QCMPI:       mpich
#
# qchem directory setting
#
qcrun:       qchem2537578
QCSCRATCH:   .
QCLOCALSCR:  
QCTMPDIR:    .
QCFILEPREF:  ./qchem2537578
QCSAVEDIR:   
workdirs:    ./qchem2537578
workdir0:    ./qchem2537578
partmpdirs =  
#
# parallel setting
#
QCRSH:           ssh
QCMPI:           mpich
QCMPIRUN:        /cm/shared/apps/spack/cpu/opt/spack/linux-centos8-zen2/gcc-10.2.0/qchem-5.4-akfmr7b3t57bfs6qan3padb2wnb2i7cl/bin/mpi/mpirun_qchem
QCMACHINEFILE:   ./qchem2537578/hostfile
exp-3-23

#
# env setting
#
exported envs:   QC QCAUX QCSCRATCH QCRUNNAME QCFILEPREF QCPROG QCPROG_S GUIFILE

Running Job 1 of 1 fin_bdt_Phi_20_Theta_290_fin_ftt_Hydrogenated.qcin
qchem fin_bdt_Phi_20_Theta_290_fin_ftt_Hydrogenated.qcin_2537578.0 ./qchem2537578/ 1
/cm/shared/apps/spack/cpu/opt/spack/linux-centos8-zen2/gcc-10.2.0/qchem-5.4-akfmr7b3t57bfs6qan3padb2wnb2i7cl/bin/mpi/mpirun_qchem -machinefile ./qchem2537578/hostfile -np 1 /cm/shared/apps/spack/cpu/opt/spack/linux-centos8-zen2/gcc-10.2.0/qchem-5.4-akfmr7b3t57bfs6qan3padb2wnb2i7cl/exe/qcprog.exe fin_bdt_Phi_20_Theta_290_fin_ftt_Hydrogenated.qcin_2537578.0 ./qchem2537578/

Process 0 of 1 is on exp-3-23 - thread support 0
initial socket setup ...start
initial socket setup ...done 
now start server 0 ... 
                  Welcome to Q-Chem
     A Quantum Leap Into The Future Of Chemistry


 Q-Chem 5.4, Q-Chem, Inc., Pleasanton, CA (2021)

 License issued to: University of California, San Diego (site)

 E. Epifanovsky,  A. T. B. Gilbert,  Xintian Feng,  Joonho Lee,  Yuezhi Mao,  
 N. Mardirossian,  P. Pokhilko,  A. White,  M. Wormit,  M. P. Coons,  
 A. L. Dempwolff,  Zhengting Gan,  D. Hait,  P. R. Horn,  L. D. Jacobson,  
 I. Kaliman,  J. Kussmann,  A. W. Lange,  Ka Un Lao,  D. S. Levine,  Jie Liu,  
 S. C. McKenzie,  A. F. Morrison,  K. Nanda,  F. Plasser,  D. R. Rehn,  
 M. L. Vidal,  Zhi-Qiang You,  Ying Zhu,  B. Alam,  B. Albrecht,  
 A. Aldossary,  E. Alguire,  J. H. Andersen,  D. Barton,  K. Begam,  A. Behn,  
 Y. A. Bernard,  E. J. Berquist,  H. Burton,  A. Carreras,  K. Carter-Fenk,  
 R. Chakraborty,  A. D. Chien,  K. D. Closser,  V. Cofer-Shabica,  
 S. Dasgupta,  Jia Deng,  M. de Wergifosse,  M. Diedenhofen,  Hainam Do,  
 S. Ehlert,  Po-Tung Fang,  S. Fatehi,  Qingguo Feng,  J. Gayvert,  
 Qinghui Ge,  G. Gidofalvi,  M. Goldey,  J. Gomes,  C. Gonzalez-Espinoza,  
 S. Gulania,  A. Gunina,  M. W. D. Hanson-Heine,  P. H. P. Harbach,  
 A. W. Hauser,  M. F. Herbst,  M. Hernandez Vera,  M. Hodecker,  
 Z. C. Holden,  S. Houck,  Xunkun Huang,  Kerwin Hui,  B. C. Huynh,  
 M. Ivanov,  Hyunjun Ji,  Hanjie Jiang,  B. Kaduk,  S. Kaehler,  
 K. Khistyaev,  Jaehoon Kim,  P. Klunzinger,  Z. Koczor-Benda,  
 Joong Hoon Koh,  D. Kosenkov,  L. Koulias,  T. Kowalczyk,  C. M. Krauter,  
 K. Kue,  A. Kunitsa,  T. Kus,  A. Landau,  K. V. Lawler,  D. Lefrancois,  
 S. Lehtola,  Rain Li,  Yi-Pei Li,  Jiashu Liang,  M. Liebenthal,  
 Hung-Hsuan Lin,  You-Sheng Lin,  Fenglai Liu,  Kuan-Yu Liu,  
 M. Loipersberger,  A. Luenser,  A. Manjanath,  P. Manohar,  E. Mansoor,  
 S. F. Manzer,  Shan-Ping Mao,  A. V. Marenich,  T. Markovich,  S. Mason,  
 S. A. Maurer,  P. F. McLaughlin,  M. F. S. J. Menger,  J.-M. Mewes,  
 S. A. Mewes,  P. Morgante,  J. W. Mullinax,  T. S. Nguyen-Beck,  
 K. J. Oosterbaan,  G. Paran,  Alexander C. Paul,  Suranjan K. Paul,  
 F. Pavosevic,  Zheng Pei,  S. Prager,  E. I. Proynov,  E. Ramos,  B. Rana,  
 A. E. Rask,  A. Rettig,  R. M. Richard,  F. Rob,  E. Rossomme,  T. Scheele,  
 M. Scheurer,  M. Schneider,  N. Sergueev,  S. M. Sharada,  W. Skomorowski,  
 D. W. Small,  C. J. Stein,  Yu-Chuan Su,  E. J. Sundstrom,  Zhen Tao,  
 J. Thirman,  T. Tsuchimochi,  N. M. Tubman,  S. P. Veccham,  O. Vydrov,  
 J. Wenzel,  J. Witte,  A. Yamada,  Kun Yao,  S. Yeganeh,  S. R. Yost,  
 A. Zech,  Igor Ying Zhang,  Xing Zhang,  Yu Zhang,  D. Zuev,  
 A. Aspuru-Guzik,  A. T. Bell,  N. A. Besley,  K. B. Bravaya,  B. R. Brooks,  
 D. Casanova,  Jeng-Da Chai,  S. Coriani,  C. J. Cramer,  
 A. E. DePrince, III,  R. A. DiStasio Jr.,  A. Dreuw,  B. D. Dunietz,  
 T. R. Furlani,  W. A. Goddard III,  S. Grimme,  S. Hammes-Schiffer,  
 T. Head-Gordon,  W. J. Hehre,  Chao-Ping Hsu,  T.-C. Jagau,  Yousung Jung,  
 A. Klamt,  Jing Kong,  D. S. Lambrecht,  WanZhen Liang,  N. J. Mayhall,  
 C. W. McCurdy,  J. B. Neaton,  C. Ochsenfeld,  J. A. Parkhill,  R. Peverati,  
 V. A. Rassolov,  Yihan Shao,  L. V. Slipchenko,  T. Stauch,  R. P. Steele,  
 J. E. Subotnik,  A. J. W. Thom,  A. Tkatchenko,  D. G. Truhlar,  
 T. Van Voorhis,  T. A. Wesolowski,  K. B. Whaley,  H. L. Woodcock III,  
 P. M. Zimmerman,  S. Faraji,  P. M. W. Gill,  M. Head-Gordon,  
 J. M. Herbert,  A. I. Krylov

 Contributors to earlier versions of Q-Chem not listed above: 
 R. D. Adamson,  B. Austin,  R. Baer,  J. Baker,  G. J. O. Beran,  
 K. Brandhorst,  S. T. Brown,  E. F. C. Byrd,  A. K. Chakraborty,  
 G. K. L. Chan,  Chun-Min Chang,  Yunqing Chen,  C.-L. Cheng,  
 Siu Hung Chien,  D. M. Chipman,  D. L. Crittenden,  H. Dachsel,  
 R. J. Doerksen,  A. D. Dutoi,  R. G. Edgar,  J. Fosso-Tande,  
 L. Fusti-Molnar,  D. Ghosh,  A. Ghysels,  A. Golubeva-Zadorozhnaya,  
 J. Gonthier,  M. S. Gordon,  S. R. Gwaltney,  G. Hawkins,  J. E. Herr,  
 A. Heyden,  S. Hirata,  E. G. Hohenstein,  G. Kedziora,  F. J. Keil,  
 C. Kelley,  Jihan Kim,  R. A. King,  R. Z. Khaliullin,  P. P. Korambath,  
 W. Kurlancheek,  A. Laurent,  A. M. Lee,  M. S. Lee,  S. V. Levchenko,  
 Ching Yeh Lin,  D. Liotard,  E. Livshits,  R. C. Lochan,  I. Lotan,  
 L. A. Martinez-Martinez,  P. E. Maslen,  N. Nair,  D. P. O'Neill,  
 D. Neuhauser,  E. Neuscamman,  C. M. Oana,  R. Olivares-Amaya,  R. Olson,  
 T. M. Perrine,  B. Peters,  P. A. Pieniazek,  A. Prociuk,  Y. M. Rhee,  
 J. Ritchie,  M. A. Rohrdanz,  E. Rosta,  N. J. Russ,  H. F. Schaefer III,  
 M. W. Schmidt,  N. E. Schultz,  S. Sharma,  N. Shenvi,  C. D. Sherrill,  
 A. C. Simmonett,  A. Sodt,  T. Stein,  D. Stuck,  K. S. Thanthiriwatte,  
 V. Vanovschi,  L. Vogt,  Tao Wang,  A. Warshel,  M. A. Watson,  
 C. F. Williams,  Q. Wu,  X. Xu,  Jun Yang,  W. Zhang,  Yan Zhao

 Please cite Q-Chem as follows:
 Y. Shao et al., Mol. Phys. 113, 184-215 (2015)
 DOI: 10.1080/00268976.2014.952696

 Q-Chem 5.4.0 for Intel X86 EM64T Linux

 Parts of Q-Chem use Armadillo 9.800.1 (Horizon Scraper).
 http://arma.sourceforge.net/

 Q-Chem begins on Sun Sep 24 19:05:41 2023  

 Host: 
0

     Scratch files written to ./qchem2537578//
 May1621 |scratch|qcdevops|jenkins|workspace|build_RNUM    
 Parallel job on  1  processors
 Processing $rem in /cm/shared/apps/spack/cpu/opt/spack/linux-centos8-zen2/gcc-10.2.0/qchem-5.4-akfmr7b3t57bfs6qan3padb2wnb2i7cl/config/preferences:
 Processing $rem in /home/rramji/.qchemrc:
 Symmetry turned off for PCM/SM12/SMD calculation
 Core orbitals will be frozen

 Checking the input file for inconsistencies... 	...done.

 Q-Chem warning in module forms1/BasisType.C, line 2236:

 You are not using the predefined 5D/6D in this basis set.


--------------------------------------------------------------
User input:
--------------------------------------------------------------
$molecule
0 1
C	0.235306	-8.519741	0.136647
C	-0.772334	-7.635967	-0.221346
S	1.702286	-7.651740	0.650746
C	-0.408807	-6.261894	-0.090779
H	-1.761423	-7.954738	-0.573754
C	0.932876	-6.079985	0.397735
C	1.479069	-4.798382	0.568166
C	-1.241204	-5.153542	-0.418347
C	-0.693206	-3.869626	-0.251852
C	0.648921	-3.688927	0.239872
O	-2.493437	-5.481075	-0.842486
O	2.737331	-4.479871	0.993092
C	3.416110	-5.356026	1.884752
H	4.284447	-4.790496	2.273124
H	3.793352	-6.268513	1.373310
H	2.766716	-5.658187	2.734702
C	-3.264581	-4.546999	-1.588030
H	-4.136519	-5.107564	-1.974995
H	-2.690439	-4.131473	-2.443843
H	-3.636177	-3.712085	-0.955140
C	1.009848	-2.314326	0.367068
S	-1.459936	-2.295487	-0.517386
C	0.000000	-1.435180	0.000000
H	1.997308	-1.993211	0.721689
C	0.000000	0.000000	0.000000
S	0.309721	0.844422	1.510732
C	0.847502	2.325108	0.727629
C	0.310602	0.853460	-1.064665
C	0.784173	2.159014	-0.678287
C	0.289451	0.790512	-2.486150
C	0.721927	1.979112	-3.106916
S	1.145464	3.152519	-1.965735
C	0.813355	2.216642	-4.559972
O	0.496884	1.338418	-5.350277
O	1.255274	3.421340	-5.004375
F	-0.087923	-0.257761	-3.246290
C	1.387494	3.754937	-6.334976
H	1.765978	4.793056	-6.370268
H	0.417095	3.693789	-6.875609
H	2.098820	3.081033	-6.861878
H	1.162229	3.189623	1.321510
H	0.533380	-9.146471	-0.712022
H	-0.067771	-9.150570	0.980494
H	0.361406	-1.444158	-1.017696
$end

$rem
JOBTYPE		SP
EXCHANGE	HF
CORRELATION	pRIMP2
BASIS		cc-pvtz
METHOD		rimp2
AUX_BASIS	rimp2-cc-pvtz
SOLVENT_METHOD	PCM
PURECART	11111
SYMMETRY	false
MEM_TOTAL	110000
SCF_CONVERGENCE = 6
THRESH=10
GUI = 2
$end



$solvent
dielectric 4.90
$end
--------------------------------------------------------------
 ----------------------------------------------------------------
             Standard Nuclear Orientation (Angstroms)
    I     Atom           X                Y                Z
 ----------------------------------------------------------------
    1      C       0.2353060000    -8.5197410000     0.1366470000
    2      C      -0.7723340000    -7.6359670000    -0.2213460000
    3      S       1.7022860000    -7.6517400000     0.6507460000
    4      C      -0.4088070000    -6.2618940000    -0.0907790000
    5      H      -1.7614230000    -7.9547380000    -0.5737540000
    6      C       0.9328760000    -6.0799850000     0.3977350000
    7      C       1.4790690000    -4.7983820000     0.5681660000
    8      C      -1.2412040000    -5.1535420000    -0.4183470000
    9      C      -0.6932060000    -3.8696260000    -0.2518520000
   10      C       0.6489210000    -3.6889270000     0.2398720000
   11      O      -2.4934370000    -5.4810750000    -0.8424860000
   12      O       2.7373310000    -4.4798710000     0.9930920000
   13      C       3.4161100000    -5.3560260000     1.8847520000
   14      H       4.2844470000    -4.7904960000     2.2731240000
   15      H       3.7933520000    -6.2685130000     1.3733100000
   16      H       2.7667160000    -5.6581870000     2.7347020000
   17      C      -3.2645810000    -4.5469990000    -1.5880300000
   18      H      -4.1365190000    -5.1075640000    -1.9749950000
   19      H      -2.6904390000    -4.1314730000    -2.4438430000
   20      H      -3.6361770000    -3.7120850000    -0.9551400000
   21      C       1.0098480000    -2.3143260000     0.3670680000
   22      S      -1.4599360000    -2.2954870000    -0.5173860000
   23      C       0.0000000000    -1.4351800000     0.0000000000
   24      H       1.9973080000    -1.9932110000     0.7216890000
   25      C       0.0000000000     0.0000000000     0.0000000000
   26      S       0.3097210000     0.8444220000     1.5107320000
   27      C       0.8475020000     2.3251080000     0.7276290000
   28      C       0.3106020000     0.8534600000    -1.0646650000
   29      C       0.7841730000     2.1590140000    -0.6782870000
   30      C       0.2894510000     0.7905120000    -2.4861500000
   31      C       0.7219270000     1.9791120000    -3.1069160000
   32      S       1.1454640000     3.1525190000    -1.9657350000
   33      C       0.8133550000     2.2166420000    -4.5599720000
   34      O       0.4968840000     1.3384180000    -5.3502770000
   35      O       1.2552740000     3.4213400000    -5.0043750000
   36      F      -0.0879230000    -0.2577610000    -3.2462900000
   37      C       1.3874940000     3.7549370000    -6.3349760000
   38      H       1.7659780000     4.7930560000    -6.3702680000
   39      H       0.4170950000     3.6937890000    -6.8756090000
   40      H       2.0988200000     3.0810330000    -6.8618780000
   41      H       1.1622290000     3.1896230000     1.3215100000
   42      H       0.5333800000    -9.1464710000    -0.7120220000
   43      H      -0.0677710000    -9.1505700000     0.9804940000
   44      H       0.3614060000    -1.4441580000    -1.0176960000
 ----------------------------------------------------------------
 Nuclear Repulsion Energy =        3364.98932950 hartrees
 There are      120 alpha and      120 beta electrons
 Requested basis set is cc-pVTZ
 There are 388 shells and 1096 basis functions

 Total QAlloc Memory Limit 110000 MB
 Mega-Array Size       188 MB
 MEM_STATIC part       192 MB
 Discretize the solute cavity surface with Lebedev spheres
	Using 110 Lebedev grid points for each H atom
	Using 194 Lebedev grid points for other atoms
	Atomic van der Waals radii will be scaled by 1.20
 Remove points where switching function is < 1.0e-08
 Keep 2986 surface tesserae and discard 4290 interior tesserae
 Molecular Surface Area = 442.574 Angst**2
 Requested basis set is rimp2-cc-pVTZ
 There are 853 shells and 2963 basis functions
 A cutoff of  1.0D-10 yielded  33451 shell pairs
 There are    252249 function pairs (    326260 Cartesian)
 Smallest overlap matrix eigenvalue = 2.16E-05

 Scale SEOQF with 1.000000e-01/1.000000e-02/1.000000e-02

 Standard Electronic Orientation quadrupole field applied
 Nucleus-field energy     =     0.0000000361 hartrees
 Guess from superposition of atomic densities
 Warning:  Energy on first SCF cycle will be non-variational
 SAD guess density has 240.000000 electrons

 -----------------------------------------------------------------------
  General SCF calculation program by
  Eric Jon Sundstrom, Paul Horn, Yuezhi Mao, Dmitri Zuev, Alec White,
  David Stuck, Shaama M.S., Shane Yost, Joonho Lee, David Small,
  Daniel Levine, Susi Lehtola, Hugh Burton, Evgeny Epifanovsky,
  Bang C. Huynh
 -----------------------------------------------------------------------
 Hartree-Fock
 using 64 threads for integral computing
 -------------------------------------------------------
 OpenMP Integral computing Module                
 Release: version 1.0, May 2013, Q-Chem Inc. Pittsburgh 
 -------------------------------------------------------
 A restricted SCF calculation will be
 performed using DIIS
 SCF converges when DIIS error is below 1.0e-06
 ---------------------------------------
  Cycle       Energy         DIIS error
 ---------------------------------------
    1   -2767.3503659993      1.77e-02  
    2   -2754.8673573352      1.54e-03  
    3   -2755.2154272972      8.76e-04  
    4   -2755.3053896529      2.55e-04  
    5   -2755.3188821810      7.18e-05  
    6   -2755.3203485470      2.56e-05  
    7   -2755.3207323026      1.34e-05  
    8   -2755.3208564102      5.76e-06  
    9   -2755.3208872792      3.03e-06  
   10   -2755.3208948445      1.43e-06  
   11   -2755.3208969919      7.11e-07  Convergence criterion met
 ---------------------------------------
 SCF time:   CPU 7574.41s  wall 274.00s 

************** Final PCM Free Energy Summary **************
 G_electrostatic  =      -0.02163141 hartree =     -13.57391754 kcal/mol
 G_cavitation     =       0.00000000 hartree =       0.00000000 kcal/mol
 G_dispersion     =       0.00000000 hartree =       0.00000000 kcal/mol
 G_repulsion      =       0.00000000 hartree =       0.00000000 kcal/mol
 --------------------------------------------------
 Non-electrostatic Free Energy =       0.00000000 hartree =       0.00000000 kcal/mol
 Total                         =      -0.02163141 hartree =     -13.57391754 kcal/mol
 --------------------------------------------------
 SCF Energy (H0 + V/2)                       =   -2755.32089699 
 Solute Internal Energy (H0)                 =   -2755.29926558 
 Total Free Energy (H0 + V/2 + non-elec)     =   -2755.32089699 hartree
                                             = -1728989.95850663 kcal/mol
***********************************************************

 SCF   energy in the final basis set =    -2755.3208969919
 Total energy in the final basis set =    -2755.3208969919


 --------------------------------------------------------------
  Generalized many-body perturbation theory program
  by Joonho Lee, Fazle Rob, Xintian Feng, Evgeny Epifanovsky

 No regularization used 
 (reg. param. = 0.0000e+00)
  (P|Q)^-1/2 Time:  CPU 118.45 s  wall 2.08 s

 In RI-MP2 calculation: 
 # of frozen core orbitals: 45

 Components of the RIMP2 correlation energy:
        aaaa    correlation energy =        -0.6705488798 a.u.
        abab    correlation energy =        -3.7529219271 a.u.
        bbbb    correlation energy =        -0.6705488798 a.u.
        non-Brillouin singles      =        -0.0000000000 a.u.
        total same-spin energy     =        -1.3410977595 a.u.
        total opposite-spin energy =        -3.7529219271 a.u.

 Total  RIMP2   correlation energy =        -5.0940196867 a.u.
        RIMP2         total energy =     -2760.4149166786 a.u.

 RI-MP2 Energy Time:  CPU 2953.77 s  wall 47.97 s
 
 --------------------------------------------------------------
 
                    Orbital Energies (a.u.)
 --------------------------------------------------------------
 
 Alpha MOs
 -- Occupied --
-92.0144 -91.9976 -91.9750 -91.9582 -26.3383 -20.6136 -20.5872 -20.5861
-20.5524 -11.4125 -11.3792 -11.3110 -11.3089 -11.3063 -11.3015 -11.2985
-11.2973 -11.2894 -11.2859 -11.2834 -11.2829 -11.2821 -11.2801 -11.2731
-11.2724 -11.2581 -11.2579 -11.2495 -11.2367  -9.0129  -9.0016  -8.9773
 -8.9608  -6.6936  -6.6930  -6.6927  -6.6828  -6.6822  -6.6808  -6.6584
 -6.6575  -6.6562  -6.6420  -6.6411  -6.6401  -1.6515  -1.4735  -1.4098
 -1.4087  -1.3690  -1.2401  -1.2080  -1.1751  -1.1439  -1.0997  -1.0525
 -1.0454  -1.0301  -1.0083  -0.9972  -0.9732  -0.9593  -0.9484  -0.9410
 -0.8926  -0.8748  -0.8621  -0.8106  -0.7934  -0.7850  -0.7811  -0.7689
 -0.7624  -0.7334  -0.7198  -0.7193  -0.6977  -0.6922  -0.6877  -0.6799
 -0.6762  -0.6739  -0.6550  -0.6482  -0.6306  -0.6291  -0.6199  -0.6148
 -0.6105  -0.6079  -0.5970  -0.5941  -0.5820  -0.5649  -0.5576  -0.5547
 -0.5521  -0.5315  -0.5280  -0.5214  -0.5128  -0.5074  -0.5037  -0.5005
 -0.4883  -0.4859  -0.4770  -0.4682  -0.4632  -0.4625  -0.4598  -0.4456
 -0.4245  -0.4019  -0.3848  -0.3697  -0.3501  -0.2937  -0.2883  -0.2199
 -- Virtual --
  0.0239   0.0520   0.1130   0.1326   0.1399   0.1476   0.1543   0.1552
  0.1596   0.1616   0.1671   0.1731   0.1815   0.1855   0.1877   0.1892
  0.2014   0.2028   0.2055   0.2091   0.2179   0.2210   0.2233   0.2261
  0.2289   0.2306   0.2407   0.2444   0.2525   0.2575   0.2650   0.2697
  0.2778   0.2940   0.3093   0.3163   0.3260   0.3348   0.3381   0.3471
  0.3527   0.3575   0.3598   0.3653   0.3678   0.3714   0.3780   0.3800
  0.3850   0.3889   0.3920   0.3985   0.4043   0.4111   0.4115   0.4182
  0.4273   0.4283   0.4317   0.4356   0.4389   0.4403   0.4450   0.4477
  0.4528   0.4565   0.4618   0.4653   0.4693   0.4771   0.4786   0.4825
  0.4888   0.4908   0.4998   0.5011   0.5046   0.5120   0.5136   0.5152
  0.5242   0.5267   0.5307   0.5340   0.5400   0.5479   0.5531   0.5536
  0.5555   0.5570   0.5588   0.5647   0.5692   0.5735   0.5783   0.5793
  0.5827   0.5862   0.5891   0.5942   0.5963   0.6021   0.6049   0.6086
  0.6149   0.6155   0.6174   0.6226   0.6254   0.6265   0.6296   0.6302
  0.6370   0.6396   0.6433   0.6438   0.6474   0.6530   0.6537   0.6600
  0.6613   0.6677   0.6720   0.6792   0.6828   0.6873   0.6891   0.6934
  0.7038   0.7087   0.7109   0.7139   0.7176   0.7192   0.7253   0.7449
  0.7459   0.7524   0.7587   0.7635   0.7702   0.7753   0.7781   0.7848
  0.7890   0.7962   0.7982   0.8016   0.8103   0.8127   0.8161   0.8239
  0.8309   0.8371   0.8481   0.8493   0.8623   0.8720   0.8771   0.8821
  0.8898   0.8904   0.8948   0.8999   0.9057   0.9068   0.9124   0.9187
  0.9219   0.9261   0.9308   0.9351   0.9397   0.9415   0.9507   0.9529
  0.9615   0.9655   0.9743   0.9787   0.9800   0.9839   0.9870   0.9918
  0.9955   0.9999   1.0024   1.0106   1.0136   1.0180   1.0210   1.0271
  1.0290   1.0365   1.0438   1.0450   1.0482   1.0559   1.0615   1.0641
  1.0739   1.0797   1.0836   1.0871   1.0915   1.0973   1.1013   1.1047
  1.1109   1.1187   1.1208   1.1272   1.1342   1.1371   1.1489   1.1529
  1.1568   1.1593   1.1635   1.1668   1.1685   1.1772   1.1788   1.1822
  1.1854   1.1884   1.1955   1.1981   1.2040   1.2079   1.2127   1.2160
  1.2222   1.2253   1.2368   1.2403   1.2420   1.2482   1.2510   1.2540
  1.2601   1.2674   1.2701   1.2732   1.2807   1.2901   1.2926   1.2982
  1.3005   1.3099   1.3106   1.3154   1.3310   1.3350   1.3371   1.3399
  1.3474   1.3539   1.3620   1.3672   1.3772   1.3831   1.3931   1.3967
  1.4048   1.4072   1.4112   1.4204   1.4310   1.4331   1.4412   1.4435
  1.4606   1.4692   1.4766   1.4797   1.4870   1.4916   1.4925   1.5003
  1.5039   1.5073   1.5115   1.5125   1.5231   1.5263   1.5358   1.5403
  1.5407   1.5460   1.5472   1.5522   1.5601   1.5636   1.5718   1.5841
  1.5882   1.5958   1.6026   1.6126   1.6182   1.6257   1.6300   1.6401
  1.6484   1.6499   1.6542   1.6615   1.6701   1.6750   1.6829   1.6864
  1.6918   1.7022   1.7105   1.7120   1.7225   1.7271   1.7310   1.7442
  1.7557   1.7589   1.7697   1.7810   1.7935   1.8014   1.8114   1.8169
  1.8257   1.8332   1.8350   1.8457   1.8510   1.8601   1.8663   1.8702
  1.8740   1.8795   1.8876   1.9073   1.9215   1.9229   1.9267   1.9274
  1.9407   1.9446   1.9498   1.9555   1.9726   1.9920   1.9951   2.0131
  2.0136   2.0207   2.0298   2.0346   2.0377   2.0441   2.0470   2.0561
  2.0694   2.0739   2.0938   2.0973   2.1024   2.1173   2.1207   2.1296
  2.1436   2.1513   2.1555   2.1602   2.1794   2.1811   2.1861   2.1929
  2.1962   2.1997   2.2085   2.2176   2.2210   2.2243   2.2359   2.2404
  2.2482   2.2578   2.2674   2.2755   2.2811   2.2915   2.2975   2.3000
  2.3140   2.3241   2.3285   2.3323   2.3500   2.3565   2.3637   2.3708
  2.3796   2.3836   2.3868   2.3949   2.4014   2.4154   2.4165   2.4371
  2.4379   2.4437   2.4630   2.4696   2.4811   2.4822   2.4887   2.4990
  2.5124   2.5136   2.5280   2.5357   2.5438   2.5563   2.5662   2.5773
  2.5845   2.5887   2.5982   2.6027   2.6142   2.6184   2.6256   2.6268
  2.6344   2.6411   2.6433   2.6484   2.6510   2.6576   2.6667   2.6785
  2.6796   2.6864   2.6952   2.6967   2.7026   2.7075   2.7146   2.7202
  2.7291   2.7338   2.7354   2.7435   2.7481   2.7613   2.7684   2.7741
  2.7798   2.7814   2.7930   2.7995   2.8092   2.8180   2.8214   2.8282
  2.8333   2.8441   2.8468   2.8533   2.8638   2.8708   2.8747   2.8752
  2.8802   2.8906   2.8963   2.8989   2.9102   2.9216   2.9379   2.9437
  2.9567   2.9624   2.9648   2.9664   2.9737   2.9801   2.9897   2.9987
  3.0092   3.0179   3.0262   3.0293   3.0382   3.0427   3.0449   3.0474
  3.0520   3.0636   3.0720   3.0797   3.0849   3.0902   3.0933   3.1005
  3.1072   3.1129   3.1143   3.1214   3.1291   3.1372   3.1425   3.1480
  3.1502   3.1564   3.1617   3.1657   3.1686   3.1759   3.1807   3.1876
  3.1929   3.1946   3.2028   3.2063   3.2086   3.2095   3.2195   3.2202
  3.2297   3.2335   3.2446   3.2517   3.2547   3.2585   3.2624   3.2678
  3.2695   3.2762   3.2807   3.2839   3.2895   3.2932   3.2945   3.2965
  3.3063   3.3093   3.3126   3.3149   3.3268   3.3315   3.3392   3.3412
  3.3420   3.3499   3.3550   3.3568   3.3604   3.3652   3.3667   3.3686
  3.3716   3.3790   3.3894   3.3907   3.3969   3.4009   3.4019   3.4055
  3.4137   3.4219   3.4280   3.4302   3.4326   3.4376   3.4388   3.4455
  3.4480   3.4513   3.4613   3.4678   3.4743   3.4747   3.4824   3.4838
  3.4910   3.4979   3.5044   3.5086   3.5176   3.5196   3.5259   3.5323
  3.5387   3.5511   3.5556   3.5568   3.5608   3.5727   3.5762   3.5823
  3.5855   3.5894   3.5901   3.6007   3.6026   3.6085   3.6160   3.6236
  3.6275   3.6316   3.6354   3.6365   3.6432   3.6499   3.6559   3.6612
  3.6638   3.6674   3.6710   3.6766   3.6822   3.6889   3.6907   3.6948
  3.7021   3.7073   3.7115   3.7174   3.7188   3.7267   3.7294   3.7327
  3.7362   3.7381   3.7491   3.7556   3.7557   3.7638   3.7687   3.7786
  3.7852   3.7941   3.7977   3.8041   3.8094   3.8123   3.8150   3.8208
  3.8246   3.8307   3.8342   3.8420   3.8458   3.8481   3.8542   3.8586
  3.8693   3.8734   3.8749   3.8851   3.8876   3.8972   3.9052   3.9078
  3.9179   3.9283   3.9330   3.9368   3.9462   3.9525   3.9556   3.9618
  3.9694   3.9716   3.9764   3.9872   3.9977   4.0006   4.0052   4.0166
  4.0215   4.0363   4.0442   4.0459   4.0521   4.0568   4.0640   4.0681
  4.0733   4.0813   4.0851   4.0900   4.0964   4.1031   4.1140   4.1169
  4.1260   4.1467   4.1487   4.1625   4.1645   4.1689   4.1735   4.1795
  4.1811   4.1902   4.1951   4.2082   4.2143   4.2214   4.2333   4.2386
  4.2460   4.2553   4.2647   4.2748   4.2816   4.2854   4.2917   4.3121
  4.3200   4.3259   4.3267   4.3439   4.3468   4.3497   4.3532   4.3636
  4.3754   4.3763   4.3859   4.3915   4.3961   4.4007   4.4095   4.4176
  4.4198   4.4238   4.4270   4.4333   4.4364   4.4404   4.4584   4.4616
  4.4744   4.4767   4.4940   4.4974   4.5001   4.5137   4.5239   4.5243
  4.5297   4.5479   4.5598   4.5623   4.5680   4.5729   4.5779   4.5892
  4.6000   4.6026   4.6244   4.6288   4.6342   4.6390   4.6420   4.6437
  4.6503   4.6696   4.6746   4.6831   4.7044   4.7069   4.7171   4.7213
  4.7375   4.7495   4.7594   4.7608   4.7822   4.7911   4.8021   4.8133
  4.8245   4.8316   4.8338   4.8506   4.8718   4.8844   4.8895   4.8997
  4.9081   4.9202   4.9373   4.9468   4.9556   4.9610   4.9691   4.9723
  4.9853   5.0063   5.0093   5.0111   5.0311   5.0402   5.0455   5.0475
  5.0842   5.0874   5.0980   5.1082   5.1332   5.1586   5.1643   5.1788
  5.1812   5.1946   5.1986   5.2054   5.2104   5.2212   5.2275   5.2452
  5.2553   5.2582   5.2779   5.2838   5.2949   5.3050   5.3187   5.3273
  5.3345   5.3456   5.3543   5.3595   5.3723   5.3769   5.3915   5.3998
  5.4039   5.4083   5.4353   5.4439   5.4544   5.4697   5.4723   5.4904
  5.5088   5.5130   5.5213   5.5347   5.5647   5.5684   5.5796   5.5884
  5.6019   5.6116   5.6159   5.6369   5.6379   5.6612   5.6909   5.7005
  5.7063   5.7437   5.7635   5.7841   5.7994   5.8214   5.8368   5.8597
  5.8654   5.8864   5.9053   5.9480   5.9670   5.9679   5.9799   6.0034
  6.0387   6.0538   6.1204   6.1233   6.1326   6.1421   6.1723   6.1793
  6.1846   6.1919   6.2253   6.2399   6.2549   6.2687   6.2849   6.2931
  6.3073   6.3344   6.3692   6.4313   6.4537   6.4834   6.5166   6.5473
  6.5547   6.5659   6.6470   6.6750   6.6841   6.7144   6.7363   6.7423
  6.8069   6.8560   6.8585   6.8816   6.9002   6.9892   7.1324   7.1472
  7.1769   7.2100   7.2229   7.2393   7.3246   7.3269   7.3416   7.3699
  7.3728   7.4271   7.4611   7.4827   7.4874   7.4971   7.5164   7.5475
  7.6178   7.7384   7.7675   7.8033   7.8304   7.9135   7.9271   7.9573
  8.0029   8.1241   8.3559   8.5977   8.9290   9.0076   9.3610   9.4977
  9.7049  10.2688  11.2382  11.4016  11.9171  11.9474  12.1227  12.3295
 12.4114  12.4903  12.7218  12.9478  13.0008  13.2253  13.4802  13.5835
 13.6430  13.8722  13.9348  13.9686  14.2084  14.3129  14.9767  15.2203
 --------------------------------------------------------------
 
          Ground-State Mulliken Net Atomic Charges

     Atom                 Charge (a.u.)
  ----------------------------------------
      1 C                    -0.070255
      2 C                    -0.259589
      3 S                    -0.135201
      4 C                    -0.045444
      5 H                     0.193498
      6 C                    -0.051561
      7 C                     0.222109
      8 C                     0.230432
      9 C                    -0.082731
     10 C                    -0.048224
     11 O                    -0.335712
     12 O                    -0.343709
     13 C                    -0.082432
     14 H                     0.119780
     15 H                     0.092010
     16 H                     0.092665
     17 C                    -0.086443
     18 H                     0.122562
     19 H                     0.093473
     20 H                     0.089677
     21 C                    -0.254020
     22 S                    -0.071112
     23 C                     0.040595
     24 H                     0.209222
     25 C                    -0.065610
     26 S                     0.100609
     27 C                    -0.229746
     28 C                    -0.088718
     29 C                    -0.004294
     30 C                     0.360128
     31 C                    -0.129255
     32 S                     0.046426
     33 C                     0.458100
     34 O                    -0.447561
     35 O                    -0.297444
     36 F                    -0.212984
     37 C                    -0.054933
     38 H                     0.116979
     39 H                     0.084967
     40 H                     0.084821
     41 H                     0.215246
     42 H                     0.117523
     43 H                     0.114917
     44 H                     0.191235
  ----------------------------------------
  Sum of atomic charges =     0.000000

 -----------------------------------------------------------------
                    Cartesian Multipole Moments
 -----------------------------------------------------------------
    Charge (ESU x 10^10)
                -0.0000
    Dipole Moment (Debye)
         X       1.4239      Y       3.6666      Z       2.4745
       Tot       4.6470
    Quadrupole Moments (Debye-Ang)
        XX    -188.4871     XY       8.7490     YY    -175.7894
        XZ       5.0820     YZ      -9.4536     ZZ    -198.2384
    Octopole Moments (Debye-Ang^2)
       XXX    -218.5101    XXY     359.3268    XYY     -81.2327
       YYY    1034.9190    XXZ     165.0384    XYZ     -60.5893
       YYZ     118.1113    XZZ     -28.5152    YZZ     478.5990
       ZZZ     523.6623
    Hexadecapole Moments (Debye-Ang^3)
      XXXX   -2476.3080   XXXY       7.0564   XXYY   -3986.4120
      XYYY     349.7582   YYYY  -19581.3050   XXXZ     184.9873
      XXYZ     492.7398   XYYZ     141.5566   YYYZ    1468.0107
      XXZZ   -1320.3277   XYZZ     163.6527   YYZZ   -4143.3960
      XZZZ    -179.6774   YZZZ     910.6698   ZZZZ   -5912.6886
 -----------------------------------------------------------------
 Total job time:  327.53s(wall), 10643.27s(cpu) 
 Sun Sep 24 19:11:09 2023

        *************************************************************
        *                                                           *
        *  Thank you very much for using Q-Chem.  Have a nice day.  *
        *                                                           *
        *************************************************************


0 sent ACK to 0 
now end server 0 ... 
cleanup process ... done
remove work dirs ./qchem2537578.0 -- ./qchem2537578.0
rm -rf ./qchem2537578.0
rm -rf ./qchem2537578
