You are running Q-Chem version: 5.4.0

#
# job setting
#
local host:  exp-2-55
current dir: /expanse/lustre/projects/csd626/rramji/aromodel/PTB7_fin/Hydrogenated_Rotation_Test
input file:  fin_bdt_Phi_10_Theta_90_fin_ftt_Hydrogenated.qcin
output file: 
nprocs     : 1
nthreads   : 64
#
# qchem installation setting
#
QC:          /cm/shared/apps/spack/cpu/opt/spack/linux-centos8-zen2/gcc-10.2.0/qchem-5.4-akfmr7b3t57bfs6qan3padb2wnb2i7cl
QCAUX:       /cm/shared/apps/spack/cpu/opt/spack/linux-centos8-zen2/gcc-10.2.0/qchem-5.4-akfmr7b3t57bfs6qan3padb2wnb2i7cl/qcaux
QCPROG:      /cm/shared/apps/spack/cpu/opt/spack/linux-centos8-zen2/gcc-10.2.0/qchem-5.4-akfmr7b3t57bfs6qan3padb2wnb2i7cl/exe/qcprog.exe
QCPROG_S:    /cm/shared/apps/spack/cpu/opt/spack/linux-centos8-zen2/gcc-10.2.0/qchem-5.4-akfmr7b3t57bfs6qan3padb2wnb2i7cl/exe/qcprog.exe_s
PARALLEL:    -DPARALLEL
QCMPI:       mpich
#
# qchem directory setting
#
qcrun:       qchem3492375
QCSCRATCH:   .
QCLOCALSCR:  
QCTMPDIR:    .
QCFILEPREF:  ./qchem3492375
QCSAVEDIR:   
workdirs:    ./qchem3492375
workdir0:    ./qchem3492375
partmpdirs =  
#
# parallel setting
#
QCRSH:           ssh
QCMPI:           mpich
QCMPIRUN:        /cm/shared/apps/spack/cpu/opt/spack/linux-centos8-zen2/gcc-10.2.0/qchem-5.4-akfmr7b3t57bfs6qan3padb2wnb2i7cl/bin/mpi/mpirun_qchem
QCMACHINEFILE:   ./qchem3492375/hostfile
exp-2-55

#
# env setting
#
exported envs:   QC QCAUX QCSCRATCH QCRUNNAME QCFILEPREF QCPROG QCPROG_S GUIFILE

Running Job 1 of 1 fin_bdt_Phi_10_Theta_90_fin_ftt_Hydrogenated.qcin
qchem fin_bdt_Phi_10_Theta_90_fin_ftt_Hydrogenated.qcin_3492375.0 ./qchem3492375/ 1
/cm/shared/apps/spack/cpu/opt/spack/linux-centos8-zen2/gcc-10.2.0/qchem-5.4-akfmr7b3t57bfs6qan3padb2wnb2i7cl/bin/mpi/mpirun_qchem -machinefile ./qchem3492375/hostfile -np 1 /cm/shared/apps/spack/cpu/opt/spack/linux-centos8-zen2/gcc-10.2.0/qchem-5.4-akfmr7b3t57bfs6qan3padb2wnb2i7cl/exe/qcprog.exe fin_bdt_Phi_10_Theta_90_fin_ftt_Hydrogenated.qcin_3492375.0 ./qchem3492375/

Process 0 of 1 is on exp-2-55 - thread support 0
initial socket setup ...start
initial socket setup ...done 
now start server 0 ... 
                  Welcome to Q-Chem
     A Quantum Leap Into The Future Of Chemistry


 Q-Chem 5.4, Q-Chem, Inc., Pleasanton, CA (2021)

 License issued to: University of California, San Diego (site)

 E. Epifanovsky,  A. T. B. Gilbert,  Xintian Feng,  Joonho Lee,  Yuezhi Mao,  
 N. Mardirossian,  P. Pokhilko,  A. White,  M. Wormit,  M. P. Coons,  
 A. L. Dempwolff,  Zhengting Gan,  D. Hait,  P. R. Horn,  L. D. Jacobson,  
 I. Kaliman,  J. Kussmann,  A. W. Lange,  Ka Un Lao,  D. S. Levine,  Jie Liu,  
 S. C. McKenzie,  A. F. Morrison,  K. Nanda,  F. Plasser,  D. R. Rehn,  
 M. L. Vidal,  Zhi-Qiang You,  Ying Zhu,  B. Alam,  B. Albrecht,  
 A. Aldossary,  E. Alguire,  J. H. Andersen,  D. Barton,  K. Begam,  A. Behn,  
 Y. A. Bernard,  E. J. Berquist,  H. Burton,  A. Carreras,  K. Carter-Fenk,  
 R. Chakraborty,  A. D. Chien,  K. D. Closser,  V. Cofer-Shabica,  
 S. Dasgupta,  Jia Deng,  M. de Wergifosse,  M. Diedenhofen,  Hainam Do,  
 S. Ehlert,  Po-Tung Fang,  S. Fatehi,  Qingguo Feng,  J. Gayvert,  
 Qinghui Ge,  G. Gidofalvi,  M. Goldey,  J. Gomes,  C. Gonzalez-Espinoza,  
 S. Gulania,  A. Gunina,  M. W. D. Hanson-Heine,  P. H. P. Harbach,  
 A. W. Hauser,  M. F. Herbst,  M. Hernandez Vera,  M. Hodecker,  
 Z. C. Holden,  S. Houck,  Xunkun Huang,  Kerwin Hui,  B. C. Huynh,  
 M. Ivanov,  Hyunjun Ji,  Hanjie Jiang,  B. Kaduk,  S. Kaehler,  
 K. Khistyaev,  Jaehoon Kim,  P. Klunzinger,  Z. Koczor-Benda,  
 Joong Hoon Koh,  D. Kosenkov,  L. Koulias,  T. Kowalczyk,  C. M. Krauter,  
 K. Kue,  A. Kunitsa,  T. Kus,  A. Landau,  K. V. Lawler,  D. Lefrancois,  
 S. Lehtola,  Rain Li,  Yi-Pei Li,  Jiashu Liang,  M. Liebenthal,  
 Hung-Hsuan Lin,  You-Sheng Lin,  Fenglai Liu,  Kuan-Yu Liu,  
 M. Loipersberger,  A. Luenser,  A. Manjanath,  P. Manohar,  E. Mansoor,  
 S. F. Manzer,  Shan-Ping Mao,  A. V. Marenich,  T. Markovich,  S. Mason,  
 S. A. Maurer,  P. F. McLaughlin,  M. F. S. J. Menger,  J.-M. Mewes,  
 S. A. Mewes,  P. Morgante,  J. W. Mullinax,  T. S. Nguyen-Beck,  
 K. J. Oosterbaan,  G. Paran,  Alexander C. Paul,  Suranjan K. Paul,  
 F. Pavosevic,  Zheng Pei,  S. Prager,  E. I. Proynov,  E. Ramos,  B. Rana,  
 A. E. Rask,  A. Rettig,  R. M. Richard,  F. Rob,  E. Rossomme,  T. Scheele,  
 M. Scheurer,  M. Schneider,  N. Sergueev,  S. M. Sharada,  W. Skomorowski,  
 D. W. Small,  C. J. Stein,  Yu-Chuan Su,  E. J. Sundstrom,  Zhen Tao,  
 J. Thirman,  T. Tsuchimochi,  N. M. Tubman,  S. P. Veccham,  O. Vydrov,  
 J. Wenzel,  J. Witte,  A. Yamada,  Kun Yao,  S. Yeganeh,  S. R. Yost,  
 A. Zech,  Igor Ying Zhang,  Xing Zhang,  Yu Zhang,  D. Zuev,  
 A. Aspuru-Guzik,  A. T. Bell,  N. A. Besley,  K. B. Bravaya,  B. R. Brooks,  
 D. Casanova,  Jeng-Da Chai,  S. Coriani,  C. J. Cramer,  
 A. E. DePrince, III,  R. A. DiStasio Jr.,  A. Dreuw,  B. D. Dunietz,  
 T. R. Furlani,  W. A. Goddard III,  S. Grimme,  S. Hammes-Schiffer,  
 T. Head-Gordon,  W. J. Hehre,  Chao-Ping Hsu,  T.-C. Jagau,  Yousung Jung,  
 A. Klamt,  Jing Kong,  D. S. Lambrecht,  WanZhen Liang,  N. J. Mayhall,  
 C. W. McCurdy,  J. B. Neaton,  C. Ochsenfeld,  J. A. Parkhill,  R. Peverati,  
 V. A. Rassolov,  Yihan Shao,  L. V. Slipchenko,  T. Stauch,  R. P. Steele,  
 J. E. Subotnik,  A. J. W. Thom,  A. Tkatchenko,  D. G. Truhlar,  
 T. Van Voorhis,  T. A. Wesolowski,  K. B. Whaley,  H. L. Woodcock III,  
 P. M. Zimmerman,  S. Faraji,  P. M. W. Gill,  M. Head-Gordon,  
 J. M. Herbert,  A. I. Krylov

 Contributors to earlier versions of Q-Chem not listed above: 
 R. D. Adamson,  B. Austin,  R. Baer,  J. Baker,  G. J. O. Beran,  
 K. Brandhorst,  S. T. Brown,  E. F. C. Byrd,  A. K. Chakraborty,  
 G. K. L. Chan,  Chun-Min Chang,  Yunqing Chen,  C.-L. Cheng,  
 Siu Hung Chien,  D. M. Chipman,  D. L. Crittenden,  H. Dachsel,  
 R. J. Doerksen,  A. D. Dutoi,  R. G. Edgar,  J. Fosso-Tande,  
 L. Fusti-Molnar,  D. Ghosh,  A. Ghysels,  A. Golubeva-Zadorozhnaya,  
 J. Gonthier,  M. S. Gordon,  S. R. Gwaltney,  G. Hawkins,  J. E. Herr,  
 A. Heyden,  S. Hirata,  E. G. Hohenstein,  G. Kedziora,  F. J. Keil,  
 C. Kelley,  Jihan Kim,  R. A. King,  R. Z. Khaliullin,  P. P. Korambath,  
 W. Kurlancheek,  A. Laurent,  A. M. Lee,  M. S. Lee,  S. V. Levchenko,  
 Ching Yeh Lin,  D. Liotard,  E. Livshits,  R. C. Lochan,  I. Lotan,  
 L. A. Martinez-Martinez,  P. E. Maslen,  N. Nair,  D. P. O'Neill,  
 D. Neuhauser,  E. Neuscamman,  C. M. Oana,  R. Olivares-Amaya,  R. Olson,  
 T. M. Perrine,  B. Peters,  P. A. Pieniazek,  A. Prociuk,  Y. M. Rhee,  
 J. Ritchie,  M. A. Rohrdanz,  E. Rosta,  N. J. Russ,  H. F. Schaefer III,  
 M. W. Schmidt,  N. E. Schultz,  S. Sharma,  N. Shenvi,  C. D. Sherrill,  
 A. C. Simmonett,  A. Sodt,  T. Stein,  D. Stuck,  K. S. Thanthiriwatte,  
 V. Vanovschi,  L. Vogt,  Tao Wang,  A. Warshel,  M. A. Watson,  
 C. F. Williams,  Q. Wu,  X. Xu,  Jun Yang,  W. Zhang,  Yan Zhao

 Please cite Q-Chem as follows:
 Y. Shao et al., Mol. Phys. 113, 184-215 (2015)
 DOI: 10.1080/00268976.2014.952696

 Q-Chem 5.4.0 for Intel X86 EM64T Linux

 Parts of Q-Chem use Armadillo 9.800.1 (Horizon Scraper).
 http://arma.sourceforge.net/

 Q-Chem begins on Sun Sep 24 17:12:40 2023  

 Host: 
0

     Scratch files written to ./qchem3492375//
 May1621 |scratch|qcdevops|jenkins|workspace|build_RNUM    
 Parallel job on  1  processors
 Processing $rem in /cm/shared/apps/spack/cpu/opt/spack/linux-centos8-zen2/gcc-10.2.0/qchem-5.4-akfmr7b3t57bfs6qan3padb2wnb2i7cl/config/preferences:
 Processing $rem in /home/rramji/.qchemrc:
 Symmetry turned off for PCM/SM12/SMD calculation
 Core orbitals will be frozen

 Checking the input file for inconsistencies... 	...done.

 Q-Chem warning in module forms1/BasisType.C, line 2236:

 You are not using the predefined 5D/6D in this basis set.


--------------------------------------------------------------
User input:
--------------------------------------------------------------
$molecule
0 1
C	-0.267851	-8.519741	-0.047927
C	0.801461	-7.635967	-0.056157
S	-1.822194	-7.651740	-0.029285
C	0.415201	-6.261894	-0.054516
H	1.851431	-7.954738	-0.063290
C	-1.012650	-6.079985	-0.054687
C	-1.584194	-4.798382	-0.028030
C	1.309433	-5.153542	-0.031399
C	0.737539	-3.869626	-0.000427
C	-0.691828	-3.688927	-0.003462
O	2.631211	-5.481075	-0.061128
O	-2.911907	-4.479871	0.003021
C	-3.854716	-5.356026	-0.602710
H	-4.803517	-4.790496	-0.670671
H	-4.034285	-6.268513	0.006913
H	-3.535185	-5.658187	-1.623507
C	3.610841	-4.546999	0.375708
H	4.562544	-5.107564	0.441115
H	3.364029	-4.131473	1.376277
H	3.743566	-3.712085	-0.346107
C	-1.074491	-2.314326	0.000458
S	1.548848	-2.295487	-0.013144
C	-0.000000	-1.435180	-0.000000
H	-2.123688	-1.993211	0.004953
C	0.000000	0.000000	0.000000
S	0.158383	0.885376	1.510732
C	0.430876	2.436951	0.727629
C	0.157682	0.894430	-1.064665
C	0.397351	2.262384	-0.678287
C	0.147783	0.828765	-2.486150
C	0.367291	2.074406	-3.106916
S	0.580633	3.303533	-1.965735
C	0.416083	2.324204	-4.559972
O	0.256921	1.404367	-5.350277
O	0.642094	3.587338	-5.004375
F	-0.041828	-0.269113	-3.246290
C	0.714377	3.938827	-6.334976
H	0.906844	5.026898	-6.370268
H	-0.230661	3.710099	-6.875609
H	1.531918	3.398681	-6.861878
H	0.590699	3.342984	1.321510
H	-0.257688	-9.146471	0.851509
H	-0.271664	-9.150570	-0.944542
H	0.008462	-1.444158	1.079930
$end

$rem
JOBTYPE		SP
EXCHANGE	HF
CORRELATION	pRIMP2
BASIS		cc-pvtz
METHOD		rimp2
AUX_BASIS	rimp2-cc-pvtz
SOLVENT_METHOD	PCM
PURECART	11111
SYMMETRY	false
MEM_TOTAL	110000
SCF_CONVERGENCE = 6
THRESH=10
GUI = 2
$end



$solvent
dielectric 4.90
$end
--------------------------------------------------------------
 ----------------------------------------------------------------
             Standard Nuclear Orientation (Angstroms)
    I     Atom           X                Y                Z
 ----------------------------------------------------------------
    1      C      -0.2678510000    -8.5197410000    -0.0479270000
    2      C       0.8014610000    -7.6359670000    -0.0561570000
    3      S      -1.8221940000    -7.6517400000    -0.0292850000
    4      C       0.4152010000    -6.2618940000    -0.0545160000
    5      H       1.8514310000    -7.9547380000    -0.0632900000
    6      C      -1.0126500000    -6.0799850000    -0.0546870000
    7      C      -1.5841940000    -4.7983820000    -0.0280300000
    8      C       1.3094330000    -5.1535420000    -0.0313990000
    9      C       0.7375390000    -3.8696260000    -0.0004270000
   10      C      -0.6918280000    -3.6889270000    -0.0034620000
   11      O       2.6312110000    -5.4810750000    -0.0611280000
   12      O      -2.9119070000    -4.4798710000     0.0030210000
   13      C      -3.8547160000    -5.3560260000    -0.6027100000
   14      H      -4.8035170000    -4.7904960000    -0.6706710000
   15      H      -4.0342850000    -6.2685130000     0.0069130000
   16      H      -3.5351850000    -5.6581870000    -1.6235070000
   17      C       3.6108410000    -4.5469990000     0.3757080000
   18      H       4.5625440000    -5.1075640000     0.4411150000
   19      H       3.3640290000    -4.1314730000     1.3762770000
   20      H       3.7435660000    -3.7120850000    -0.3461070000
   21      C      -1.0744910000    -2.3143260000     0.0004580000
   22      S       1.5488480000    -2.2954870000    -0.0131440000
   23      C       0.0000000000    -1.4351800000     0.0000000000
   24      H      -2.1236880000    -1.9932110000     0.0049530000
   25      C       0.0000000000     0.0000000000     0.0000000000
   26      S       0.1583830000     0.8853760000     1.5107320000
   27      C       0.4308760000     2.4369510000     0.7276290000
   28      C       0.1576820000     0.8944300000    -1.0646650000
   29      C       0.3973510000     2.2623840000    -0.6782870000
   30      C       0.1477830000     0.8287650000    -2.4861500000
   31      C       0.3672910000     2.0744060000    -3.1069160000
   32      S       0.5806330000     3.3035330000    -1.9657350000
   33      C       0.4160830000     2.3242040000    -4.5599720000
   34      O       0.2569210000     1.4043670000    -5.3502770000
   35      O       0.6420940000     3.5873380000    -5.0043750000
   36      F      -0.0418280000    -0.2691130000    -3.2462900000
   37      C       0.7143770000     3.9388270000    -6.3349760000
   38      H       0.9068440000     5.0268980000    -6.3702680000
   39      H      -0.2306610000     3.7100990000    -6.8756090000
   40      H       1.5319180000     3.3986810000    -6.8618780000
   41      H       0.5906990000     3.3429840000     1.3215100000
   42      H      -0.2576880000    -9.1464710000     0.8515090000
   43      H      -0.2716640000    -9.1505700000    -0.9445420000
   44      H       0.0084620000    -1.4441580000     1.0799300000
 ----------------------------------------------------------------
 Nuclear Repulsion Energy =        3358.21501633 hartrees
 There are      120 alpha and      120 beta electrons
 Requested basis set is cc-pVTZ
 There are 388 shells and 1096 basis functions

 Total QAlloc Memory Limit 110000 MB
 Mega-Array Size       188 MB
 MEM_STATIC part       192 MB
 Discretize the solute cavity surface with Lebedev spheres
	Using 110 Lebedev grid points for each H atom
	Using 194 Lebedev grid points for other atoms
	Atomic van der Waals radii will be scaled by 1.20
 Remove points where switching function is < 1.0e-08
 Keep 2997 surface tesserae and discard 4279 interior tesserae
 Molecular Surface Area = 445.454 Angst**2
 Requested basis set is rimp2-cc-pVTZ
 There are 853 shells and 2963 basis functions
 A cutoff of  1.0D-10 yielded  33215 shell pairs
 There are    250313 function pairs (    323739 Cartesian)
 Smallest overlap matrix eigenvalue = 2.21E-05

 Scale SEOQF with 1.000000e-01/1.000000e-02/1.000000e-02

 Standard Electronic Orientation quadrupole field applied
 Nucleus-field energy     =     0.0000000385 hartrees
 Guess from superposition of atomic densities
 Warning:  Energy on first SCF cycle will be non-variational
 SAD guess density has 240.000000 electrons

 -----------------------------------------------------------------------
  General SCF calculation program by
  Eric Jon Sundstrom, Paul Horn, Yuezhi Mao, Dmitri Zuev, Alec White,
  David Stuck, Shaama M.S., Shane Yost, Joonho Lee, David Small,
  Daniel Levine, Susi Lehtola, Hugh Burton, Evgeny Epifanovsky,
  Bang C. Huynh
 -----------------------------------------------------------------------
 Hartree-Fock
 using 64 threads for integral computing
 -------------------------------------------------------
 OpenMP Integral computing Module                
 Release: version 1.0, May 2013, Q-Chem Inc. Pittsburgh 
 -------------------------------------------------------
 A restricted SCF calculation will be
 performed using DIIS
 SCF converges when DIIS error is below 1.0e-06
 ---------------------------------------
  Cycle       Energy         DIIS error
 ---------------------------------------
    1   -2767.3439423918      1.77e-02  
    2   -2754.8714114942      1.54e-03  
    3   -2755.2210893403      8.72e-04  
    4   -2755.3097456144      2.55e-04  
    5   -2755.3231286800      7.22e-05  
    6   -2755.3245867741      2.56e-05  
    7   -2755.3249638836      1.34e-05  
    8   -2755.3250872325      5.76e-06  
    9   -2755.3251187038      3.05e-06  
   10   -2755.3251266669      1.47e-06  
   11   -2755.3251290011      7.42e-07  Convergence criterion met
 ---------------------------------------
 SCF time:   CPU 7428.39s  wall 294.00s 

************** Final PCM Free Energy Summary **************
 G_electrostatic  =      -0.02265498 hartree =     -14.21621289 kcal/mol
 G_cavitation     =       0.00000000 hartree =       0.00000000 kcal/mol
 G_dispersion     =       0.00000000 hartree =       0.00000000 kcal/mol
 G_repulsion      =       0.00000000 hartree =       0.00000000 kcal/mol
 --------------------------------------------------
 Non-electrostatic Free Energy =       0.00000000 hartree =       0.00000000 kcal/mol
 Total                         =      -0.02265498 hartree =     -14.21621289 kcal/mol
 --------------------------------------------------
 SCF Energy (H0 + V/2)                       =   -2755.32512900 
 Solute Internal Energy (H0)                 =   -2755.30247402 
 Total Free Energy (H0 + V/2 + non-elec)     =   -2755.32512900 hartree
                                             = -1728992.61413246 kcal/mol
***********************************************************

 SCF   energy in the final basis set =    -2755.3251290011
 Total energy in the final basis set =    -2755.3251290011


 --------------------------------------------------------------
  Generalized many-body perturbation theory program
  by Joonho Lee, Fazle Rob, Xintian Feng, Evgeny Epifanovsky

 No regularization used 
 (reg. param. = 0.0000e+00)
  (P|Q)^-1/2 Time:  CPU 224.66 s  wall 3.91 s

 In RI-MP2 calculation: 
 # of frozen core orbitals: 45

 Components of the RIMP2 correlation energy:
        aaaa    correlation energy =        -0.6697257706 a.u.
        abab    correlation energy =        -3.7510102638 a.u.
        bbbb    correlation energy =        -0.6697257706 a.u.
        non-Brillouin singles      =        -0.0000000000 a.u.
        total same-spin energy     =        -1.3394515411 a.u.
        total opposite-spin energy =        -3.7510102638 a.u.

 Total  RIMP2   correlation energy =        -5.0904618049 a.u.
        RIMP2         total energy =     -2760.4155908060 a.u.

 RI-MP2 Energy Time:  CPU 2943.41 s  wall 47.98 s
 
 --------------------------------------------------------------
 
                    Orbital Energies (a.u.)
 --------------------------------------------------------------
 
 Alpha MOs
 -- Occupied --
-92.0197 -91.9959 -91.9774 -91.9577 -26.3353 -20.6129 -20.5868 -20.5865
-20.5513 -11.4114 -11.3776 -11.3104 -11.3087 -11.3067 -11.2996 -11.2982
-11.2971 -11.2889 -11.2842 -11.2826 -11.2824 -11.2814 -11.2805 -11.2722
-11.2722 -11.2578 -11.2569 -11.2492 -11.2361  -9.0179  -9.0000  -8.9796
 -8.9603  -6.6986  -6.6981  -6.6976  -6.6813  -6.6806  -6.6792  -6.6607
 -6.6598  -6.6585  -6.6415  -6.6406  -6.6396  -1.6481  -1.4726  -1.4100
 -1.4085  -1.3681  -1.2380  -1.2087  -1.1749  -1.1441  -1.0989  -1.0502
 -1.0453  -1.0314  -1.0082  -0.9972  -0.9728  -0.9595  -0.9483  -0.9403
 -0.8929  -0.8716  -0.8645  -0.8085  -0.7934  -0.7846  -0.7773  -0.7744
 -0.7652  -0.7331  -0.7213  -0.7164  -0.6969  -0.6924  -0.6813  -0.6791
 -0.6727  -0.6640  -0.6559  -0.6482  -0.6323  -0.6298  -0.6196  -0.6145
 -0.6109  -0.6073  -0.5959  -0.5924  -0.5824  -0.5645  -0.5594  -0.5548
 -0.5489  -0.5351  -0.5280  -0.5220  -0.5127  -0.5072  -0.5036  -0.5012
 -0.4877  -0.4861  -0.4773  -0.4701  -0.4624  -0.4619  -0.4608  -0.4460
 -0.4227  -0.4031  -0.3850  -0.3698  -0.3510  -0.2924  -0.2892  -0.2208
 -- Virtual --
  0.0263   0.0532   0.1132   0.1195   0.1400   0.1487   0.1537   0.1551
  0.1585   0.1601   0.1662   0.1787   0.1807   0.1863   0.1885   0.1922
  0.2015   0.2039   0.2057   0.2102   0.2190   0.2211   0.2239   0.2264
  0.2301   0.2346   0.2384   0.2478   0.2526   0.2583   0.2658   0.2720
  0.2761   0.2846   0.3093   0.3197   0.3276   0.3303   0.3342   0.3434
  0.3476   0.3583   0.3600   0.3628   0.3684   0.3730   0.3796   0.3817
  0.3861   0.3889   0.3948   0.3967   0.4019   0.4078   0.4107   0.4194
  0.4218   0.4264   0.4299   0.4331   0.4364   0.4405   0.4459   0.4467
  0.4565   0.4608   0.4674   0.4679   0.4719   0.4768   0.4781   0.4846
  0.4871   0.4953   0.4988   0.5020   0.5038   0.5124   0.5179   0.5206
  0.5226   0.5297   0.5319   0.5383   0.5415   0.5464   0.5470   0.5535
  0.5558   0.5589   0.5613   0.5636   0.5701   0.5739   0.5770   0.5780
  0.5842   0.5888   0.5901   0.5933   0.5970   0.6001   0.6029   0.6072
  0.6133   0.6159   0.6185   0.6218   0.6230   0.6244   0.6292   0.6324
  0.6389   0.6396   0.6433   0.6469   0.6477   0.6500   0.6565   0.6586
  0.6618   0.6659   0.6697   0.6782   0.6844   0.6859   0.6875   0.6958
  0.6997   0.7020   0.7105   0.7145   0.7166   0.7190   0.7258   0.7421
  0.7462   0.7518   0.7596   0.7645   0.7694   0.7705   0.7764   0.7862
  0.7923   0.7965   0.8017   0.8051   0.8094   0.8140   0.8163   0.8233
  0.8245   0.8325   0.8351   0.8508   0.8592   0.8650   0.8777   0.8836
  0.8861   0.8928   0.8946   0.8977   0.9031   0.9073   0.9106   0.9183
  0.9215   0.9228   0.9329   0.9345   0.9373   0.9467   0.9520   0.9527
  0.9611   0.9709   0.9735   0.9754   0.9787   0.9842   0.9881   0.9919
  0.9954   0.9969   1.0014   1.0087   1.0128   1.0158   1.0216   1.0297
  1.0356   1.0396   1.0459   1.0497   1.0525   1.0576   1.0612   1.0682
  1.0734   1.0741   1.0816   1.0870   1.0951   1.0961   1.0981   1.1063
  1.1125   1.1170   1.1228   1.1309   1.1334   1.1383   1.1474   1.1498
  1.1541   1.1586   1.1647   1.1681   1.1704   1.1744   1.1784   1.1815
  1.1846   1.1909   1.1921   1.1985   1.1991   1.2039   1.2127   1.2161
  1.2223   1.2267   1.2367   1.2395   1.2421   1.2490   1.2523   1.2566
  1.2609   1.2667   1.2729   1.2826   1.2849   1.2903   1.2949   1.3004
  1.3071   1.3099   1.3164   1.3190   1.3239   1.3305   1.3411   1.3437
  1.3452   1.3493   1.3598   1.3720   1.3757   1.3898   1.3920   1.3961
  1.4020   1.4089   1.4115   1.4209   1.4270   1.4342   1.4416   1.4529
  1.4636   1.4707   1.4768   1.4789   1.4878   1.4914   1.4956   1.4995
  1.5020   1.5086   1.5117   1.5124   1.5205   1.5335   1.5364   1.5384
  1.5430   1.5480   1.5514   1.5553   1.5620   1.5667   1.5682   1.5773
  1.5850   1.5954   1.6061   1.6121   1.6183   1.6217   1.6286   1.6425
  1.6514   1.6532   1.6581   1.6645   1.6710   1.6750   1.6799   1.6842
  1.6905   1.6990   1.7043   1.7174   1.7218   1.7272   1.7344   1.7505
  1.7533   1.7622   1.7735   1.7789   1.7852   1.8006   1.8097   1.8132
  1.8261   1.8310   1.8348   1.8396   1.8566   1.8594   1.8619   1.8748
  1.8766   1.8868   1.8884   1.9101   1.9185   1.9217   1.9309   1.9326
  1.9391   1.9410   1.9543   1.9591   1.9716   1.9863   1.9912   2.0061
  2.0161   2.0211   2.0250   2.0304   2.0350   2.0419   2.0513   2.0569
  2.0688   2.0778   2.0815   2.0953   2.0975   2.1112   2.1156   2.1327
  2.1434   2.1450   2.1522   2.1574   2.1678   2.1792   2.1843   2.1923
  2.1937   2.2012   2.2097   2.2201   2.2265   2.2290   2.2303   2.2453
  2.2516   2.2571   2.2624   2.2703   2.2778   2.2796   2.2942   2.3060
  2.3149   2.3175   2.3259   2.3383   2.3460   2.3502   2.3580   2.3645
  2.3835   2.3871   2.3939   2.4054   2.4125   2.4180   2.4245   2.4292
  2.4350   2.4572   2.4586   2.4691   2.4801   2.4851   2.4919   2.5029
  2.5141   2.5214   2.5290   2.5333   2.5432   2.5604   2.5682   2.5686
  2.5763   2.5848   2.5951   2.6043   2.6116   2.6166   2.6217   2.6265
  2.6370   2.6391   2.6408   2.6487   2.6554   2.6579   2.6674   2.6712
  2.6818   2.6881   2.6907   2.6962   2.6992   2.7081   2.7171   2.7199
  2.7252   2.7323   2.7360   2.7406   2.7449   2.7578   2.7643   2.7693
  2.7749   2.7811   2.7982   2.8057   2.8080   2.8153   2.8204   2.8290
  2.8382   2.8470   2.8491   2.8568   2.8620   2.8722   2.8750   2.8808
  2.8834   2.8908   2.8980   2.9039   2.9168   2.9279   2.9351   2.9455
  2.9575   2.9597   2.9635   2.9667   2.9757   2.9835   2.9939   2.9983
  3.0107   3.0149   3.0242   3.0308   3.0393   3.0415   3.0439   3.0471
  3.0484   3.0669   3.0751   3.0878   3.0899   3.0935   3.1002   3.1029
  3.1086   3.1127   3.1218   3.1280   3.1322   3.1328   3.1420   3.1485
  3.1536   3.1582   3.1599   3.1647   3.1678   3.1755   3.1800   3.1822
  3.1935   3.1956   3.2009   3.2079   3.2119   3.2145   3.2201   3.2247
  3.2326   3.2348   3.2483   3.2508   3.2534   3.2603   3.2647   3.2667
  3.2735   3.2777   3.2789   3.2840   3.2847   3.2918   3.2956   3.3039
  3.3065   3.3110   3.3137   3.3179   3.3279   3.3318   3.3367   3.3408
  3.3449   3.3498   3.3518   3.3555   3.3608   3.3643   3.3667   3.3686
  3.3701   3.3827   3.3857   3.3909   3.3983   3.4012   3.4044   3.4077
  3.4131   3.4166   3.4263   3.4318   3.4333   3.4340   3.4396   3.4446
  3.4469   3.4550   3.4608   3.4674   3.4689   3.4754   3.4796   3.4814
  3.4913   3.4972   3.5026   3.5094   3.5113   3.5212   3.5238   3.5314
  3.5426   3.5480   3.5613   3.5620   3.5672   3.5700   3.5792   3.5820
  3.5827   3.5887   3.5976   3.5999   3.6025   3.6073   3.6176   3.6181
  3.6272   3.6324   3.6341   3.6439   3.6500   3.6515   3.6546   3.6571
  3.6592   3.6678   3.6755   3.6777   3.6803   3.6844   3.6900   3.7000
  3.7023   3.7082   3.7095   3.7142   3.7173   3.7198   3.7270   3.7299
  3.7322   3.7380   3.7390   3.7488   3.7558   3.7610   3.7665   3.7760
  3.7821   3.7865   3.7913   3.7972   3.8042   3.8077   3.8144   3.8212
  3.8254   3.8296   3.8388   3.8446   3.8473   3.8494   3.8516   3.8606
  3.8686   3.8717   3.8770   3.8850   3.8872   3.8977   3.9009   3.9153
  3.9193   3.9236   3.9320   3.9398   3.9451   3.9554   3.9598   3.9646
  3.9657   3.9705   3.9826   3.9861   4.0004   4.0089   4.0155   4.0177
  4.0230   4.0313   4.0346   4.0496   4.0525   4.0617   4.0661   4.0715
  4.0743   4.0845   4.0870   4.0963   4.1023   4.1101   4.1133   4.1197
  4.1369   4.1434   4.1550   4.1571   4.1712   4.1717   4.1728   4.1769
  4.1806   4.1877   4.1991   4.2101   4.2102   4.2199   4.2288   4.2351
  4.2468   4.2516   4.2703   4.2739   4.2837   4.2943   4.3028   4.3108
  4.3134   4.3238   4.3251   4.3348   4.3459   4.3484   4.3522   4.3631
  4.3701   4.3764   4.3848   4.3912   4.3940   4.4015   4.4128   4.4141
  4.4213   4.4246   4.4283   4.4326   4.4336   4.4383   4.4529   4.4552
  4.4686   4.4895   4.4905   4.4950   4.4998   4.5095   4.5216   4.5267
  4.5312   4.5493   4.5521   4.5639   4.5675   4.5734   4.5792   4.5978
  4.5990   4.6044   4.6169   4.6225   4.6347   4.6359   4.6415   4.6455
  4.6612   4.6646   4.6773   4.6805   4.6980   4.7017   4.7104   4.7243
  4.7294   4.7371   4.7452   4.7586   4.7764   4.7797   4.7989   4.8092
  4.8230   4.8270   4.8298   4.8594   4.8646   4.8805   4.8918   4.8948
  4.9154   4.9234   4.9431   4.9503   4.9558   4.9662   4.9686   4.9786
  4.9934   5.0039   5.0116   5.0124   5.0206   5.0384   5.0492   5.0557
  5.0585   5.0908   5.1016   5.1204   5.1417   5.1591   5.1671   5.1778
  5.1890   5.1958   5.2037   5.2049   5.2109   5.2137   5.2328   5.2534
  5.2586   5.2670   5.2741   5.2901   5.2948   5.3169   5.3207   5.3273
  5.3384   5.3530   5.3548   5.3647   5.3697   5.3795   5.3894   5.4022
  5.4035   5.4076   5.4336   5.4450   5.4638   5.4727   5.4866   5.4980
  5.5087   5.5208   5.5228   5.5421   5.5677   5.5706   5.5741   5.5899
  5.5976   5.6114   5.6167   5.6317   5.6417   5.6777   5.6916   5.6923
  5.7277   5.7350   5.7645   5.7898   5.8001   5.8209   5.8435   5.8586
  5.8630   5.8835   5.9050   5.9235   5.9652   5.9688   5.9839   6.0046
  6.0429   6.0601   6.1204   6.1281   6.1332   6.1503   6.1713   6.1782
  6.1853   6.1903   6.2226   6.2465   6.2628   6.2772   6.2867   6.2998
  6.3080   6.3406   6.3646   6.4280   6.4641   6.4902   6.5355   6.5470
  6.5556   6.5679   6.6455   6.6758   6.6978   6.7166   6.7383   6.7470
  6.8074   6.8565   6.8594   6.8822   6.8999   6.9909   7.1310   7.1464
  7.1777   7.2113   7.2225   7.2395   7.3255   7.3271   7.3423   7.3723
  7.3758   7.4277   7.4618   7.4855   7.4868   7.4972   7.5206   7.5492
  7.6147   7.7391   7.7700   7.8033   7.8312   7.9109   7.9272   7.9566
  8.0029   8.1309   8.3360   8.6547   8.9274   9.0130   9.3625   9.5037
  9.6964  10.3157  11.2377  11.4215  11.9084  11.9581  12.1220  12.3069
 12.4003  12.4938  12.7236  12.9199  12.9948  13.1753  13.4812  13.5790
 13.8359  13.9027  13.9435  14.0033  14.1996  14.3266  14.8935  15.2004
 --------------------------------------------------------------
 
          Ground-State Mulliken Net Atomic Charges

     Atom                 Charge (a.u.)
  ----------------------------------------
      1 C                    -0.070005
      2 C                    -0.261177
      3 S                    -0.136511
      4 C                    -0.043208
      5 H                     0.193264
      6 C                    -0.053098
      7 C                     0.229064
      8 C                     0.224152
      9 C                    -0.076196
     10 C                    -0.054430
     11 O                    -0.334704
     12 O                    -0.343375
     13 C                    -0.082348
     14 H                     0.119851
     15 H                     0.091555
     16 H                     0.093336
     17 C                    -0.086544
     18 H                     0.123044
     19 H                     0.091586
     20 H                     0.090773
     21 C                    -0.254434
     22 S                    -0.071131
     23 C                     0.064269
     24 H                     0.203262
     25 C                    -0.073627
     26 S                     0.103706
     27 C                    -0.237885
     28 C                    -0.091441
     29 C                     0.000309
     30 C                     0.389867
     31 C                    -0.155856
     32 S                     0.041159
     33 C                     0.459987
     34 O                    -0.448107
     35 O                    -0.297572
     36 F                    -0.211882
     37 C                    -0.055028
     38 H                     0.116680
     39 H                     0.084768
     40 H                     0.084829
     41 H                     0.216924
     42 H                     0.116851
     43 H                     0.114859
     44 H                     0.184465
  ----------------------------------------
  Sum of atomic charges =     0.000000

 -----------------------------------------------------------------
                    Cartesian Multipole Moments
 -----------------------------------------------------------------
    Charge (ESU x 10^10)
                -0.0000
    Dipole Moment (Debye)
         X       0.7830      Y       3.9273      Z       3.7208
       Tot       5.4664
    Quadrupole Moments (Debye-Ang)
        XX    -184.4874     XY      -0.9296     YY    -175.6249
        XZ       3.6804     YZ     -10.6203     ZZ    -203.8255
    Octopole Moments (Debye-Ang^2)
       XXX     -47.3048    XXY     319.2175    XYY      27.8996
       YYY    1028.2731    XXZ     174.6069    XYZ     -37.4522
       YYZ     124.5273    XZZ       4.6391    YZZ     501.7958
       ZZZ     562.3477
    Hexadecapole Moments (Debye-Ang^3)
      XXXX   -2436.5038   XXXY    -768.2740   XXYY   -3956.3597
      XYYY    -994.4449   YYYY  -19870.7205   XXXZ     248.2485
      XXYZ     467.3044   XYYZ     154.5650   YYYZ    1179.3972
      XXZZ   -1406.2869   XYZZ    -163.5297   YYZZ   -4200.4485
      XZZZ      46.8869   YZZZ     623.0580   ZZZZ   -5546.0838
 -----------------------------------------------------------------
 Total job time:  394.81s(wall), 10662.90s(cpu) 
 Sun Sep 24 17:19:15 2023

        *************************************************************
        *                                                           *
        *  Thank you very much for using Q-Chem.  Have a nice day.  *
        *                                                           *
        *************************************************************


0 sent ACK to 0 
now end server 0 ... 
cleanup process ... done
remove work dirs ./qchem3492375.0 -- ./qchem3492375.0
rm -rf ./qchem3492375.0
rm -rf ./qchem3492375
