You are running Q-Chem version: 5.4.0

#
# job setting
#
local host:  exp-2-55
current dir: /expanse/lustre/projects/csd626/rramji/aromodel/PTB7_fin/Hydrogenated_Rotation_Test
input file:  fin_bdt_Phi_10_Theta_170_fin_ftt_Hydrogenated.qcin
output file: 
nprocs     : 1
nthreads   : 64
#
# qchem installation setting
#
QC:          /cm/shared/apps/spack/cpu/opt/spack/linux-centos8-zen2/gcc-10.2.0/qchem-5.4-akfmr7b3t57bfs6qan3padb2wnb2i7cl
QCAUX:       /cm/shared/apps/spack/cpu/opt/spack/linux-centos8-zen2/gcc-10.2.0/qchem-5.4-akfmr7b3t57bfs6qan3padb2wnb2i7cl/qcaux
QCPROG:      /cm/shared/apps/spack/cpu/opt/spack/linux-centos8-zen2/gcc-10.2.0/qchem-5.4-akfmr7b3t57bfs6qan3padb2wnb2i7cl/exe/qcprog.exe
QCPROG_S:    /cm/shared/apps/spack/cpu/opt/spack/linux-centos8-zen2/gcc-10.2.0/qchem-5.4-akfmr7b3t57bfs6qan3padb2wnb2i7cl/exe/qcprog.exe_s
PARALLEL:    -DPARALLEL
QCMPI:       mpich
#
# qchem directory setting
#
qcrun:       qchem3499477
QCSCRATCH:   .
QCLOCALSCR:  
QCTMPDIR:    .
QCFILEPREF:  ./qchem3499477
QCSAVEDIR:   
workdirs:    ./qchem3499477
workdir0:    ./qchem3499477
partmpdirs =  
#
# parallel setting
#
QCRSH:           ssh
QCMPI:           mpich
QCMPIRUN:        /cm/shared/apps/spack/cpu/opt/spack/linux-centos8-zen2/gcc-10.2.0/qchem-5.4-akfmr7b3t57bfs6qan3padb2wnb2i7cl/bin/mpi/mpirun_qchem
QCMACHINEFILE:   ./qchem3499477/hostfile
exp-2-55

#
# env setting
#
exported envs:   QC QCAUX QCSCRATCH QCRUNNAME QCFILEPREF QCPROG QCPROG_S GUIFILE

Running Job 1 of 1 fin_bdt_Phi_10_Theta_170_fin_ftt_Hydrogenated.qcin
qchem fin_bdt_Phi_10_Theta_170_fin_ftt_Hydrogenated.qcin_3499477.0 ./qchem3499477/ 1
/cm/shared/apps/spack/cpu/opt/spack/linux-centos8-zen2/gcc-10.2.0/qchem-5.4-akfmr7b3t57bfs6qan3padb2wnb2i7cl/bin/mpi/mpirun_qchem -machinefile ./qchem3499477/hostfile -np 1 /cm/shared/apps/spack/cpu/opt/spack/linux-centos8-zen2/gcc-10.2.0/qchem-5.4-akfmr7b3t57bfs6qan3padb2wnb2i7cl/exe/qcprog.exe fin_bdt_Phi_10_Theta_170_fin_ftt_Hydrogenated.qcin_3499477.0 ./qchem3499477/

Process 0 of 1 is on exp-2-55 - thread support 0
initial socket setup ...start
initial socket setup ...done 
now start server 0 ... 
                  Welcome to Q-Chem
     A Quantum Leap Into The Future Of Chemistry


 Q-Chem 5.4, Q-Chem, Inc., Pleasanton, CA (2021)

 License issued to: University of California, San Diego (site)

 E. Epifanovsky,  A. T. B. Gilbert,  Xintian Feng,  Joonho Lee,  Yuezhi Mao,  
 N. Mardirossian,  P. Pokhilko,  A. White,  M. Wormit,  M. P. Coons,  
 A. L. Dempwolff,  Zhengting Gan,  D. Hait,  P. R. Horn,  L. D. Jacobson,  
 I. Kaliman,  J. Kussmann,  A. W. Lange,  Ka Un Lao,  D. S. Levine,  Jie Liu,  
 S. C. McKenzie,  A. F. Morrison,  K. Nanda,  F. Plasser,  D. R. Rehn,  
 M. L. Vidal,  Zhi-Qiang You,  Ying Zhu,  B. Alam,  B. Albrecht,  
 A. Aldossary,  E. Alguire,  J. H. Andersen,  D. Barton,  K. Begam,  A. Behn,  
 Y. A. Bernard,  E. J. Berquist,  H. Burton,  A. Carreras,  K. Carter-Fenk,  
 R. Chakraborty,  A. D. Chien,  K. D. Closser,  V. Cofer-Shabica,  
 S. Dasgupta,  Jia Deng,  M. de Wergifosse,  M. Diedenhofen,  Hainam Do,  
 S. Ehlert,  Po-Tung Fang,  S. Fatehi,  Qingguo Feng,  J. Gayvert,  
 Qinghui Ge,  G. Gidofalvi,  M. Goldey,  J. Gomes,  C. Gonzalez-Espinoza,  
 S. Gulania,  A. Gunina,  M. W. D. Hanson-Heine,  P. H. P. Harbach,  
 A. W. Hauser,  M. F. Herbst,  M. Hernandez Vera,  M. Hodecker,  
 Z. C. Holden,  S. Houck,  Xunkun Huang,  Kerwin Hui,  B. C. Huynh,  
 M. Ivanov,  Hyunjun Ji,  Hanjie Jiang,  B. Kaduk,  S. Kaehler,  
 K. Khistyaev,  Jaehoon Kim,  P. Klunzinger,  Z. Koczor-Benda,  
 Joong Hoon Koh,  D. Kosenkov,  L. Koulias,  T. Kowalczyk,  C. M. Krauter,  
 K. Kue,  A. Kunitsa,  T. Kus,  A. Landau,  K. V. Lawler,  D. Lefrancois,  
 S. Lehtola,  Rain Li,  Yi-Pei Li,  Jiashu Liang,  M. Liebenthal,  
 Hung-Hsuan Lin,  You-Sheng Lin,  Fenglai Liu,  Kuan-Yu Liu,  
 M. Loipersberger,  A. Luenser,  A. Manjanath,  P. Manohar,  E. Mansoor,  
 S. F. Manzer,  Shan-Ping Mao,  A. V. Marenich,  T. Markovich,  S. Mason,  
 S. A. Maurer,  P. F. McLaughlin,  M. F. S. J. Menger,  J.-M. Mewes,  
 S. A. Mewes,  P. Morgante,  J. W. Mullinax,  T. S. Nguyen-Beck,  
 K. J. Oosterbaan,  G. Paran,  Alexander C. Paul,  Suranjan K. Paul,  
 F. Pavosevic,  Zheng Pei,  S. Prager,  E. I. Proynov,  E. Ramos,  B. Rana,  
 A. E. Rask,  A. Rettig,  R. M. Richard,  F. Rob,  E. Rossomme,  T. Scheele,  
 M. Scheurer,  M. Schneider,  N. Sergueev,  S. M. Sharada,  W. Skomorowski,  
 D. W. Small,  C. J. Stein,  Yu-Chuan Su,  E. J. Sundstrom,  Zhen Tao,  
 J. Thirman,  T. Tsuchimochi,  N. M. Tubman,  S. P. Veccham,  O. Vydrov,  
 J. Wenzel,  J. Witte,  A. Yamada,  Kun Yao,  S. Yeganeh,  S. R. Yost,  
 A. Zech,  Igor Ying Zhang,  Xing Zhang,  Yu Zhang,  D. Zuev,  
 A. Aspuru-Guzik,  A. T. Bell,  N. A. Besley,  K. B. Bravaya,  B. R. Brooks,  
 D. Casanova,  Jeng-Da Chai,  S. Coriani,  C. J. Cramer,  
 A. E. DePrince, III,  R. A. DiStasio Jr.,  A. Dreuw,  B. D. Dunietz,  
 T. R. Furlani,  W. A. Goddard III,  S. Grimme,  S. Hammes-Schiffer,  
 T. Head-Gordon,  W. J. Hehre,  Chao-Ping Hsu,  T.-C. Jagau,  Yousung Jung,  
 A. Klamt,  Jing Kong,  D. S. Lambrecht,  WanZhen Liang,  N. J. Mayhall,  
 C. W. McCurdy,  J. B. Neaton,  C. Ochsenfeld,  J. A. Parkhill,  R. Peverati,  
 V. A. Rassolov,  Yihan Shao,  L. V. Slipchenko,  T. Stauch,  R. P. Steele,  
 J. E. Subotnik,  A. J. W. Thom,  A. Tkatchenko,  D. G. Truhlar,  
 T. Van Voorhis,  T. A. Wesolowski,  K. B. Whaley,  H. L. Woodcock III,  
 P. M. Zimmerman,  S. Faraji,  P. M. W. Gill,  M. Head-Gordon,  
 J. M. Herbert,  A. I. Krylov

 Contributors to earlier versions of Q-Chem not listed above: 
 R. D. Adamson,  B. Austin,  R. Baer,  J. Baker,  G. J. O. Beran,  
 K. Brandhorst,  S. T. Brown,  E. F. C. Byrd,  A. K. Chakraborty,  
 G. K. L. Chan,  Chun-Min Chang,  Yunqing Chen,  C.-L. Cheng,  
 Siu Hung Chien,  D. M. Chipman,  D. L. Crittenden,  H. Dachsel,  
 R. J. Doerksen,  A. D. Dutoi,  R. G. Edgar,  J. Fosso-Tande,  
 L. Fusti-Molnar,  D. Ghosh,  A. Ghysels,  A. Golubeva-Zadorozhnaya,  
 J. Gonthier,  M. S. Gordon,  S. R. Gwaltney,  G. Hawkins,  J. E. Herr,  
 A. Heyden,  S. Hirata,  E. G. Hohenstein,  G. Kedziora,  F. J. Keil,  
 C. Kelley,  Jihan Kim,  R. A. King,  R. Z. Khaliullin,  P. P. Korambath,  
 W. Kurlancheek,  A. Laurent,  A. M. Lee,  M. S. Lee,  S. V. Levchenko,  
 Ching Yeh Lin,  D. Liotard,  E. Livshits,  R. C. Lochan,  I. Lotan,  
 L. A. Martinez-Martinez,  P. E. Maslen,  N. Nair,  D. P. O'Neill,  
 D. Neuhauser,  E. Neuscamman,  C. M. Oana,  R. Olivares-Amaya,  R. Olson,  
 T. M. Perrine,  B. Peters,  P. A. Pieniazek,  A. Prociuk,  Y. M. Rhee,  
 J. Ritchie,  M. A. Rohrdanz,  E. Rosta,  N. J. Russ,  H. F. Schaefer III,  
 M. W. Schmidt,  N. E. Schultz,  S. Sharma,  N. Shenvi,  C. D. Sherrill,  
 A. C. Simmonett,  A. Sodt,  T. Stein,  D. Stuck,  K. S. Thanthiriwatte,  
 V. Vanovschi,  L. Vogt,  Tao Wang,  A. Warshel,  M. A. Watson,  
 C. F. Williams,  Q. Wu,  X. Xu,  Jun Yang,  W. Zhang,  Yan Zhao

 Please cite Q-Chem as follows:
 Y. Shao et al., Mol. Phys. 113, 184-215 (2015)
 DOI: 10.1080/00268976.2014.952696

 Q-Chem 5.4.0 for Intel X86 EM64T Linux

 Parts of Q-Chem use Armadillo 9.800.1 (Horizon Scraper).
 http://arma.sourceforge.net/

 Q-Chem begins on Sun Sep 24 17:59:17 2023  

 Host: 
0

     Scratch files written to ./qchem3499477//
 May1621 |scratch|qcdevops|jenkins|workspace|build_RNUM    
 Parallel job on  1  processors
 Processing $rem in /cm/shared/apps/spack/cpu/opt/spack/linux-centos8-zen2/gcc-10.2.0/qchem-5.4-akfmr7b3t57bfs6qan3padb2wnb2i7cl/config/preferences:
 Processing $rem in /home/rramji/.qchemrc:
 Symmetry turned off for PCM/SM12/SMD calculation
 Core orbitals will be frozen

 Checking the input file for inconsistencies... 	...done.

 Q-Chem warning in module forms1/BasisType.C, line 2236:

 You are not using the predefined 5D/6D in this basis set.


--------------------------------------------------------------
User input:
--------------------------------------------------------------
$molecule
0 1
C	0.000687	-8.519741	-0.272104
C	0.194476	-7.635967	0.779533
S	-0.287581	-7.651740	-1.799596
C	0.125787	-6.261894	0.399427
H	0.383826	-7.954738	1.812314
C	-0.121989	-6.079985	-1.006762
C	-0.247488	-4.798382	-1.564994
C	0.258303	-5.153542	1.284087
C	0.128493	-3.869626	0.726260
C	-0.116725	-3.688927	-0.681918
O	0.517104	-5.481075	2.580622
O	-0.508622	-4.479871	-2.867144
C	-0.075811	-5.356026	-3.900814
H	-0.173640	-4.790496	-4.847002
H	-0.707354	-6.268513	-3.971794
H	0.984963	-5.658187	-3.763397
C	0.257016	-4.546999	3.621225
H	0.357864	-5.107564	4.569828
H	-0.771211	-4.131473	3.551910
H	0.990913	-3.712085	3.626592
C	-0.187034	-2.314326	-1.058088
S	0.281899	-2.295487	1.523035
C	-0.000000	-1.435180	-0.000000
H	-0.373653	-1.993211	-2.090565
C	0.000000	0.000000	0.000000
S	0.158383	0.885376	1.510732
C	0.430876	2.436951	0.727629
C	0.157682	0.894430	-1.064665
C	0.397351	2.262384	-0.678287
C	0.147783	0.828765	-2.486150
C	0.367291	2.074406	-3.106916
S	0.580633	3.303533	-1.965735
C	0.416083	2.324204	-4.559972
O	0.256921	1.404367	-5.350277
O	0.642094	3.587338	-5.004375
F	-0.041828	-0.269113	-3.246290
C	0.714377	3.938827	-6.334976
H	0.906844	5.026898	-6.370268
H	-0.230661	3.710099	-6.875609
H	1.531918	3.398681	-6.861878
H	0.590699	3.342984	1.321510
H	-0.883319	-9.146471	-0.105910
H	0.883019	-9.150570	-0.431555
H	-1.062054	-1.444158	0.195861
$end

$rem
JOBTYPE		SP
EXCHANGE	HF
CORRELATION	pRIMP2
BASIS		cc-pvtz
METHOD		rimp2
AUX_BASIS	rimp2-cc-pvtz
SOLVENT_METHOD	PCM
PURECART	11111
SYMMETRY	false
MEM_TOTAL	110000
SCF_CONVERGENCE = 6
THRESH=10
GUI = 2
$end



$solvent
dielectric 4.90
$end
--------------------------------------------------------------
 ----------------------------------------------------------------
             Standard Nuclear Orientation (Angstroms)
    I     Atom           X                Y                Z
 ----------------------------------------------------------------
    1      C       0.0006870000    -8.5197410000    -0.2721040000
    2      C       0.1944760000    -7.6359670000     0.7795330000
    3      S      -0.2875810000    -7.6517400000    -1.7995960000
    4      C       0.1257870000    -6.2618940000     0.3994270000
    5      H       0.3838260000    -7.9547380000     1.8123140000
    6      C      -0.1219890000    -6.0799850000    -1.0067620000
    7      C      -0.2474880000    -4.7983820000    -1.5649940000
    8      C       0.2583030000    -5.1535420000     1.2840870000
    9      C       0.1284930000    -3.8696260000     0.7262600000
   10      C      -0.1167250000    -3.6889270000    -0.6819180000
   11      O       0.5171040000    -5.4810750000     2.5806220000
   12      O      -0.5086220000    -4.4798710000    -2.8671440000
   13      C      -0.0758110000    -5.3560260000    -3.9008140000
   14      H      -0.1736400000    -4.7904960000    -4.8470020000
   15      H      -0.7073540000    -6.2685130000    -3.9717940000
   16      H       0.9849630000    -5.6581870000    -3.7633970000
   17      C       0.2570160000    -4.5469990000     3.6212250000
   18      H       0.3578640000    -5.1075640000     4.5698280000
   19      H      -0.7712110000    -4.1314730000     3.5519100000
   20      H       0.9909130000    -3.7120850000     3.6265920000
   21      C      -0.1870340000    -2.3143260000    -1.0580880000
   22      S       0.2818990000    -2.2954870000     1.5230350000
   23      C       0.0000000000    -1.4351800000     0.0000000000
   24      H      -0.3736530000    -1.9932110000    -2.0905650000
   25      C       0.0000000000     0.0000000000     0.0000000000
   26      S       0.1583830000     0.8853760000     1.5107320000
   27      C       0.4308760000     2.4369510000     0.7276290000
   28      C       0.1576820000     0.8944300000    -1.0646650000
   29      C       0.3973510000     2.2623840000    -0.6782870000
   30      C       0.1477830000     0.8287650000    -2.4861500000
   31      C       0.3672910000     2.0744060000    -3.1069160000
   32      S       0.5806330000     3.3035330000    -1.9657350000
   33      C       0.4160830000     2.3242040000    -4.5599720000
   34      O       0.2569210000     1.4043670000    -5.3502770000
   35      O       0.6420940000     3.5873380000    -5.0043750000
   36      F      -0.0418280000    -0.2691130000    -3.2462900000
   37      C       0.7143770000     3.9388270000    -6.3349760000
   38      H       0.9068440000     5.0268980000    -6.3702680000
   39      H      -0.2306610000     3.7100990000    -6.8756090000
   40      H       1.5319180000     3.3986810000    -6.8618780000
   41      H       0.5906990000     3.3429840000     1.3215100000
   42      H      -0.8833190000    -9.1464710000    -0.1059100000
   43      H       0.8830190000    -9.1505700000    -0.4315550000
   44      H      -1.0620540000    -1.4441580000     0.1958610000
 ----------------------------------------------------------------
 Nuclear Repulsion Energy =        3370.99968064 hartrees
 There are      120 alpha and      120 beta electrons
 Requested basis set is cc-pVTZ
 There are 388 shells and 1096 basis functions

 Total QAlloc Memory Limit 110000 MB
 Mega-Array Size       188 MB
 MEM_STATIC part       192 MB
 Discretize the solute cavity surface with Lebedev spheres
	Using 110 Lebedev grid points for each H atom
	Using 194 Lebedev grid points for other atoms
	Atomic van der Waals radii will be scaled by 1.20
 Remove points where switching function is < 1.0e-08
 Keep 2938 surface tesserae and discard 4338 interior tesserae
 Molecular Surface Area = 435.716 Angst**2
 Requested basis set is rimp2-cc-pVTZ
 There are 853 shells and 2963 basis functions
 A cutoff of  1.0D-10 yielded  33626 shell pairs
 There are    253660 function pairs (    328036 Cartesian)
 Smallest overlap matrix eigenvalue = 2.10E-05

 Scale SEOQF with 1.000000e-01/1.000000e-02/1.000000e-02

 Standard Electronic Orientation quadrupole field applied
 Nucleus-field energy     =     0.0000000142 hartrees
 Guess from superposition of atomic densities
 Warning:  Energy on first SCF cycle will be non-variational
 SAD guess density has 240.000000 electrons

 -----------------------------------------------------------------------
  General SCF calculation program by
  Eric Jon Sundstrom, Paul Horn, Yuezhi Mao, Dmitri Zuev, Alec White,
  David Stuck, Shaama M.S., Shane Yost, Joonho Lee, David Small,
  Daniel Levine, Susi Lehtola, Hugh Burton, Evgeny Epifanovsky,
  Bang C. Huynh
 -----------------------------------------------------------------------
 Hartree-Fock
 using 64 threads for integral computing
 -------------------------------------------------------
 OpenMP Integral computing Module                
 Release: version 1.0, May 2013, Q-Chem Inc. Pittsburgh 
 -------------------------------------------------------
 A restricted SCF calculation will be
 performed using DIIS
 SCF converges when DIIS error is below 1.0e-06
 ---------------------------------------
  Cycle       Energy         DIIS error
 ---------------------------------------
    1   -2767.3676575464      1.77e-02  
    2   -2754.8664770778      1.54e-03  
    3   -2755.2163591598      8.73e-04  
    4   -2755.3068393030      2.55e-04  
    5   -2755.3206894400      7.32e-05  
    6   -2755.3222696064      2.63e-05  
    7   -2755.3226860787      1.34e-05  
    8   -2755.3228082428      5.52e-06  
    9   -2755.3228329871      2.80e-06  
   10   -2755.3228388209      1.35e-06  
   11   -2755.3228406469      7.01e-07  Convergence criterion met
 ---------------------------------------
 SCF time:   CPU 7450.58s  wall 278.00s 

************** Final PCM Free Energy Summary **************
 G_electrostatic  =      -0.02090959 hartree =     -13.12096615 kcal/mol
 G_cavitation     =       0.00000000 hartree =       0.00000000 kcal/mol
 G_dispersion     =       0.00000000 hartree =       0.00000000 kcal/mol
 G_repulsion      =       0.00000000 hartree =       0.00000000 kcal/mol
 --------------------------------------------------
 Non-electrostatic Free Energy =       0.00000000 hartree =       0.00000000 kcal/mol
 Total                         =      -0.02090959 hartree =     -13.12096615 kcal/mol
 --------------------------------------------------
 SCF Energy (H0 + V/2)                       =   -2755.32284065 
 Solute Internal Energy (H0)                 =   -2755.30193106 
 Total Free Energy (H0 + V/2 + non-elec)     =   -2755.32284065 hartree
                                             = -1728991.17816855 kcal/mol
***********************************************************

 SCF   energy in the final basis set =    -2755.3228406469
 Total energy in the final basis set =    -2755.3228406469


 --------------------------------------------------------------
  Generalized many-body perturbation theory program
  by Joonho Lee, Fazle Rob, Xintian Feng, Evgeny Epifanovsky

 No regularization used 
 (reg. param. = 0.0000e+00)
  (P|Q)^-1/2 Time:  CPU 187.23 s  wall 2.96 s

 In RI-MP2 calculation: 
 # of frozen core orbitals: 45

 Components of the RIMP2 correlation energy:
        aaaa    correlation energy =        -0.6703137350 a.u.
        abab    correlation energy =        -3.7506508278 a.u.
        bbbb    correlation energy =        -0.6703137350 a.u.
        non-Brillouin singles      =        -0.0000000000 a.u.
        total same-spin energy     =        -1.3406274700 a.u.
        total opposite-spin energy =        -3.7506508278 a.u.

 Total  RIMP2   correlation energy =        -5.0912782978 a.u.
        RIMP2         total energy =     -2760.4141189447 a.u.

 RI-MP2 Energy Time:  CPU 2933.91 s  wall 48.91 s
 
 --------------------------------------------------------------
 
                    Orbital Energies (a.u.)
 --------------------------------------------------------------
 
 Alpha MOs
 -- Occupied --
-92.0149 -91.9922 -91.9840 -91.9599 -26.3397 -20.6109 -20.5902 -20.5872
-20.5475 -11.4083 -11.3800 -11.3255 -11.3127 -11.3100 -11.2967 -11.2923
-11.2879 -11.2872 -11.2866 -11.2858 -11.2833 -11.2822 -11.2762 -11.2753
-11.2700 -11.2613 -11.2604 -11.2517 -11.2422  -9.0135  -8.9964  -8.9862
 -8.9625  -6.6943  -6.6937  -6.6932  -6.6777  -6.6770  -6.6756  -6.6673
 -6.6664  -6.6651  -6.6437  -6.6428  -6.6418  -1.6542  -1.4704  -1.4134
 -1.4091  -1.3655  -1.2380  -1.2112  -1.1779  -1.1436  -1.1012  -1.0502
 -1.0486  -1.0288  -1.0108  -1.0005  -0.9716  -0.9600  -0.9505  -0.9408
 -0.8962  -0.8728  -0.8639  -0.8112  -0.7978  -0.7880  -0.7758  -0.7705
 -0.7642  -0.7335  -0.7233  -0.7211  -0.6990  -0.6954  -0.6846  -0.6777
 -0.6719  -0.6704  -0.6581  -0.6495  -0.6401  -0.6308  -0.6220  -0.6159
 -0.6084  -0.6049  -0.5954  -0.5914  -0.5774  -0.5717  -0.5602  -0.5513
 -0.5488  -0.5368  -0.5335  -0.5226  -0.5152  -0.5098  -0.5068  -0.5015
 -0.4842  -0.4837  -0.4806  -0.4704  -0.4626  -0.4605  -0.4579  -0.4480
 -0.4339  -0.3983  -0.3887  -0.3724  -0.3509  -0.2943  -0.2840  -0.2189
 -- Virtual --
  0.0279   0.0598   0.1143   0.1254   0.1372   0.1457   0.1532   0.1541
  0.1583   0.1602   0.1644   0.1790   0.1840   0.1876   0.1912   0.1957
  0.2022   0.2033   0.2043   0.2141   0.2187   0.2229   0.2247   0.2284
  0.2294   0.2352   0.2443   0.2514   0.2563   0.2604   0.2690   0.2757
  0.2829   0.2994   0.3103   0.3230   0.3333   0.3433   0.3436   0.3503
  0.3514   0.3572   0.3620   0.3658   0.3726   0.3769   0.3813   0.3831
  0.3854   0.3909   0.3971   0.4062   0.4099   0.4150   0.4173   0.4202
  0.4254   0.4288   0.4341   0.4344   0.4377   0.4433   0.4479   0.4514
  0.4597   0.4606   0.4642   0.4704   0.4733   0.4771   0.4815   0.4862
  0.4925   0.4950   0.4982   0.5024   0.5053   0.5126   0.5182   0.5236
  0.5268   0.5284   0.5308   0.5370   0.5405   0.5446   0.5490   0.5518
  0.5550   0.5591   0.5613   0.5645   0.5681   0.5708   0.5771   0.5797
  0.5855   0.5890   0.5903   0.5943   0.6003   0.6031   0.6068   0.6075
  0.6109   0.6156   0.6169   0.6210   0.6242   0.6258   0.6290   0.6321
  0.6341   0.6364   0.6421   0.6454   0.6502   0.6515   0.6535   0.6573
  0.6628   0.6685   0.6758   0.6765   0.6844   0.6923   0.6939   0.6999
  0.7065   0.7086   0.7162   0.7174   0.7219   0.7336   0.7357   0.7448
  0.7530   0.7583   0.7589   0.7695   0.7748   0.7819   0.7875   0.7929
  0.7971   0.7993   0.8039   0.8080   0.8150   0.8171   0.8252   0.8300
  0.8354   0.8394   0.8515   0.8520   0.8663   0.8727   0.8801   0.8807
  0.8923   0.8946   0.8964   0.8984   0.9085   0.9126   0.9165   0.9178
  0.9281   0.9337   0.9422   0.9435   0.9463   0.9472   0.9512   0.9610
  0.9639   0.9699   0.9773   0.9809   0.9831   0.9848   0.9932   0.9954
  0.9991   1.0019   1.0051   1.0108   1.0140   1.0238   1.0287   1.0307
  1.0334   1.0394   1.0447   1.0540   1.0568   1.0592   1.0610   1.0701
  1.0758   1.0808   1.0874   1.0901   1.0957   1.1059   1.1081   1.1146
  1.1170   1.1220   1.1287   1.1332   1.1420   1.1478   1.1523   1.1577
  1.1617   1.1659   1.1695   1.1724   1.1744   1.1780   1.1814   1.1828
  1.1869   1.1948   1.1987   1.2030   1.2072   1.2133   1.2161   1.2187
  1.2225   1.2281   1.2344   1.2399   1.2455   1.2479   1.2500   1.2602
  1.2634   1.2729   1.2743   1.2762   1.2858   1.2899   1.2975   1.3011
  1.3031   1.3105   1.3204   1.3226   1.3290   1.3342   1.3449   1.3483
  1.3498   1.3567   1.3638   1.3703   1.3741   1.3854   1.3905   1.3939
  1.4009   1.4099   1.4154   1.4202   1.4279   1.4384   1.4436   1.4469
  1.4532   1.4575   1.4755   1.4787   1.4864   1.4868   1.4948   1.5008
  1.5046   1.5096   1.5124   1.5141   1.5283   1.5312   1.5343   1.5378
  1.5408   1.5468   1.5496   1.5538   1.5603   1.5666   1.5712   1.5766
  1.5960   1.5999   1.6086   1.6166   1.6241   1.6291   1.6374   1.6411
  1.6498   1.6557   1.6593   1.6657   1.6694   1.6702   1.6828   1.6900
  1.6952   1.7061   1.7100   1.7151   1.7323   1.7352   1.7374   1.7475
  1.7591   1.7645   1.7720   1.7800   1.7845   1.7942   1.8108   1.8160
  1.8199   1.8326   1.8345   1.8433   1.8538   1.8605   1.8700   1.8726
  1.8815   1.8974   1.9085   1.9121   1.9123   1.9254   1.9342   1.9355
  1.9409   1.9466   1.9575   1.9660   1.9761   1.9904   1.9945   2.0045
  2.0140   2.0189   2.0321   2.0341   2.0378   2.0421   2.0482   2.0558
  2.0713   2.0865   2.0949   2.1034   2.1105   2.1223   2.1333   2.1346
  2.1494   2.1556   2.1616   2.1650   2.1681   2.1803   2.1846   2.1939
  2.1970   2.2018   2.2062   2.2175   2.2236   2.2359   2.2421   2.2453
  2.2491   2.2639   2.2656   2.2772   2.2810   2.2826   2.2847   2.2964
  2.3091   2.3111   2.3279   2.3361   2.3444   2.3500   2.3632   2.3750
  2.3826   2.3873   2.3981   2.4029   2.4065   2.4191   2.4220   2.4369
  2.4453   2.4485   2.4684   2.4699   2.4781   2.4862   2.4948   2.5061
  2.5117   2.5225   2.5301   2.5309   2.5429   2.5569   2.5642   2.5652
  2.5871   2.5925   2.6014   2.6052   2.6156   2.6222   2.6263   2.6279
  2.6315   2.6438   2.6455   2.6481   2.6528   2.6618   2.6713   2.6760
  2.6773   2.6847   2.6953   2.7007   2.7080   2.7087   2.7189   2.7256
  2.7293   2.7372   2.7382   2.7449   2.7478   2.7566   2.7682   2.7729
  2.7763   2.7880   2.7900   2.8031   2.8099   2.8207   2.8272   2.8338
  2.8441   2.8462   2.8519   2.8575   2.8585   2.8678   2.8729   2.8828
  2.8850   2.8930   2.9002   2.9068   2.9166   2.9335   2.9395   2.9524
  2.9528   2.9582   2.9633   2.9724   2.9793   2.9852   2.9871   3.0041
  3.0096   3.0143   3.0287   3.0319   3.0336   3.0420   3.0457   3.0480
  3.0596   3.0605   3.0706   3.0802   3.0870   3.0918   3.0988   3.1051
  3.1095   3.1180   3.1247   3.1301   3.1315   3.1387   3.1435   3.1455
  3.1515   3.1545   3.1600   3.1637   3.1664   3.1773   3.1798   3.1835
  3.1889   3.1970   3.2009   3.2029   3.2076   3.2112   3.2176   3.2256
  3.2341   3.2414   3.2478   3.2528   3.2595   3.2601   3.2634   3.2691
  3.2718   3.2769   3.2779   3.2810   3.2909   3.2948   3.2965   3.3017
  3.3064   3.3125   3.3166   3.3206   3.3253   3.3300   3.3401   3.3438
  3.3480   3.3498   3.3549   3.3560   3.3609   3.3619   3.3653   3.3683
  3.3694   3.3811   3.3912   3.3930   3.3972   3.3993   3.4038   3.4068
  3.4120   3.4190   3.4212   3.4271   3.4298   3.4414   3.4454   3.4476
  3.4514   3.4546   3.4556   3.4580   3.4681   3.4734   3.4809   3.4864
  3.4875   3.4964   3.5050   3.5092   3.5138   3.5178   3.5298   3.5409
  3.5465   3.5522   3.5556   3.5592   3.5643   3.5698   3.5807   3.5835
  3.5879   3.5908   3.5973   3.6011   3.6037   3.6065   3.6111   3.6145
  3.6214   3.6244   3.6339   3.6380   3.6436   3.6454   3.6566   3.6595
  3.6614   3.6635   3.6713   3.6751   3.6815   3.6840   3.6885   3.6932
  3.7036   3.7076   3.7098   3.7120   3.7151   3.7216   3.7293   3.7323
  3.7357   3.7359   3.7469   3.7499   3.7560   3.7642   3.7734   3.7748
  3.7808   3.7853   3.7925   3.7996   3.8091   3.8125   3.8189   3.8202
  3.8243   3.8324   3.8389   3.8467   3.8491   3.8531   3.8552   3.8613
  3.8650   3.8701   3.8770   3.8856   3.8935   3.8966   3.9071   3.9149
  3.9196   3.9257   3.9355   3.9400   3.9486   3.9532   3.9608   3.9626
  3.9772   3.9785   3.9819   3.9885   3.9968   4.0064   4.0136   4.0185
  4.0270   4.0376   4.0468   4.0474   4.0536   4.0583   4.0645   4.0678
  4.0704   4.0853   4.0894   4.0971   4.1066   4.1087   4.1175   4.1206
  4.1327   4.1420   4.1511   4.1586   4.1693   4.1709   4.1726   4.1768
  4.1788   4.1897   4.1967   4.2054   4.2142   4.2264   4.2306   4.2391
  4.2460   4.2552   4.2680   4.2714   4.2816   4.2868   4.3072   4.3099
  4.3143   4.3269   4.3360   4.3427   4.3487   4.3503   4.3608   4.3676
  4.3731   4.3776   4.3828   4.3962   4.3995   4.4100   4.4132   4.4144
  4.4207   4.4238   4.4291   4.4356   4.4419   4.4473   4.4512   4.4571
  4.4732   4.4818   4.4923   4.4983   4.5095   4.5144   4.5200   4.5227
  4.5299   4.5481   4.5579   4.5647   4.5694   4.5756   4.5798   4.5957
  4.6022   4.6079   4.6169   4.6247   4.6344   4.6414   4.6469   4.6544
  4.6578   4.6680   4.6820   4.6851   4.7051   4.7122   4.7154   4.7320
  4.7343   4.7443   4.7595   4.7700   4.7869   4.8003   4.8063   4.8117
  4.8192   4.8291   4.8385   4.8475   4.8590   4.8725   4.8822   4.8898
  4.9176   4.9315   4.9351   4.9427   4.9571   4.9653   4.9810   4.9979
  5.0025   5.0108   5.0125   5.0150   5.0333   5.0410   5.0483   5.0567
  5.0778   5.0914   5.0958   5.1136   5.1310   5.1569   5.1708   5.1838
  5.1895   5.2008   5.2037   5.2146   5.2189   5.2280   5.2371   5.2550
  5.2598   5.2698   5.2856   5.2911   5.3151   5.3177   5.3245   5.3277
  5.3382   5.3558   5.3593   5.3611   5.3777   5.3875   5.3922   5.3999
  5.4119   5.4149   5.4341   5.4411   5.4596   5.4736   5.4933   5.5001
  5.5085   5.5207   5.5256   5.5570   5.5654   5.5773   5.5812   5.5886
  5.6058   5.6085   5.6195   5.6254   5.6422   5.6535   5.6760   5.6891
  5.7347   5.7515   5.7616   5.7801   5.8020   5.8168   5.8367   5.8560
  5.8727   5.8825   5.9027   5.9510   5.9715   5.9834   5.9923   6.0099
  6.0424   6.0770   6.1239   6.1317   6.1345   6.1628   6.1724   6.1766
  6.1876   6.1944   6.2483   6.2511   6.2693   6.2794   6.2841   6.2931
  6.3097   6.3529   6.3553   6.4421   6.4941   6.5304   6.5353   6.5579
  6.5735   6.5906   6.6441   6.6785   6.7044   6.7325   6.7527   6.7827
  6.8123   6.8624   6.8685   6.8880   6.9002   6.9950   7.1331   7.1447
  7.1797   7.2139   7.2198   7.2404   7.3283   7.3292   7.3405   7.3677
  7.3795   7.4352   7.4637   7.4810   7.4837   7.4977   7.5431   7.5544
  7.6233   7.7427   7.7643   7.8023   7.8335   7.9157   7.9277   7.9560
  8.0135   8.1291   8.3507   8.7260   8.9305   9.0699   9.3598   9.5146
  9.7413  10.3758  11.2925  11.4599  11.8995  11.9683  12.1272  12.3778
 12.4029  12.5704  12.7192  12.9603  13.0631  13.2378  13.4816  13.6075
 13.8462  13.9187  13.9349  14.0262  14.1738  14.3255  15.1674  15.3787
 --------------------------------------------------------------
 
          Ground-State Mulliken Net Atomic Charges

     Atom                 Charge (a.u.)
  ----------------------------------------
      1 C                    -0.070984
      2 C                    -0.246171
      3 S                    -0.131079
      4 C                    -0.050030
      5 H                     0.195214
      6 C                    -0.050228
      7 C                     0.229265
      8 C                     0.234562
      9 C                    -0.076174
     10 C                    -0.039324
     11 O                    -0.333138
     12 O                    -0.343400
     13 C                    -0.083302
     14 H                     0.122045
     15 H                     0.092170
     16 H                     0.092733
     17 C                    -0.088943
     18 H                     0.125267
     19 H                     0.093627
     20 H                     0.090323
     21 C                    -0.312882
     22 S                    -0.092237
     23 C                     0.120511
     24 H                     0.217417
     25 C                    -0.087128
     26 S                     0.073458
     27 C                    -0.263228
     28 C                    -0.057667
     29 C                    -0.018571
     30 C                     0.400805
     31 C                    -0.150410
     32 S                     0.029736
     33 C                     0.460730
     34 O                    -0.455932
     35 O                    -0.298541
     36 F                    -0.217625
     37 C                    -0.055135
     38 H                     0.116404
     39 H                     0.084027
     40 H                     0.084082
     41 H                     0.215314
     42 H                     0.119331
     43 H                     0.117123
     44 H                     0.207981
  ----------------------------------------
  Sum of atomic charges =     0.000000

 -----------------------------------------------------------------
                    Cartesian Multipole Moments
 -----------------------------------------------------------------
    Charge (ESU x 10^10)
                 0.0000
    Dipole Moment (Debye)
         X      -0.1537      Y       1.4339      Z       3.8752
       Tot       4.1348
    Quadrupole Moments (Debye-Ang)
        XX    -200.7016     XY       1.6722     YY    -167.9843
        XZ      -4.5670     YZ     -14.2723     ZZ    -189.3342
    Octopole Moments (Debye-Ang^2)
       XXX     -96.0645    XXY     391.6288    XYY      -7.1579
       YYY     943.9126    XXZ     192.9366    XYZ       5.4484
       YYZ     177.9671    XZZ      -7.2910    YZZ     413.5717
       ZZZ     606.6371
    Hexadecapole Moments (Debye-Ang^3)
      XXXX    -394.6557   XXXY    -273.1104   XXYY   -3877.7490
      XYYY    -316.5163   YYYY  -19296.9317   XXXZ     113.4336
      XXYZ     284.1171   XYYZ     -74.9579   YYYZ     412.2866
      XXZZ   -1418.6534   XYZZ     -13.6475   YYZZ   -4251.4930
      XZZZ       3.3477   YZZZ     223.7524   ZZZZ   -7624.3075
 -----------------------------------------------------------------
 Total job time:  335.01s(wall), 10684.76s(cpu) 
 Sun Sep 24 18:04:52 2023

        *************************************************************
        *                                                           *
        *  Thank you very much for using Q-Chem.  Have a nice day.  *
        *                                                           *
        *************************************************************


0 sent ACK to 0 
now end server 0 ... 
cleanup process ... done
remove work dirs ./qchem3499477.0 -- ./qchem3499477.0
rm -rf ./qchem3499477.0
rm -rf ./qchem3499477
