You are running Q-Chem version: 5.4.0

#
# job setting
#
local host:  exp-6-02
current dir: /expanse/lustre/projects/csd626/rramji/aromodel/PTB7_fin/Hydrogenated_Rotation_Test
input file:  fin_bdt_Phi_15_Theta_40_fin_ftt_Hydrogenated.qcin
output file: 
nprocs     : 1
nthreads   : 64
#
# qchem installation setting
#
QC:          /cm/shared/apps/spack/cpu/opt/spack/linux-centos8-zen2/gcc-10.2.0/qchem-5.4-akfmr7b3t57bfs6qan3padb2wnb2i7cl
QCAUX:       /cm/shared/apps/spack/cpu/opt/spack/linux-centos8-zen2/gcc-10.2.0/qchem-5.4-akfmr7b3t57bfs6qan3padb2wnb2i7cl/qcaux
QCPROG:      /cm/shared/apps/spack/cpu/opt/spack/linux-centos8-zen2/gcc-10.2.0/qchem-5.4-akfmr7b3t57bfs6qan3padb2wnb2i7cl/exe/qcprog.exe
QCPROG_S:    /cm/shared/apps/spack/cpu/opt/spack/linux-centos8-zen2/gcc-10.2.0/qchem-5.4-akfmr7b3t57bfs6qan3padb2wnb2i7cl/exe/qcprog.exe_s
PARALLEL:    -DPARALLEL
QCMPI:       mpich
#
# qchem directory setting
#
qcrun:       qchem398642
QCSCRATCH:   .
QCLOCALSCR:  
QCTMPDIR:    .
QCFILEPREF:  ./qchem398642
QCSAVEDIR:   
workdirs:    ./qchem398642
workdir0:    ./qchem398642
partmpdirs =  
#
# parallel setting
#
QCRSH:           ssh
QCMPI:           mpich
QCMPIRUN:        /cm/shared/apps/spack/cpu/opt/spack/linux-centos8-zen2/gcc-10.2.0/qchem-5.4-akfmr7b3t57bfs6qan3padb2wnb2i7cl/bin/mpi/mpirun_qchem
QCMACHINEFILE:   ./qchem398642/hostfile
exp-6-02

#
# env setting
#
exported envs:   QC QCAUX QCSCRATCH QCRUNNAME QCFILEPREF QCPROG QCPROG_S GUIFILE

Running Job 1 of 1 fin_bdt_Phi_15_Theta_40_fin_ftt_Hydrogenated.qcin
qchem fin_bdt_Phi_15_Theta_40_fin_ftt_Hydrogenated.qcin_398642.0 ./qchem398642/ 1
/cm/shared/apps/spack/cpu/opt/spack/linux-centos8-zen2/gcc-10.2.0/qchem-5.4-akfmr7b3t57bfs6qan3padb2wnb2i7cl/bin/mpi/mpirun_qchem -machinefile ./qchem398642/hostfile -np 1 /cm/shared/apps/spack/cpu/opt/spack/linux-centos8-zen2/gcc-10.2.0/qchem-5.4-akfmr7b3t57bfs6qan3padb2wnb2i7cl/exe/qcprog.exe fin_bdt_Phi_15_Theta_40_fin_ftt_Hydrogenated.qcin_398642.0 ./qchem398642/

Process 0 of 1 is on exp-6-02 - thread support 0
initial socket setup ...start
initial socket setup ...done 
now start server 0 ... 
                  Welcome to Q-Chem
     A Quantum Leap Into The Future Of Chemistry


 Q-Chem 5.4, Q-Chem, Inc., Pleasanton, CA (2021)

 License issued to: University of California, San Diego (site)

 E. Epifanovsky,  A. T. B. Gilbert,  Xintian Feng,  Joonho Lee,  Yuezhi Mao,  
 N. Mardirossian,  P. Pokhilko,  A. White,  M. Wormit,  M. P. Coons,  
 A. L. Dempwolff,  Zhengting Gan,  D. Hait,  P. R. Horn,  L. D. Jacobson,  
 I. Kaliman,  J. Kussmann,  A. W. Lange,  Ka Un Lao,  D. S. Levine,  Jie Liu,  
 S. C. McKenzie,  A. F. Morrison,  K. Nanda,  F. Plasser,  D. R. Rehn,  
 M. L. Vidal,  Zhi-Qiang You,  Ying Zhu,  B. Alam,  B. Albrecht,  
 A. Aldossary,  E. Alguire,  J. H. Andersen,  D. Barton,  K. Begam,  A. Behn,  
 Y. A. Bernard,  E. J. Berquist,  H. Burton,  A. Carreras,  K. Carter-Fenk,  
 R. Chakraborty,  A. D. Chien,  K. D. Closser,  V. Cofer-Shabica,  
 S. Dasgupta,  Jia Deng,  M. de Wergifosse,  M. Diedenhofen,  Hainam Do,  
 S. Ehlert,  Po-Tung Fang,  S. Fatehi,  Qingguo Feng,  J. Gayvert,  
 Qinghui Ge,  G. Gidofalvi,  M. Goldey,  J. Gomes,  C. Gonzalez-Espinoza,  
 S. Gulania,  A. Gunina,  M. W. D. Hanson-Heine,  P. H. P. Harbach,  
 A. W. Hauser,  M. F. Herbst,  M. Hernandez Vera,  M. Hodecker,  
 Z. C. Holden,  S. Houck,  Xunkun Huang,  Kerwin Hui,  B. C. Huynh,  
 M. Ivanov,  Hyunjun Ji,  Hanjie Jiang,  B. Kaduk,  S. Kaehler,  
 K. Khistyaev,  Jaehoon Kim,  P. Klunzinger,  Z. Koczor-Benda,  
 Joong Hoon Koh,  D. Kosenkov,  L. Koulias,  T. Kowalczyk,  C. M. Krauter,  
 K. Kue,  A. Kunitsa,  T. Kus,  A. Landau,  K. V. Lawler,  D. Lefrancois,  
 S. Lehtola,  Rain Li,  Yi-Pei Li,  Jiashu Liang,  M. Liebenthal,  
 Hung-Hsuan Lin,  You-Sheng Lin,  Fenglai Liu,  Kuan-Yu Liu,  
 M. Loipersberger,  A. Luenser,  A. Manjanath,  P. Manohar,  E. Mansoor,  
 S. F. Manzer,  Shan-Ping Mao,  A. V. Marenich,  T. Markovich,  S. Mason,  
 S. A. Maurer,  P. F. McLaughlin,  M. F. S. J. Menger,  J.-M. Mewes,  
 S. A. Mewes,  P. Morgante,  J. W. Mullinax,  T. S. Nguyen-Beck,  
 K. J. Oosterbaan,  G. Paran,  Alexander C. Paul,  Suranjan K. Paul,  
 F. Pavosevic,  Zheng Pei,  S. Prager,  E. I. Proynov,  E. Ramos,  B. Rana,  
 A. E. Rask,  A. Rettig,  R. M. Richard,  F. Rob,  E. Rossomme,  T. Scheele,  
 M. Scheurer,  M. Schneider,  N. Sergueev,  S. M. Sharada,  W. Skomorowski,  
 D. W. Small,  C. J. Stein,  Yu-Chuan Su,  E. J. Sundstrom,  Zhen Tao,  
 J. Thirman,  T. Tsuchimochi,  N. M. Tubman,  S. P. Veccham,  O. Vydrov,  
 J. Wenzel,  J. Witte,  A. Yamada,  Kun Yao,  S. Yeganeh,  S. R. Yost,  
 A. Zech,  Igor Ying Zhang,  Xing Zhang,  Yu Zhang,  D. Zuev,  
 A. Aspuru-Guzik,  A. T. Bell,  N. A. Besley,  K. B. Bravaya,  B. R. Brooks,  
 D. Casanova,  Jeng-Da Chai,  S. Coriani,  C. J. Cramer,  
 A. E. DePrince, III,  R. A. DiStasio Jr.,  A. Dreuw,  B. D. Dunietz,  
 T. R. Furlani,  W. A. Goddard III,  S. Grimme,  S. Hammes-Schiffer,  
 T. Head-Gordon,  W. J. Hehre,  Chao-Ping Hsu,  T.-C. Jagau,  Yousung Jung,  
 A. Klamt,  Jing Kong,  D. S. Lambrecht,  WanZhen Liang,  N. J. Mayhall,  
 C. W. McCurdy,  J. B. Neaton,  C. Ochsenfeld,  J. A. Parkhill,  R. Peverati,  
 V. A. Rassolov,  Yihan Shao,  L. V. Slipchenko,  T. Stauch,  R. P. Steele,  
 J. E. Subotnik,  A. J. W. Thom,  A. Tkatchenko,  D. G. Truhlar,  
 T. Van Voorhis,  T. A. Wesolowski,  K. B. Whaley,  H. L. Woodcock III,  
 P. M. Zimmerman,  S. Faraji,  P. M. W. Gill,  M. Head-Gordon,  
 J. M. Herbert,  A. I. Krylov

 Contributors to earlier versions of Q-Chem not listed above: 
 R. D. Adamson,  B. Austin,  R. Baer,  J. Baker,  G. J. O. Beran,  
 K. Brandhorst,  S. T. Brown,  E. F. C. Byrd,  A. K. Chakraborty,  
 G. K. L. Chan,  Chun-Min Chang,  Yunqing Chen,  C.-L. Cheng,  
 Siu Hung Chien,  D. M. Chipman,  D. L. Crittenden,  H. Dachsel,  
 R. J. Doerksen,  A. D. Dutoi,  R. G. Edgar,  J. Fosso-Tande,  
 L. Fusti-Molnar,  D. Ghosh,  A. Ghysels,  A. Golubeva-Zadorozhnaya,  
 J. Gonthier,  M. S. Gordon,  S. R. Gwaltney,  G. Hawkins,  J. E. Herr,  
 A. Heyden,  S. Hirata,  E. G. Hohenstein,  G. Kedziora,  F. J. Keil,  
 C. Kelley,  Jihan Kim,  R. A. King,  R. Z. Khaliullin,  P. P. Korambath,  
 W. Kurlancheek,  A. Laurent,  A. M. Lee,  M. S. Lee,  S. V. Levchenko,  
 Ching Yeh Lin,  D. Liotard,  E. Livshits,  R. C. Lochan,  I. Lotan,  
 L. A. Martinez-Martinez,  P. E. Maslen,  N. Nair,  D. P. O'Neill,  
 D. Neuhauser,  E. Neuscamman,  C. M. Oana,  R. Olivares-Amaya,  R. Olson,  
 T. M. Perrine,  B. Peters,  P. A. Pieniazek,  A. Prociuk,  Y. M. Rhee,  
 J. Ritchie,  M. A. Rohrdanz,  E. Rosta,  N. J. Russ,  H. F. Schaefer III,  
 M. W. Schmidt,  N. E. Schultz,  S. Sharma,  N. Shenvi,  C. D. Sherrill,  
 A. C. Simmonett,  A. Sodt,  T. Stein,  D. Stuck,  K. S. Thanthiriwatte,  
 V. Vanovschi,  L. Vogt,  Tao Wang,  A. Warshel,  M. A. Watson,  
 C. F. Williams,  Q. Wu,  X. Xu,  Jun Yang,  W. Zhang,  Yan Zhao

 Please cite Q-Chem as follows:
 Y. Shao et al., Mol. Phys. 113, 184-215 (2015)
 DOI: 10.1080/00268976.2014.952696

 Q-Chem 5.4.0 for Intel X86 EM64T Linux

 Parts of Q-Chem use Armadillo 9.800.1 (Horizon Scraper).
 http://arma.sourceforge.net/

 Q-Chem begins on Tue Sep 26 17:36:33 2023  

 Host: 
0

     Scratch files written to ./qchem398642//
 May1621 |scratch|qcdevops|jenkins|workspace|build_RNUM    
 Parallel job on  1  processors
 Processing $rem in /cm/shared/apps/spack/cpu/opt/spack/linux-centos8-zen2/gcc-10.2.0/qchem-5.4-akfmr7b3t57bfs6qan3padb2wnb2i7cl/config/preferences:
 Processing $rem in /home/rramji/.qchemrc:
 Symmetry turned off for PCM/SM12/SMD calculation
 Core orbitals will be frozen

 Checking the input file for inconsistencies... 	...done.

 Q-Chem warning in module forms1/BasisType.C, line 2236:

 You are not using the predefined 5D/6D in this basis set.


--------------------------------------------------------------
User input:
--------------------------------------------------------------
$molecule
0 1
C	-0.208886	-8.519741	0.174379
C	0.472151	-7.635967	-0.650052
S	-1.193717	-7.651740	1.377058
C	0.225125	-6.261894	-0.353105
H	1.141594	-7.954738	-1.458961
C	-0.692811	-6.079985	0.740583
C	-1.039773	-4.798382	1.195546
C	0.817634	-5.153542	-1.023267
C	0.473754	-3.869626	-0.565262
C	-0.447350	-3.688927	0.527745
O	1.644483	-5.481075	-2.054917
O	-1.869424	-4.479871	2.232592
C	-2.939466	-5.356026	2.565470
H	-3.601405	-4.790496	3.248608
H	-2.587892	-6.268513	3.094885
H	-3.516052	-5.658187	1.664539
C	2.608813	-4.546999	-2.524564
H	3.270661	-5.107564	-3.211568
H	3.216646	-4.131473	-1.692342
H	2.141184	-3.712085	-3.090211
C	-0.690319	-2.314326	0.823402
S	0.985511	-2.295487	-1.194935
C	0.000000	-1.435180	0.000000
H	-1.361286	-1.993211	1.630024
C	0.000000	0.000000	0.000000
S	0.234946	0.868203	1.510732
C	0.641630	2.390125	0.727629
C	0.235036	0.877284	-1.064665
C	0.593019	2.219143	-0.678287
C	0.219452	0.812732	-2.486150
C	0.546689	2.034501	-3.106916
S	0.866345	3.240357	-1.965735
C	0.617067	2.279095	-4.559972
O	0.378342	1.376631	-5.350277
O	0.952308	3.517725	-5.004375
F	-0.065123	-0.264443	-3.246290
C	1.054950	3.861577	-6.334976
H	1.341516	4.928732	-6.370268
H	0.093573	3.716085	-6.875609
H	1.822303	3.252232	-6.861878
H	0.879812	3.278780	1.321510
H	0.486655	-9.146471	0.744739
H	-0.898184	-9.150570	-0.399033
H	0.832713	-1.444158	0.687683
$end

$rem
JOBTYPE		SP
EXCHANGE	HF
CORRELATION	pRIMP2
BASIS		cc-pvtz
METHOD		rimp2
AUX_BASIS	rimp2-cc-pvtz
SOLVENT_METHOD	PCM
PURECART	11111
SYMMETRY	false
MEM_TOTAL	110000
SCF_CONVERGENCE = 6
THRESH=10
GUI = 2
$end



$solvent
dielectric 4.90
$end
--------------------------------------------------------------
 ----------------------------------------------------------------
             Standard Nuclear Orientation (Angstroms)
    I     Atom           X                Y                Z
 ----------------------------------------------------------------
    1      C      -0.2088860000    -8.5197410000     0.1743790000
    2      C       0.4721510000    -7.6359670000    -0.6500520000
    3      S      -1.1937170000    -7.6517400000     1.3770580000
    4      C       0.2251250000    -6.2618940000    -0.3531050000
    5      H       1.1415940000    -7.9547380000    -1.4589610000
    6      C      -0.6928110000    -6.0799850000     0.7405830000
    7      C      -1.0397730000    -4.7983820000     1.1955460000
    8      C       0.8176340000    -5.1535420000    -1.0232670000
    9      C       0.4737540000    -3.8696260000    -0.5652620000
   10      C      -0.4473500000    -3.6889270000     0.5277450000
   11      O       1.6444830000    -5.4810750000    -2.0549170000
   12      O      -1.8694240000    -4.4798710000     2.2325920000
   13      C      -2.9394660000    -5.3560260000     2.5654700000
   14      H      -3.6014050000    -4.7904960000     3.2486080000
   15      H      -2.5878920000    -6.2685130000     3.0948850000
   16      H      -3.5160520000    -5.6581870000     1.6645390000
   17      C       2.6088130000    -4.5469990000    -2.5245640000
   18      H       3.2706610000    -5.1075640000    -3.2115680000
   19      H       3.2166460000    -4.1314730000    -1.6923420000
   20      H       2.1411840000    -3.7120850000    -3.0902110000
   21      C      -0.6903190000    -2.3143260000     0.8234020000
   22      S       0.9855110000    -2.2954870000    -1.1949350000
   23      C       0.0000000000    -1.4351800000     0.0000000000
   24      H      -1.3612860000    -1.9932110000     1.6300240000
   25      C       0.0000000000     0.0000000000     0.0000000000
   26      S       0.2349460000     0.8682030000     1.5107320000
   27      C       0.6416300000     2.3901250000     0.7276290000
   28      C       0.2350360000     0.8772840000    -1.0646650000
   29      C       0.5930190000     2.2191430000    -0.6782870000
   30      C       0.2194520000     0.8127320000    -2.4861500000
   31      C       0.5466890000     2.0345010000    -3.1069160000
   32      S       0.8663450000     3.2403570000    -1.9657350000
   33      C       0.6170670000     2.2790950000    -4.5599720000
   34      O       0.3783420000     1.3766310000    -5.3502770000
   35      O       0.9523080000     3.5177250000    -5.0043750000
   36      F      -0.0651230000    -0.2644430000    -3.2462900000
   37      C       1.0549500000     3.8615770000    -6.3349760000
   38      H       1.3415160000     4.9287320000    -6.3702680000
   39      H       0.0935730000     3.7160850000    -6.8756090000
   40      H       1.8223030000     3.2522320000    -6.8618780000
   41      H       0.8798120000     3.2787800000     1.3215100000
   42      H       0.4866550000    -9.1464710000     0.7447390000
   43      H      -0.8981840000    -9.1505700000    -0.3990330000
   44      H       0.8327130000    -1.4441580000     0.6876830000
 ----------------------------------------------------------------
 Nuclear Repulsion Energy =        3376.00137120 hartrees
 There are      120 alpha and      120 beta electrons
 Requested basis set is cc-pVTZ
 There are 388 shells and 1096 basis functions

 Total QAlloc Memory Limit 110000 MB
 Mega-Array Size       188 MB
 MEM_STATIC part       192 MB
 Discretize the solute cavity surface with Lebedev spheres
	Using 110 Lebedev grid points for each H atom
	Using 194 Lebedev grid points for other atoms
	Atomic van der Waals radii will be scaled by 1.20
 Remove points where switching function is < 1.0e-08
 Keep 2943 surface tesserae and discard 4333 interior tesserae
 Molecular Surface Area = 437.823 Angst**2
 Requested basis set is rimp2-cc-pVTZ
 There are 853 shells and 2963 basis functions
 A cutoff of  1.0D-10 yielded  33476 shell pairs
 There are    252732 function pairs (    326955 Cartesian)
 Smallest overlap matrix eigenvalue = 2.13E-05

 Scale SEOQF with 1.000000e-01/1.000000e-02/1.000000e-02

 Standard Electronic Orientation quadrupole field applied
 Nucleus-field energy     =     0.0000000264 hartrees
 Guess from superposition of atomic densities
 Warning:  Energy on first SCF cycle will be non-variational
 SAD guess density has 240.000000 electrons

 -----------------------------------------------------------------------
  General SCF calculation program by
  Eric Jon Sundstrom, Paul Horn, Yuezhi Mao, Dmitri Zuev, Alec White,
  David Stuck, Shaama M.S., Shane Yost, Joonho Lee, David Small,
  Daniel Levine, Susi Lehtola, Hugh Burton, Evgeny Epifanovsky,
  Bang C. Huynh
 -----------------------------------------------------------------------
 Hartree-Fock
 using 64 threads for integral computing
 -------------------------------------------------------
 OpenMP Integral computing Module                
 Release: version 1.0, May 2013, Q-Chem Inc. Pittsburgh 
 -------------------------------------------------------
 A restricted SCF calculation will be
 performed using DIIS
 SCF converges when DIIS error is below 1.0e-06
 ---------------------------------------
  Cycle       Energy         DIIS error
 ---------------------------------------
    1   -2767.3565414438      1.77e-02  
    2   -2754.8643318369      1.55e-03  
    3   -2755.2139526810      8.79e-04  
    4   -2755.3053229180      2.54e-04  
    5   -2755.3191455511      7.28e-05  
    6   -2755.3207153664      2.64e-05  
    7   -2755.3211380734      1.38e-05  
    8   -2755.3212686806      5.75e-06  
    9   -2755.3212977836      3.05e-06  
   10   -2755.3213050605      1.49e-06  
   11   -2755.3213075090      7.92e-07  Convergence criterion met
 ---------------------------------------
 SCF time:   CPU 7448.08s  wall 272.00s 

************** Final PCM Free Energy Summary **************
 G_electrostatic  =      -0.02227401 hartree =     -13.97715407 kcal/mol
 G_cavitation     =       0.00000000 hartree =       0.00000000 kcal/mol
 G_dispersion     =       0.00000000 hartree =       0.00000000 kcal/mol
 G_repulsion      =       0.00000000 hartree =       0.00000000 kcal/mol
 --------------------------------------------------
 Non-electrostatic Free Energy =       0.00000000 hartree =       0.00000000 kcal/mol
 Total                         =      -0.02227401 hartree =     -13.97715407 kcal/mol
 --------------------------------------------------
 SCF Energy (H0 + V/2)                       =   -2755.32130751 
 Solute Internal Energy (H0)                 =   -2755.29903350 
 Total Free Energy (H0 + V/2 + non-elec)     =   -2755.32130751 hartree
                                             = -1728990.21611001 kcal/mol
***********************************************************

 SCF   energy in the final basis set =    -2755.3213075090
 Total energy in the final basis set =    -2755.3213075090


 --------------------------------------------------------------
  Generalized many-body perturbation theory program
  by Joonho Lee, Fazle Rob, Xintian Feng, Evgeny Epifanovsky

 No regularization used 
 (reg. param. = 0.0000e+00)
  (P|Q)^-1/2 Time:  CPU 113.27 s  wall 1.80 s

 In RI-MP2 calculation: 
 # of frozen core orbitals: 45

 Components of the RIMP2 correlation energy:
        aaaa    correlation energy =        -0.6699988628 a.u.
        abab    correlation energy =        -3.7510012469 a.u.
        bbbb    correlation energy =        -0.6699988628 a.u.
        non-Brillouin singles      =        -0.0000000000 a.u.
        total same-spin energy     =        -1.3399977256 a.u.
        total opposite-spin energy =        -3.7510012469 a.u.

 Total  RIMP2   correlation energy =        -5.0909989725 a.u.
        RIMP2         total energy =     -2760.4123064815 a.u.

 RI-MP2 Energy Time:  CPU 2882.78 s  wall 46.40 s
 
 --------------------------------------------------------------
 
                    Orbital Energies (a.u.)
 --------------------------------------------------------------
 
 Alpha MOs
 -- Occupied --
-92.0136 -91.9928 -91.9778 -91.9595 -26.3339 -20.6116 -20.5878 -20.5874
-20.5489 -11.4094 -11.3786 -11.3209 -11.3095 -11.3087 -11.2966 -11.2951
-11.2896 -11.2882 -11.2842 -11.2842 -11.2837 -11.2833 -11.2795 -11.2749
-11.2722 -11.2607 -11.2591 -11.2508 -11.2395  -9.0125  -8.9970  -8.9801
 -8.9621  -6.6933  -6.6927  -6.6921  -6.6783  -6.6776  -6.6763  -6.6612
 -6.6603  -6.6590  -6.6433  -6.6424  -6.6413  -1.6476  -1.4712  -1.4109
 -1.4095  -1.3663  -1.2387  -1.2099  -1.1769  -1.1439  -1.1000  -1.0505
 -1.0464  -1.0307  -1.0084  -0.9990  -0.9716  -0.9600  -0.9491  -0.9406
 -0.8943  -0.8708  -0.8644  -0.8110  -0.7929  -0.7858  -0.7763  -0.7689
 -0.7660  -0.7332  -0.7208  -0.7154  -0.6973  -0.6929  -0.6833  -0.6780
 -0.6712  -0.6681  -0.6567  -0.6490  -0.6384  -0.6288  -0.6211  -0.6154
 -0.6109  -0.6056  -0.5957  -0.5926  -0.5800  -0.5661  -0.5639  -0.5583
 -0.5491  -0.5342  -0.5280  -0.5214  -0.5133  -0.5083  -0.5036  -0.5013
 -0.4856  -0.4838  -0.4785  -0.4689  -0.4622  -0.4608  -0.4601  -0.4476
 -0.4278  -0.4013  -0.3853  -0.3718  -0.3514  -0.2934  -0.2851  -0.2189
 -- Virtual --
  0.0268   0.0565   0.1116   0.1318   0.1380   0.1469   0.1535   0.1556
  0.1578   0.1597   0.1687   0.1742   0.1809   0.1855   0.1902   0.1956
  0.2010   0.2030   0.2050   0.2090   0.2162   0.2212   0.2232   0.2281
  0.2300   0.2342   0.2375   0.2455   0.2543   0.2576   0.2685   0.2731
  0.2814   0.2891   0.3096   0.3211   0.3266   0.3351   0.3424   0.3450
  0.3552   0.3579   0.3631   0.3637   0.3720   0.3781   0.3813   0.3845
  0.3881   0.3951   0.3961   0.4017   0.4068   0.4121   0.4168   0.4197
  0.4221   0.4274   0.4326   0.4371   0.4392   0.4448   0.4527   0.4539
  0.4551   0.4583   0.4663   0.4696   0.4751   0.4765   0.4799   0.4809
  0.4918   0.4953   0.4997   0.5030   0.5061   0.5140   0.5160   0.5189
  0.5224   0.5289   0.5322   0.5349   0.5399   0.5476   0.5487   0.5526
  0.5536   0.5586   0.5598   0.5623   0.5684   0.5734   0.5764   0.5834
  0.5868   0.5894   0.5924   0.5934   0.5973   0.6033   0.6055   0.6095
  0.6102   0.6151   0.6175   0.6195   0.6223   0.6258   0.6272   0.6323
  0.6347   0.6367   0.6403   0.6425   0.6473   0.6476   0.6558   0.6591
  0.6650   0.6662   0.6707   0.6758   0.6820   0.6890   0.6918   0.6952
  0.6991   0.7103   0.7111   0.7158   0.7186   0.7250   0.7332   0.7405
  0.7443   0.7526   0.7623   0.7657   0.7731   0.7788   0.7850   0.7883
  0.7954   0.7990   0.8023   0.8064   0.8144   0.8158   0.8200   0.8271
  0.8369   0.8430   0.8483   0.8591   0.8651   0.8712   0.8719   0.8784
  0.8897   0.8948   0.9011   0.9016   0.9046   0.9089   0.9136   0.9183
  0.9214   0.9263   0.9346   0.9371   0.9402   0.9448   0.9466   0.9527
  0.9605   0.9617   0.9742   0.9762   0.9821   0.9844   0.9888   0.9941
  1.0009   1.0027   1.0077   1.0100   1.0127   1.0169   1.0242   1.0299
  1.0386   1.0396   1.0453   1.0496   1.0549   1.0607   1.0675   1.0709
  1.0748   1.0770   1.0832   1.0884   1.0942   1.0969   1.1006   1.1078
  1.1129   1.1197   1.1222   1.1298   1.1385   1.1449   1.1469   1.1492
  1.1555   1.1593   1.1615   1.1690   1.1728   1.1773   1.1789   1.1873
  1.1891   1.1904   1.1939   1.1975   1.2008   1.2051   1.2114   1.2194
  1.2229   1.2288   1.2353   1.2392   1.2444   1.2457   1.2525   1.2583
  1.2645   1.2682   1.2716   1.2814   1.2868   1.2890   1.2950   1.3008
  1.3067   1.3133   1.3203   1.3272   1.3304   1.3342   1.3405   1.3417
  1.3496   1.3528   1.3621   1.3723   1.3817   1.3891   1.3924   1.4013
  1.4055   1.4173   1.4203   1.4226   1.4302   1.4388   1.4509   1.4522
  1.4635   1.4669   1.4786   1.4846   1.4862   1.4879   1.4934   1.5018
  1.5041   1.5077   1.5109   1.5131   1.5229   1.5301   1.5338   1.5410
  1.5419   1.5454   1.5507   1.5571   1.5613   1.5630   1.5713   1.5779
  1.5893   1.5957   1.6001   1.6097   1.6142   1.6207   1.6319   1.6405
  1.6486   1.6559   1.6623   1.6633   1.6717   1.6732   1.6804   1.6840
  1.6945   1.6982   1.7133   1.7238   1.7244   1.7287   1.7383   1.7509
  1.7561   1.7647   1.7688   1.7748   1.7878   1.7956   1.8050   1.8179
  1.8266   1.8293   1.8337   1.8420   1.8535   1.8608   1.8692   1.8713
  1.8792   1.8814   1.8911   1.9108   1.9167   1.9261   1.9316   1.9343
  1.9511   1.9530   1.9646   1.9715   1.9766   1.9823   1.9914   1.9991
  2.0136   2.0164   2.0221   2.0343   2.0397   2.0408   2.0474   2.0563
  2.0687   2.0749   2.0865   2.0958   2.1017   2.1148   2.1245   2.1315
  2.1459   2.1480   2.1583   2.1600   2.1743   2.1800   2.1850   2.1947
  2.1989   2.2022   2.2126   2.2190   2.2215   2.2331   2.2431   2.2465
  2.2524   2.2628   2.2639   2.2796   2.2844   2.2888   2.2990   2.3062
  2.3096   2.3144   2.3269   2.3374   2.3406   2.3562   2.3615   2.3688
  2.3717   2.3861   2.3922   2.4004   2.4148   2.4156   2.4188   2.4211
  2.4411   2.4523   2.4638   2.4653   2.4768   2.4831   2.4924   2.5047
  2.5125   2.5215   2.5294   2.5345   2.5443   2.5596   2.5660   2.5677
  2.5849   2.5927   2.5945   2.6021   2.6109   2.6141   2.6228   2.6266
  2.6323   2.6390   2.6454   2.6469   2.6544   2.6638   2.6672   2.6740
  2.6787   2.6898   2.6924   2.6972   2.7012   2.7099   2.7147   2.7212
  2.7304   2.7375   2.7393   2.7424   2.7501   2.7558   2.7647   2.7674
  2.7740   2.7818   2.7923   2.7956   2.8021   2.8128   2.8179   2.8347
  2.8410   2.8477   2.8558   2.8583   2.8627   2.8665   2.8698   2.8793
  2.8817   2.8894   2.8987   2.9052   2.9220   2.9315   2.9386   2.9436
  2.9512   2.9574   2.9645   2.9683   2.9799   2.9835   2.9893   3.0011
  3.0093   3.0120   3.0258   3.0351   3.0372   3.0445   3.0460   3.0476
  3.0574   3.0661   3.0741   3.0819   3.0885   3.0912   3.0962   3.1072
  3.1098   3.1111   3.1184   3.1239   3.1322   3.1336   3.1434   3.1477
  3.1505   3.1528   3.1571   3.1605   3.1669   3.1727   3.1771   3.1829
  3.1885   3.1941   3.2040   3.2091   3.2135   3.2162   3.2185   3.2241
  3.2317   3.2367   3.2443   3.2476   3.2517   3.2528   3.2632   3.2640
  3.2713   3.2728   3.2800   3.2815   3.2884   3.2893   3.2927   3.2969
  3.3020   3.3076   3.3135   3.3192   3.3269   3.3330   3.3379   3.3429
  3.3485   3.3508   3.3522   3.3598   3.3625   3.3661   3.3675   3.3702
  3.3745   3.3801   3.3829   3.3866   3.3916   3.3967   3.4006   3.4042
  3.4155   3.4190   3.4214   3.4266   3.4346   3.4378   3.4434   3.4489
  3.4504   3.4534   3.4574   3.4630   3.4726   3.4741   3.4826   3.4879
  3.4966   3.4998   3.5053   3.5105   3.5162   3.5224   3.5263   3.5375
  3.5426   3.5456   3.5514   3.5530   3.5671   3.5757   3.5814   3.5859
  3.5910   3.5929   3.5952   3.5998   3.6028   3.6068   3.6120   3.6188
  3.6292   3.6303   3.6354   3.6388   3.6405   3.6513   3.6578   3.6597
  3.6675   3.6698   3.6730   3.6802   3.6812   3.6883   3.6955   3.7014
  3.7075   3.7086   3.7122   3.7136   3.7202   3.7232   3.7249   3.7309
  3.7337   3.7398   3.7464   3.7511   3.7561   3.7647   3.7705   3.7755
  3.7813   3.7881   3.7924   3.7968   3.8016   3.8106   3.8171   3.8234
  3.8277   3.8329   3.8371   3.8455   3.8482   3.8556   3.8587   3.8613
  3.8676   3.8729   3.8754   3.8829   3.8891   3.8953   3.9061   3.9136
  3.9264   3.9297   3.9316   3.9389   3.9397   3.9496   3.9587   3.9607
  3.9655   3.9706   3.9755   3.9814   3.9865   3.9994   4.0084   4.0146
  4.0164   4.0249   4.0393   4.0431   4.0528   4.0576   4.0635   4.0673
  4.0720   4.0849   4.0934   4.0957   4.0982   4.1044   4.1144   4.1261
  4.1378   4.1489   4.1503   4.1610   4.1676   4.1714   4.1728   4.1797
  4.1844   4.1911   4.2019   4.2086   4.2117   4.2166   4.2280   4.2405
  4.2475   4.2590   4.2667   4.2727   4.2868   4.2917   4.2973   4.3109
  4.3158   4.3214   4.3302   4.3398   4.3478   4.3482   4.3618   4.3627
  4.3714   4.3773   4.3832   4.3929   4.3984   4.4049   4.4131   4.4149
  4.4209   4.4269   4.4309   4.4327   4.4374   4.4403   4.4486   4.4661
  4.4701   4.4761   4.4780   4.4957   4.5013   4.5142   4.5193   4.5230
  4.5259   4.5514   4.5536   4.5581   4.5691   4.5714   4.5770   4.5923
  4.5957   4.6041   4.6140   4.6229   4.6299   4.6375   4.6414   4.6457
  4.6582   4.6600   4.6663   4.6855   4.6918   4.7099   4.7168   4.7227
  4.7348   4.7401   4.7532   4.7715   4.7875   4.7966   4.8066   4.8145
  4.8185   4.8264   4.8359   4.8505   4.8604   4.8722   4.8842   4.8956
  4.9033   4.9220   4.9361   4.9433   4.9539   4.9574   4.9660   4.9743
  4.9901   4.9974   5.0120   5.0126   5.0155   5.0343   5.0446   5.0624
  5.0707   5.0924   5.1042   5.1255   5.1360   5.1549   5.1609   5.1740
  5.1837   5.1929   5.2012   5.2100   5.2197   5.2218   5.2328   5.2548
  5.2595   5.2629   5.2897   5.2910   5.2925   5.3168   5.3241   5.3316
  5.3405   5.3484   5.3555   5.3634   5.3711   5.3783   5.3877   5.3989
  5.4024   5.4102   5.4266   5.4428   5.4599   5.4734   5.4955   5.5013
  5.5117   5.5184   5.5240   5.5442   5.5556   5.5680   5.5744   5.5803
  5.6032   5.6097   5.6184   5.6210   5.6339   5.6476   5.6805   5.6896
  5.7128   5.7384   5.7647   5.7868   5.8014   5.8173   5.8435   5.8585
  5.8718   5.8838   5.9008   5.9234   5.9706   5.9721   5.9871   6.0087
  6.0411   6.0509   6.1218   6.1231   6.1341   6.1577   6.1736   6.1786
  6.1861   6.2064   6.2194   6.2508   6.2628   6.2748   6.2888   6.3008
  6.3091   6.3506   6.3716   6.4366   6.4706   6.4912   6.5415   6.5479
  6.5572   6.5740   6.6446   6.6776   6.6898   6.7178   6.7431   6.7500
  6.8076   6.8589   6.8616   6.8831   6.8984   6.9939   7.1312   7.1462
  7.1790   7.2123   7.2218   7.2390   7.3269   7.3276   7.3423   7.3747
  7.3767   7.4303   7.4632   7.4855   7.4878   7.4964   7.5215   7.5507
  7.6184   7.7421   7.7707   7.8025   7.8326   7.9128   7.9259   7.9558
  8.0067   8.1294   8.3769   8.6768   8.9390   9.0125   9.3680   9.5064
  9.7050  10.3613  11.2590  11.4551  11.8996  11.9448  12.1233  12.3606
 12.4049  12.5003  12.6936  12.9457  13.0164  13.2328  13.4804  13.5977
 13.7544  13.8866  13.9305  13.9988  14.2557  14.3449  14.9047  15.2062
 --------------------------------------------------------------
 
          Ground-State Mulliken Net Atomic Charges

     Atom                 Charge (a.u.)
  ----------------------------------------
      1 C                    -0.070423
      2 C                    -0.252204
      3 S                    -0.133087
      4 C                    -0.048704
      5 H                     0.194667
      6 C                    -0.046430
      7 C                     0.216974
      8 C                     0.227509
      9 C                    -0.074546
     10 C                    -0.012007
     11 O                    -0.334636
     12 O                    -0.343736
     13 C                    -0.082669
     14 H                     0.120003
     15 H                     0.092011
     16 H                     0.093267
     17 C                    -0.088603
     18 H                     0.124010
     19 H                     0.092108
     20 H                     0.092181
     21 C                    -0.325726
     22 S                    -0.083339
     23 C                     0.129501
     24 H                     0.201338
     25 C                    -0.029880
     26 S                     0.091366
     27 C                    -0.252425
     28 C                    -0.150834
     29 C                    -0.003326
     30 C                     0.391181
     31 C                    -0.151121
     32 S                     0.032148
     33 C                     0.461117
     34 O                    -0.451926
     35 O                    -0.298291
     36 F                    -0.208253
     37 C                    -0.055031
     38 H                     0.116458
     39 H                     0.084531
     40 H                     0.084215
     41 H                     0.214156
     42 H                     0.118415
     43 H                     0.116365
     44 H                     0.203674
  ----------------------------------------
  Sum of atomic charges =     0.000000

 -----------------------------------------------------------------
                    Cartesian Multipole Moments
 -----------------------------------------------------------------
    Charge (ESU x 10^10)
                -0.0000
    Dipole Moment (Debye)
         X       1.4302      Y       2.3166      Z       3.4039
       Tot       4.3587
    Quadrupole Moments (Debye-Ang)
        XX    -186.9281     XY       1.1723     YY    -171.8843
        XZ     -11.1227     YZ      -6.6443     ZZ    -201.7941
    Octopole Moments (Debye-Ang^2)
       XXX    -103.3008    XXY     334.3257    XYY      -1.5067
       YYY     982.7245    XXZ     167.6554    XYZ      26.5951
       YYZ      92.6975    XZZ      -1.3677    YZZ     484.1273
       ZZZ     523.6451
    Hexadecapole Moments (Debye-Ang^3)
      XXXX   -1535.1027   XXXY    -745.5722   XXYY   -3761.6488
      XYYY    -830.5443   YYYY  -19429.7185   XXXZ     875.9911
      XXYZ     554.1576   XYYZ      99.2016   YYYZ    1793.5066
      XXZZ   -1288.4908   XYZZ    -118.8599   YYZZ   -4373.3437
      XZZZ     721.1589   YZZZ    1082.6980   ZZZZ   -6824.9490
 -----------------------------------------------------------------
 Total job time:  322.26s(wall), 10423.56s(cpu) 
 Tue Sep 26 17:41:55 2023

        *************************************************************
        *                                                           *
        *  Thank you very much for using Q-Chem.  Have a nice day.  *
        *                                                           *
        *************************************************************


0 sent ACK to 0 
now end server 0 ... 
cleanup process ... done
remove work dirs ./qchem398642.0 -- ./qchem398642.0
rm -rf ./qchem398642.0
rm -rf ./qchem398642
