You are running Q-Chem version: 5.4.0

#
# job setting
#
local host:  exp-5-07
current dir: /expanse/lustre/projects/csd626/rramji/aromodel/PTB7_fin/Hydrogenated_Rotation_Test
input file:  fin_bdt_Phi_5_Theta_260_fin_ftt_Hydrogenated.qcin
output file: 
nprocs     : 1
nthreads   : 64
#
# qchem installation setting
#
QC:          /cm/shared/apps/spack/cpu/opt/spack/linux-centos8-zen2/gcc-10.2.0/qchem-5.4-akfmr7b3t57bfs6qan3padb2wnb2i7cl
QCAUX:       /cm/shared/apps/spack/cpu/opt/spack/linux-centos8-zen2/gcc-10.2.0/qchem-5.4-akfmr7b3t57bfs6qan3padb2wnb2i7cl/qcaux
QCPROG:      /cm/shared/apps/spack/cpu/opt/spack/linux-centos8-zen2/gcc-10.2.0/qchem-5.4-akfmr7b3t57bfs6qan3padb2wnb2i7cl/exe/qcprog.exe
QCPROG_S:    /cm/shared/apps/spack/cpu/opt/spack/linux-centos8-zen2/gcc-10.2.0/qchem-5.4-akfmr7b3t57bfs6qan3padb2wnb2i7cl/exe/qcprog.exe_s
PARALLEL:    -DPARALLEL
QCMPI:       mpich
#
# qchem directory setting
#
qcrun:       qchem482299
QCSCRATCH:   .
QCLOCALSCR:  
QCTMPDIR:    .
QCFILEPREF:  ./qchem482299
QCSAVEDIR:   
workdirs:    ./qchem482299
workdir0:    ./qchem482299
partmpdirs =  
#
# parallel setting
#
QCRSH:           ssh
QCMPI:           mpich
QCMPIRUN:        /cm/shared/apps/spack/cpu/opt/spack/linux-centos8-zen2/gcc-10.2.0/qchem-5.4-akfmr7b3t57bfs6qan3padb2wnb2i7cl/bin/mpi/mpirun_qchem
QCMACHINEFILE:   ./qchem482299/hostfile
exp-5-07

#
# env setting
#
exported envs:   QC QCAUX QCSCRATCH QCRUNNAME QCFILEPREF QCPROG QCPROG_S GUIFILE

Running Job 1 of 1 fin_bdt_Phi_5_Theta_260_fin_ftt_Hydrogenated.qcin
qchem fin_bdt_Phi_5_Theta_260_fin_ftt_Hydrogenated.qcin_482299.0 ./qchem482299/ 1
/cm/shared/apps/spack/cpu/opt/spack/linux-centos8-zen2/gcc-10.2.0/qchem-5.4-akfmr7b3t57bfs6qan3padb2wnb2i7cl/bin/mpi/mpirun_qchem -machinefile ./qchem482299/hostfile -np 1 /cm/shared/apps/spack/cpu/opt/spack/linux-centos8-zen2/gcc-10.2.0/qchem-5.4-akfmr7b3t57bfs6qan3padb2wnb2i7cl/exe/qcprog.exe fin_bdt_Phi_5_Theta_260_fin_ftt_Hydrogenated.qcin_482299.0 ./qchem482299/

Process 0 of 1 is on exp-5-07 - thread support 0
initial socket setup ...start
initial socket setup ...done 
now start server 0 ... 
                  Welcome to Q-Chem
     A Quantum Leap Into The Future Of Chemistry


 Q-Chem 5.4, Q-Chem, Inc., Pleasanton, CA (2021)

 License issued to: University of California, San Diego (site)

 E. Epifanovsky,  A. T. B. Gilbert,  Xintian Feng,  Joonho Lee,  Yuezhi Mao,  
 N. Mardirossian,  P. Pokhilko,  A. White,  M. Wormit,  M. P. Coons,  
 A. L. Dempwolff,  Zhengting Gan,  D. Hait,  P. R. Horn,  L. D. Jacobson,  
 I. Kaliman,  J. Kussmann,  A. W. Lange,  Ka Un Lao,  D. S. Levine,  Jie Liu,  
 S. C. McKenzie,  A. F. Morrison,  K. Nanda,  F. Plasser,  D. R. Rehn,  
 M. L. Vidal,  Zhi-Qiang You,  Ying Zhu,  B. Alam,  B. Albrecht,  
 A. Aldossary,  E. Alguire,  J. H. Andersen,  D. Barton,  K. Begam,  A. Behn,  
 Y. A. Bernard,  E. J. Berquist,  H. Burton,  A. Carreras,  K. Carter-Fenk,  
 R. Chakraborty,  A. D. Chien,  K. D. Closser,  V. Cofer-Shabica,  
 S. Dasgupta,  Jia Deng,  M. de Wergifosse,  M. Diedenhofen,  Hainam Do,  
 S. Ehlert,  Po-Tung Fang,  S. Fatehi,  Qingguo Feng,  J. Gayvert,  
 Qinghui Ge,  G. Gidofalvi,  M. Goldey,  J. Gomes,  C. Gonzalez-Espinoza,  
 S. Gulania,  A. Gunina,  M. W. D. Hanson-Heine,  P. H. P. Harbach,  
 A. W. Hauser,  M. F. Herbst,  M. Hernandez Vera,  M. Hodecker,  
 Z. C. Holden,  S. Houck,  Xunkun Huang,  Kerwin Hui,  B. C. Huynh,  
 M. Ivanov,  Hyunjun Ji,  Hanjie Jiang,  B. Kaduk,  S. Kaehler,  
 K. Khistyaev,  Jaehoon Kim,  P. Klunzinger,  Z. Koczor-Benda,  
 Joong Hoon Koh,  D. Kosenkov,  L. Koulias,  T. Kowalczyk,  C. M. Krauter,  
 K. Kue,  A. Kunitsa,  T. Kus,  A. Landau,  K. V. Lawler,  D. Lefrancois,  
 S. Lehtola,  Rain Li,  Yi-Pei Li,  Jiashu Liang,  M. Liebenthal,  
 Hung-Hsuan Lin,  You-Sheng Lin,  Fenglai Liu,  Kuan-Yu Liu,  
 M. Loipersberger,  A. Luenser,  A. Manjanath,  P. Manohar,  E. Mansoor,  
 S. F. Manzer,  Shan-Ping Mao,  A. V. Marenich,  T. Markovich,  S. Mason,  
 S. A. Maurer,  P. F. McLaughlin,  M. F. S. J. Menger,  J.-M. Mewes,  
 S. A. Mewes,  P. Morgante,  J. W. Mullinax,  T. S. Nguyen-Beck,  
 K. J. Oosterbaan,  G. Paran,  Alexander C. Paul,  Suranjan K. Paul,  
 F. Pavosevic,  Zheng Pei,  S. Prager,  E. I. Proynov,  E. Ramos,  B. Rana,  
 A. E. Rask,  A. Rettig,  R. M. Richard,  F. Rob,  E. Rossomme,  T. Scheele,  
 M. Scheurer,  M. Schneider,  N. Sergueev,  S. M. Sharada,  W. Skomorowski,  
 D. W. Small,  C. J. Stein,  Yu-Chuan Su,  E. J. Sundstrom,  Zhen Tao,  
 J. Thirman,  T. Tsuchimochi,  N. M. Tubman,  S. P. Veccham,  O. Vydrov,  
 J. Wenzel,  J. Witte,  A. Yamada,  Kun Yao,  S. Yeganeh,  S. R. Yost,  
 A. Zech,  Igor Ying Zhang,  Xing Zhang,  Yu Zhang,  D. Zuev,  
 A. Aspuru-Guzik,  A. T. Bell,  N. A. Besley,  K. B. Bravaya,  B. R. Brooks,  
 D. Casanova,  Jeng-Da Chai,  S. Coriani,  C. J. Cramer,  
 A. E. DePrince, III,  R. A. DiStasio Jr.,  A. Dreuw,  B. D. Dunietz,  
 T. R. Furlani,  W. A. Goddard III,  S. Grimme,  S. Hammes-Schiffer,  
 T. Head-Gordon,  W. J. Hehre,  Chao-Ping Hsu,  T.-C. Jagau,  Yousung Jung,  
 A. Klamt,  Jing Kong,  D. S. Lambrecht,  WanZhen Liang,  N. J. Mayhall,  
 C. W. McCurdy,  J. B. Neaton,  C. Ochsenfeld,  J. A. Parkhill,  R. Peverati,  
 V. A. Rassolov,  Yihan Shao,  L. V. Slipchenko,  T. Stauch,  R. P. Steele,  
 J. E. Subotnik,  A. J. W. Thom,  A. Tkatchenko,  D. G. Truhlar,  
 T. Van Voorhis,  T. A. Wesolowski,  K. B. Whaley,  H. L. Woodcock III,  
 P. M. Zimmerman,  S. Faraji,  P. M. W. Gill,  M. Head-Gordon,  
 J. M. Herbert,  A. I. Krylov

 Contributors to earlier versions of Q-Chem not listed above: 
 R. D. Adamson,  B. Austin,  R. Baer,  J. Baker,  G. J. O. Beran,  
 K. Brandhorst,  S. T. Brown,  E. F. C. Byrd,  A. K. Chakraborty,  
 G. K. L. Chan,  Chun-Min Chang,  Yunqing Chen,  C.-L. Cheng,  
 Siu Hung Chien,  D. M. Chipman,  D. L. Crittenden,  H. Dachsel,  
 R. J. Doerksen,  A. D. Dutoi,  R. G. Edgar,  J. Fosso-Tande,  
 L. Fusti-Molnar,  D. Ghosh,  A. Ghysels,  A. Golubeva-Zadorozhnaya,  
 J. Gonthier,  M. S. Gordon,  S. R. Gwaltney,  G. Hawkins,  J. E. Herr,  
 A. Heyden,  S. Hirata,  E. G. Hohenstein,  G. Kedziora,  F. J. Keil,  
 C. Kelley,  Jihan Kim,  R. A. King,  R. Z. Khaliullin,  P. P. Korambath,  
 W. Kurlancheek,  A. Laurent,  A. M. Lee,  M. S. Lee,  S. V. Levchenko,  
 Ching Yeh Lin,  D. Liotard,  E. Livshits,  R. C. Lochan,  I. Lotan,  
 L. A. Martinez-Martinez,  P. E. Maslen,  N. Nair,  D. P. O'Neill,  
 D. Neuhauser,  E. Neuscamman,  C. M. Oana,  R. Olivares-Amaya,  R. Olson,  
 T. M. Perrine,  B. Peters,  P. A. Pieniazek,  A. Prociuk,  Y. M. Rhee,  
 J. Ritchie,  M. A. Rohrdanz,  E. Rosta,  N. J. Russ,  H. F. Schaefer III,  
 M. W. Schmidt,  N. E. Schultz,  S. Sharma,  N. Shenvi,  C. D. Sherrill,  
 A. C. Simmonett,  A. Sodt,  T. Stein,  D. Stuck,  K. S. Thanthiriwatte,  
 V. Vanovschi,  L. Vogt,  Tao Wang,  A. Warshel,  M. A. Watson,  
 C. F. Williams,  Q. Wu,  X. Xu,  Jun Yang,  W. Zhang,  Yan Zhao

 Please cite Q-Chem as follows:
 Y. Shao et al., Mol. Phys. 113, 184-215 (2015)
 DOI: 10.1080/00268976.2014.952696

 Q-Chem 5.4.0 for Intel X86 EM64T Linux

 Parts of Q-Chem use Armadillo 9.800.1 (Horizon Scraper).
 http://arma.sourceforge.net/

 Q-Chem begins on Tue Sep 26 19:44:59 2023  

 Host: 
0

     Scratch files written to ./qchem482299//
 May1621 |scratch|qcdevops|jenkins|workspace|build_RNUM    
 Parallel job on  1  processors
 Processing $rem in /cm/shared/apps/spack/cpu/opt/spack/linux-centos8-zen2/gcc-10.2.0/qchem-5.4-akfmr7b3t57bfs6qan3padb2wnb2i7cl/config/preferences:
 Processing $rem in /home/rramji/.qchemrc:
 Symmetry turned off for PCM/SM12/SMD calculation
 Core orbitals will be frozen

 Checking the input file for inconsistencies... 	...done.

 Q-Chem warning in module forms1/BasisType.C, line 2236:

 You are not using the predefined 5D/6D in this basis set.


--------------------------------------------------------------
User input:
--------------------------------------------------------------
$molecule
0 1
C	0.272104	-8.519741	0.000687
C	-0.779533	-7.635967	0.194476
S	1.799596	-7.651740	-0.287581
C	-0.399427	-6.261894	0.125787
H	-1.812314	-7.954738	0.383826
C	1.006762	-6.079985	-0.121989
C	1.564994	-4.798382	-0.247488
C	-1.284087	-5.153542	0.258303
C	-0.726260	-3.869626	0.128493
C	0.681918	-3.688927	-0.116725
O	-2.580622	-5.481075	0.517104
O	2.867144	-4.479871	-0.508622
C	3.900814	-5.356026	-0.075811
H	4.847002	-4.790496	-0.173640
H	3.971794	-6.268513	-0.707354
H	3.763397	-5.658187	0.984963
C	-3.621225	-4.546999	0.257016
H	-4.569828	-5.107564	0.357864
H	-3.551910	-4.131473	-0.771211
H	-3.626592	-3.712085	0.990913
C	1.058088	-2.314326	-0.187034
S	-1.523035	-2.295487	0.281899
C	0.000000	-1.435180	0.000000
H	2.090565	-1.993211	-0.373653
C	0.000000	0.000000	0.000000
S	0.080615	0.895811	1.510732
C	0.216842	2.465231	0.727629
C	0.079127	0.904769	-1.064665
C	0.198659	2.288406	-0.678287
C	0.074988	0.838492	-2.486150
C	0.185097	2.098524	-3.106916
S	0.290501	3.341568	-1.965735
C	0.211932	2.351623	-4.559972
O	0.133545	1.421416	-5.350277
O	0.326994	3.629649	-5.004375
F	-0.018214	-0.271734	-3.246290
C	0.368367	3.986101	-6.334976
H	0.465270	5.086806	-6.370268
H	-0.553140	3.675878	-6.875609
H	1.229874	3.519263	-6.861878
H	0.297091	3.381746	1.321510
H	0.105910	-9.146471	-0.883319
H	0.431555	-9.150570	0.883019
H	-0.195861	-1.444158	-1.062054
$end

$rem
JOBTYPE		SP
EXCHANGE	HF
CORRELATION	pRIMP2
BASIS		cc-pvtz
METHOD		rimp2
AUX_BASIS	rimp2-cc-pvtz
SOLVENT_METHOD	PCM
PURECART	11111
SYMMETRY	false
MEM_TOTAL	110000
SCF_CONVERGENCE = 6
THRESH=10
GUI = 2
$end



$solvent
dielectric 4.90
$end
--------------------------------------------------------------
 ----------------------------------------------------------------
             Standard Nuclear Orientation (Angstroms)
    I     Atom           X                Y                Z
 ----------------------------------------------------------------
    1      C       0.2721040000    -8.5197410000     0.0006870000
    2      C      -0.7795330000    -7.6359670000     0.1944760000
    3      S       1.7995960000    -7.6517400000    -0.2875810000
    4      C      -0.3994270000    -6.2618940000     0.1257870000
    5      H      -1.8123140000    -7.9547380000     0.3838260000
    6      C       1.0067620000    -6.0799850000    -0.1219890000
    7      C       1.5649940000    -4.7983820000    -0.2474880000
    8      C      -1.2840870000    -5.1535420000     0.2583030000
    9      C      -0.7262600000    -3.8696260000     0.1284930000
   10      C       0.6819180000    -3.6889270000    -0.1167250000
   11      O      -2.5806220000    -5.4810750000     0.5171040000
   12      O       2.8671440000    -4.4798710000    -0.5086220000
   13      C       3.9008140000    -5.3560260000    -0.0758110000
   14      H       4.8470020000    -4.7904960000    -0.1736400000
   15      H       3.9717940000    -6.2685130000    -0.7073540000
   16      H       3.7633970000    -5.6581870000     0.9849630000
   17      C      -3.6212250000    -4.5469990000     0.2570160000
   18      H      -4.5698280000    -5.1075640000     0.3578640000
   19      H      -3.5519100000    -4.1314730000    -0.7712110000
   20      H      -3.6265920000    -3.7120850000     0.9909130000
   21      C       1.0580880000    -2.3143260000    -0.1870340000
   22      S      -1.5230350000    -2.2954870000     0.2818990000
   23      C       0.0000000000    -1.4351800000     0.0000000000
   24      H       2.0905650000    -1.9932110000    -0.3736530000
   25      C       0.0000000000     0.0000000000     0.0000000000
   26      S       0.0806150000     0.8958110000     1.5107320000
   27      C       0.2168420000     2.4652310000     0.7276290000
   28      C       0.0791270000     0.9047690000    -1.0646650000
   29      C       0.1986590000     2.2884060000    -0.6782870000
   30      C       0.0749880000     0.8384920000    -2.4861500000
   31      C       0.1850970000     2.0985240000    -3.1069160000
   32      S       0.2905010000     3.3415680000    -1.9657350000
   33      C       0.2119320000     2.3516230000    -4.5599720000
   34      O       0.1335450000     1.4214160000    -5.3502770000
   35      O       0.3269940000     3.6296490000    -5.0043750000
   36      F      -0.0182140000    -0.2717340000    -3.2462900000
   37      C       0.3683670000     3.9861010000    -6.3349760000
   38      H       0.4652700000     5.0868060000    -6.3702680000
   39      H      -0.5531400000     3.6758780000    -6.8756090000
   40      H       1.2298740000     3.5192630000    -6.8618780000
   41      H       0.2970910000     3.3817460000     1.3215100000
   42      H       0.1059100000    -9.1464710000    -0.8833190000
   43      H       0.4315550000    -9.1505700000     0.8830190000
   44      H      -0.1958610000    -1.4441580000    -1.0620540000
 ----------------------------------------------------------------
 Nuclear Repulsion Energy =        3354.98691589 hartrees
 There are      120 alpha and      120 beta electrons
 Requested basis set is cc-pVTZ
 There are 388 shells and 1096 basis functions

 Total QAlloc Memory Limit 110000 MB
 Mega-Array Size       188 MB
 MEM_STATIC part       192 MB
 Discretize the solute cavity surface with Lebedev spheres
	Using 110 Lebedev grid points for each H atom
	Using 194 Lebedev grid points for other atoms
	Atomic van der Waals radii will be scaled by 1.20
 Remove points where switching function is < 1.0e-08
 Keep 2981 surface tesserae and discard 4295 interior tesserae
 Molecular Surface Area = 444.627 Angst**2
 Requested basis set is rimp2-cc-pVTZ
 There are 853 shells and 2963 basis functions
 A cutoff of  1.0D-10 yielded  33277 shell pairs
 There are    251173 function pairs (    324953 Cartesian)
 Smallest overlap matrix eigenvalue = 2.20E-05

 Scale SEOQF with 1.000000e-01/1.000000e-02/1.000000e-02

 Standard Electronic Orientation quadrupole field applied
 Nucleus-field energy     =     0.0000000379 hartrees
 Guess from superposition of atomic densities
 Warning:  Energy on first SCF cycle will be non-variational
 SAD guess density has 240.000000 electrons

 -----------------------------------------------------------------------
  General SCF calculation program by
  Eric Jon Sundstrom, Paul Horn, Yuezhi Mao, Dmitri Zuev, Alec White,
  David Stuck, Shaama M.S., Shane Yost, Joonho Lee, David Small,
  Daniel Levine, Susi Lehtola, Hugh Burton, Evgeny Epifanovsky,
  Bang C. Huynh
 -----------------------------------------------------------------------
 Hartree-Fock
 using 64 threads for integral computing
 -------------------------------------------------------
 OpenMP Integral computing Module                
 Release: version 1.0, May 2013, Q-Chem Inc. Pittsburgh 
 -------------------------------------------------------
 A restricted SCF calculation will be
 performed using DIIS
 SCF converges when DIIS error is below 1.0e-06
 ---------------------------------------
  Cycle       Energy         DIIS error
 ---------------------------------------
    1   -2767.3366768853      1.77e-02  
    2   -2754.8755361948      1.54e-03  
    3   -2755.2237600156      8.76e-04  
    4   -2755.3136621888      2.54e-04  
    5   -2755.3270436060      7.16e-05  
    6   -2755.3284741100      2.53e-05  
    7   -2755.3288396685      1.32e-05  
    8   -2755.3289568773      5.65e-06  
    9   -2755.3289860016      2.96e-06  
   10   -2755.3289932080      1.41e-06  
   11   -2755.3289952558      6.95e-07  Convergence criterion met
 ---------------------------------------
 SCF time:   CPU 7608.87s  wall 279.00s 

************** Final PCM Free Energy Summary **************
 G_electrostatic  =      -0.02130115 hartree =     -13.36667052 kcal/mol
 G_cavitation     =       0.00000000 hartree =       0.00000000 kcal/mol
 G_dispersion     =       0.00000000 hartree =       0.00000000 kcal/mol
 G_repulsion      =       0.00000000 hartree =       0.00000000 kcal/mol
 --------------------------------------------------
 Non-electrostatic Free Energy =       0.00000000 hartree =       0.00000000 kcal/mol
 Total                         =      -0.02130115 hartree =     -13.36667052 kcal/mol
 --------------------------------------------------
 SCF Energy (H0 + V/2)                       =   -2755.32899526 
 Solute Internal Energy (H0)                 =   -2755.30769411 
 Total Free Energy (H0 + V/2 + non-elec)     =   -2755.32899526 hartree
                                             = -1728995.04024392 kcal/mol
***********************************************************

 SCF   energy in the final basis set =    -2755.3289952558
 Total energy in the final basis set =    -2755.3289952558


 --------------------------------------------------------------
  Generalized many-body perturbation theory program
  by Joonho Lee, Fazle Rob, Xintian Feng, Evgeny Epifanovsky

 No regularization used 
 (reg. param. = 0.0000e+00)
  (P|Q)^-1/2 Time:  CPU 147.19 s  wall 2.63 s

 In RI-MP2 calculation: 
 # of frozen core orbitals: 45

 Components of the RIMP2 correlation energy:
        aaaa    correlation energy =        -0.6699134820 a.u.
        abab    correlation energy =        -3.7511920697 a.u.
        bbbb    correlation energy =        -0.6699134820 a.u.
        non-Brillouin singles      =        -0.0000000000 a.u.
        total same-spin energy     =        -1.3398269640 a.u.
        total opposite-spin energy =        -3.7511920697 a.u.

 Total  RIMP2   correlation energy =        -5.0910190336 a.u.
        RIMP2         total energy =     -2760.4200142894 a.u.

 RI-MP2 Energy Time:  CPU 2933.53 s  wall 47.63 s
 
 --------------------------------------------------------------
 
                    Orbital Energies (a.u.)
 --------------------------------------------------------------
 
 Alpha MOs
 -- Occupied --
-92.0129 -91.9968 -91.9777 -91.9580 -26.3391 -20.6136 -20.5870 -20.5868
-20.5522 -11.4123 -11.3797 -11.3132 -11.3089 -11.3072 -11.3009 -11.2978
-11.2962 -11.2893 -11.2866 -11.2842 -11.2828 -11.2827 -11.2806 -11.2728
-11.2726 -11.2581 -11.2578 -11.2495 -11.2368  -9.0115  -9.0008  -8.9799
 -8.9606  -6.6922  -6.6917  -6.6913  -6.6820  -6.6814  -6.6800  -6.6610
 -6.6601  -6.6588  -6.6419  -6.6409  -6.6399  -1.6522  -1.4734  -1.4102
 -1.4087  -1.3689  -1.2392  -1.2085  -1.1749  -1.1435  -1.1000  -1.0521
 -1.0458  -1.0296  -1.0090  -0.9976  -0.9729  -0.9596  -0.9486  -0.9409
 -0.8932  -0.8745  -0.8629  -0.8091  -0.7942  -0.7850  -0.7808  -0.7711
 -0.7625  -0.7338  -0.7201  -0.7196  -0.6978  -0.6924  -0.6875  -0.6799
 -0.6762  -0.6738  -0.6553  -0.6484  -0.6325  -0.6280  -0.6199  -0.6147
 -0.6111  -0.6078  -0.5965  -0.5930  -0.5838  -0.5658  -0.5579  -0.5537
 -0.5484  -0.5340  -0.5291  -0.5225  -0.5128  -0.5074  -0.5030  -0.5015
 -0.4872  -0.4854  -0.4768  -0.4699  -0.4630  -0.4625  -0.4606  -0.4460
 -0.4221  -0.4048  -0.3854  -0.3700  -0.3501  -0.2928  -0.2892  -0.2208
 -- Virtual --
  0.0273   0.0526   0.1138   0.1323   0.1393   0.1479   0.1546   0.1549
  0.1595   0.1621   0.1690   0.1735   0.1823   0.1834   0.1890   0.1898
  0.2011   0.2032   0.2050   0.2099   0.2187   0.2209   0.2234   0.2259
  0.2307   0.2314   0.2388   0.2435   0.2514   0.2575   0.2679   0.2695
  0.2760   0.2954   0.3098   0.3169   0.3280   0.3312   0.3354   0.3464
  0.3491   0.3577   0.3613   0.3650   0.3686   0.3716   0.3771   0.3799
  0.3865   0.3876   0.3909   0.4014   0.4030   0.4113   0.4149   0.4201
  0.4245   0.4271   0.4315   0.4327   0.4372   0.4399   0.4462   0.4480
  0.4523   0.4588   0.4618   0.4675   0.4735   0.4748   0.4776   0.4801
  0.4860   0.4911   0.4995   0.5021   0.5056   0.5098   0.5148   0.5204
  0.5238   0.5284   0.5308   0.5377   0.5447   0.5466   0.5513   0.5524
  0.5556   0.5584   0.5603   0.5631   0.5667   0.5680   0.5781   0.5805
  0.5838   0.5875   0.5888   0.5944   0.5974   0.5991   0.6078   0.6098
  0.6140   0.6157   0.6172   0.6211   0.6243   0.6267   0.6299   0.6333
  0.6353   0.6407   0.6426   0.6449   0.6475   0.6489   0.6544   0.6567
  0.6594   0.6674   0.6734   0.6766   0.6803   0.6850   0.6878   0.6916
  0.7007   0.7048   0.7123   0.7139   0.7176   0.7220   0.7254   0.7418
  0.7483   0.7551   0.7580   0.7703   0.7727   0.7749   0.7812   0.7842
  0.7917   0.7928   0.7972   0.8052   0.8086   0.8141   0.8221   0.8279
  0.8282   0.8297   0.8458   0.8513   0.8693   0.8761   0.8776   0.8841
  0.8875   0.8927   0.8951   0.8985   0.9040   0.9087   0.9106   0.9188
  0.9216   0.9247   0.9323   0.9342   0.9412   0.9440   0.9521   0.9532
  0.9608   0.9664   0.9705   0.9770   0.9785   0.9837   0.9883   0.9928
  0.9939   1.0012   1.0024   1.0084   1.0090   1.0134   1.0202   1.0249
  1.0324   1.0366   1.0447   1.0502   1.0510   1.0568   1.0606   1.0679
  1.0730   1.0778   1.0801   1.0885   1.0914   1.0973   1.0987   1.1069
  1.1094   1.1167   1.1254   1.1308   1.1342   1.1460   1.1492   1.1517
  1.1569   1.1611   1.1636   1.1664   1.1716   1.1736   1.1768   1.1782
  1.1844   1.1880   1.1934   1.1955   1.2018   1.2046   1.2127   1.2184
  1.2225   1.2233   1.2312   1.2394   1.2451   1.2485   1.2505   1.2591
  1.2599   1.2644   1.2783   1.2814   1.2819   1.2848   1.2916   1.2969
  1.3048   1.3072   1.3089   1.3199   1.3255   1.3319   1.3359   1.3417
  1.3502   1.3561   1.3587   1.3652   1.3746   1.3816   1.3918   1.3979
  1.4045   1.4052   1.4127   1.4215   1.4275   1.4391   1.4405   1.4507
  1.4594   1.4683   1.4742   1.4811   1.4910   1.4932   1.4966   1.5004
  1.5067   1.5107   1.5117   1.5187   1.5249   1.5295   1.5342   1.5384
  1.5430   1.5458   1.5491   1.5554   1.5618   1.5634   1.5698   1.5776
  1.5881   1.5998   1.6044   1.6117   1.6171   1.6220   1.6341   1.6383
  1.6469   1.6530   1.6565   1.6630   1.6704   1.6789   1.6808   1.6878
  1.6910   1.6942   1.7047   1.7134   1.7252   1.7296   1.7395   1.7458
  1.7475   1.7626   1.7668   1.7850   1.7947   1.8040   1.8113   1.8153
  1.8226   1.8305   1.8349   1.8441   1.8536   1.8634   1.8657   1.8712
  1.8784   1.8844   1.9073   1.9137   1.9184   1.9216   1.9294   1.9341
  1.9417   1.9477   1.9525   1.9558   1.9708   1.9889   1.9921   2.0040
  2.0150   2.0201   2.0295   2.0356   2.0395   2.0410   2.0468   2.0504
  2.0723   2.0828   2.0856   2.0939   2.0987   2.1189   2.1300   2.1328
  2.1359   2.1399   2.1512   2.1545   2.1710   2.1771   2.1818   2.1923
  2.1953   2.1967   2.2093   2.2172   2.2239   2.2313   2.2356   2.2383
  2.2500   2.2601   2.2651   2.2692   2.2781   2.2925   2.2982   2.2992
  2.3111   2.3164   2.3298   2.3388   2.3448   2.3461   2.3592   2.3633
  2.3705   2.3854   2.3934   2.3991   2.4058   2.4158   2.4187   2.4339
  2.4411   2.4497   2.4587   2.4699   2.4714   2.4825   2.4885   2.4982
  2.5119   2.5254   2.5289   2.5342   2.5426   2.5561   2.5656   2.5725
  2.5795   2.5877   2.5939   2.6012   2.6172   2.6185   2.6247   2.6298
  2.6300   2.6409   2.6471   2.6509   2.6534   2.6587   2.6704   2.6755
  2.6808   2.6893   2.6913   2.6955   2.7008   2.7049   2.7162   2.7219
  2.7273   2.7279   2.7348   2.7386   2.7461   2.7530   2.7623   2.7676
  2.7784   2.7811   2.7913   2.8043   2.8102   2.8126   2.8204   2.8213
  2.8336   2.8437   2.8475   2.8576   2.8634   2.8711   2.8732   2.8792
  2.8809   2.8915   2.9012   2.9072   2.9164   2.9306   2.9392   2.9404
  2.9585   2.9614   2.9633   2.9732   2.9790   2.9824   2.9861   2.9919
  3.0085   3.0157   3.0230   3.0248   3.0366   3.0421   3.0448   3.0502
  3.0520   3.0671   3.0767   3.0843   3.0892   3.0916   3.0993   3.1013
  3.1087   3.1185   3.1206   3.1239   3.1313   3.1399   3.1430   3.1507
  3.1520   3.1583   3.1605   3.1637   3.1726   3.1769   3.1788   3.1824
  3.1866   3.1966   3.1971   3.2013   3.2106   3.2139   3.2200   3.2239
  3.2306   3.2401   3.2467   3.2486   3.2551   3.2585   3.2638   3.2645
  3.2690   3.2733   3.2794   3.2853   3.2882   3.2902   3.2923   3.3020
  3.3030   3.3089   3.3116   3.3150   3.3208   3.3280   3.3378   3.3443
  3.3455   3.3482   3.3528   3.3569   3.3600   3.3607   3.3633   3.3677
  3.3720   3.3749   3.3846   3.3880   3.3961   3.4014   3.4034   3.4070
  3.4122   3.4197   3.4243   3.4274   3.4356   3.4381   3.4412   3.4462
  3.4487   3.4534   3.4598   3.4667   3.4705   3.4762   3.4807   3.4837
  3.4888   3.4973   3.5038   3.5108   3.5138   3.5143   3.5269   3.5354
  3.5473   3.5559   3.5570   3.5630   3.5638   3.5691   3.5740   3.5800
  3.5847   3.5879   3.5925   3.5946   3.6058   3.6067   3.6131   3.6198
  3.6293   3.6303   3.6345   3.6391   3.6446   3.6500   3.6559   3.6607
  3.6631   3.6676   3.6696   3.6766   3.6802   3.6865   3.6893   3.6933
  3.7042   3.7080   3.7086   3.7134   3.7174   3.7211   3.7292   3.7302
  3.7334   3.7417   3.7450   3.7556   3.7564   3.7597   3.7670   3.7715
  3.7851   3.7917   3.7921   3.8024   3.8083   3.8100   3.8158   3.8205
  3.8275   3.8309   3.8359   3.8414   3.8474   3.8494   3.8529   3.8606
  3.8629   3.8717   3.8792   3.8877   3.8982   3.9016   3.9107   3.9128
  3.9206   3.9287   3.9340   3.9385   3.9413   3.9527   3.9564   3.9636
  3.9668   3.9718   3.9790   3.9917   3.9980   4.0004   4.0055   4.0183
  4.0297   4.0338   4.0407   4.0470   4.0491   4.0541   4.0655   4.0675
  4.0715   4.0770   4.0835   4.0876   4.0988   4.1074   4.1133   4.1165
  4.1259   4.1463   4.1548   4.1585   4.1684   4.1720   4.1729   4.1779
  4.1829   4.1890   4.1923   4.2082   4.2148   4.2246   4.2316   4.2438
  4.2474   4.2511   4.2656   4.2722   4.2810   4.2850   4.2991   4.3035
  4.3148   4.3202   4.3299   4.3412   4.3472   4.3513   4.3598   4.3639
  4.3758   4.3775   4.3874   4.3912   4.3969   4.4039   4.4109   4.4167
  4.4214   4.4228   4.4264   4.4329   4.4356   4.4394   4.4546   4.4627
  4.4641   4.4763   4.4861   4.4928   4.4981   4.5072   4.5184   4.5254
  4.5314   4.5419   4.5494   4.5657   4.5683   4.5725   4.5751   4.5853
  4.6014   4.6104   4.6209   4.6227   4.6360   4.6409   4.6440   4.6528
  4.6546   4.6694   4.6763   4.6811   4.6965   4.7085   4.7120   4.7292
  4.7357   4.7458   4.7610   4.7697   4.7790   4.7956   4.7989   4.8092
  4.8141   4.8286   4.8358   4.8516   4.8646   4.8779   4.8885   4.8932
  4.9035   4.9176   4.9408   4.9492   4.9564   4.9625   4.9723   4.9769
  4.9979   5.0066   5.0105   5.0120   5.0359   5.0393   5.0460   5.0563
  5.0776   5.0805   5.0994   5.1109   5.1374   5.1604   5.1705   5.1754
  5.1917   5.1947   5.2042   5.2044   5.2107   5.2172   5.2314   5.2540
  5.2581   5.2605   5.2845   5.2932   5.2981   5.3118   5.3192   5.3272
  5.3366   5.3479   5.3543   5.3625   5.3678   5.3681   5.3909   5.4027
  5.4055   5.4097   5.4426   5.4536   5.4568   5.4723   5.4778   5.4889
  5.5078   5.5166   5.5221   5.5385   5.5667   5.5689   5.5778   5.5886
  5.5945   5.6110   5.6158   5.6328   5.6387   5.6580   5.6904   5.6956
  5.7392   5.7441   5.7670   5.7879   5.7995   5.8242   5.8401   5.8591
  5.8635   5.8864   5.9051   5.9558   5.9680   5.9779   5.9865   6.0055
  6.0419   6.0697   6.1209   6.1256   6.1326   6.1484   6.1730   6.1778
  6.1852   6.1985   6.2290   6.2453   6.2609   6.2713   6.2856   6.2943
  6.3074   6.3389   6.3592   6.4291   6.4692   6.4954   6.5326   6.5511
  6.5549   6.5705   6.6477   6.6751   6.6856   6.7171   6.7404   6.7455
  6.8074   6.8574   6.8585   6.8829   6.8992   6.9901   7.1315   7.1475
  7.1770   7.2104   7.2222   7.2396   7.3246   7.3270   7.3422   7.3680
  7.3735   7.4282   7.4611   7.4817   7.4866   7.4973   7.5165   7.5477
  7.6216   7.7399   7.7663   7.8031   7.8306   7.9169   7.9274   7.9569
  8.0035   8.1254   8.3677   8.6843   8.9234   9.0100   9.3587   9.5026
  9.7080  10.2844  11.2466  11.4299  11.9224  11.9666  12.1219  12.3679
 12.3912  12.4913  12.7498  12.9253  13.0043  13.2135  13.4825  13.6250
 13.7274  13.8773  13.9406  13.9744  14.2083  14.3215  15.0359  15.2069
 --------------------------------------------------------------
 
          Ground-State Mulliken Net Atomic Charges

     Atom                 Charge (a.u.)
  ----------------------------------------
      1 C                    -0.070312
      2 C                    -0.259063
      3 S                    -0.135260
      4 C                    -0.044279
      5 H                     0.193447
      6 C                    -0.052408
      7 C                     0.226327
      8 C                     0.228580
      9 C                    -0.083202
     10 C                    -0.060523
     11 O                    -0.335186
     12 O                    -0.343229
     13 C                    -0.082546
     14 H                     0.119979
     15 H                     0.092147
     16 H                     0.092512
     17 C                    -0.086584
     18 H                     0.122907
     19 H                     0.093045
     20 H                     0.090080
     21 C                    -0.235090
     22 S                    -0.069471
     23 C                     0.055277
     24 H                     0.205363
     25 C                    -0.096678
     26 S                     0.099148
     27 C                    -0.230792
     28 C                    -0.081073
     29 C                    -0.008176
     30 C                     0.382361
     31 C                    -0.132470
     32 S                     0.040977
     33 C                     0.459687
     34 O                    -0.448300
     35 O                    -0.297325
     36 F                    -0.215014
     37 C                    -0.055185
     38 H                     0.117006
     39 H                     0.084961
     40 H                     0.084847
     41 H                     0.215268
     42 H                     0.117531
     43 H                     0.114970
     44 H                     0.185745
  ----------------------------------------
  Sum of atomic charges =     0.000000

 -----------------------------------------------------------------
                    Cartesian Multipole Moments
 -----------------------------------------------------------------
    Charge (ESU x 10^10)
                -0.0000
    Dipole Moment (Debye)
         X       0.1120      Y       3.7090      Z       2.5095
       Tot       4.4796
    Quadrupole Moments (Debye-Ang)
        XX    -183.2931     XY       5.2079     YY    -173.9565
        XZ       1.8020     YZ     -11.9400     ZZ    -205.4019
    Octopole Moments (Debye-Ang^2)
       XXX     -89.5518    XXY     307.3259    XYY     -53.6451
       YYY    1014.7993    XXZ     180.1497    XYZ     -19.7787
       YYZ     136.0096    XZZ     -21.2984    YZZ     508.7299
       ZZZ     544.8665
    Hexadecapole Moments (Debye-Ang^3)
      XXXX   -2324.2009   XXXY     374.3533   XXYY   -3918.9540
      XYYY     685.7963   YYYY  -19836.1929   XXXZ     259.9515
      XXYZ     458.5279   XYYZ     143.0394   YYYZ    1106.3061
      XXZZ   -1418.4260   XYZZ     192.9228   YYZZ   -4235.9010
      XZZZ     207.0829   YZZZ     689.8623   ZZZZ   -5563.4757
 -----------------------------------------------------------------
 Total job time:  343.08s(wall), 10640.82s(cpu) 
 Tue Sep 26 19:50:42 2023

        *************************************************************
        *                                                           *
        *  Thank you very much for using Q-Chem.  Have a nice day.  *
        *                                                           *
        *************************************************************


0 sent ACK to 0 
now end server 0 ... 
cleanup process ... done
remove work dirs ./qchem482299.0 -- ./qchem482299.0
rm -rf ./qchem482299.0
rm -rf ./qchem482299
