You are running Q-Chem version: 5.4.0

#
# job setting
#
local host:  exp-3-23
current dir: /expanse/lustre/projects/csd626/rramji/aromodel/PTB7_fin/Hydrogenated_Rotation_Test
input file:  fin_bdt_Phi_20_Theta_350_fin_ftt_Hydrogenated.qcin
output file: 
nprocs     : 1
nthreads   : 64
#
# qchem installation setting
#
QC:          /cm/shared/apps/spack/cpu/opt/spack/linux-centos8-zen2/gcc-10.2.0/qchem-5.4-akfmr7b3t57bfs6qan3padb2wnb2i7cl
QCAUX:       /cm/shared/apps/spack/cpu/opt/spack/linux-centos8-zen2/gcc-10.2.0/qchem-5.4-akfmr7b3t57bfs6qan3padb2wnb2i7cl/qcaux
QCPROG:      /cm/shared/apps/spack/cpu/opt/spack/linux-centos8-zen2/gcc-10.2.0/qchem-5.4-akfmr7b3t57bfs6qan3padb2wnb2i7cl/exe/qcprog.exe
QCPROG_S:    /cm/shared/apps/spack/cpu/opt/spack/linux-centos8-zen2/gcc-10.2.0/qchem-5.4-akfmr7b3t57bfs6qan3padb2wnb2i7cl/exe/qcprog.exe_s
PARALLEL:    -DPARALLEL
QCMPI:       mpich
#
# qchem directory setting
#
qcrun:       qchem2542665
QCSCRATCH:   .
QCLOCALSCR:  
QCTMPDIR:    .
QCFILEPREF:  ./qchem2542665
QCSAVEDIR:   
workdirs:    ./qchem2542665
workdir0:    ./qchem2542665
partmpdirs =  
#
# parallel setting
#
QCRSH:           ssh
QCMPI:           mpich
QCMPIRUN:        /cm/shared/apps/spack/cpu/opt/spack/linux-centos8-zen2/gcc-10.2.0/qchem-5.4-akfmr7b3t57bfs6qan3padb2wnb2i7cl/bin/mpi/mpirun_qchem
QCMACHINEFILE:   ./qchem2542665/hostfile
exp-3-23

#
# env setting
#
exported envs:   QC QCAUX QCSCRATCH QCRUNNAME QCFILEPREF QCPROG QCPROG_S GUIFILE

Running Job 1 of 1 fin_bdt_Phi_20_Theta_350_fin_ftt_Hydrogenated.qcin
qchem fin_bdt_Phi_20_Theta_350_fin_ftt_Hydrogenated.qcin_2542665.0 ./qchem2542665/ 1
/cm/shared/apps/spack/cpu/opt/spack/linux-centos8-zen2/gcc-10.2.0/qchem-5.4-akfmr7b3t57bfs6qan3padb2wnb2i7cl/bin/mpi/mpirun_qchem -machinefile ./qchem2542665/hostfile -np 1 /cm/shared/apps/spack/cpu/opt/spack/linux-centos8-zen2/gcc-10.2.0/qchem-5.4-akfmr7b3t57bfs6qan3padb2wnb2i7cl/exe/qcprog.exe fin_bdt_Phi_20_Theta_350_fin_ftt_Hydrogenated.qcin_2542665.0 ./qchem2542665/

Process 0 of 1 is on exp-3-23 - thread support 0
initial socket setup ...start
initial socket setup ...done 
now start server 0 ... 
                  Welcome to Q-Chem
     A Quantum Leap Into The Future Of Chemistry


 Q-Chem 5.4, Q-Chem, Inc., Pleasanton, CA (2021)

 License issued to: University of California, San Diego (site)

 E. Epifanovsky,  A. T. B. Gilbert,  Xintian Feng,  Joonho Lee,  Yuezhi Mao,  
 N. Mardirossian,  P. Pokhilko,  A. White,  M. Wormit,  M. P. Coons,  
 A. L. Dempwolff,  Zhengting Gan,  D. Hait,  P. R. Horn,  L. D. Jacobson,  
 I. Kaliman,  J. Kussmann,  A. W. Lange,  Ka Un Lao,  D. S. Levine,  Jie Liu,  
 S. C. McKenzie,  A. F. Morrison,  K. Nanda,  F. Plasser,  D. R. Rehn,  
 M. L. Vidal,  Zhi-Qiang You,  Ying Zhu,  B. Alam,  B. Albrecht,  
 A. Aldossary,  E. Alguire,  J. H. Andersen,  D. Barton,  K. Begam,  A. Behn,  
 Y. A. Bernard,  E. J. Berquist,  H. Burton,  A. Carreras,  K. Carter-Fenk,  
 R. Chakraborty,  A. D. Chien,  K. D. Closser,  V. Cofer-Shabica,  
 S. Dasgupta,  Jia Deng,  M. de Wergifosse,  M. Diedenhofen,  Hainam Do,  
 S. Ehlert,  Po-Tung Fang,  S. Fatehi,  Qingguo Feng,  J. Gayvert,  
 Qinghui Ge,  G. Gidofalvi,  M. Goldey,  J. Gomes,  C. Gonzalez-Espinoza,  
 S. Gulania,  A. Gunina,  M. W. D. Hanson-Heine,  P. H. P. Harbach,  
 A. W. Hauser,  M. F. Herbst,  M. Hernandez Vera,  M. Hodecker,  
 Z. C. Holden,  S. Houck,  Xunkun Huang,  Kerwin Hui,  B. C. Huynh,  
 M. Ivanov,  Hyunjun Ji,  Hanjie Jiang,  B. Kaduk,  S. Kaehler,  
 K. Khistyaev,  Jaehoon Kim,  P. Klunzinger,  Z. Koczor-Benda,  
 Joong Hoon Koh,  D. Kosenkov,  L. Koulias,  T. Kowalczyk,  C. M. Krauter,  
 K. Kue,  A. Kunitsa,  T. Kus,  A. Landau,  K. V. Lawler,  D. Lefrancois,  
 S. Lehtola,  Rain Li,  Yi-Pei Li,  Jiashu Liang,  M. Liebenthal,  
 Hung-Hsuan Lin,  You-Sheng Lin,  Fenglai Liu,  Kuan-Yu Liu,  
 M. Loipersberger,  A. Luenser,  A. Manjanath,  P. Manohar,  E. Mansoor,  
 S. F. Manzer,  Shan-Ping Mao,  A. V. Marenich,  T. Markovich,  S. Mason,  
 S. A. Maurer,  P. F. McLaughlin,  M. F. S. J. Menger,  J.-M. Mewes,  
 S. A. Mewes,  P. Morgante,  J. W. Mullinax,  T. S. Nguyen-Beck,  
 K. J. Oosterbaan,  G. Paran,  Alexander C. Paul,  Suranjan K. Paul,  
 F. Pavosevic,  Zheng Pei,  S. Prager,  E. I. Proynov,  E. Ramos,  B. Rana,  
 A. E. Rask,  A. Rettig,  R. M. Richard,  F. Rob,  E. Rossomme,  T. Scheele,  
 M. Scheurer,  M. Schneider,  N. Sergueev,  S. M. Sharada,  W. Skomorowski,  
 D. W. Small,  C. J. Stein,  Yu-Chuan Su,  E. J. Sundstrom,  Zhen Tao,  
 J. Thirman,  T. Tsuchimochi,  N. M. Tubman,  S. P. Veccham,  O. Vydrov,  
 J. Wenzel,  J. Witte,  A. Yamada,  Kun Yao,  S. Yeganeh,  S. R. Yost,  
 A. Zech,  Igor Ying Zhang,  Xing Zhang,  Yu Zhang,  D. Zuev,  
 A. Aspuru-Guzik,  A. T. Bell,  N. A. Besley,  K. B. Bravaya,  B. R. Brooks,  
 D. Casanova,  Jeng-Da Chai,  S. Coriani,  C. J. Cramer,  
 A. E. DePrince, III,  R. A. DiStasio Jr.,  A. Dreuw,  B. D. Dunietz,  
 T. R. Furlani,  W. A. Goddard III,  S. Grimme,  S. Hammes-Schiffer,  
 T. Head-Gordon,  W. J. Hehre,  Chao-Ping Hsu,  T.-C. Jagau,  Yousung Jung,  
 A. Klamt,  Jing Kong,  D. S. Lambrecht,  WanZhen Liang,  N. J. Mayhall,  
 C. W. McCurdy,  J. B. Neaton,  C. Ochsenfeld,  J. A. Parkhill,  R. Peverati,  
 V. A. Rassolov,  Yihan Shao,  L. V. Slipchenko,  T. Stauch,  R. P. Steele,  
 J. E. Subotnik,  A. J. W. Thom,  A. Tkatchenko,  D. G. Truhlar,  
 T. Van Voorhis,  T. A. Wesolowski,  K. B. Whaley,  H. L. Woodcock III,  
 P. M. Zimmerman,  S. Faraji,  P. M. W. Gill,  M. Head-Gordon,  
 J. M. Herbert,  A. I. Krylov

 Contributors to earlier versions of Q-Chem not listed above: 
 R. D. Adamson,  B. Austin,  R. Baer,  J. Baker,  G. J. O. Beran,  
 K. Brandhorst,  S. T. Brown,  E. F. C. Byrd,  A. K. Chakraborty,  
 G. K. L. Chan,  Chun-Min Chang,  Yunqing Chen,  C.-L. Cheng,  
 Siu Hung Chien,  D. M. Chipman,  D. L. Crittenden,  H. Dachsel,  
 R. J. Doerksen,  A. D. Dutoi,  R. G. Edgar,  J. Fosso-Tande,  
 L. Fusti-Molnar,  D. Ghosh,  A. Ghysels,  A. Golubeva-Zadorozhnaya,  
 J. Gonthier,  M. S. Gordon,  S. R. Gwaltney,  G. Hawkins,  J. E. Herr,  
 A. Heyden,  S. Hirata,  E. G. Hohenstein,  G. Kedziora,  F. J. Keil,  
 C. Kelley,  Jihan Kim,  R. A. King,  R. Z. Khaliullin,  P. P. Korambath,  
 W. Kurlancheek,  A. Laurent,  A. M. Lee,  M. S. Lee,  S. V. Levchenko,  
 Ching Yeh Lin,  D. Liotard,  E. Livshits,  R. C. Lochan,  I. Lotan,  
 L. A. Martinez-Martinez,  P. E. Maslen,  N. Nair,  D. P. O'Neill,  
 D. Neuhauser,  E. Neuscamman,  C. M. Oana,  R. Olivares-Amaya,  R. Olson,  
 T. M. Perrine,  B. Peters,  P. A. Pieniazek,  A. Prociuk,  Y. M. Rhee,  
 J. Ritchie,  M. A. Rohrdanz,  E. Rosta,  N. J. Russ,  H. F. Schaefer III,  
 M. W. Schmidt,  N. E. Schultz,  S. Sharma,  N. Shenvi,  C. D. Sherrill,  
 A. C. Simmonett,  A. Sodt,  T. Stein,  D. Stuck,  K. S. Thanthiriwatte,  
 V. Vanovschi,  L. Vogt,  Tao Wang,  A. Warshel,  M. A. Watson,  
 C. F. Williams,  Q. Wu,  X. Xu,  Jun Yang,  W. Zhang,  Yan Zhao

 Please cite Q-Chem as follows:
 Y. Shao et al., Mol. Phys. 113, 184-215 (2015)
 DOI: 10.1080/00268976.2014.952696

 Q-Chem 5.4.0 for Intel X86 EM64T Linux

 Parts of Q-Chem use Armadillo 9.800.1 (Horizon Scraper).
 http://arma.sourceforge.net/

 Q-Chem begins on Sun Sep 24 19:41:03 2023  

 Host: 
0

     Scratch files written to ./qchem2542665//
 May1621 |scratch|qcdevops|jenkins|workspace|build_RNUM    
 Parallel job on  1  processors
 Processing $rem in /cm/shared/apps/spack/cpu/opt/spack/linux-centos8-zen2/gcc-10.2.0/qchem-5.4-akfmr7b3t57bfs6qan3padb2wnb2i7cl/config/preferences:
 Processing $rem in /home/rramji/.qchemrc:
 Symmetry turned off for PCM/SM12/SMD calculation
 Core orbitals will be frozen

 Checking the input file for inconsistencies... 	...done.

 Q-Chem warning in module forms1/BasisType.C, line 2236:

 You are not using the predefined 5D/6D in this basis set.


--------------------------------------------------------------
User input:
--------------------------------------------------------------
$molecule
0 1
C	-0.000687	-8.519741	0.272104
C	-0.194476	-7.635967	-0.779533
S	0.287581	-7.651740	1.799596
C	-0.125787	-6.261894	-0.399427
H	-0.383826	-7.954738	-1.812314
C	0.121989	-6.079985	1.006762
C	0.247488	-4.798382	1.564994
C	-0.258303	-5.153542	-1.284087
C	-0.128493	-3.869626	-0.726260
C	0.116725	-3.688927	0.681918
O	-0.517104	-5.481075	-2.580622
O	0.508622	-4.479871	2.867144
C	0.075811	-5.356026	3.900814
H	0.173640	-4.790496	4.847002
H	0.707354	-6.268513	3.971794
H	-0.984963	-5.658187	3.763397
C	-0.257016	-4.546999	-3.621225
H	-0.357864	-5.107564	-4.569828
H	0.771211	-4.131473	-3.551910
H	-0.990913	-3.712085	-3.626592
C	0.187034	-2.314326	1.058088
S	-0.281899	-2.295487	-1.523035
C	0.000000	-1.435180	0.000000
H	0.373653	-1.993211	2.090565
C	0.000000	0.000000	0.000000
S	0.309721	0.844422	1.510732
C	0.847502	2.325108	0.727629
C	0.310602	0.853460	-1.064665
C	0.784173	2.159014	-0.678287
C	0.289451	0.790512	-2.486150
C	0.721927	1.979112	-3.106916
S	1.145464	3.152519	-1.965735
C	0.813355	2.216642	-4.559972
O	0.496884	1.338418	-5.350277
O	1.255274	3.421340	-5.004375
F	-0.087923	-0.257761	-3.246290
C	1.387494	3.754937	-6.334976
H	1.765978	4.793056	-6.370268
H	0.417095	3.693789	-6.875609
H	2.098820	3.081033	-6.861878
H	1.162229	3.189623	1.321510
H	0.883319	-9.146471	0.105910
H	-0.883019	-9.150570	0.431555
H	1.062054	-1.444158	-0.195861
$end

$rem
JOBTYPE		SP
EXCHANGE	HF
CORRELATION	pRIMP2
BASIS		cc-pvtz
METHOD		rimp2
AUX_BASIS	rimp2-cc-pvtz
SOLVENT_METHOD	PCM
PURECART	11111
SYMMETRY	false
MEM_TOTAL	110000
SCF_CONVERGENCE = 6
THRESH=10
GUI = 2
$end



$solvent
dielectric 4.90
$end
--------------------------------------------------------------
 ----------------------------------------------------------------
             Standard Nuclear Orientation (Angstroms)
    I     Atom           X                Y                Z
 ----------------------------------------------------------------
    1      C      -0.0006870000    -8.5197410000     0.2721040000
    2      C      -0.1944760000    -7.6359670000    -0.7795330000
    3      S       0.2875810000    -7.6517400000     1.7995960000
    4      C      -0.1257870000    -6.2618940000    -0.3994270000
    5      H      -0.3838260000    -7.9547380000    -1.8123140000
    6      C       0.1219890000    -6.0799850000     1.0067620000
    7      C       0.2474880000    -4.7983820000     1.5649940000
    8      C      -0.2583030000    -5.1535420000    -1.2840870000
    9      C      -0.1284930000    -3.8696260000    -0.7262600000
   10      C       0.1167250000    -3.6889270000     0.6819180000
   11      O      -0.5171040000    -5.4810750000    -2.5806220000
   12      O       0.5086220000    -4.4798710000     2.8671440000
   13      C       0.0758110000    -5.3560260000     3.9008140000
   14      H       0.1736400000    -4.7904960000     4.8470020000
   15      H       0.7073540000    -6.2685130000     3.9717940000
   16      H      -0.9849630000    -5.6581870000     3.7633970000
   17      C      -0.2570160000    -4.5469990000    -3.6212250000
   18      H      -0.3578640000    -5.1075640000    -4.5698280000
   19      H       0.7712110000    -4.1314730000    -3.5519100000
   20      H      -0.9909130000    -3.7120850000    -3.6265920000
   21      C       0.1870340000    -2.3143260000     1.0580880000
   22      S      -0.2818990000    -2.2954870000    -1.5230350000
   23      C       0.0000000000    -1.4351800000     0.0000000000
   24      H       0.3736530000    -1.9932110000     2.0905650000
   25      C       0.0000000000     0.0000000000     0.0000000000
   26      S       0.3097210000     0.8444220000     1.5107320000
   27      C       0.8475020000     2.3251080000     0.7276290000
   28      C       0.3106020000     0.8534600000    -1.0646650000
   29      C       0.7841730000     2.1590140000    -0.6782870000
   30      C       0.2894510000     0.7905120000    -2.4861500000
   31      C       0.7219270000     1.9791120000    -3.1069160000
   32      S       1.1454640000     3.1525190000    -1.9657350000
   33      C       0.8133550000     2.2166420000    -4.5599720000
   34      O       0.4968840000     1.3384180000    -5.3502770000
   35      O       1.2552740000     3.4213400000    -5.0043750000
   36      F      -0.0879230000    -0.2577610000    -3.2462900000
   37      C       1.3874940000     3.7549370000    -6.3349760000
   38      H       1.7659780000     4.7930560000    -6.3702680000
   39      H       0.4170950000     3.6937890000    -6.8756090000
   40      H       2.0988200000     3.0810330000    -6.8618780000
   41      H       1.1622290000     3.1896230000     1.3215100000
   42      H       0.8833190000    -9.1464710000     0.1059100000
   43      H      -0.8830190000    -9.1505700000     0.4315550000
   44      H       1.0620540000    -1.4441580000    -0.1958610000
 ----------------------------------------------------------------
 Nuclear Repulsion Energy =        3387.62811878 hartrees
 There are      120 alpha and      120 beta electrons
 Requested basis set is cc-pVTZ
 There are 388 shells and 1096 basis functions

 Total QAlloc Memory Limit 110000 MB
 Mega-Array Size       188 MB
 MEM_STATIC part       192 MB
 Discretize the solute cavity surface with Lebedev spheres
	Using 110 Lebedev grid points for each H atom
	Using 194 Lebedev grid points for other atoms
	Atomic van der Waals radii will be scaled by 1.20
 Remove points where switching function is < 1.0e-08
 Keep 2930 surface tesserae and discard 4346 interior tesserae
 Molecular Surface Area = 433.999 Angst**2
 Requested basis set is rimp2-cc-pVTZ
 There are 853 shells and 2963 basis functions
 A cutoff of  1.0D-10 yielded  33753 shell pairs
 There are    254569 function pairs (    329140 Cartesian)
 Smallest overlap matrix eigenvalue = 2.14E-05

 Scale SEOQF with 1.000000e-01/1.000000e-02/1.000000e-02

 Standard Electronic Orientation quadrupole field applied
 Nucleus-field energy     =     0.0000000157 hartrees
 Guess from superposition of atomic densities
 Warning:  Energy on first SCF cycle will be non-variational
 SAD guess density has 240.000000 electrons

 -----------------------------------------------------------------------
  General SCF calculation program by
  Eric Jon Sundstrom, Paul Horn, Yuezhi Mao, Dmitri Zuev, Alec White,
  David Stuck, Shaama M.S., Shane Yost, Joonho Lee, David Small,
  Daniel Levine, Susi Lehtola, Hugh Burton, Evgeny Epifanovsky,
  Bang C. Huynh
 -----------------------------------------------------------------------
 Hartree-Fock
 using 64 threads for integral computing
 -------------------------------------------------------
 OpenMP Integral computing Module                
 Release: version 1.0, May 2013, Q-Chem Inc. Pittsburgh 
 -------------------------------------------------------
 A restricted SCF calculation will be
 performed using DIIS
 SCF converges when DIIS error is below 1.0e-06
 ---------------------------------------
  Cycle       Energy         DIIS error
 ---------------------------------------
    1   -2767.3837675336      1.77e-02  
    2   -2754.8609695048      1.54e-03  
    3   -2755.2093371196      8.75e-04  
    4   -2755.3001851757      2.55e-04  
    5   -2755.3141252997      7.25e-05  
    6   -2755.3157035527      2.63e-05  
    7   -2755.3161242375      1.34e-05  
    8   -2755.3162445050      5.43e-06  
    9   -2755.3162675302      2.68e-06  
   10   -2755.3162727018      1.30e-06  
   11   -2755.3162743116      6.51e-07  Convergence criterion met
 ---------------------------------------
 SCF time:   CPU 7736.46s  wall 288.00s 

************** Final PCM Free Energy Summary **************
 G_electrostatic  =      -0.02124966 hartree =     -13.33436289 kcal/mol
 G_cavitation     =       0.00000000 hartree =       0.00000000 kcal/mol
 G_dispersion     =       0.00000000 hartree =       0.00000000 kcal/mol
 G_repulsion      =       0.00000000 hartree =       0.00000000 kcal/mol
 --------------------------------------------------
 Non-electrostatic Free Energy =       0.00000000 hartree =       0.00000000 kcal/mol
 Total                         =      -0.02124966 hartree =     -13.33436289 kcal/mol
 --------------------------------------------------
 SCF Energy (H0 + V/2)                       =   -2755.31627431 
 Solute Internal Energy (H0)                 =   -2755.29502465 
 Total Free Energy (H0 + V/2 + non-elec)     =   -2755.31627431 hartree
                                             = -1728987.05773094 kcal/mol
***********************************************************

 SCF   energy in the final basis set =    -2755.3162743116
 Total energy in the final basis set =    -2755.3162743116


 --------------------------------------------------------------
  Generalized many-body perturbation theory program
  by Joonho Lee, Fazle Rob, Xintian Feng, Evgeny Epifanovsky

 No regularization used 
 (reg. param. = 0.0000e+00)
  (P|Q)^-1/2 Time:  CPU 137.94 s  wall 2.38 s

 In RI-MP2 calculation: 
 # of frozen core orbitals: 45

 Components of the RIMP2 correlation energy:
        aaaa    correlation energy =        -0.6709402250 a.u.
        abab    correlation energy =        -3.7521151264 a.u.
        bbbb    correlation energy =        -0.6709402250 a.u.
        non-Brillouin singles      =        -0.0000000000 a.u.
        total same-spin energy     =        -1.3418804500 a.u.
        total opposite-spin energy =        -3.7521151264 a.u.

 Total  RIMP2   correlation energy =        -5.0939955764 a.u.
        RIMP2         total energy =     -2760.4102698880 a.u.

 RI-MP2 Energy Time:  CPU 2978.50 s  wall 48.24 s
 
 --------------------------------------------------------------
 
                    Orbital Energies (a.u.)
 --------------------------------------------------------------
 
 Alpha MOs
 -- Occupied --
-92.0137 -91.9921 -91.9756 -91.9610 -26.3352 -20.6106 -20.5883 -20.5881
-20.5470 -11.4079 -11.3790 -11.3254 -11.3109 -11.3098 -11.2968 -11.2914
-11.2878 -11.2871 -11.2840 -11.2837 -11.2828 -11.2819 -11.2768 -11.2754
-11.2707 -11.2630 -11.2602 -11.2524 -11.2434  -9.0124  -8.9962  -8.9783
 -8.9635  -6.6932  -6.6926  -6.6921  -6.6775  -6.6768  -6.6755  -6.6592
 -6.6584  -6.6569  -6.6447  -6.6438  -6.6428  -1.6511  -1.4701  -1.4117
 -1.4100  -1.3650  -1.2389  -1.2097  -1.1783  -1.1434  -1.1005  -1.0509
 -1.0472  -1.0292  -1.0081  -1.0003  -0.9714  -0.9600  -0.9497  -0.9403
 -0.8950  -0.8723  -0.8628  -0.8132  -0.7955  -0.7862  -0.7764  -0.7660
 -0.7617  -0.7340  -0.7206  -0.7180  -0.6986  -0.6954  -0.6848  -0.6774
 -0.6744  -0.6720  -0.6565  -0.6494  -0.6370  -0.6300  -0.6226  -0.6158
 -0.6109  -0.6044  -0.5974  -0.5915  -0.5767  -0.5679  -0.5637  -0.5593
 -0.5495  -0.5328  -0.5291  -0.5209  -0.5137  -0.5089  -0.5047  -0.4996
 -0.4843  -0.4827  -0.4797  -0.4662  -0.4603  -0.4597  -0.4584  -0.4482
 -0.4321  -0.3994  -0.3851  -0.3725  -0.3510  -0.2933  -0.2836  -0.2188
 -- Virtual --
  0.0250   0.0600   0.1163   0.1362   0.1398   0.1461   0.1526   0.1558
  0.1561   0.1599   0.1681   0.1737   0.1815   0.1842   0.1885   0.1932
  0.1996   0.2026   0.2038   0.2130   0.2163   0.2226   0.2240   0.2276
  0.2303   0.2314   0.2434   0.2473   0.2576   0.2616   0.2669   0.2747
  0.2961   0.2987   0.3103   0.3248   0.3369   0.3400   0.3429   0.3539
  0.3572   0.3592   0.3621   0.3654   0.3725   0.3788   0.3818   0.3837
  0.3860   0.3924   0.3963   0.4003   0.4069   0.4145   0.4149   0.4225
  0.4261   0.4270   0.4368   0.4374   0.4409   0.4430   0.4481   0.4514
  0.4558   0.4634   0.4653   0.4676   0.4719   0.4766   0.4796   0.4847
  0.4888   0.4909   0.4993   0.5027   0.5052   0.5138   0.5178   0.5204
  0.5229   0.5270   0.5328   0.5359   0.5404   0.5454   0.5514   0.5546
  0.5560   0.5584   0.5626   0.5679   0.5708   0.5737   0.5776   0.5843
  0.5862   0.5908   0.5925   0.5983   0.6008   0.6026   0.6062   0.6108
  0.6149   0.6153   0.6181   0.6199   0.6225   0.6270   0.6295   0.6325
  0.6345   0.6396   0.6420   0.6458   0.6485   0.6516   0.6547   0.6554
  0.6625   0.6675   0.6702   0.6805   0.6839   0.6862   0.6904   0.6960
  0.7018   0.7099   0.7140   0.7144   0.7195   0.7259   0.7393   0.7436
  0.7501   0.7584   0.7605   0.7668   0.7752   0.7864   0.7867   0.7909
  0.7942   0.8011   0.8056   0.8133   0.8155   0.8176   0.8247   0.8273
  0.8405   0.8449   0.8485   0.8584   0.8695   0.8737   0.8769   0.8865
  0.8909   0.8958   0.8970   0.8981   0.9013   0.9069   0.9150   0.9183
  0.9274   0.9300   0.9339   0.9400   0.9431   0.9486   0.9555   0.9597
  0.9615   0.9686   0.9755   0.9800   0.9828   0.9870   0.9922   0.9961
  1.0015   1.0037   1.0084   1.0111   1.0156   1.0178   1.0242   1.0278
  1.0368   1.0424   1.0438   1.0497   1.0521   1.0582   1.0677   1.0680
  1.0727   1.0746   1.0790   1.0925   1.0986   1.1061   1.1080   1.1099
  1.1129   1.1225   1.1310   1.1326   1.1404   1.1431   1.1452   1.1558
  1.1569   1.1597   1.1665   1.1676   1.1723   1.1777   1.1806   1.1864
  1.1882   1.1912   1.1992   1.2013   1.2064   1.2089   1.2146   1.2190
  1.2283   1.2314   1.2326   1.2429   1.2440   1.2459   1.2551   1.2606
  1.2643   1.2675   1.2751   1.2794   1.2851   1.2910   1.2951   1.3014
  1.3048   1.3098   1.3203   1.3268   1.3301   1.3357   1.3403   1.3453
  1.3535   1.3549   1.3608   1.3629   1.3772   1.3827   1.3911   1.3966
  1.4003   1.4074   1.4098   1.4230   1.4318   1.4434   1.4470   1.4480
  1.4626   1.4673   1.4715   1.4849   1.4876   1.4909   1.4997   1.5043
  1.5068   1.5105   1.5114   1.5158   1.5181   1.5285   1.5329   1.5360
  1.5418   1.5474   1.5491   1.5523   1.5662   1.5691   1.5753   1.5799
  1.5852   1.5878   1.6058   1.6116   1.6127   1.6250   1.6347   1.6426
  1.6503   1.6515   1.6549   1.6622   1.6656   1.6743   1.6862   1.6886
  1.6919   1.7070   1.7095   1.7127   1.7214   1.7253   1.7418   1.7485
  1.7535   1.7564   1.7711   1.7789   1.7840   1.8040   1.8101   1.8209
  1.8268   1.8339   1.8378   1.8452   1.8568   1.8648   1.8726   1.8739
  1.8785   1.8883   1.8995   1.9090   1.9116   1.9228   1.9322   1.9419
  1.9466   1.9534   1.9579   1.9681   1.9822   1.9890   1.9913   2.0031
  2.0182   2.0218   2.0265   2.0340   2.0399   2.0418   2.0447   2.0528
  2.0727   2.0880   2.0925   2.1015   2.1031   2.1186   2.1203   2.1435
  2.1469   2.1555   2.1621   2.1676   2.1805   2.1836   2.1924   2.1978
  2.2022   2.2137   2.2165   2.2222   2.2243   2.2306   2.2386   2.2470
  2.2553   2.2594   2.2656   2.2804   2.2833   2.2909   2.2999   2.3044
  2.3087   2.3206   2.3300   2.3344   2.3493   2.3507   2.3653   2.3688
  2.3824   2.3889   2.3961   2.3989   2.4133   2.4192   2.4275   2.4315
  2.4415   2.4508   2.4646   2.4687   2.4798   2.4810   2.4922   2.4991
  2.5112   2.5221   2.5299   2.5320   2.5451   2.5582   2.5629   2.5788
  2.5871   2.5894   2.5909   2.6067   2.6108   2.6167   2.6243   2.6311
  2.6351   2.6375   2.6405   2.6469   2.6541   2.6581   2.6672   2.6729
  2.6817   2.6927   2.6942   2.6999   2.7034   2.7097   2.7122   2.7197
  2.7264   2.7334   2.7401   2.7479   2.7502   2.7553   2.7659   2.7690
  2.7740   2.7817   2.7964   2.7982   2.8068   2.8131   2.8301   2.8370
  2.8423   2.8496   2.8516   2.8560   2.8658   2.8672   2.8735   2.8800
  2.8839   2.8966   2.9034   2.9090   2.9101   2.9237   2.9406   2.9526
  2.9541   2.9604   2.9667   2.9728   2.9765   2.9809   2.9850   2.9985
  3.0060   3.0139   3.0176   3.0320   3.0427   3.0450   3.0477   3.0482
  3.0586   3.0606   3.0653   3.0774   3.0903   3.0917   3.0923   3.1007
  3.1089   3.1129   3.1179   3.1314   3.1333   3.1400   3.1453   3.1531
  3.1551   3.1560   3.1616   3.1647   3.1710   3.1796   3.1832   3.1850
  3.1888   3.1944   3.2000   3.2027   3.2076   3.2109   3.2186   3.2249
  3.2345   3.2400   3.2427   3.2479   3.2543   3.2610   3.2619   3.2673
  3.2704   3.2819   3.2865   3.2886   3.2897   3.2950   3.2971   3.3048
  3.3061   3.3096   3.3131   3.3212   3.3297   3.3348   3.3379   3.3427
  3.3449   3.3493   3.3519   3.3583   3.3621   3.3646   3.3699   3.3725
  3.3746   3.3764   3.3830   3.3897   3.3930   3.3995   3.4027   3.4091
  3.4137   3.4195   3.4253   3.4270   3.4340   3.4419   3.4453   3.4470
  3.4530   3.4604   3.4626   3.4667   3.4753   3.4783   3.4800   3.4806
  3.4906   3.4951   3.5069   3.5096   3.5160   3.5221   3.5260   3.5345
  3.5412   3.5513   3.5524   3.5646   3.5708   3.5771   3.5825   3.5856
  3.5890   3.5917   3.5936   3.6023   3.6046   3.6061   3.6125   3.6148
  3.6218   3.6233   3.6331   3.6369   3.6407   3.6448   3.6547   3.6566
  3.6629   3.6665   3.6711   3.6732   3.6800   3.6916   3.6923   3.6938
  3.7002   3.7043   3.7113   3.7156   3.7191   3.7218   3.7274   3.7322
  3.7333   3.7436   3.7477   3.7518   3.7555   3.7631   3.7685   3.7754
  3.7871   3.7878   3.7955   3.8035   3.8043   3.8107   3.8172   3.8242
  3.8314   3.8361   3.8376   3.8467   3.8505   3.8525   3.8591   3.8636
  3.8698   3.8748   3.8812   3.8863   3.8931   3.8977   3.9073   3.9123
  3.9167   3.9301   3.9346   3.9398   3.9481   3.9522   3.9569   3.9729
  3.9756   3.9796   3.9873   3.9932   3.9995   4.0077   4.0167   4.0197
  4.0247   4.0302   4.0422   4.0453   4.0514   4.0596   4.0648   4.0659
  4.0704   4.0844   4.0858   4.0947   4.1014   4.1164   4.1215   4.1315
  4.1369   4.1418   4.1475   4.1595   4.1662   4.1706   4.1725   4.1748
  4.1791   4.1962   4.2047   4.2085   4.2138   4.2276   4.2301   4.2316
  4.2477   4.2617   4.2738   4.2783   4.2843   4.2912   4.2964   4.3074
  4.3100   4.3227   4.3362   4.3442   4.3485   4.3516   4.3534   4.3615
  4.3771   4.3811   4.3819   4.3955   4.3984   4.4099   4.4119   4.4178
  4.4226   4.4242   4.4299   4.4371   4.4439   4.4459   4.4533   4.4628
  4.4744   4.4801   4.4895   4.5034   4.5042   4.5157   4.5174   4.5253
  4.5357   4.5442   4.5476   4.5596   4.5650   4.5689   4.5773   4.5896
  4.6003   4.6104   4.6158   4.6248   4.6349   4.6397   4.6462   4.6490
  4.6564   4.6715   4.6738   4.6928   4.6966   4.7029   4.7254   4.7312
  4.7408   4.7433   4.7549   4.7789   4.7844   4.7953   4.8018   4.8114
  4.8280   4.8366   4.8451   4.8518   4.8693   4.8771   4.8870   4.9077
  4.9259   4.9369   4.9451   4.9499   4.9576   4.9653   4.9667   4.9882
  4.9952   5.0064   5.0123   5.0181   5.0213   5.0413   5.0540   5.0619
  5.0755   5.0811   5.1017   5.1238   5.1321   5.1522   5.1584   5.1694
  5.1844   5.1931   5.2048   5.2140   5.2167   5.2270   5.2353   5.2491
  5.2578   5.2600   5.2822   5.2897   5.2940   5.3161   5.3229   5.3270
  5.3395   5.3544   5.3560   5.3611   5.3722   5.3802   5.3930   5.3999
  5.4033   5.4101   5.4279   5.4402   5.4598   5.4718   5.4737   5.5013
  5.5075   5.5158   5.5200   5.5446   5.5641   5.5723   5.5788   5.5921
  5.5943   5.6101   5.6200   5.6271   5.6419   5.6497   5.6760   5.6876
  5.7207   5.7363   5.7671   5.7866   5.8023   5.8259   5.8413   5.8585
  5.8735   5.8896   5.9078   5.9432   5.9692   5.9719   5.9832   6.0052
  6.0434   6.0533   6.1195   6.1283   6.1346   6.1513   6.1729   6.1803
  6.1874   6.2033   6.2212   6.2475   6.2598   6.2712   6.2854   6.2986
  6.3100   6.3497   6.3774   6.4413   6.4636   6.5025   6.5390   6.5499
  6.5583   6.5748   6.6446   6.6789   6.6867   6.7192   6.7438   6.7593
  6.8083   6.8608   6.8630   6.8873   6.9011   6.9946   7.1323   7.1462
  7.1800   7.2137   7.2213   7.2390   7.3271   7.3289   7.3412   7.3708
  7.3819   7.4341   7.4641   7.4846   7.4870   7.4965   7.5298   7.5526
  7.6282   7.7428   7.7688   7.8026   7.8338   7.9158   7.9267   7.9568
  8.0124   8.1253   8.4105   8.6479   8.9368   9.0417   9.3646   9.5098
  9.7359  10.3481  11.2829  11.4538  11.9201  11.9671  12.1247  12.3845
 12.4553  12.5037  12.6905  12.9603  13.0330  13.2254  13.4822  13.5715
 13.6822  13.8720  13.9317  14.0218  14.2869  14.4051  15.0255  15.2418
 --------------------------------------------------------------
 
          Ground-State Mulliken Net Atomic Charges

     Atom                 Charge (a.u.)
  ----------------------------------------
      1 C                    -0.071293
      2 C                    -0.240165
      3 S                    -0.129621
      4 C                    -0.050573
      5 H                     0.196234
      6 C                    -0.046255
      7 C                     0.216828
      8 C                     0.235094
      9 C                    -0.079948
     10 C                    -0.026975
     11 O                    -0.334473
     12 O                    -0.344055
     13 C                    -0.082713
     14 H                     0.120173
     15 H                     0.092013
     16 H                     0.093045
     17 C                    -0.088019
     18 H                     0.124324
     19 H                     0.093420
     20 H                     0.091930
     21 C                    -0.323129
     22 S                    -0.084751
     23 C                     0.093518
     24 H                     0.198163
     25 C                     0.029944
     26 S                     0.080407
     27 C                    -0.266993
     28 C                    -0.139938
     29 C                    -0.016126
     30 C                     0.380855
     31 C                    -0.146915
     32 S                     0.033837
     33 C                     0.458542
     34 O                    -0.456178
     35 O                    -0.298844
     36 F                    -0.209038
     37 C                    -0.055003
     38 H                     0.116299
     39 H                     0.084072
     40 H                     0.083742
     41 H                     0.214185
     42 H                     0.120141
     43 H                     0.117834
     44 H                     0.216404
  ----------------------------------------
  Sum of atomic charges =     0.000000

 -----------------------------------------------------------------
                    Cartesian Multipole Moments
 -----------------------------------------------------------------
    Charge (ESU x 10^10)
                -0.0000
    Dipole Moment (Debye)
         X       1.5086      Y       1.0549      Z       2.8659
       Tot       3.4062
    Quadrupole Moments (Debye-Ang)
        XX    -199.5136     XY       5.3126     YY    -167.6486
        XZ      -6.2371     YZ      -4.6332     ZZ    -189.3207
    Octopole Moments (Debye-Ang^2)
       XXX    -174.5305    XXY     404.4902    XYY     -52.2919
       YYY     941.0666    XXZ     154.9717    XYZ      -1.6408
       YYZ      86.9768    XZZ     -25.4136    YZZ     415.8220
       ZZZ     517.3546
    Hexadecapole Moments (Debye-Ang^3)
      XXXX    -653.0310   XXXY    -456.8928   XXYY   -3850.7550
      XYYY    -275.9949   YYYY  -18926.6721   XXXZ     350.0657
      XXYZ     615.5781   XYYZ     -23.4738   YYYZ    1977.8835
      XXZZ   -1414.9527   XYZZ      38.5453   YYZZ   -4260.0317
      XZZZ     130.6884   YZZZ    1216.0397   ZZZZ   -7632.6435
 -----------------------------------------------------------------
 Total job time:  342.12s(wall), 10845.50s(cpu) 
 Sun Sep 24 19:46:45 2023

        *************************************************************
        *                                                           *
        *  Thank you very much for using Q-Chem.  Have a nice day.  *
        *                                                           *
        *************************************************************


0 sent ACK to 0 
now end server 0 ... 
cleanup process ... done
remove work dirs ./qchem2542665.0 -- ./qchem2542665.0
rm -rf ./qchem2542665.0
rm -rf ./qchem2542665
