You are running Q-Chem version: 5.4.0

#
# job setting
#
local host:  exp-8-24
current dir: /expanse/lustre/projects/csd626/rramji/aromodel/PTB7_fin/Hydrogenated_Rotation_Test
input file:  fin_bdt_Phi_40_Theta_40_fin_ftt_Hydrogenated.qcin
output file: 
nprocs     : 1
nthreads   : 64
#
# qchem installation setting
#
QC:          /cm/shared/apps/spack/cpu/opt/spack/linux-centos8-zen2/gcc-10.2.0/qchem-5.4-akfmr7b3t57bfs6qan3padb2wnb2i7cl
QCAUX:       /cm/shared/apps/spack/cpu/opt/spack/linux-centos8-zen2/gcc-10.2.0/qchem-5.4-akfmr7b3t57bfs6qan3padb2wnb2i7cl/qcaux
QCPROG:      /cm/shared/apps/spack/cpu/opt/spack/linux-centos8-zen2/gcc-10.2.0/qchem-5.4-akfmr7b3t57bfs6qan3padb2wnb2i7cl/exe/qcprog.exe
QCPROG_S:    /cm/shared/apps/spack/cpu/opt/spack/linux-centos8-zen2/gcc-10.2.0/qchem-5.4-akfmr7b3t57bfs6qan3padb2wnb2i7cl/exe/qcprog.exe_s
PARALLEL:    -DPARALLEL
QCMPI:       mpich
#
# qchem directory setting
#
qcrun:       qchem929637
QCSCRATCH:   .
QCLOCALSCR:  
QCTMPDIR:    .
QCFILEPREF:  ./qchem929637
QCSAVEDIR:   
workdirs:    ./qchem929637
workdir0:    ./qchem929637
partmpdirs =  
#
# parallel setting
#
QCRSH:           ssh
QCMPI:           mpich
QCMPIRUN:        /cm/shared/apps/spack/cpu/opt/spack/linux-centos8-zen2/gcc-10.2.0/qchem-5.4-akfmr7b3t57bfs6qan3padb2wnb2i7cl/bin/mpi/mpirun_qchem
QCMACHINEFILE:   ./qchem929637/hostfile
exp-8-24

#
# env setting
#
exported envs:   QC QCAUX QCSCRATCH QCRUNNAME QCFILEPREF QCPROG QCPROG_S GUIFILE

Running Job 1 of 1 fin_bdt_Phi_40_Theta_40_fin_ftt_Hydrogenated.qcin
qchem fin_bdt_Phi_40_Theta_40_fin_ftt_Hydrogenated.qcin_929637.0 ./qchem929637/ 1
/cm/shared/apps/spack/cpu/opt/spack/linux-centos8-zen2/gcc-10.2.0/qchem-5.4-akfmr7b3t57bfs6qan3padb2wnb2i7cl/bin/mpi/mpirun_qchem -machinefile ./qchem929637/hostfile -np 1 /cm/shared/apps/spack/cpu/opt/spack/linux-centos8-zen2/gcc-10.2.0/qchem-5.4-akfmr7b3t57bfs6qan3padb2wnb2i7cl/exe/qcprog.exe fin_bdt_Phi_40_Theta_40_fin_ftt_Hydrogenated.qcin_929637.0 ./qchem929637/

Process 0 of 1 is on exp-8-24 - thread support 0
initial socket setup ...start
initial socket setup ...done 
now start server 0 ... 
                  Welcome to Q-Chem
     A Quantum Leap Into The Future Of Chemistry


 Q-Chem 5.4, Q-Chem, Inc., Pleasanton, CA (2021)

 License issued to: University of California, San Diego (site)

 E. Epifanovsky,  A. T. B. Gilbert,  Xintian Feng,  Joonho Lee,  Yuezhi Mao,  
 N. Mardirossian,  P. Pokhilko,  A. White,  M. Wormit,  M. P. Coons,  
 A. L. Dempwolff,  Zhengting Gan,  D. Hait,  P. R. Horn,  L. D. Jacobson,  
 I. Kaliman,  J. Kussmann,  A. W. Lange,  Ka Un Lao,  D. S. Levine,  Jie Liu,  
 S. C. McKenzie,  A. F. Morrison,  K. Nanda,  F. Plasser,  D. R. Rehn,  
 M. L. Vidal,  Zhi-Qiang You,  Ying Zhu,  B. Alam,  B. Albrecht,  
 A. Aldossary,  E. Alguire,  J. H. Andersen,  D. Barton,  K. Begam,  A. Behn,  
 Y. A. Bernard,  E. J. Berquist,  H. Burton,  A. Carreras,  K. Carter-Fenk,  
 R. Chakraborty,  A. D. Chien,  K. D. Closser,  V. Cofer-Shabica,  
 S. Dasgupta,  Jia Deng,  M. de Wergifosse,  M. Diedenhofen,  Hainam Do,  
 S. Ehlert,  Po-Tung Fang,  S. Fatehi,  Qingguo Feng,  J. Gayvert,  
 Qinghui Ge,  G. Gidofalvi,  M. Goldey,  J. Gomes,  C. Gonzalez-Espinoza,  
 S. Gulania,  A. Gunina,  M. W. D. Hanson-Heine,  P. H. P. Harbach,  
 A. W. Hauser,  M. F. Herbst,  M. Hernandez Vera,  M. Hodecker,  
 Z. C. Holden,  S. Houck,  Xunkun Huang,  Kerwin Hui,  B. C. Huynh,  
 M. Ivanov,  Hyunjun Ji,  Hanjie Jiang,  B. Kaduk,  S. Kaehler,  
 K. Khistyaev,  Jaehoon Kim,  P. Klunzinger,  Z. Koczor-Benda,  
 Joong Hoon Koh,  D. Kosenkov,  L. Koulias,  T. Kowalczyk,  C. M. Krauter,  
 K. Kue,  A. Kunitsa,  T. Kus,  A. Landau,  K. V. Lawler,  D. Lefrancois,  
 S. Lehtola,  Rain Li,  Yi-Pei Li,  Jiashu Liang,  M. Liebenthal,  
 Hung-Hsuan Lin,  You-Sheng Lin,  Fenglai Liu,  Kuan-Yu Liu,  
 M. Loipersberger,  A. Luenser,  A. Manjanath,  P. Manohar,  E. Mansoor,  
 S. F. Manzer,  Shan-Ping Mao,  A. V. Marenich,  T. Markovich,  S. Mason,  
 S. A. Maurer,  P. F. McLaughlin,  M. F. S. J. Menger,  J.-M. Mewes,  
 S. A. Mewes,  P. Morgante,  J. W. Mullinax,  T. S. Nguyen-Beck,  
 K. J. Oosterbaan,  G. Paran,  Alexander C. Paul,  Suranjan K. Paul,  
 F. Pavosevic,  Zheng Pei,  S. Prager,  E. I. Proynov,  E. Ramos,  B. Rana,  
 A. E. Rask,  A. Rettig,  R. M. Richard,  F. Rob,  E. Rossomme,  T. Scheele,  
 M. Scheurer,  M. Schneider,  N. Sergueev,  S. M. Sharada,  W. Skomorowski,  
 D. W. Small,  C. J. Stein,  Yu-Chuan Su,  E. J. Sundstrom,  Zhen Tao,  
 J. Thirman,  T. Tsuchimochi,  N. M. Tubman,  S. P. Veccham,  O. Vydrov,  
 J. Wenzel,  J. Witte,  A. Yamada,  Kun Yao,  S. Yeganeh,  S. R. Yost,  
 A. Zech,  Igor Ying Zhang,  Xing Zhang,  Yu Zhang,  D. Zuev,  
 A. Aspuru-Guzik,  A. T. Bell,  N. A. Besley,  K. B. Bravaya,  B. R. Brooks,  
 D. Casanova,  Jeng-Da Chai,  S. Coriani,  C. J. Cramer,  
 A. E. DePrince, III,  R. A. DiStasio Jr.,  A. Dreuw,  B. D. Dunietz,  
 T. R. Furlani,  W. A. Goddard III,  S. Grimme,  S. Hammes-Schiffer,  
 T. Head-Gordon,  W. J. Hehre,  Chao-Ping Hsu,  T.-C. Jagau,  Yousung Jung,  
 A. Klamt,  Jing Kong,  D. S. Lambrecht,  WanZhen Liang,  N. J. Mayhall,  
 C. W. McCurdy,  J. B. Neaton,  C. Ochsenfeld,  J. A. Parkhill,  R. Peverati,  
 V. A. Rassolov,  Yihan Shao,  L. V. Slipchenko,  T. Stauch,  R. P. Steele,  
 J. E. Subotnik,  A. J. W. Thom,  A. Tkatchenko,  D. G. Truhlar,  
 T. Van Voorhis,  T. A. Wesolowski,  K. B. Whaley,  H. L. Woodcock III,  
 P. M. Zimmerman,  S. Faraji,  P. M. W. Gill,  M. Head-Gordon,  
 J. M. Herbert,  A. I. Krylov

 Contributors to earlier versions of Q-Chem not listed above: 
 R. D. Adamson,  B. Austin,  R. Baer,  J. Baker,  G. J. O. Beran,  
 K. Brandhorst,  S. T. Brown,  E. F. C. Byrd,  A. K. Chakraborty,  
 G. K. L. Chan,  Chun-Min Chang,  Yunqing Chen,  C.-L. Cheng,  
 Siu Hung Chien,  D. M. Chipman,  D. L. Crittenden,  H. Dachsel,  
 R. J. Doerksen,  A. D. Dutoi,  R. G. Edgar,  J. Fosso-Tande,  
 L. Fusti-Molnar,  D. Ghosh,  A. Ghysels,  A. Golubeva-Zadorozhnaya,  
 J. Gonthier,  M. S. Gordon,  S. R. Gwaltney,  G. Hawkins,  J. E. Herr,  
 A. Heyden,  S. Hirata,  E. G. Hohenstein,  G. Kedziora,  F. J. Keil,  
 C. Kelley,  Jihan Kim,  R. A. King,  R. Z. Khaliullin,  P. P. Korambath,  
 W. Kurlancheek,  A. Laurent,  A. M. Lee,  M. S. Lee,  S. V. Levchenko,  
 Ching Yeh Lin,  D. Liotard,  E. Livshits,  R. C. Lochan,  I. Lotan,  
 L. A. Martinez-Martinez,  P. E. Maslen,  N. Nair,  D. P. O'Neill,  
 D. Neuhauser,  E. Neuscamman,  C. M. Oana,  R. Olivares-Amaya,  R. Olson,  
 T. M. Perrine,  B. Peters,  P. A. Pieniazek,  A. Prociuk,  Y. M. Rhee,  
 J. Ritchie,  M. A. Rohrdanz,  E. Rosta,  N. J. Russ,  H. F. Schaefer III,  
 M. W. Schmidt,  N. E. Schultz,  S. Sharma,  N. Shenvi,  C. D. Sherrill,  
 A. C. Simmonett,  A. Sodt,  T. Stein,  D. Stuck,  K. S. Thanthiriwatte,  
 V. Vanovschi,  L. Vogt,  Tao Wang,  A. Warshel,  M. A. Watson,  
 C. F. Williams,  Q. Wu,  X. Xu,  Jun Yang,  W. Zhang,  Yan Zhao

 Please cite Q-Chem as follows:
 Y. Shao et al., Mol. Phys. 113, 184-215 (2015)
 DOI: 10.1080/00268976.2014.952696

 Q-Chem 5.4.0 for Intel X86 EM64T Linux

 Parts of Q-Chem use Armadillo 9.800.1 (Horizon Scraper).
 http://arma.sourceforge.net/

 Q-Chem begins on Sun Sep 24 16:47:48 2023  

 Host: 
0

     Scratch files written to ./qchem929637//
 May1621 |scratch|qcdevops|jenkins|workspace|build_RNUM    
 Parallel job on  1  processors
 Processing $rem in /cm/shared/apps/spack/cpu/opt/spack/linux-centos8-zen2/gcc-10.2.0/qchem-5.4-akfmr7b3t57bfs6qan3padb2wnb2i7cl/config/preferences:
 Processing $rem in /home/rramji/.qchemrc:
 Symmetry turned off for PCM/SM12/SMD calculation
 Core orbitals will be frozen

 Checking the input file for inconsistencies... 	...done.

 Q-Chem warning in module forms1/BasisType.C, line 2236:

 You are not using the predefined 5D/6D in this basis set.


--------------------------------------------------------------
User input:
--------------------------------------------------------------
$molecule
0 1
C	-0.208886	-8.519741	0.174379
C	0.472151	-7.635967	-0.650052
S	-1.193717	-7.651740	1.377058
C	0.225125	-6.261894	-0.353105
H	1.141594	-7.954738	-1.458961
C	-0.692811	-6.079985	0.740583
C	-1.039773	-4.798382	1.195546
C	0.817634	-5.153542	-1.023267
C	0.473754	-3.869626	-0.565262
C	-0.447350	-3.688927	0.527745
O	1.644483	-5.481075	-2.054917
O	-1.869424	-4.479871	2.232592
C	-2.939466	-5.356026	2.565470
H	-3.601405	-4.790496	3.248608
H	-2.587892	-6.268513	3.094885
H	-3.516052	-5.658187	1.664539
C	2.608813	-4.546999	-2.524564
H	3.270661	-5.107564	-3.211568
H	3.216646	-4.131473	-1.692342
H	2.141184	-3.712085	-3.090211
C	-0.690319	-2.314326	0.823402
S	0.985511	-2.295487	-1.194935
C	-0.000000	-1.435180	-0.000000
H	-1.361286	-1.993211	1.630024
C	0.000000	0.000000	0.000000
S	0.579852	0.687566	1.510732
C	1.591625	1.895024	0.727629
C	0.583771	0.695758	-1.064665
C	1.475308	1.760606	-0.678287
C	0.542366	0.643841	-2.486150
C	1.355286	1.612843	-3.106916
S	2.154609	2.570627	-1.965735
C	1.522440	1.804778	-4.559972
O	0.924684	1.087757	-5.350277
O	2.349739	2.785679	-5.004375
F	-0.170780	-0.212144	-3.246290
C	2.588082	3.053936	-6.334976
H	3.298799	3.899999	-6.370268
H	1.655291	3.328371	-6.875609
H	3.026021	2.177385	-6.861878
H	2.183053	2.599759	1.321510
H	0.486655	-9.146471	0.744739
H	-0.898184	-9.150570	-0.399033
H	0.832713	-1.444158	0.687683
$end

$rem
JOBTYPE		SP
EXCHANGE	HF
CORRELATION	pRIMP2
BASIS		cc-pvtz
METHOD		rimp2
AUX_BASIS	rimp2-cc-pvtz
SOLVENT_METHOD	PCM
PURECART	11111
SYMMETRY	false
MEM_TOTAL	110000
SCF_CONVERGENCE = 6
THRESH=10
GUI = 2
$end



$solvent
dielectric 4.90
$end
--------------------------------------------------------------
 ----------------------------------------------------------------
             Standard Nuclear Orientation (Angstroms)
    I     Atom           X                Y                Z
 ----------------------------------------------------------------
    1      C      -0.2088860000    -8.5197410000     0.1743790000
    2      C       0.4721510000    -7.6359670000    -0.6500520000
    3      S      -1.1937170000    -7.6517400000     1.3770580000
    4      C       0.2251250000    -6.2618940000    -0.3531050000
    5      H       1.1415940000    -7.9547380000    -1.4589610000
    6      C      -0.6928110000    -6.0799850000     0.7405830000
    7      C      -1.0397730000    -4.7983820000     1.1955460000
    8      C       0.8176340000    -5.1535420000    -1.0232670000
    9      C       0.4737540000    -3.8696260000    -0.5652620000
   10      C      -0.4473500000    -3.6889270000     0.5277450000
   11      O       1.6444830000    -5.4810750000    -2.0549170000
   12      O      -1.8694240000    -4.4798710000     2.2325920000
   13      C      -2.9394660000    -5.3560260000     2.5654700000
   14      H      -3.6014050000    -4.7904960000     3.2486080000
   15      H      -2.5878920000    -6.2685130000     3.0948850000
   16      H      -3.5160520000    -5.6581870000     1.6645390000
   17      C       2.6088130000    -4.5469990000    -2.5245640000
   18      H       3.2706610000    -5.1075640000    -3.2115680000
   19      H       3.2166460000    -4.1314730000    -1.6923420000
   20      H       2.1411840000    -3.7120850000    -3.0902110000
   21      C      -0.6903190000    -2.3143260000     0.8234020000
   22      S       0.9855110000    -2.2954870000    -1.1949350000
   23      C       0.0000000000    -1.4351800000     0.0000000000
   24      H      -1.3612860000    -1.9932110000     1.6300240000
   25      C       0.0000000000     0.0000000000     0.0000000000
   26      S       0.5798520000     0.6875660000     1.5107320000
   27      C       1.5916250000     1.8950240000     0.7276290000
   28      C       0.5837710000     0.6957580000    -1.0646650000
   29      C       1.4753080000     1.7606060000    -0.6782870000
   30      C       0.5423660000     0.6438410000    -2.4861500000
   31      C       1.3552860000     1.6128430000    -3.1069160000
   32      S       2.1546090000     2.5706270000    -1.9657350000
   33      C       1.5224400000     1.8047780000    -4.5599720000
   34      O       0.9246840000     1.0877570000    -5.3502770000
   35      O       2.3497390000     2.7856790000    -5.0043750000
   36      F      -0.1707800000    -0.2121440000    -3.2462900000
   37      C       2.5880820000     3.0539360000    -6.3349760000
   38      H       3.2987990000     3.8999990000    -6.3702680000
   39      H       1.6552910000     3.3283710000    -6.8756090000
   40      H       3.0260210000     2.1773850000    -6.8618780000
   41      H       2.1830530000     2.5997590000     1.3215100000
   42      H       0.4866550000    -9.1464710000     0.7447390000
   43      H      -0.8981840000    -9.1505700000    -0.3990330000
   44      H       0.8327130000    -1.4441580000     0.6876830000
 ----------------------------------------------------------------
 Nuclear Repulsion Energy =        3409.75790558 hartrees
 There are      120 alpha and      120 beta electrons
 Requested basis set is cc-pVTZ
 There are 388 shells and 1096 basis functions

 Total QAlloc Memory Limit 110000 MB
 Mega-Array Size       188 MB
 MEM_STATIC part       192 MB
 Discretize the solute cavity surface with Lebedev spheres
	Using 110 Lebedev grid points for each H atom
	Using 194 Lebedev grid points for other atoms
	Atomic van der Waals radii will be scaled by 1.20
 Remove points where switching function is < 1.0e-08
 Keep 2926 surface tesserae and discard 4350 interior tesserae
 Molecular Surface Area = 435.975 Angst**2
 Requested basis set is rimp2-cc-pVTZ
 There are 853 shells and 2963 basis functions
 A cutoff of  1.0D-10 yielded  34167 shell pairs
 There are    257399 function pairs (    332744 Cartesian)
 Smallest overlap matrix eigenvalue = 2.12E-05

 Scale SEOQF with 1.000000e-01/1.000000e-02/1.000000e-02

 Standard Electronic Orientation quadrupole field applied
 Nucleus-field energy     =     0.0000000324 hartrees
 Guess from superposition of atomic densities
 Warning:  Energy on first SCF cycle will be non-variational
 SAD guess density has 240.000000 electrons

 -----------------------------------------------------------------------
  General SCF calculation program by
  Eric Jon Sundstrom, Paul Horn, Yuezhi Mao, Dmitri Zuev, Alec White,
  David Stuck, Shaama M.S., Shane Yost, Joonho Lee, David Small,
  Daniel Levine, Susi Lehtola, Hugh Burton, Evgeny Epifanovsky,
  Bang C. Huynh
 -----------------------------------------------------------------------
 Hartree-Fock
 using 64 threads for integral computing
 -------------------------------------------------------
 OpenMP Integral computing Module                
 Release: version 1.0, May 2013, Q-Chem Inc. Pittsburgh 
 -------------------------------------------------------
 A restricted SCF calculation will be
 performed using DIIS
 SCF converges when DIIS error is below 1.0e-06
 ---------------------------------------
  Cycle       Energy         DIIS error
 ---------------------------------------
    1   -2767.4223654963      1.77e-02  
    2   -2754.8349744727      1.54e-03  
    3   -2755.1850585597      8.79e-04  
    4   -2755.2761637273      2.55e-04  
    5   -2755.2902519687      7.30e-05  
    6   -2755.2919067291      2.71e-05  
    7   -2755.2923738395      1.40e-05  
    8   -2755.2925177554      5.78e-06  
    9   -2755.2925484255      2.97e-06  
   10   -2755.2925557029      1.49e-06  
   11   -2755.2925581686      7.81e-07  Convergence criterion met
 ---------------------------------------
 SCF time:   CPU 7701.19s  wall 289.00s 

************** Final PCM Free Energy Summary **************
 G_electrostatic  =      -0.02245303 hartree =     -14.08949125 kcal/mol
 G_cavitation     =       0.00000000 hartree =       0.00000000 kcal/mol
 G_dispersion     =       0.00000000 hartree =       0.00000000 kcal/mol
 G_repulsion      =       0.00000000 hartree =       0.00000000 kcal/mol
 --------------------------------------------------
 Non-electrostatic Free Energy =       0.00000000 hartree =       0.00000000 kcal/mol
 Total                         =      -0.02245303 hartree =     -14.08949125 kcal/mol
 --------------------------------------------------
 SCF Energy (H0 + V/2)                       =   -2755.29255817 
 Solute Internal Energy (H0)                 =   -2755.27010513 
 Total Free Energy (H0 + V/2 + non-elec)     =   -2755.29255817 hartree
                                             = -1728972.17562659 kcal/mol
***********************************************************

 SCF   energy in the final basis set =    -2755.2925581686
 Total energy in the final basis set =    -2755.2925581686


 --------------------------------------------------------------
  Generalized many-body perturbation theory program
  by Joonho Lee, Fazle Rob, Xintian Feng, Evgeny Epifanovsky

 No regularization used 
 (reg. param. = 0.0000e+00)
  (P|Q)^-1/2 Time:  CPU 193.29 s  wall 3.51 s

 In RI-MP2 calculation: 
 # of frozen core orbitals: 45

 Components of the RIMP2 correlation energy:
        aaaa    correlation energy =        -0.6720237689 a.u.
        abab    correlation energy =        -3.7571165346 a.u.
        bbbb    correlation energy =        -0.6720237689 a.u.
        non-Brillouin singles      =        -0.0000000000 a.u.
        total same-spin energy     =        -1.3440475378 a.u.
        total opposite-spin energy =        -3.7571165346 a.u.

 Total  RIMP2   correlation energy =        -5.1011640723 a.u.
        RIMP2         total energy =     -2760.3937222409 a.u.

 RI-MP2 Energy Time:  CPU 3039.71 s  wall 49.46 s
 
 --------------------------------------------------------------
 
                    Orbital Energies (a.u.)
 --------------------------------------------------------------
 
 Alpha MOs
 -- Occupied --
-92.0097 -91.9966 -91.9766 -91.9583 -26.3343 -20.6135 -20.5872 -20.5865
-20.5522 -11.4122 -11.3788 -11.3087 -11.3085 -11.3071 -11.3016 -11.3013
-11.2979 -11.2892 -11.2852 -11.2838 -11.2828 -11.2824 -11.2790 -11.2731
-11.2695 -11.2581 -11.2580 -11.2497 -11.2372  -9.0096  -9.0007  -8.9789
 -8.9609  -6.6903  -6.6896  -6.6891  -6.6819  -6.6813  -6.6799  -6.6600
 -6.6592  -6.6579  -6.6422  -6.6412  -6.6402  -1.6478  -1.4733  -1.4100
 -1.4088  -1.3688  -1.2438  -1.2085  -1.1764  -1.1456  -1.0983  -1.0529
 -1.0453  -1.0330  -1.0073  -0.9974  -0.9735  -0.9595  -0.9488  -0.9408
 -0.8933  -0.8725  -0.8613  -0.8112  -0.7942  -0.7854  -0.7759  -0.7699
 -0.7647  -0.7331  -0.7211  -0.7160  -0.6965  -0.6943  -0.6826  -0.6796
 -0.6734  -0.6689  -0.6559  -0.6484  -0.6374  -0.6276  -0.6201  -0.6149
 -0.6113  -0.6080  -0.5982  -0.5936  -0.5792  -0.5662  -0.5626  -0.5576
 -0.5466  -0.5339  -0.5293  -0.5213  -0.5128  -0.5076  -0.5037  -0.5013
 -0.4871  -0.4833  -0.4768  -0.4665  -0.4625  -0.4621  -0.4607  -0.4466
 -0.4258  -0.4007  -0.3842  -0.3714  -0.3514  -0.2951  -0.2853  -0.2161
 -- Virtual --
  0.0131   0.0563   0.1083   0.1327   0.1399   0.1459   0.1535   0.1553
  0.1566   0.1587   0.1667   0.1718   0.1801   0.1850   0.1890   0.1940
  0.2007   0.2038   0.2053   0.2094   0.2155   0.2212   0.2233   0.2263
  0.2291   0.2327   0.2391   0.2455   0.2534   0.2562   0.2670   0.2727
  0.2791   0.2886   0.3085   0.3165   0.3228   0.3337   0.3418   0.3462
  0.3548   0.3572   0.3581   0.3628   0.3677   0.3749   0.3805   0.3824
  0.3881   0.3921   0.3961   0.4001   0.4076   0.4093   0.4122   0.4209
  0.4224   0.4279   0.4324   0.4362   0.4389   0.4449   0.4455   0.4531
  0.4542   0.4585   0.4657   0.4680   0.4748   0.4761   0.4796   0.4836
  0.4940   0.4982   0.5009   0.5044   0.5070   0.5107   0.5158   0.5186
  0.5214   0.5278   0.5307   0.5343   0.5395   0.5449   0.5507   0.5515
  0.5557   0.5584   0.5601   0.5620   0.5698   0.5719   0.5749   0.5812
  0.5866   0.5898   0.5922   0.5953   0.6015   0.6075   0.6095   0.6107
  0.6137   0.6168   0.6178   0.6216   0.6229   0.6260   0.6289   0.6358
  0.6368   0.6400   0.6409   0.6430   0.6462   0.6494   0.6549   0.6604
  0.6636   0.6653   0.6725   0.6791   0.6857   0.6881   0.6952   0.6972
  0.7037   0.7057   0.7101   0.7168   0.7192   0.7254   0.7302   0.7395
  0.7447   0.7529   0.7573   0.7593   0.7731   0.7756   0.7827   0.7878
  0.7913   0.7951   0.7964   0.8034   0.8142   0.8197   0.8227   0.8247
  0.8320   0.8390   0.8452   0.8595   0.8639   0.8691   0.8715   0.8846
  0.8874   0.8920   0.8970   0.9024   0.9063   0.9091   0.9130   0.9153
  0.9159   0.9270   0.9311   0.9335   0.9378   0.9453   0.9472   0.9538
  0.9606   0.9652   0.9690   0.9756   0.9830   0.9865   0.9915   0.9951
  0.9979   0.9982   1.0067   1.0129   1.0142   1.0222   1.0245   1.0318
  1.0380   1.0421   1.0470   1.0506   1.0584   1.0592   1.0654   1.0698
  1.0738   1.0763   1.0830   1.0846   1.0916   1.0948   1.1044   1.1098
  1.1128   1.1190   1.1205   1.1313   1.1406   1.1468   1.1489   1.1528
  1.1582   1.1615   1.1641   1.1704   1.1733   1.1763   1.1806   1.1855
  1.1896   1.1910   1.1955   1.1995   1.2018   1.2073   1.2155   1.2175
  1.2237   1.2320   1.2339   1.2412   1.2467   1.2506   1.2548   1.2599
  1.2616   1.2645   1.2673   1.2827   1.2832   1.2878   1.2934   1.3034
  1.3052   1.3111   1.3229   1.3286   1.3336   1.3349   1.3386   1.3434
  1.3491   1.3592   1.3681   1.3732   1.3752   1.3849   1.3924   1.4029
  1.4050   1.4102   1.4130   1.4232   1.4307   1.4400   1.4474   1.4603
  1.4633   1.4695   1.4741   1.4820   1.4839   1.4917   1.4991   1.5019
  1.5032   1.5079   1.5117   1.5126   1.5234   1.5275   1.5345   1.5371
  1.5438   1.5481   1.5501   1.5545   1.5608   1.5644   1.5690   1.5735
  1.5836   1.5975   1.6076   1.6094   1.6137   1.6198   1.6356   1.6427
  1.6460   1.6522   1.6560   1.6652   1.6716   1.6751   1.6825   1.6921
  1.6969   1.7042   1.7145   1.7207   1.7216   1.7317   1.7330   1.7430
  1.7541   1.7640   1.7656   1.7731   1.7885   1.7981   1.8054   1.8141
  1.8284   1.8318   1.8364   1.8466   1.8540   1.8641   1.8686   1.8708
  1.8786   1.8860   1.8966   1.9083   1.9158   1.9230   1.9309   1.9352
  1.9442   1.9492   1.9630   1.9752   1.9850   1.9915   2.0016   2.0077
  2.0156   2.0194   2.0243   2.0306   2.0446   2.0473   2.0529   2.0540
  2.0711   2.0828   2.0897   2.0970   2.1072   2.1168   2.1242   2.1389
  2.1422   2.1495   2.1543   2.1623   2.1706   2.1765   2.1769   2.1871
  2.1923   2.2024   2.2066   2.2211   2.2234   2.2343   2.2383   2.2455
  2.2516   2.2617   2.2655   2.2720   2.2771   2.2843   2.2961   2.2984
  2.3098   2.3161   2.3249   2.3337   2.3440   2.3491   2.3596   2.3676
  2.3741   2.3886   2.3950   2.4045   2.4108   2.4144   2.4176   2.4305
  2.4482   2.4526   2.4634   2.4654   2.4685   2.4758   2.4950   2.5042
  2.5188   2.5192   2.5272   2.5297   2.5351   2.5440   2.5562   2.5758
  2.5827   2.5835   2.5973   2.6027   2.6150   2.6157   2.6201   2.6259
  2.6299   2.6348   2.6460   2.6480   2.6531   2.6585   2.6685   2.6737
  2.6870   2.6885   2.6948   2.7004   2.7023   2.7114   2.7153   2.7221
  2.7258   2.7358   2.7400   2.7465   2.7550   2.7559   2.7589   2.7686
  2.7735   2.7759   2.7907   2.8018   2.8041   2.8165   2.8281   2.8364
  2.8474   2.8510   2.8558   2.8593   2.8658   2.8707   2.8769   2.8782
  2.8816   2.8919   2.8947   2.9060   2.9257   2.9325   2.9381   2.9510
  2.9563   2.9581   2.9676   2.9684   2.9795   2.9877   2.9942   3.0105
  3.0120   3.0221   3.0295   3.0335   3.0421   3.0438   3.0477   3.0589
  3.0606   3.0711   3.0766   3.0839   3.0881   3.0920   3.0976   3.1040
  3.1091   3.1137   3.1201   3.1210   3.1342   3.1416   3.1433   3.1475
  3.1508   3.1575   3.1601   3.1630   3.1656   3.1720   3.1788   3.1866
  3.1939   3.1964   3.2038   3.2062   3.2113   3.2158   3.2214   3.2243
  3.2276   3.2391   3.2463   3.2526   3.2569   3.2581   3.2605   3.2692
  3.2702   3.2780   3.2819   3.2852   3.2904   3.2910   3.2989   3.3029
  3.3067   3.3104   3.3175   3.3261   3.3288   3.3373   3.3428   3.3477
  3.3493   3.3506   3.3522   3.3580   3.3645   3.3670   3.3683   3.3725
  3.3738   3.3826   3.3880   3.3905   3.3966   3.4015   3.4049   3.4072
  3.4086   3.4236   3.4300   3.4329   3.4372   3.4427   3.4461   3.4494
  3.4570   3.4580   3.4599   3.4625   3.4699   3.4774   3.4812   3.4850
  3.4907   3.4972   3.5084   3.5090   3.5212   3.5229   3.5297   3.5336
  3.5438   3.5479   3.5544   3.5592   3.5730   3.5792   3.5797   3.5843
  3.5879   3.5918   3.5954   3.6029   3.6038   3.6111   3.6130   3.6190
  3.6300   3.6304   3.6348   3.6395   3.6468   3.6514   3.6614   3.6626
  3.6655   3.6716   3.6755   3.6785   3.6855   3.6859   3.6983   3.7033
  3.7069   3.7136   3.7150   3.7203   3.7222   3.7286   3.7295   3.7347
  3.7369   3.7439   3.7488   3.7539   3.7562   3.7621   3.7726   3.7760
  3.7855   3.7871   3.7973   3.8005   3.8067   3.8134   3.8164   3.8283
  3.8286   3.8337   3.8406   3.8427   3.8477   3.8543   3.8569   3.8601
  3.8624   3.8731   3.8774   3.8876   3.8919   3.9012   3.9044   3.9151
  3.9172   3.9260   3.9309   3.9424   3.9486   3.9556   3.9586   3.9653
  3.9714   3.9830   3.9864   3.9905   3.9979   4.0079   4.0140   4.0213
  4.0249   4.0295   4.0460   4.0484   4.0524   4.0636   4.0695   4.0741
  4.0778   4.0857   4.0880   4.0980   4.1070   4.1140   4.1199   4.1258
  4.1355   4.1449   4.1533   4.1615   4.1691   4.1721   4.1745   4.1806
  4.1860   4.1924   4.2007   4.2081   4.2161   4.2228   4.2442   4.2453
  4.2544   4.2581   4.2632   4.2758   4.2876   4.2935   4.2949   4.3133
  4.3198   4.3242   4.3391   4.3450   4.3476   4.3527   4.3578   4.3687
  4.3755   4.3769   4.3834   4.3898   4.4018   4.4090   4.4152   4.4202
  4.4246   4.4252   4.4289   4.4385   4.4420   4.4469   4.4510   4.4636
  4.4710   4.4774   4.4803   4.4934   4.5053   4.5154   4.5191   4.5257
  4.5329   4.5534   4.5595   4.5642   4.5679   4.5748   4.5781   4.5881
  4.5954   4.6164   4.6199   4.6262   4.6335   4.6367   4.6416   4.6490
  4.6582   4.6651   4.6684   4.6817   4.7052   4.7069   4.7173   4.7296
  4.7334   4.7500   4.7528   4.7685   4.7918   4.7998   4.8171   4.8236
  4.8293   4.8394   4.8439   4.8471   4.8708   4.8755   4.8878   4.9078
  4.9176   4.9270   4.9377   4.9501   4.9610   4.9639   4.9699   4.9770
  4.9891   4.9946   5.0088   5.0115   5.0147   5.0212   5.0458   5.0551
  5.0763   5.0887   5.1031   5.1148   5.1400   5.1458   5.1643   5.1737
  5.1929   5.1935   5.1982   5.2079   5.2197   5.2230   5.2358   5.2476
  5.2542   5.2587   5.2787   5.2915   5.2943   5.3179   5.3237   5.3316
  5.3396   5.3545   5.3577   5.3663   5.3693   5.3804   5.3885   5.3988
  5.4041   5.4070   5.4226   5.4429   5.4538   5.4725   5.4845   5.5046
  5.5129   5.5188   5.5217   5.5378   5.5547   5.5684   5.5781   5.5814
  5.6001   5.6105   5.6149   5.6166   5.6353   5.6478   5.6782   5.6908
  5.7233   5.7358   5.7654   5.7828   5.7996   5.8145   5.8445   5.8557
  5.8593   5.8840   5.9031   5.9220   5.9681   5.9758   5.9769   5.9999
  6.0255   6.0452   6.1158   6.1176   6.1328   6.1487   6.1710   6.1811
  6.1846   6.1884   6.2133   6.2547   6.2612   6.2719   6.2867   6.2964
  6.3075   6.3552   6.3657   6.4161   6.4508   6.4964   6.5177   6.5475
  6.5550   6.5719   6.6465   6.6742   6.6793   6.7166   6.7369   6.7442
  6.8093   6.8575   6.8590   6.8814   6.8995   6.9895   7.1336   7.1463
  7.1772   7.2101   7.2230   7.2396   7.3251   7.3277   7.3423   7.3741
  7.3768   7.4263   7.4614   7.4860   7.4880   7.4975   7.5195   7.5479
  7.6125   7.7418   7.7716   7.8029   7.8304   7.9087   7.9271   7.9563
  8.0059   8.1222   8.3700   8.5911   8.9401   9.0109   9.3678   9.5004
  9.6987  10.3280  11.2342  11.4199  11.9354  12.0821  12.1252  12.3937
 12.4394  12.4994  12.6319  12.9577  13.0120  13.3129  13.4760  13.5534
 13.7093  13.8798  13.9276  13.9568  14.1534  14.3143  14.8882  15.2157
 --------------------------------------------------------------
 
          Ground-State Mulliken Net Atomic Charges

     Atom                 Charge (a.u.)
  ----------------------------------------
      1 C                    -0.070219
      2 C                    -0.259059
      3 S                    -0.135455
      4 C                    -0.047900
      5 H                     0.193765
      6 C                    -0.046637
      7 C                     0.214487
      8 C                     0.223871
      9 C                    -0.072725
     10 C                    -0.019508
     11 O                    -0.334769
     12 O                    -0.343573
     13 C                    -0.082618
     14 H                     0.119752
     15 H                     0.091853
     16 H                     0.093174
     17 C                    -0.089134
     18 H                     0.123892
     19 H                     0.091660
     20 H                     0.091791
     21 C                    -0.326941
     22 S                    -0.095812
     23 C                     0.114756
     24 H                     0.202663
     25 C                    -0.029491
     26 S                     0.085238
     27 C                    -0.214939
     28 C                    -0.134028
     29 C                    -0.010728
     30 C                     0.370571
     31 C                    -0.138844
     32 S                     0.045275
     33 C                     0.459161
     34 O                    -0.446390
     35 O                    -0.297670
     36 F                    -0.207990
     37 C                    -0.054714
     38 H                     0.116921
     39 H                     0.085078
     40 H                     0.084733
     41 H                     0.216077
     42 H                     0.117495
     43 H                     0.115420
     44 H                     0.201510
  ----------------------------------------
  Sum of atomic charges =     0.000000

 -----------------------------------------------------------------
                    Cartesian Multipole Moments
 -----------------------------------------------------------------
    Charge (ESU x 10^10)
                -0.0000
    Dipole Moment (Debye)
         X       3.0866      Y       2.8134      Z       3.1225
       Tot       5.2146
    Quadrupole Moments (Debye-Ang)
        XX    -181.0693     XY       5.7967     YY    -179.8851
        XZ     -15.5444     YZ      -5.4036     ZZ    -200.2495
    Octopole Moments (Debye-Ang^2)
       XXX    -285.1551    XXY     390.0079    XYY     -57.8902
       YYY    1092.6026    XXZ     149.3879    XYZ      13.2013
       YYZ     109.3143    XZZ     -21.4245    YZZ     501.3205
       ZZZ     514.0404
    Hexadecapole Moments (Debye-Ang^3)
      XXXX   -2512.2871   XXXY   -1037.0823   XXYY   -3704.1254
      XYYY   -1169.0063   YYYY  -18807.2942   XXXZ    1372.4665
      XXYZ     394.7290   XYYZ     256.8965   YYYZ    1600.2310
      XXZZ   -1263.5100   XYZZ    -100.7527   YYZZ   -4392.3614
      XZZZ     986.6711   YZZZ     915.4115   ZZZZ   -6772.4041
 -----------------------------------------------------------------
 Total job time:  341.95s(wall), 10841.47s(cpu) 
 Sun Sep 24 16:53:30 2023

        *************************************************************
        *                                                           *
        *  Thank you very much for using Q-Chem.  Have a nice day.  *
        *                                                           *
        *************************************************************


0 sent ACK to 0 
now end server 0 ... 
cleanup process ... done
remove work dirs ./qchem929637.0 -- ./qchem929637.0
rm -rf ./qchem929637.0
rm -rf ./qchem929637
