You are running Q-Chem version: 5.4.0

#
# job setting
#
local host:  exp-6-02
current dir: /expanse/lustre/projects/csd626/rramji/aromodel/PTB7_fin/Hydrogenated_Rotation_Test
input file:  fin_bdt_Phi_15_Theta_230_fin_ftt_Hydrogenated.qcin
output file: 
nprocs     : 1
nthreads   : 64
#
# qchem installation setting
#
QC:          /cm/shared/apps/spack/cpu/opt/spack/linux-centos8-zen2/gcc-10.2.0/qchem-5.4-akfmr7b3t57bfs6qan3padb2wnb2i7cl
QCAUX:       /cm/shared/apps/spack/cpu/opt/spack/linux-centos8-zen2/gcc-10.2.0/qchem-5.4-akfmr7b3t57bfs6qan3padb2wnb2i7cl/qcaux
QCPROG:      /cm/shared/apps/spack/cpu/opt/spack/linux-centos8-zen2/gcc-10.2.0/qchem-5.4-akfmr7b3t57bfs6qan3padb2wnb2i7cl/exe/qcprog.exe
QCPROG_S:    /cm/shared/apps/spack/cpu/opt/spack/linux-centos8-zen2/gcc-10.2.0/qchem-5.4-akfmr7b3t57bfs6qan3padb2wnb2i7cl/exe/qcprog.exe_s
PARALLEL:    -DPARALLEL
QCMPI:       mpich
#
# qchem directory setting
#
qcrun:       qchem416859
QCSCRATCH:   .
QCLOCALSCR:  
QCTMPDIR:    .
QCFILEPREF:  ./qchem416859
QCSAVEDIR:   
workdirs:    ./qchem416859
workdir0:    ./qchem416859
partmpdirs =  
#
# parallel setting
#
QCRSH:           ssh
QCMPI:           mpich
QCMPIRUN:        /cm/shared/apps/spack/cpu/opt/spack/linux-centos8-zen2/gcc-10.2.0/qchem-5.4-akfmr7b3t57bfs6qan3padb2wnb2i7cl/bin/mpi/mpirun_qchem
QCMACHINEFILE:   ./qchem416859/hostfile
exp-6-02

#
# env setting
#
exported envs:   QC QCAUX QCSCRATCH QCRUNNAME QCFILEPREF QCPROG QCPROG_S GUIFILE

Running Job 1 of 1 fin_bdt_Phi_15_Theta_230_fin_ftt_Hydrogenated.qcin
qchem fin_bdt_Phi_15_Theta_230_fin_ftt_Hydrogenated.qcin_416859.0 ./qchem416859/ 1
/cm/shared/apps/spack/cpu/opt/spack/linux-centos8-zen2/gcc-10.2.0/qchem-5.4-akfmr7b3t57bfs6qan3padb2wnb2i7cl/bin/mpi/mpirun_qchem -machinefile ./qchem416859/hostfile -np 1 /cm/shared/apps/spack/cpu/opt/spack/linux-centos8-zen2/gcc-10.2.0/qchem-5.4-akfmr7b3t57bfs6qan3padb2wnb2i7cl/exe/qcprog.exe fin_bdt_Phi_15_Theta_230_fin_ftt_Hydrogenated.qcin_416859.0 ./qchem416859/

Process 0 of 1 is on exp-6-02 - thread support 0
initial socket setup ...start
initial socket setup ...done 
now start server 0 ... 
                  Welcome to Q-Chem
     A Quantum Leap Into The Future Of Chemistry


 Q-Chem 5.4, Q-Chem, Inc., Pleasanton, CA (2021)

 License issued to: University of California, San Diego (site)

 E. Epifanovsky,  A. T. B. Gilbert,  Xintian Feng,  Joonho Lee,  Yuezhi Mao,  
 N. Mardirossian,  P. Pokhilko,  A. White,  M. Wormit,  M. P. Coons,  
 A. L. Dempwolff,  Zhengting Gan,  D. Hait,  P. R. Horn,  L. D. Jacobson,  
 I. Kaliman,  J. Kussmann,  A. W. Lange,  Ka Un Lao,  D. S. Levine,  Jie Liu,  
 S. C. McKenzie,  A. F. Morrison,  K. Nanda,  F. Plasser,  D. R. Rehn,  
 M. L. Vidal,  Zhi-Qiang You,  Ying Zhu,  B. Alam,  B. Albrecht,  
 A. Aldossary,  E. Alguire,  J. H. Andersen,  D. Barton,  K. Begam,  A. Behn,  
 Y. A. Bernard,  E. J. Berquist,  H. Burton,  A. Carreras,  K. Carter-Fenk,  
 R. Chakraborty,  A. D. Chien,  K. D. Closser,  V. Cofer-Shabica,  
 S. Dasgupta,  Jia Deng,  M. de Wergifosse,  M. Diedenhofen,  Hainam Do,  
 S. Ehlert,  Po-Tung Fang,  S. Fatehi,  Qingguo Feng,  J. Gayvert,  
 Qinghui Ge,  G. Gidofalvi,  M. Goldey,  J. Gomes,  C. Gonzalez-Espinoza,  
 S. Gulania,  A. Gunina,  M. W. D. Hanson-Heine,  P. H. P. Harbach,  
 A. W. Hauser,  M. F. Herbst,  M. Hernandez Vera,  M. Hodecker,  
 Z. C. Holden,  S. Houck,  Xunkun Huang,  Kerwin Hui,  B. C. Huynh,  
 M. Ivanov,  Hyunjun Ji,  Hanjie Jiang,  B. Kaduk,  S. Kaehler,  
 K. Khistyaev,  Jaehoon Kim,  P. Klunzinger,  Z. Koczor-Benda,  
 Joong Hoon Koh,  D. Kosenkov,  L. Koulias,  T. Kowalczyk,  C. M. Krauter,  
 K. Kue,  A. Kunitsa,  T. Kus,  A. Landau,  K. V. Lawler,  D. Lefrancois,  
 S. Lehtola,  Rain Li,  Yi-Pei Li,  Jiashu Liang,  M. Liebenthal,  
 Hung-Hsuan Lin,  You-Sheng Lin,  Fenglai Liu,  Kuan-Yu Liu,  
 M. Loipersberger,  A. Luenser,  A. Manjanath,  P. Manohar,  E. Mansoor,  
 S. F. Manzer,  Shan-Ping Mao,  A. V. Marenich,  T. Markovich,  S. Mason,  
 S. A. Maurer,  P. F. McLaughlin,  M. F. S. J. Menger,  J.-M. Mewes,  
 S. A. Mewes,  P. Morgante,  J. W. Mullinax,  T. S. Nguyen-Beck,  
 K. J. Oosterbaan,  G. Paran,  Alexander C. Paul,  Suranjan K. Paul,  
 F. Pavosevic,  Zheng Pei,  S. Prager,  E. I. Proynov,  E. Ramos,  B. Rana,  
 A. E. Rask,  A. Rettig,  R. M. Richard,  F. Rob,  E. Rossomme,  T. Scheele,  
 M. Scheurer,  M. Schneider,  N. Sergueev,  S. M. Sharada,  W. Skomorowski,  
 D. W. Small,  C. J. Stein,  Yu-Chuan Su,  E. J. Sundstrom,  Zhen Tao,  
 J. Thirman,  T. Tsuchimochi,  N. M. Tubman,  S. P. Veccham,  O. Vydrov,  
 J. Wenzel,  J. Witte,  A. Yamada,  Kun Yao,  S. Yeganeh,  S. R. Yost,  
 A. Zech,  Igor Ying Zhang,  Xing Zhang,  Yu Zhang,  D. Zuev,  
 A. Aspuru-Guzik,  A. T. Bell,  N. A. Besley,  K. B. Bravaya,  B. R. Brooks,  
 D. Casanova,  Jeng-Da Chai,  S. Coriani,  C. J. Cramer,  
 A. E. DePrince, III,  R. A. DiStasio Jr.,  A. Dreuw,  B. D. Dunietz,  
 T. R. Furlani,  W. A. Goddard III,  S. Grimme,  S. Hammes-Schiffer,  
 T. Head-Gordon,  W. J. Hehre,  Chao-Ping Hsu,  T.-C. Jagau,  Yousung Jung,  
 A. Klamt,  Jing Kong,  D. S. Lambrecht,  WanZhen Liang,  N. J. Mayhall,  
 C. W. McCurdy,  J. B. Neaton,  C. Ochsenfeld,  J. A. Parkhill,  R. Peverati,  
 V. A. Rassolov,  Yihan Shao,  L. V. Slipchenko,  T. Stauch,  R. P. Steele,  
 J. E. Subotnik,  A. J. W. Thom,  A. Tkatchenko,  D. G. Truhlar,  
 T. Van Voorhis,  T. A. Wesolowski,  K. B. Whaley,  H. L. Woodcock III,  
 P. M. Zimmerman,  S. Faraji,  P. M. W. Gill,  M. Head-Gordon,  
 J. M. Herbert,  A. I. Krylov

 Contributors to earlier versions of Q-Chem not listed above: 
 R. D. Adamson,  B. Austin,  R. Baer,  J. Baker,  G. J. O. Beran,  
 K. Brandhorst,  S. T. Brown,  E. F. C. Byrd,  A. K. Chakraborty,  
 G. K. L. Chan,  Chun-Min Chang,  Yunqing Chen,  C.-L. Cheng,  
 Siu Hung Chien,  D. M. Chipman,  D. L. Crittenden,  H. Dachsel,  
 R. J. Doerksen,  A. D. Dutoi,  R. G. Edgar,  J. Fosso-Tande,  
 L. Fusti-Molnar,  D. Ghosh,  A. Ghysels,  A. Golubeva-Zadorozhnaya,  
 J. Gonthier,  M. S. Gordon,  S. R. Gwaltney,  G. Hawkins,  J. E. Herr,  
 A. Heyden,  S. Hirata,  E. G. Hohenstein,  G. Kedziora,  F. J. Keil,  
 C. Kelley,  Jihan Kim,  R. A. King,  R. Z. Khaliullin,  P. P. Korambath,  
 W. Kurlancheek,  A. Laurent,  A. M. Lee,  M. S. Lee,  S. V. Levchenko,  
 Ching Yeh Lin,  D. Liotard,  E. Livshits,  R. C. Lochan,  I. Lotan,  
 L. A. Martinez-Martinez,  P. E. Maslen,  N. Nair,  D. P. O'Neill,  
 D. Neuhauser,  E. Neuscamman,  C. M. Oana,  R. Olivares-Amaya,  R. Olson,  
 T. M. Perrine,  B. Peters,  P. A. Pieniazek,  A. Prociuk,  Y. M. Rhee,  
 J. Ritchie,  M. A. Rohrdanz,  E. Rosta,  N. J. Russ,  H. F. Schaefer III,  
 M. W. Schmidt,  N. E. Schultz,  S. Sharma,  N. Shenvi,  C. D. Sherrill,  
 A. C. Simmonett,  A. Sodt,  T. Stein,  D. Stuck,  K. S. Thanthiriwatte,  
 V. Vanovschi,  L. Vogt,  Tao Wang,  A. Warshel,  M. A. Watson,  
 C. F. Williams,  Q. Wu,  X. Xu,  Jun Yang,  W. Zhang,  Yan Zhao

 Please cite Q-Chem as follows:
 Y. Shao et al., Mol. Phys. 113, 184-215 (2015)
 DOI: 10.1080/00268976.2014.952696

 Q-Chem 5.4.0 for Intel X86 EM64T Linux

 Parts of Q-Chem use Armadillo 9.800.1 (Horizon Scraper).
 http://arma.sourceforge.net/

 Q-Chem begins on Tue Sep 26 19:21:15 2023  

 Host: 
0

     Scratch files written to ./qchem416859//
 May1621 |scratch|qcdevops|jenkins|workspace|build_RNUM    
 Parallel job on  1  processors
 Processing $rem in /cm/shared/apps/spack/cpu/opt/spack/linux-centos8-zen2/gcc-10.2.0/qchem-5.4-akfmr7b3t57bfs6qan3padb2wnb2i7cl/config/preferences:
 Processing $rem in /home/rramji/.qchemrc:
 Symmetry turned off for PCM/SM12/SMD calculation
 Core orbitals will be frozen

 Checking the input file for inconsistencies... 	...done.

 Q-Chem warning in module forms1/BasisType.C, line 2236:

 You are not using the predefined 5D/6D in this basis set.


--------------------------------------------------------------
User input:
--------------------------------------------------------------
$molecule
0 1
C	0.235993	-8.519741	-0.135457
C	-0.577858	-7.635967	0.558188
S	1.414705	-7.651740	-1.148850
C	-0.283020	-6.261894	0.308648
H	-1.377597	-7.954738	1.238560
C	0.810887	-6.079985	-0.609026
C	1.231581	-4.798382	-0.996828
C	-0.982901	-5.153542	0.865740
C	-0.564713	-3.869626	0.474408
C	0.532196	-3.688927	-0.442046
O	-1.976332	-5.481075	1.738137
O	2.228709	-4.479871	-1.874052
C	3.340298	-5.356026	-2.016062
H	4.110807	-4.790496	-2.573877
H	3.085998	-6.268513	-2.598484
H	3.751679	-5.658187	-1.028695
C	-3.007565	-4.546999	2.033195
H	-3.778655	-5.107564	2.594833
H	-3.461650	-4.131473	1.108067
H	-2.645264	-3.712085	2.671451
C	0.822814	-2.314326	-0.691020
S	-1.178037	-2.295487	1.005649
C	0.000000	-1.435180	0.000000
H	1.623656	-1.993211	-1.368875
C	0.000000	0.000000	0.000000
S	0.234946	0.868203	1.510732
C	0.641630	2.390125	0.727629
C	0.235036	0.877284	-1.064665
C	0.593019	2.219143	-0.678287
C	0.219452	0.812732	-2.486150
C	0.546689	2.034501	-3.106916
S	0.866345	3.240357	-1.965735
C	0.617067	2.279095	-4.559972
O	0.378342	1.376631	-5.350277
O	0.952308	3.517725	-5.004375
F	-0.065123	-0.264443	-3.246290
C	1.054950	3.861577	-6.334976
H	1.341516	4.928732	-6.370268
H	0.093573	3.716085	-6.875609
H	1.822303	3.252232	-6.861878
H	0.879812	3.278780	1.321510
H	-0.349939	-9.146471	-0.817932
H	0.815247	-9.150570	0.548939
H	-0.700647	-1.444158	-0.821835
$end

$rem
JOBTYPE		SP
EXCHANGE	HF
CORRELATION	pRIMP2
BASIS		cc-pvtz
METHOD		rimp2
AUX_BASIS	rimp2-cc-pvtz
SOLVENT_METHOD	PCM
PURECART	11111
SYMMETRY	false
MEM_TOTAL	110000
SCF_CONVERGENCE = 6
THRESH=10
GUI = 2
$end



$solvent
dielectric 4.90
$end
--------------------------------------------------------------
 ----------------------------------------------------------------
             Standard Nuclear Orientation (Angstroms)
    I     Atom           X                Y                Z
 ----------------------------------------------------------------
    1      C       0.2359930000    -8.5197410000    -0.1354570000
    2      C      -0.5778580000    -7.6359670000     0.5581880000
    3      S       1.4147050000    -7.6517400000    -1.1488500000
    4      C      -0.2830200000    -6.2618940000     0.3086480000
    5      H      -1.3775970000    -7.9547380000     1.2385600000
    6      C       0.8108870000    -6.0799850000    -0.6090260000
    7      C       1.2315810000    -4.7983820000    -0.9968280000
    8      C      -0.9829010000    -5.1535420000     0.8657400000
    9      C      -0.5647130000    -3.8696260000     0.4744080000
   10      C       0.5321960000    -3.6889270000    -0.4420460000
   11      O      -1.9763320000    -5.4810750000     1.7381370000
   12      O       2.2287090000    -4.4798710000    -1.8740520000
   13      C       3.3402980000    -5.3560260000    -2.0160620000
   14      H       4.1108070000    -4.7904960000    -2.5738770000
   15      H       3.0859980000    -6.2685130000    -2.5984840000
   16      H       3.7516790000    -5.6581870000    -1.0286950000
   17      C      -3.0075650000    -4.5469990000     2.0331950000
   18      H      -3.7786550000    -5.1075640000     2.5948330000
   19      H      -3.4616500000    -4.1314730000     1.1080670000
   20      H      -2.6452640000    -3.7120850000     2.6714510000
   21      C       0.8228140000    -2.3143260000    -0.6910200000
   22      S      -1.1780370000    -2.2954870000     1.0056490000
   23      C       0.0000000000    -1.4351800000     0.0000000000
   24      H       1.6236560000    -1.9932110000    -1.3688750000
   25      C       0.0000000000     0.0000000000     0.0000000000
   26      S       0.2349460000     0.8682030000     1.5107320000
   27      C       0.6416300000     2.3901250000     0.7276290000
   28      C       0.2350360000     0.8772840000    -1.0646650000
   29      C       0.5930190000     2.2191430000    -0.6782870000
   30      C       0.2194520000     0.8127320000    -2.4861500000
   31      C       0.5466890000     2.0345010000    -3.1069160000
   32      S       0.8663450000     3.2403570000    -1.9657350000
   33      C       0.6170670000     2.2790950000    -4.5599720000
   34      O       0.3783420000     1.3766310000    -5.3502770000
   35      O       0.9523080000     3.5177250000    -5.0043750000
   36      F      -0.0651230000    -0.2644430000    -3.2462900000
   37      C       1.0549500000     3.8615770000    -6.3349760000
   38      H       1.3415160000     4.9287320000    -6.3702680000
   39      H       0.0935730000     3.7160850000    -6.8756090000
   40      H       1.8223030000     3.2522320000    -6.8618780000
   41      H       0.8798120000     3.2787800000     1.3215100000
   42      H      -0.3499390000    -9.1464710000    -0.8179320000
   43      H       0.8152470000    -9.1505700000     0.5489390000
   44      H      -0.7006470000    -1.4441580000    -0.8218350000
 ----------------------------------------------------------------
 Nuclear Repulsion Energy =        3363.19789290 hartrees
 There are      120 alpha and      120 beta electrons
 Requested basis set is cc-pVTZ
 There are 388 shells and 1096 basis functions

 Total QAlloc Memory Limit 110000 MB
 Mega-Array Size       188 MB
 MEM_STATIC part       192 MB
 Discretize the solute cavity surface with Lebedev spheres
	Using 110 Lebedev grid points for each H atom
	Using 194 Lebedev grid points for other atoms
	Atomic van der Waals radii will be scaled by 1.20
 Remove points where switching function is < 1.0e-08
 Keep 2967 surface tesserae and discard 4309 interior tesserae
 Molecular Surface Area = 441.895 Angst**2
 Requested basis set is rimp2-cc-pVTZ
 There are 853 shells and 2963 basis functions
 A cutoff of  1.0D-10 yielded  33472 shell pairs
 There are    252928 function pairs (    327236 Cartesian)
 Smallest overlap matrix eigenvalue = 2.13E-05

 Scale SEOQF with 1.000000e-01/1.000000e-02/1.000000e-02

 Standard Electronic Orientation quadrupole field applied
 Nucleus-field energy     =     0.0000000306 hartrees
 Guess from superposition of atomic densities
 Warning:  Energy on first SCF cycle will be non-variational
 SAD guess density has 240.000000 electrons

 -----------------------------------------------------------------------
  General SCF calculation program by
  Eric Jon Sundstrom, Paul Horn, Yuezhi Mao, Dmitri Zuev, Alec White,
  David Stuck, Shaama M.S., Shane Yost, Joonho Lee, David Small,
  Daniel Levine, Susi Lehtola, Hugh Burton, Evgeny Epifanovsky,
  Bang C. Huynh
 -----------------------------------------------------------------------
 Hartree-Fock
 using 64 threads for integral computing
 -------------------------------------------------------
 OpenMP Integral computing Module                
 Release: version 1.0, May 2013, Q-Chem Inc. Pittsburgh 
 -------------------------------------------------------
 A restricted SCF calculation will be
 performed using DIIS
 SCF converges when DIIS error is below 1.0e-06
 ---------------------------------------
  Cycle       Energy         DIIS error
 ---------------------------------------
    1   -2767.3383682501      1.77e-02  
    2   -2754.8697409970      1.54e-03  
    3   -2755.2182576052      8.78e-04  
    4   -2755.3091207850      2.54e-04  
    5   -2755.3227042646      7.24e-05  
    6   -2755.3241947139      2.57e-05  
    7   -2755.3245776060      1.34e-05  
    8   -2755.3246970773      5.68e-06  
    9   -2755.3247248148      3.03e-06  
   10   -2755.3247319345      1.45e-06  
   11   -2755.3247341089      7.36e-07  Convergence criterion met
 ---------------------------------------
 SCF time:   CPU 7389.34s  wall 270.00s 

************** Final PCM Free Energy Summary **************
 G_electrostatic  =      -0.02126873 hartree =     -13.34633093 kcal/mol
 G_cavitation     =       0.00000000 hartree =       0.00000000 kcal/mol
 G_dispersion     =       0.00000000 hartree =       0.00000000 kcal/mol
 G_repulsion      =       0.00000000 hartree =       0.00000000 kcal/mol
 --------------------------------------------------
 Non-electrostatic Free Energy =       0.00000000 hartree =       0.00000000 kcal/mol
 Total                         =      -0.02126873 hartree =     -13.34633093 kcal/mol
 --------------------------------------------------
 SCF Energy (H0 + V/2)                       =   -2755.32473411 
 Solute Internal Energy (H0)                 =   -2755.30346538 
 Total Free Energy (H0 + V/2 + non-elec)     =   -2755.32473411 hartree
                                             = -1728992.36633390 kcal/mol
***********************************************************

 SCF   energy in the final basis set =    -2755.3247341089
 Total energy in the final basis set =    -2755.3247341089


 --------------------------------------------------------------
  Generalized many-body perturbation theory program
  by Joonho Lee, Fazle Rob, Xintian Feng, Evgeny Epifanovsky

 No regularization used 
 (reg. param. = 0.0000e+00)
  (P|Q)^-1/2 Time:  CPU 154.19 s  wall 3.06 s

 In RI-MP2 calculation: 
 # of frozen core orbitals: 45

 Components of the RIMP2 correlation energy:
        aaaa    correlation energy =        -0.6703526983 a.u.
        abab    correlation energy =        -3.7519618510 a.u.
        bbbb    correlation energy =        -0.6703526983 a.u.
        non-Brillouin singles      =        -0.0000000000 a.u.
        total same-spin energy     =        -1.3407053965 a.u.
        total opposite-spin energy =        -3.7519618510 a.u.

 Total  RIMP2   correlation energy =        -5.0926672475 a.u.
        RIMP2         total energy =     -2760.4174013564 a.u.

 RI-MP2 Energy Time:  CPU 2889.84 s  wall 47.41 s
 
 --------------------------------------------------------------
 
                    Orbital Energies (a.u.)
 --------------------------------------------------------------
 
 Alpha MOs
 -- Occupied --
-92.0139 -91.9959 -91.9802 -91.9585 -26.3385 -20.6127 -20.5879 -20.5871
-20.5507 -11.4111 -11.3796 -11.3167 -11.3094 -11.3088 -11.2982 -11.2981
-11.2925 -11.2889 -11.2851 -11.2840 -11.2836 -11.2832 -11.2825 -11.2735
-11.2735 -11.2592 -11.2587 -11.2500 -11.2381  -9.0125  -8.9999  -8.9823
 -8.9611  -6.6932  -6.6926  -6.6921  -6.6812  -6.6805  -6.6792  -6.6635
 -6.6626  -6.6613  -6.6423  -6.6414  -6.6404  -1.6515  -1.4724  -1.4112
 -1.4089  -1.3678  -1.2392  -1.2097  -1.1759  -1.1437  -1.1005  -1.0517
 -1.0468  -1.0292  -1.0095  -0.9988  -0.9724  -0.9600  -0.9492  -0.9412
 -0.8944  -0.8742  -0.8626  -0.8083  -0.7948  -0.7862  -0.7785  -0.7725
 -0.7623  -0.7340  -0.7202  -0.7189  -0.6984  -0.6934  -0.6866  -0.6792
 -0.6757  -0.6729  -0.6562  -0.6488  -0.6360  -0.6279  -0.6204  -0.6150
 -0.6112  -0.6069  -0.5956  -0.5938  -0.5820  -0.5681  -0.5589  -0.5535
 -0.5465  -0.5354  -0.5300  -0.5230  -0.5131  -0.5079  -0.5045  -0.5023
 -0.4865  -0.4848  -0.4766  -0.4706  -0.4622  -0.4617  -0.4614  -0.4468
 -0.4269  -0.4013  -0.3863  -0.3707  -0.3508  -0.2935  -0.2877  -0.2196
 -- Virtual --
  0.0269   0.0544   0.1150   0.1303   0.1388   0.1452   0.1536   0.1550
  0.1593   0.1603   0.1641   0.1743   0.1817   0.1860   0.1878   0.1970
  0.2024   0.2027   0.2036   0.2078   0.2165   0.2212   0.2228   0.2276
  0.2305   0.2326   0.2393   0.2469   0.2522   0.2588   0.2651   0.2691
  0.2743   0.2948   0.3087   0.3183   0.3283   0.3349   0.3433   0.3451
  0.3473   0.3572   0.3609   0.3671   0.3686   0.3716   0.3797   0.3816
  0.3873   0.3881   0.3916   0.4042   0.4106   0.4149   0.4180   0.4235
  0.4265   0.4289   0.4326   0.4357   0.4382   0.4386   0.4461   0.4523
  0.4563   0.4607   0.4648   0.4675   0.4688   0.4758   0.4782   0.4790
  0.4834   0.4904   0.4981   0.4988   0.5063   0.5117   0.5168   0.5203
  0.5240   0.5287   0.5338   0.5352   0.5411   0.5426   0.5475   0.5514
  0.5538   0.5569   0.5609   0.5624   0.5681   0.5701   0.5719   0.5817
  0.5854   0.5868   0.5903   0.5937   0.5984   0.6010   0.6066   0.6134
  0.6141   0.6159   0.6176   0.6187   0.6242   0.6258   0.6313   0.6321
  0.6369   0.6394   0.6422   0.6435   0.6474   0.6490   0.6551   0.6556
  0.6588   0.6643   0.6705   0.6747   0.6776   0.6818   0.6908   0.6968
  0.7016   0.7039   0.7113   0.7158   0.7182   0.7240   0.7328   0.7413
  0.7514   0.7532   0.7575   0.7665   0.7691   0.7813   0.7843   0.7892
  0.7908   0.7913   0.7947   0.8051   0.8090   0.8117   0.8168   0.8227
  0.8319   0.8357   0.8423   0.8533   0.8649   0.8678   0.8707   0.8811
  0.8908   0.8930   0.8965   0.8999   0.9046   0.9073   0.9149   0.9209
  0.9243   0.9256   0.9316   0.9371   0.9414   0.9472   0.9492   0.9527
  0.9625   0.9651   0.9692   0.9788   0.9805   0.9856   0.9892   0.9911
  0.9999   1.0002   1.0063   1.0084   1.0140   1.0187   1.0237   1.0296
  1.0380   1.0420   1.0423   1.0490   1.0543   1.0585   1.0628   1.0712
  1.0736   1.0743   1.0843   1.0874   1.0924   1.0940   1.1035   1.1060
  1.1140   1.1186   1.1248   1.1281   1.1335   1.1388   1.1476   1.1510
  1.1549   1.1616   1.1640   1.1645   1.1734   1.1743   1.1757   1.1809
  1.1845   1.1901   1.1917   1.1971   1.1985   1.2089   1.2130   1.2188
  1.2215   1.2248   1.2275   1.2403   1.2415   1.2477   1.2511   1.2600
  1.2640   1.2662   1.2757   1.2802   1.2824   1.2892   1.2929   1.2974
  1.3048   1.3145   1.3167   1.3254   1.3341   1.3347   1.3395   1.3421
  1.3455   1.3523   1.3553   1.3718   1.3754   1.3839   1.3909   1.4000
  1.4069   1.4147   1.4185   1.4217   1.4314   1.4378   1.4451   1.4576
  1.4607   1.4704   1.4726   1.4840   1.4895   1.4912   1.4959   1.4999
  1.5069   1.5110   1.5123   1.5170   1.5268   1.5313   1.5365   1.5410
  1.5420   1.5469   1.5501   1.5576   1.5631   1.5667   1.5742   1.5764
  1.5796   1.5946   1.5974   1.6044   1.6217   1.6248   1.6328   1.6372
  1.6429   1.6556   1.6580   1.6611   1.6644   1.6726   1.6762   1.6849
  1.6937   1.6984   1.7030   1.7163   1.7217   1.7318   1.7398   1.7436
  1.7579   1.7626   1.7713   1.7856   1.7917   1.7978   1.8058   1.8138
  1.8229   1.8319   1.8337   1.8405   1.8526   1.8609   1.8667   1.8708
  1.8811   1.8874   1.9029   1.9103   1.9159   1.9170   1.9309   1.9391
  1.9477   1.9536   1.9594   1.9656   1.9682   1.9766   1.9908   2.0036
  2.0183   2.0188   2.0265   2.0340   2.0392   2.0429   2.0513   2.0556
  2.0696   2.0753   2.0839   2.0956   2.1051   2.1159   2.1284   2.1319
  2.1394   2.1489   2.1568   2.1609   2.1727   2.1802   2.1860   2.1933
  2.1955   2.2011   2.2161   2.2185   2.2300   2.2326   2.2374   2.2442
  2.2519   2.2533   2.2623   2.2703   2.2801   2.2867   2.2958   2.3025
  2.3103   2.3157   2.3174   2.3291   2.3380   2.3437   2.3562   2.3649
  2.3708   2.3855   2.3955   2.4031   2.4067   2.4148   2.4209   2.4330
  2.4408   2.4421   2.4592   2.4712   2.4764   2.4833   2.4902   2.5036
  2.5132   2.5281   2.5305   2.5338   2.5422   2.5611   2.5738   2.5768
  2.5801   2.5873   2.5954   2.6034   2.6179   2.6235   2.6256   2.6330
  2.6337   2.6407   2.6450   2.6496   2.6541   2.6570   2.6654   2.6719
  2.6801   2.6908   2.6931   2.6977   2.7017   2.7046   2.7160   2.7208
  2.7285   2.7327   2.7429   2.7443   2.7467   2.7576   2.7643   2.7712
  2.7729   2.7783   2.7994   2.8007   2.8053   2.8078   2.8217   2.8302
  2.8382   2.8464   2.8538   2.8569   2.8621   2.8655   2.8751   2.8775
  2.8811   2.8866   2.9021   2.9062   2.9111   2.9197   2.9311   2.9490
  2.9547   2.9563   2.9589   2.9620   2.9749   2.9790   2.9904   3.0032
  3.0098   3.0126   3.0190   3.0316   3.0361   3.0419   3.0441   3.0445
  3.0493   3.0617   3.0773   3.0840   3.0869   3.0900   3.0944   3.1038
  3.1054   3.1075   3.1099   3.1265   3.1309   3.1384   3.1446   3.1477
  3.1542   3.1551   3.1598   3.1617   3.1700   3.1720   3.1803   3.1849
  3.1879   3.1954   3.1970   3.2030   3.2063   3.2153   3.2187   3.2226
  3.2349   3.2376   3.2408   3.2499   3.2531   3.2588   3.2620   3.2660
  3.2729   3.2756   3.2803   3.2805   3.2872   3.2913   3.2972   3.3009
  3.3058   3.3074   3.3108   3.3191   3.3225   3.3231   3.3390   3.3455
  3.3482   3.3509   3.3548   3.3556   3.3600   3.3629   3.3652   3.3687
  3.3724   3.3758   3.3820   3.3944   3.3966   3.4017   3.4022   3.4087
  3.4102   3.4230   3.4238   3.4315   3.4339   3.4355   3.4425   3.4472
  3.4514   3.4543   3.4586   3.4598   3.4708   3.4732   3.4800   3.4848
  3.4918   3.4937   3.5008   3.5066   3.5158   3.5216   3.5252   3.5440
  3.5490   3.5511   3.5577   3.5636   3.5667   3.5739   3.5796   3.5820
  3.5865   3.5892   3.6005   3.6017   3.6059   3.6099   3.6123   3.6151
  3.6202   3.6296   3.6361   3.6368   3.6412   3.6441   3.6532   3.6594
  3.6644   3.6671   3.6720   3.6756   3.6784   3.6804   3.6911   3.6945
  3.6982   3.7024   3.7104   3.7137   3.7198   3.7228   3.7276   3.7294
  3.7330   3.7380   3.7480   3.7501   3.7572   3.7673   3.7682   3.7783
  3.7811   3.7885   3.7955   3.8018   3.8059   3.8075   3.8180   3.8217
  3.8235   3.8362   3.8390   3.8463   3.8483   3.8492   3.8536   3.8609
  3.8647   3.8715   3.8828   3.8897   3.8954   3.9024   3.9094   3.9164
  3.9185   3.9282   3.9373   3.9384   3.9471   3.9511   3.9574   3.9626
  3.9633   3.9715   3.9801   3.9928   3.9965   4.0018   4.0076   4.0148
  4.0210   4.0312   4.0341   4.0382   4.0513   4.0528   4.0620   4.0636
  4.0680   4.0795   4.0815   4.0878   4.0975   4.1050   4.1103   4.1161
  4.1361   4.1405   4.1532   4.1631   4.1707   4.1727   4.1750   4.1817
  4.1819   4.1899   4.1988   4.2068   4.2148   4.2187   4.2291   4.2382
  4.2445   4.2498   4.2635   4.2709   4.2828   4.2968   4.2994   4.3053
  4.3150   4.3204   4.3284   4.3410   4.3476   4.3513   4.3605   4.3659
  4.3746   4.3764   4.3845   4.3934   4.3956   4.4039   4.4127   4.4183
  4.4234   4.4262   4.4286   4.4361   4.4374   4.4457   4.4497   4.4596
  4.4672   4.4779   4.4823   4.4937   4.4971   4.5139   4.5195   4.5289
  4.5386   4.5402   4.5477   4.5631   4.5680   4.5703   4.5769   4.5905
  4.5927   4.6114   4.6145   4.6247   4.6364   4.6418   4.6435   4.6526
  4.6640   4.6684   4.6715   4.6724   4.6960   4.7014   4.7129   4.7258
  4.7330   4.7469   4.7493   4.7755   4.7818   4.7948   4.8011   4.8153
  4.8169   4.8290   4.8422   4.8529   4.8633   4.8744   4.8775   4.8962
  4.9160   4.9198   4.9388   4.9453   4.9566   4.9649   4.9731   4.9837
  4.9877   5.0064   5.0100   5.0112   5.0232   5.0294   5.0430   5.0454
  5.0636   5.0803   5.0960   5.1012   5.1224   5.1601   5.1697   5.1798
  5.1916   5.1939   5.2008   5.2069   5.2137   5.2174   5.2283   5.2487
  5.2557   5.2588   5.2750   5.2878   5.2943   5.3154   5.3239   5.3260
  5.3348   5.3535   5.3548   5.3571   5.3659   5.3722   5.3880   5.3999
  5.4052   5.4086   5.4251   5.4431   5.4626   5.4727   5.4855   5.4985
  5.5083   5.5202   5.5228   5.5547   5.5599   5.5666   5.5792   5.5828
  5.5974   5.6095   5.6171   5.6276   5.6326   5.6483   5.6703   5.6907
  5.7222   5.7412   5.7663   5.7749   5.8003   5.8213   5.8357   5.8552
  5.8597   5.8837   5.9033   5.9568   5.9691   5.9808   5.9870   6.0043
  6.0383   6.1022   6.1212   6.1243   6.1332   6.1488   6.1718   6.1754
  6.1854   6.1998   6.2362   6.2392   6.2527   6.2678   6.2848   6.2933
  6.3081   6.3385   6.3629   6.4265   6.4732   6.4983   6.5366   6.5558
  6.5640   6.5751   6.6526   6.6762   6.6932   6.7223   6.7465   6.7478
  6.8086   6.8592   6.8598   6.8831   6.8982   6.9920   7.1311   7.1464
  7.1779   7.2111   7.2212   7.2398   7.3257   7.3271   7.3410   7.3700
  7.3728   7.4284   7.4620   7.4827   7.4855   7.4979   7.5187   7.5487
  7.6189   7.7370   7.7666   7.8026   7.8314   7.9145   7.9275   7.9563
  8.0043   8.1255   8.3614   8.6667   8.9319   9.0107   9.3614   9.4983
  9.7002  10.2987  11.2496  11.4175  11.9282  11.9608  12.1239  12.3763
 12.4079  12.5033  12.7612  12.9330  13.0080  13.2407  13.4771  13.5768
 13.6762  13.8759  13.9286  13.9595  14.1928  14.3184  15.1649  15.2949
 --------------------------------------------------------------
 
          Ground-State Mulliken Net Atomic Charges

     Atom                 Charge (a.u.)
  ----------------------------------------
      1 C                    -0.070469
      2 C                    -0.256396
      3 S                    -0.133864
      4 C                    -0.047506
      5 H                     0.193806
      6 C                    -0.052250
      7 C                     0.221193
      8 C                     0.233445
      9 C                    -0.080990
     10 C                    -0.037724
     11 O                    -0.334601
     12 O                    -0.342733
     13 C                    -0.082777
     14 H                     0.120370
     15 H                     0.092282
     16 H                     0.092453
     17 C                    -0.086890
     18 H                     0.123842
     19 H                     0.093059
     20 H                     0.090006
     21 C                    -0.288290
     22 S                    -0.076188
     23 C                     0.093896
     24 H                     0.207649
     25 C                    -0.081413
     26 S                     0.103037
     27 C                    -0.242532
     28 C                    -0.104624
     29 C                    -0.006272
     30 C                     0.393772
     31 C                    -0.145146
     32 S                     0.039270
     33 C                     0.461574
     34 O                    -0.450527
     35 O                    -0.297899
     36 F                    -0.215507
     37 C                    -0.055035
     38 H                     0.116750
     39 H                     0.084728
     40 H                     0.084576
     41 H                     0.214253
     42 H                     0.117961
     43 H                     0.115400
     44 H                     0.196312
  ----------------------------------------
  Sum of atomic charges =     0.000000

 -----------------------------------------------------------------
                    Cartesian Multipole Moments
 -----------------------------------------------------------------
    Charge (ESU x 10^10)
                 0.0000
    Dipole Moment (Debye)
         X       0.3792      Y       2.9825      Z       2.8267
       Tot       4.1267
    Quadrupole Moments (Debye-Ang)
        XX    -184.1594     XY       7.0599     YY    -173.2674
        XZ      -9.3087     YZ     -13.0906     ZZ    -204.0814
    Octopole Moments (Debye-Ang^2)
       XXX    -171.1366    XXY     323.4094    XYY     -62.0926
       YYY    1005.2874    XXZ     179.6350    XYZ      16.2517
       YYZ     161.4647    XZZ     -31.2503    YZZ     499.4314
       ZZZ     576.8507
    Hexadecapole Moments (Debye-Ang^3)
      XXXX   -1867.3638   XXXY      52.6522   XXYY   -3781.0351
      XYYY     336.0071   YYYY  -19577.6941   XXXZ     823.5316
      XXYZ     369.4195   XYYZ     136.0290   YYYZ     704.6817
      XXZZ   -1311.7022   XYZZ     174.2562   YYZZ   -4352.9045
      XZZZ     740.1672   YZZZ     397.6121   ZZZZ   -6423.8169
 -----------------------------------------------------------------
 Total job time:  322.81s(wall), 10400.27s(cpu) 
 Tue Sep 26 19:26:38 2023

        *************************************************************
        *                                                           *
        *  Thank you very much for using Q-Chem.  Have a nice day.  *
        *                                                           *
        *************************************************************


0 sent ACK to 0 
now end server 0 ... 
cleanup process ... done
remove work dirs ./qchem416859.0 -- ./qchem416859.0
rm -rf ./qchem416859.0
rm -rf ./qchem416859
