You are running Q-Chem version: 5.4.0

#
# job setting
#
local host:  exp-8-24
current dir: /expanse/lustre/projects/csd626/rramji/aromodel/PTB7_fin/Hydrogenated_Rotation_Test
input file:  fin_bdt_Phi_40_Theta_80_fin_ftt_Hydrogenated.qcin
output file: 
nprocs     : 1
nthreads   : 64
#
# qchem installation setting
#
QC:          /cm/shared/apps/spack/cpu/opt/spack/linux-centos8-zen2/gcc-10.2.0/qchem-5.4-akfmr7b3t57bfs6qan3padb2wnb2i7cl
QCAUX:       /cm/shared/apps/spack/cpu/opt/spack/linux-centos8-zen2/gcc-10.2.0/qchem-5.4-akfmr7b3t57bfs6qan3padb2wnb2i7cl/qcaux
QCPROG:      /cm/shared/apps/spack/cpu/opt/spack/linux-centos8-zen2/gcc-10.2.0/qchem-5.4-akfmr7b3t57bfs6qan3padb2wnb2i7cl/exe/qcprog.exe
QCPROG_S:    /cm/shared/apps/spack/cpu/opt/spack/linux-centos8-zen2/gcc-10.2.0/qchem-5.4-akfmr7b3t57bfs6qan3padb2wnb2i7cl/exe/qcprog.exe_s
PARALLEL:    -DPARALLEL
QCMPI:       mpich
#
# qchem directory setting
#
qcrun:       qchem933719
QCSCRATCH:   .
QCLOCALSCR:  
QCTMPDIR:    .
QCFILEPREF:  ./qchem933719
QCSAVEDIR:   
workdirs:    ./qchem933719
workdir0:    ./qchem933719
partmpdirs =  
#
# parallel setting
#
QCRSH:           ssh
QCMPI:           mpich
QCMPIRUN:        /cm/shared/apps/spack/cpu/opt/spack/linux-centos8-zen2/gcc-10.2.0/qchem-5.4-akfmr7b3t57bfs6qan3padb2wnb2i7cl/bin/mpi/mpirun_qchem
QCMACHINEFILE:   ./qchem933719/hostfile
exp-8-24

#
# env setting
#
exported envs:   QC QCAUX QCSCRATCH QCRUNNAME QCFILEPREF QCPROG QCPROG_S GUIFILE

Running Job 1 of 1 fin_bdt_Phi_40_Theta_80_fin_ftt_Hydrogenated.qcin
qchem fin_bdt_Phi_40_Theta_80_fin_ftt_Hydrogenated.qcin_933719.0 ./qchem933719/ 1
/cm/shared/apps/spack/cpu/opt/spack/linux-centos8-zen2/gcc-10.2.0/qchem-5.4-akfmr7b3t57bfs6qan3padb2wnb2i7cl/bin/mpi/mpirun_qchem -machinefile ./qchem933719/hostfile -np 1 /cm/shared/apps/spack/cpu/opt/spack/linux-centos8-zen2/gcc-10.2.0/qchem-5.4-akfmr7b3t57bfs6qan3padb2wnb2i7cl/exe/qcprog.exe fin_bdt_Phi_40_Theta_80_fin_ftt_Hydrogenated.qcin_933719.0 ./qchem933719/

Process 0 of 1 is on exp-8-24 - thread support 0
initial socket setup ...start
initial socket setup ...done 
now start server 0 ... 
                  Welcome to Q-Chem
     A Quantum Leap Into The Future Of Chemistry


 Q-Chem 5.4, Q-Chem, Inc., Pleasanton, CA (2021)

 License issued to: University of California, San Diego (site)

 E. Epifanovsky,  A. T. B. Gilbert,  Xintian Feng,  Joonho Lee,  Yuezhi Mao,  
 N. Mardirossian,  P. Pokhilko,  A. White,  M. Wormit,  M. P. Coons,  
 A. L. Dempwolff,  Zhengting Gan,  D. Hait,  P. R. Horn,  L. D. Jacobson,  
 I. Kaliman,  J. Kussmann,  A. W. Lange,  Ka Un Lao,  D. S. Levine,  Jie Liu,  
 S. C. McKenzie,  A. F. Morrison,  K. Nanda,  F. Plasser,  D. R. Rehn,  
 M. L. Vidal,  Zhi-Qiang You,  Ying Zhu,  B. Alam,  B. Albrecht,  
 A. Aldossary,  E. Alguire,  J. H. Andersen,  D. Barton,  K. Begam,  A. Behn,  
 Y. A. Bernard,  E. J. Berquist,  H. Burton,  A. Carreras,  K. Carter-Fenk,  
 R. Chakraborty,  A. D. Chien,  K. D. Closser,  V. Cofer-Shabica,  
 S. Dasgupta,  Jia Deng,  M. de Wergifosse,  M. Diedenhofen,  Hainam Do,  
 S. Ehlert,  Po-Tung Fang,  S. Fatehi,  Qingguo Feng,  J. Gayvert,  
 Qinghui Ge,  G. Gidofalvi,  M. Goldey,  J. Gomes,  C. Gonzalez-Espinoza,  
 S. Gulania,  A. Gunina,  M. W. D. Hanson-Heine,  P. H. P. Harbach,  
 A. W. Hauser,  M. F. Herbst,  M. Hernandez Vera,  M. Hodecker,  
 Z. C. Holden,  S. Houck,  Xunkun Huang,  Kerwin Hui,  B. C. Huynh,  
 M. Ivanov,  Hyunjun Ji,  Hanjie Jiang,  B. Kaduk,  S. Kaehler,  
 K. Khistyaev,  Jaehoon Kim,  P. Klunzinger,  Z. Koczor-Benda,  
 Joong Hoon Koh,  D. Kosenkov,  L. Koulias,  T. Kowalczyk,  C. M. Krauter,  
 K. Kue,  A. Kunitsa,  T. Kus,  A. Landau,  K. V. Lawler,  D. Lefrancois,  
 S. Lehtola,  Rain Li,  Yi-Pei Li,  Jiashu Liang,  M. Liebenthal,  
 Hung-Hsuan Lin,  You-Sheng Lin,  Fenglai Liu,  Kuan-Yu Liu,  
 M. Loipersberger,  A. Luenser,  A. Manjanath,  P. Manohar,  E. Mansoor,  
 S. F. Manzer,  Shan-Ping Mao,  A. V. Marenich,  T. Markovich,  S. Mason,  
 S. A. Maurer,  P. F. McLaughlin,  M. F. S. J. Menger,  J.-M. Mewes,  
 S. A. Mewes,  P. Morgante,  J. W. Mullinax,  T. S. Nguyen-Beck,  
 K. J. Oosterbaan,  G. Paran,  Alexander C. Paul,  Suranjan K. Paul,  
 F. Pavosevic,  Zheng Pei,  S. Prager,  E. I. Proynov,  E. Ramos,  B. Rana,  
 A. E. Rask,  A. Rettig,  R. M. Richard,  F. Rob,  E. Rossomme,  T. Scheele,  
 M. Scheurer,  M. Schneider,  N. Sergueev,  S. M. Sharada,  W. Skomorowski,  
 D. W. Small,  C. J. Stein,  Yu-Chuan Su,  E. J. Sundstrom,  Zhen Tao,  
 J. Thirman,  T. Tsuchimochi,  N. M. Tubman,  S. P. Veccham,  O. Vydrov,  
 J. Wenzel,  J. Witte,  A. Yamada,  Kun Yao,  S. Yeganeh,  S. R. Yost,  
 A. Zech,  Igor Ying Zhang,  Xing Zhang,  Yu Zhang,  D. Zuev,  
 A. Aspuru-Guzik,  A. T. Bell,  N. A. Besley,  K. B. Bravaya,  B. R. Brooks,  
 D. Casanova,  Jeng-Da Chai,  S. Coriani,  C. J. Cramer,  
 A. E. DePrince, III,  R. A. DiStasio Jr.,  A. Dreuw,  B. D. Dunietz,  
 T. R. Furlani,  W. A. Goddard III,  S. Grimme,  S. Hammes-Schiffer,  
 T. Head-Gordon,  W. J. Hehre,  Chao-Ping Hsu,  T.-C. Jagau,  Yousung Jung,  
 A. Klamt,  Jing Kong,  D. S. Lambrecht,  WanZhen Liang,  N. J. Mayhall,  
 C. W. McCurdy,  J. B. Neaton,  C. Ochsenfeld,  J. A. Parkhill,  R. Peverati,  
 V. A. Rassolov,  Yihan Shao,  L. V. Slipchenko,  T. Stauch,  R. P. Steele,  
 J. E. Subotnik,  A. J. W. Thom,  A. Tkatchenko,  D. G. Truhlar,  
 T. Van Voorhis,  T. A. Wesolowski,  K. B. Whaley,  H. L. Woodcock III,  
 P. M. Zimmerman,  S. Faraji,  P. M. W. Gill,  M. Head-Gordon,  
 J. M. Herbert,  A. I. Krylov

 Contributors to earlier versions of Q-Chem not listed above: 
 R. D. Adamson,  B. Austin,  R. Baer,  J. Baker,  G. J. O. Beran,  
 K. Brandhorst,  S. T. Brown,  E. F. C. Byrd,  A. K. Chakraborty,  
 G. K. L. Chan,  Chun-Min Chang,  Yunqing Chen,  C.-L. Cheng,  
 Siu Hung Chien,  D. M. Chipman,  D. L. Crittenden,  H. Dachsel,  
 R. J. Doerksen,  A. D. Dutoi,  R. G. Edgar,  J. Fosso-Tande,  
 L. Fusti-Molnar,  D. Ghosh,  A. Ghysels,  A. Golubeva-Zadorozhnaya,  
 J. Gonthier,  M. S. Gordon,  S. R. Gwaltney,  G. Hawkins,  J. E. Herr,  
 A. Heyden,  S. Hirata,  E. G. Hohenstein,  G. Kedziora,  F. J. Keil,  
 C. Kelley,  Jihan Kim,  R. A. King,  R. Z. Khaliullin,  P. P. Korambath,  
 W. Kurlancheek,  A. Laurent,  A. M. Lee,  M. S. Lee,  S. V. Levchenko,  
 Ching Yeh Lin,  D. Liotard,  E. Livshits,  R. C. Lochan,  I. Lotan,  
 L. A. Martinez-Martinez,  P. E. Maslen,  N. Nair,  D. P. O'Neill,  
 D. Neuhauser,  E. Neuscamman,  C. M. Oana,  R. Olivares-Amaya,  R. Olson,  
 T. M. Perrine,  B. Peters,  P. A. Pieniazek,  A. Prociuk,  Y. M. Rhee,  
 J. Ritchie,  M. A. Rohrdanz,  E. Rosta,  N. J. Russ,  H. F. Schaefer III,  
 M. W. Schmidt,  N. E. Schultz,  S. Sharma,  N. Shenvi,  C. D. Sherrill,  
 A. C. Simmonett,  A. Sodt,  T. Stein,  D. Stuck,  K. S. Thanthiriwatte,  
 V. Vanovschi,  L. Vogt,  Tao Wang,  A. Warshel,  M. A. Watson,  
 C. F. Williams,  Q. Wu,  X. Xu,  Jun Yang,  W. Zhang,  Yan Zhao

 Please cite Q-Chem as follows:
 Y. Shao et al., Mol. Phys. 113, 184-215 (2015)
 DOI: 10.1080/00268976.2014.952696

 Q-Chem 5.4.0 for Intel X86 EM64T Linux

 Parts of Q-Chem use Armadillo 9.800.1 (Horizon Scraper).
 http://arma.sourceforge.net/

 Q-Chem begins on Sun Sep 24 17:10:33 2023  

 Host: 
0

     Scratch files written to ./qchem933719//
 May1621 |scratch|qcdevops|jenkins|workspace|build_RNUM    
 Parallel job on  1  processors
 Processing $rem in /cm/shared/apps/spack/cpu/opt/spack/linux-centos8-zen2/gcc-10.2.0/qchem-5.4-akfmr7b3t57bfs6qan3padb2wnb2i7cl/config/preferences:
 Processing $rem in /home/rramji/.qchemrc:
 Symmetry turned off for PCM/SM12/SMD calculation
 Core orbitals will be frozen

 Checking the input file for inconsistencies... 	...done.

 Q-Chem warning in module forms1/BasisType.C, line 2236:

 You are not using the predefined 5D/6D in this basis set.


--------------------------------------------------------------
User input:
--------------------------------------------------------------
$molecule
0 1
C	-0.272104	-8.519741	-0.000687
C	0.779533	-7.635967	-0.194476
S	-1.799596	-7.651740	0.287581
C	0.399427	-6.261894	-0.125787
H	1.812314	-7.954738	-0.383826
C	-1.006762	-6.079985	0.121989
C	-1.564994	-4.798382	0.247488
C	1.284087	-5.153542	-0.258303
C	0.726260	-3.869626	-0.128493
C	-0.681918	-3.688927	0.116725
O	2.580622	-5.481075	-0.517104
O	-2.867144	-4.479871	0.508622
C	-3.900814	-5.356026	0.075811
H	-4.847002	-4.790496	0.173640
H	-3.971794	-6.268513	0.707354
H	-3.763397	-5.658187	-0.984963
C	3.621225	-4.546999	-0.257016
H	4.569828	-5.107564	-0.357864
H	3.551910	-4.131473	0.771211
H	3.626592	-3.712085	-0.990913
C	-1.058088	-2.314326	0.187034
S	1.523035	-2.295487	-0.281899
C	-0.000000	-1.435180	-0.000000
H	-2.090565	-1.993211	0.373653
C	0.000000	0.000000	0.000000
S	0.579852	0.687566	1.510732
C	1.591625	1.895024	0.727629
C	0.583771	0.695758	-1.064665
C	1.475308	1.760606	-0.678287
C	0.542366	0.643841	-2.486150
C	1.355286	1.612843	-3.106916
S	2.154609	2.570627	-1.965735
C	1.522440	1.804778	-4.559972
O	0.924684	1.087757	-5.350277
O	2.349739	2.785679	-5.004375
F	-0.170780	-0.212144	-3.246290
C	2.588082	3.053936	-6.334976
H	3.298799	3.899999	-6.370268
H	1.655291	3.328371	-6.875609
H	3.026021	2.177385	-6.861878
H	2.183053	2.599759	1.321510
H	-0.105910	-9.146471	0.883319
H	-0.431555	-9.150570	-0.883019
H	0.195861	-1.444158	1.062054
$end

$rem
JOBTYPE		SP
EXCHANGE	HF
CORRELATION	pRIMP2
BASIS		cc-pvtz
METHOD		rimp2
AUX_BASIS	rimp2-cc-pvtz
SOLVENT_METHOD	PCM
PURECART	11111
SYMMETRY	false
MEM_TOTAL	110000
SCF_CONVERGENCE = 6
THRESH=10
GUI = 2
$end



$solvent
dielectric 4.90
$end
--------------------------------------------------------------
 ----------------------------------------------------------------
             Standard Nuclear Orientation (Angstroms)
    I     Atom           X                Y                Z
 ----------------------------------------------------------------
    1      C      -0.2721040000    -8.5197410000    -0.0006870000
    2      C       0.7795330000    -7.6359670000    -0.1944760000
    3      S      -1.7995960000    -7.6517400000     0.2875810000
    4      C       0.3994270000    -6.2618940000    -0.1257870000
    5      H       1.8123140000    -7.9547380000    -0.3838260000
    6      C      -1.0067620000    -6.0799850000     0.1219890000
    7      C      -1.5649940000    -4.7983820000     0.2474880000
    8      C       1.2840870000    -5.1535420000    -0.2583030000
    9      C       0.7262600000    -3.8696260000    -0.1284930000
   10      C      -0.6819180000    -3.6889270000     0.1167250000
   11      O       2.5806220000    -5.4810750000    -0.5171040000
   12      O      -2.8671440000    -4.4798710000     0.5086220000
   13      C      -3.9008140000    -5.3560260000     0.0758110000
   14      H      -4.8470020000    -4.7904960000     0.1736400000
   15      H      -3.9717940000    -6.2685130000     0.7073540000
   16      H      -3.7633970000    -5.6581870000    -0.9849630000
   17      C       3.6212250000    -4.5469990000    -0.2570160000
   18      H       4.5698280000    -5.1075640000    -0.3578640000
   19      H       3.5519100000    -4.1314730000     0.7712110000
   20      H       3.6265920000    -3.7120850000    -0.9909130000
   21      C      -1.0580880000    -2.3143260000     0.1870340000
   22      S       1.5230350000    -2.2954870000    -0.2818990000
   23      C       0.0000000000    -1.4351800000     0.0000000000
   24      H      -2.0905650000    -1.9932110000     0.3736530000
   25      C       0.0000000000     0.0000000000     0.0000000000
   26      S       0.5798520000     0.6875660000     1.5107320000
   27      C       1.5916250000     1.8950240000     0.7276290000
   28      C       0.5837710000     0.6957580000    -1.0646650000
   29      C       1.4753080000     1.7606060000    -0.6782870000
   30      C       0.5423660000     0.6438410000    -2.4861500000
   31      C       1.3552860000     1.6128430000    -3.1069160000
   32      S       2.1546090000     2.5706270000    -1.9657350000
   33      C       1.5224400000     1.8047780000    -4.5599720000
   34      O       0.9246840000     1.0877570000    -5.3502770000
   35      O       2.3497390000     2.7856790000    -5.0043750000
   36      F      -0.1707800000    -0.2121440000    -3.2462900000
   37      C       2.5880820000     3.0539360000    -6.3349760000
   38      H       3.2987990000     3.8999990000    -6.3702680000
   39      H       1.6552910000     3.3283710000    -6.8756090000
   40      H       3.0260210000     2.1773850000    -6.8618780000
   41      H       2.1830530000     2.5997590000     1.3215100000
   42      H      -0.1059100000    -9.1464710000     0.8833190000
   43      H      -0.4315550000    -9.1505700000    -0.8830190000
   44      H       0.1958610000    -1.4441580000     1.0620540000
 ----------------------------------------------------------------
 Nuclear Repulsion Energy =        3396.53549076 hartrees
 There are      120 alpha and      120 beta electrons
 Requested basis set is cc-pVTZ
 There are 388 shells and 1096 basis functions

 Total QAlloc Memory Limit 110000 MB
 Mega-Array Size       188 MB
 MEM_STATIC part       192 MB
 Discretize the solute cavity surface with Lebedev spheres
	Using 110 Lebedev grid points for each H atom
	Using 194 Lebedev grid points for other atoms
	Atomic van der Waals radii will be scaled by 1.20
 Remove points where switching function is < 1.0e-08
 Keep 2952 surface tesserae and discard 4324 interior tesserae
 Molecular Surface Area = 442.303 Angst**2
 Requested basis set is rimp2-cc-pVTZ
 There are 853 shells and 2963 basis functions
 A cutoff of  1.0D-10 yielded  33799 shell pairs
 There are    254749 function pairs (    329450 Cartesian)
 Smallest overlap matrix eigenvalue = 2.17E-05

 Scale SEOQF with 1.000000e-01/1.000000e-02/1.000000e-02

 Standard Electronic Orientation quadrupole field applied
 Nucleus-field energy     =     0.0000000450 hartrees
 Guess from superposition of atomic densities
 Warning:  Energy on first SCF cycle will be non-variational
 SAD guess density has 240.000000 electrons

 -----------------------------------------------------------------------
  General SCF calculation program by
  Eric Jon Sundstrom, Paul Horn, Yuezhi Mao, Dmitri Zuev, Alec White,
  David Stuck, Shaama M.S., Shane Yost, Joonho Lee, David Small,
  Daniel Levine, Susi Lehtola, Hugh Burton, Evgeny Epifanovsky,
  Bang C. Huynh
 -----------------------------------------------------------------------
 Hartree-Fock
 using 64 threads for integral computing
 -------------------------------------------------------
 OpenMP Integral computing Module                
 Release: version 1.0, May 2013, Q-Chem Inc. Pittsburgh 
 -------------------------------------------------------
 A restricted SCF calculation will be
 performed using DIIS
 SCF converges when DIIS error is below 1.0e-06
 ---------------------------------------
  Cycle       Energy         DIIS error
 ---------------------------------------
    1   -2767.4058398403      1.77e-02  
    2   -2754.8392132850      1.54e-03  
    3   -2755.1900099863      8.75e-04  
    4   -2755.2791805275      2.56e-04  
    5   -2755.2927219977      7.29e-05  
    6   -2755.2942337561      2.65e-05  
    7   -2755.2946349190      1.36e-05  
    8   -2755.2947708542      6.09e-06  
    9   -2755.2948061191      3.22e-06  
   10   -2755.2948153628      1.62e-06  
   11   -2755.2948180954      7.56e-07  Convergence criterion met
 ---------------------------------------
 SCF time:   CPU 7747.77s  wall 283.00s 

************** Final PCM Free Energy Summary **************
 G_electrostatic  =      -0.02307392 hartree =     -14.47910391 kcal/mol
 G_cavitation     =       0.00000000 hartree =       0.00000000 kcal/mol
 G_dispersion     =       0.00000000 hartree =       0.00000000 kcal/mol
 G_repulsion      =       0.00000000 hartree =       0.00000000 kcal/mol
 --------------------------------------------------
 Non-electrostatic Free Energy =       0.00000000 hartree =       0.00000000 kcal/mol
 Total                         =      -0.02307392 hartree =     -14.47910391 kcal/mol
 --------------------------------------------------
 SCF Energy (H0 + V/2)                       =   -2755.29481810 
 Solute Internal Energy (H0)                 =   -2755.27174417 
 Total Free Energy (H0 + V/2 + non-elec)     =   -2755.29481810 hartree
                                             = -1728973.59375209 kcal/mol
***********************************************************

 SCF   energy in the final basis set =    -2755.2948180954
 Total energy in the final basis set =    -2755.2948180954


 --------------------------------------------------------------
  Generalized many-body perturbation theory program
  by Joonho Lee, Fazle Rob, Xintian Feng, Evgeny Epifanovsky

 No regularization used 
 (reg. param. = 0.0000e+00)
  (P|Q)^-1/2 Time:  CPU 131.92 s  wall 2.08 s

 In RI-MP2 calculation: 
 # of frozen core orbitals: 45

 Components of the RIMP2 correlation energy:
        aaaa    correlation energy =        -0.6716922483 a.u.
        abab    correlation energy =        -3.7565404776 a.u.
        bbbb    correlation energy =        -0.6716922483 a.u.
        non-Brillouin singles      =        -0.0000000000 a.u.
        total same-spin energy     =        -1.3433844966 a.u.
        total opposite-spin energy =        -3.7565404776 a.u.

 Total  RIMP2   correlation energy =        -5.0999249742 a.u.
        RIMP2         total energy =     -2760.3947430697 a.u.

 RI-MP2 Energy Time:  CPU 2986.03 s  wall 48.41 s
 
 --------------------------------------------------------------
 
                    Orbital Energies (a.u.)
 --------------------------------------------------------------
 
 Alpha MOs
 -- Occupied --
-92.0168 -92.0005 -91.9757 -91.9557 -26.3354 -20.6147 -20.5861 -20.5851
-20.5546 -11.4142 -11.3773 -11.3106 -11.3077 -11.3065 -11.3043 -11.2991
-11.2954 -11.2898 -11.2876 -11.2836 -11.2818 -11.2814 -11.2759 -11.2704
-11.2692 -11.2562 -11.2523 -11.2473 -11.2322  -9.0159  -9.0044  -8.9780
 -8.9584  -6.6966  -6.6958  -6.6954  -6.6856  -6.6849  -6.6836  -6.6591
 -6.6582  -6.6569  -6.6396  -6.6387  -6.6377  -1.6483  -1.4747  -1.4088
 -1.4076  -1.3706  -1.2431  -1.2075  -1.1739  -1.1457  -1.0970  -1.0528
 -1.0436  -1.0338  -1.0069  -0.9953  -0.9748  -0.9593  -0.9473  -0.9400
 -0.8917  -0.8744  -0.8608  -0.8093  -0.7945  -0.7834  -0.7778  -0.7742
 -0.7633  -0.7335  -0.7207  -0.7170  -0.6961  -0.6940  -0.6807  -0.6798
 -0.6752  -0.6644  -0.6549  -0.6474  -0.6324  -0.6283  -0.6178  -0.6139
 -0.6113  -0.6096  -0.5999  -0.5921  -0.5786  -0.5624  -0.5611  -0.5548
 -0.5446  -0.5348  -0.5291  -0.5214  -0.5114  -0.5061  -0.5050  -0.4996
 -0.4898  -0.4843  -0.4729  -0.4690  -0.4649  -0.4632  -0.4596  -0.4446
 -0.4210  -0.4031  -0.3835  -0.3685  -0.3497  -0.2969  -0.2877  -0.2175
 -- Virtual --
  0.0107   0.0558   0.1078   0.1230   0.1404   0.1489   0.1530   0.1559
  0.1569   0.1591   0.1633   0.1764   0.1813   0.1861   0.1888   0.1948
  0.2028   0.2041   0.2062   0.2089   0.2165   0.2213   0.2243   0.2261
  0.2310   0.2325   0.2360   0.2446   0.2539   0.2585   0.2651   0.2678
  0.2733   0.2825   0.3032   0.3108   0.3215   0.3302   0.3388   0.3455
  0.3476   0.3532   0.3595   0.3623   0.3656   0.3733   0.3790   0.3795
  0.3867   0.3919   0.3948   0.3983   0.4034   0.4045   0.4088   0.4165
  0.4227   0.4260   0.4303   0.4320   0.4345   0.4402   0.4454   0.4486
  0.4590   0.4617   0.4654   0.4708   0.4718   0.4783   0.4792   0.4846
  0.4871   0.4953   0.4982   0.5017   0.5088   0.5122   0.5136   0.5219
  0.5244   0.5302   0.5331   0.5350   0.5386   0.5434   0.5456   0.5495
  0.5528   0.5585   0.5635   0.5678   0.5711   0.5766   0.5789   0.5804
  0.5865   0.5927   0.5941   0.5951   0.5984   0.6039   0.6045   0.6090
  0.6130   0.6165   0.6183   0.6205   0.6225   0.6240   0.6298   0.6334
  0.6366   0.6435   0.6455   0.6475   0.6491   0.6498   0.6567   0.6583
  0.6632   0.6691   0.6708   0.6779   0.6807   0.6868   0.6923   0.6981
  0.7062   0.7078   0.7114   0.7123   0.7161   0.7217   0.7292   0.7401
  0.7422   0.7457   0.7538   0.7620   0.7653   0.7726   0.7802   0.7867
  0.7901   0.7937   0.7980   0.8042   0.8077   0.8152   0.8215   0.8225
  0.8270   0.8304   0.8372   0.8494   0.8543   0.8654   0.8733   0.8800
  0.8827   0.8873   0.8934   0.8962   0.9043   0.9091   0.9104   0.9194
  0.9231   0.9273   0.9347   0.9390   0.9411   0.9429   0.9461   0.9535
  0.9666   0.9698   0.9736   0.9791   0.9830   0.9844   0.9855   0.9952
  0.9978   1.0003   1.0058   1.0105   1.0149   1.0205   1.0225   1.0281
  1.0362   1.0367   1.0471   1.0506   1.0550   1.0588   1.0631   1.0654
  1.0684   1.0722   1.0809   1.0832   1.0859   1.0983   1.1046   1.1076
  1.1135   1.1163   1.1212   1.1270   1.1310   1.1446   1.1454   1.1543
  1.1575   1.1618   1.1641   1.1676   1.1710   1.1757   1.1763   1.1808
  1.1855   1.1893   1.1922   1.1984   1.2037   1.2056   1.2139   1.2176
  1.2249   1.2285   1.2393   1.2408   1.2421   1.2451   1.2521   1.2578
  1.2583   1.2638   1.2692   1.2795   1.2848   1.2882   1.2907   1.2968
  1.3050   1.3121   1.3177   1.3219   1.3306   1.3357   1.3399   1.3419
  1.3476   1.3526   1.3608   1.3643   1.3818   1.3865   1.3907   1.3968
  1.4066   1.4115   1.4201   1.4269   1.4272   1.4395   1.4519   1.4623
  1.4650   1.4690   1.4730   1.4756   1.4861   1.4932   1.4946   1.4987
  1.5045   1.5058   1.5111   1.5166   1.5256   1.5330   1.5372   1.5382
  1.5416   1.5471   1.5513   1.5559   1.5597   1.5617   1.5682   1.5694
  1.5826   1.5882   1.6064   1.6129   1.6175   1.6179   1.6242   1.6390
  1.6459   1.6566   1.6571   1.6605   1.6710   1.6787   1.6867   1.6912
  1.6948   1.7010   1.7091   1.7182   1.7233   1.7241   1.7337   1.7495
  1.7538   1.7578   1.7659   1.7695   1.7833   1.7950   1.8113   1.8156
  1.8180   1.8308   1.8376   1.8416   1.8521   1.8587   1.8659   1.8700
  1.8753   1.8862   1.8948   1.9084   1.9184   1.9210   1.9252   1.9370
  1.9426   1.9468   1.9610   1.9653   1.9767   1.9805   1.9951   1.9999
  2.0133   2.0202   2.0255   2.0279   2.0308   2.0445   2.0476   2.0616
  2.0699   2.0740   2.0879   2.0951   2.0997   2.1129   2.1242   2.1338
  2.1363   2.1467   2.1508   2.1580   2.1729   2.1791   2.1809   2.1906
  2.1992   2.2002   2.2107   2.2216   2.2221   2.2319   2.2378   2.2443
  2.2558   2.2629   2.2644   2.2740   2.2801   2.2828   2.2894   2.3000
  2.3060   2.3142   2.3215   2.3352   2.3381   2.3503   2.3599   2.3650
  2.3763   2.3820   2.3970   2.4003   2.4106   2.4158   2.4232   2.4364
  2.4408   2.4523   2.4602   2.4690   2.4774   2.4854   2.4946   2.5015
  2.5106   2.5263   2.5279   2.5338   2.5448   2.5453   2.5574   2.5823
  2.5915   2.5971   2.6005   2.6074   2.6161   2.6183   2.6291   2.6324
  2.6356   2.6399   2.6439   2.6484   2.6505   2.6579   2.6642   2.6743
  2.6802   2.6894   2.6922   2.6962   2.7062   2.7108   2.7156   2.7171
  2.7276   2.7325   2.7383   2.7456   2.7489   2.7619   2.7661   2.7731
  2.7749   2.7801   2.7905   2.8048   2.8072   2.8223   2.8279   2.8394
  2.8399   2.8497   2.8543   2.8598   2.8628   2.8689   2.8764   2.8789
  2.8811   2.8936   2.9023   2.9042   2.9184   2.9291   2.9402   2.9471
  2.9542   2.9582   2.9659   2.9733   2.9818   2.9871   2.9936   3.0045
  3.0063   3.0156   3.0189   3.0345   3.0376   3.0427   3.0443   3.0510
  3.0544   3.0626   3.0680   3.0826   3.0859   3.0900   3.0955   3.1019
  3.1049   3.1162   3.1203   3.1252   3.1321   3.1380   3.1443   3.1459
  3.1551   3.1613   3.1643   3.1665   3.1686   3.1723   3.1789   3.1853
  3.1900   3.1988   3.2032   3.2052   3.2086   3.2139   3.2199   3.2262
  3.2310   3.2409   3.2488   3.2504   3.2532   3.2614   3.2617   3.2672
  3.2736   3.2765   3.2841   3.2859   3.2881   3.2900   3.2988   3.3025
  3.3041   3.3110   3.3175   3.3232   3.3319   3.3388   3.3433   3.3439
  3.3513   3.3518   3.3546   3.3574   3.3622   3.3647   3.3688   3.3717
  3.3732   3.3833   3.3900   3.3920   3.3994   3.4021   3.4086   3.4125
  3.4163   3.4197   3.4279   3.4308   3.4371   3.4417   3.4439   3.4490
  3.4509   3.4546   3.4594   3.4673   3.4714   3.4754   3.4811   3.4880
  3.4929   3.4938   3.5003   3.5040   3.5161   3.5225   3.5308   3.5345
  3.5457   3.5544   3.5640   3.5667   3.5703   3.5777   3.5808   3.5874
  3.5900   3.5917   3.5979   3.6024   3.6119   3.6124   3.6154   3.6259
  3.6312   3.6351   3.6380   3.6451   3.6470   3.6553   3.6586   3.6643
  3.6702   3.6738   3.6824   3.6835   3.6898   3.6929   3.7012   3.7039
  3.7082   3.7134   3.7165   3.7192   3.7260   3.7290   3.7301   3.7392
  3.7416   3.7469   3.7494   3.7508   3.7545   3.7662   3.7708   3.7756
  3.7841   3.7887   3.7938   3.8002   3.8087   3.8129   3.8154   3.8228
  3.8309   3.8339   3.8347   3.8393   3.8438   3.8503   3.8592   3.8641
  3.8663   3.8705   3.8769   3.8893   3.8898   3.8952   3.9076   3.9134
  3.9216   3.9255   3.9318   3.9460   3.9494   3.9536   3.9565   3.9609
  3.9669   3.9681   3.9895   3.9939   3.9996   4.0007   4.0109   4.0153
  4.0207   4.0332   4.0356   4.0504   4.0539   4.0572   4.0669   4.0701
  4.0751   4.0806   4.0876   4.0986   4.1033   4.1164   4.1199   4.1321
  4.1437   4.1500   4.1547   4.1631   4.1694   4.1749   4.1752   4.1793
  4.1864   4.1945   4.2039   4.2121   4.2185   4.2245   4.2353   4.2379
  4.2459   4.2554   4.2643   4.2776   4.2798   4.2932   4.2936   4.3041
  4.3105   4.3247   4.3350   4.3430   4.3470   4.3488   4.3554   4.3629
  4.3733   4.3759   4.3856   4.3896   4.3958   4.4053   4.4097   4.4177
  4.4212   4.4234   4.4319   4.4366   4.4417   4.4465   4.4520   4.4581
  4.4655   4.4702   4.4818   4.4924   4.5011   4.5080   4.5191   4.5280
  4.5337   4.5408   4.5520   4.5593   4.5704   4.5749   4.5795   4.5891
  4.5987   4.6074   4.6200   4.6238   4.6302   4.6326   4.6430   4.6442
  4.6542   4.6647   4.6689   4.6835   4.7031   4.7088   4.7221   4.7232
  4.7320   4.7399   4.7516   4.7703   4.7862   4.7981   4.8036   4.8125
  4.8215   4.8386   4.8464   4.8600   4.8668   4.8803   4.8878   4.8976
  4.9153   4.9257   4.9400   4.9511   4.9558   4.9674   4.9713   4.9802
  4.9940   5.0068   5.0112   5.0130   5.0244   5.0440   5.0488   5.0520
  5.0757   5.0900   5.1019   5.1123   5.1167   5.1528   5.1652   5.1783
  5.1896   5.1966   5.2033   5.2061   5.2145   5.2267   5.2416   5.2465
  5.2544   5.2578   5.2781   5.2904   5.2969   5.3186   5.3227   5.3286
  5.3395   5.3502   5.3538   5.3626   5.3753   5.3830   5.3856   5.3955
  5.4022   5.4051   5.4246   5.4460   5.4592   5.4719   5.4811   5.5061
  5.5122   5.5210   5.5268   5.5346   5.5616   5.5676   5.5714   5.5872
  5.5987   5.6112   5.6141   5.6222   5.6392   5.6529   5.6819   5.6939
  5.7117   5.7352   5.7645   5.7833   5.7984   5.8168   5.8467   5.8541
  5.8605   5.8842   5.9076   5.9435   5.9662   5.9689   5.9765   5.9991
  6.0210   6.0452   6.1132   6.1259   6.1319   6.1388   6.1703   6.1799
  6.1838   6.1865   6.2204   6.2501   6.2615   6.2718   6.2884   6.2962
  6.3064   6.3424   6.3626   6.4053   6.4502   6.4784   6.5075   6.5486
  6.5534   6.5673   6.6462   6.6730   6.6768   6.7135   6.7313   6.7404
  6.8080   6.8565   6.8582   6.8786   6.9010   6.9871   7.1324   7.1477
  7.1758   7.2083   7.2239   7.2402   7.3229   7.3283   7.3426   7.3726
  7.3750   7.4239   7.4601   7.4857   7.4881   7.4980   7.5183   7.5458
  7.6053   7.7390   7.7708   7.8041   7.8290   7.9053   7.9272   7.9577
  8.0027   8.1229   8.3567   8.5354   8.9289   9.0118   9.3628   9.4991
  9.6928  10.3320  11.2238  11.3994  11.9310  12.0646  12.1232  12.3175
 12.3837  12.4882  12.6491  12.9380  13.0038  13.2825  13.4828  13.5785
 13.6473  13.8710  13.9166  13.9413  14.1524  14.3134  14.8304  15.2086
 --------------------------------------------------------------
 
          Ground-State Mulliken Net Atomic Charges

     Atom                 Charge (a.u.)
  ----------------------------------------
      1 C                    -0.069515
      2 C                    -0.272441
      3 S                    -0.140975
      4 C                    -0.041622
      5 H                     0.191662
      6 C                    -0.055329
      7 C                     0.224608
      8 C                     0.221701
      9 C                    -0.072442
     10 C                    -0.052019
     11 O                    -0.335215
     12 O                    -0.343265
     13 C                    -0.082417
     14 H                     0.119463
     15 H                     0.091715
     16 H                     0.093184
     17 C                    -0.087019
     18 H                     0.123061
     19 H                     0.091168
     20 H                     0.090042
     21 C                    -0.258458
     22 S                    -0.083327
     23 C                     0.023040
     24 H                     0.204589
     25 C                    -0.052241
     26 S                     0.106752
     27 C                    -0.193516
     28 C                    -0.123158
     29 C                    -0.000120
     30 C                     0.384551
     31 C                    -0.139265
     32 S                     0.056345
     33 C                     0.458293
     34 O                    -0.442307
     35 O                    -0.297053
     36 F                    -0.210043
     37 C                    -0.054721
     38 H                     0.117128
     39 H                     0.085349
     40 H                     0.085414
     41 H                     0.218897
     42 H                     0.115350
     43 H                     0.113320
     44 H                     0.190835
  ----------------------------------------
  Sum of atomic charges =     0.000000

 -----------------------------------------------------------------
                    Cartesian Multipole Moments
 -----------------------------------------------------------------
    Charge (ESU x 10^10)
                 0.0000
    Dipole Moment (Debye)
         X       3.1925      Y       4.6377      Z       3.3575
       Tot       6.5554
    Quadrupole Moments (Debye-Ang)
        XX    -176.1811     XY       5.5835     YY    -187.2497
        XZ      -4.9045     YZ      -8.2519     ZZ    -203.2548
    Octopole Moments (Debye-Ang^2)
       XXX    -272.0509    XXY     376.0932    XYY     -38.7892
       YYY    1164.4982    XXZ     151.3766    XYZ     -41.4071
       YYZ     135.4763    XZZ     -16.1376    YZZ     526.5101
       ZZZ     543.9713
    Hexadecapole Moments (Debye-Ang^3)
      XXXX   -3478.1458   XXXY   -1163.0890   XXYY   -3855.0729
      XYYY   -1416.6074   YYYY  -19346.0662   XXXZ     998.6193
      XXYZ     314.3768   XYYZ     345.2466   YYYZ    1111.6790
      XXZZ   -1384.4797   XYZZ    -148.3783   YYZZ   -4264.6159
      XZZZ     586.9929   YZZZ     541.4778   ZZZZ   -5510.3103
 -----------------------------------------------------------------
 Total job time:  373.06s(wall), 10831.71s(cpu) 
 Sun Sep 24 17:16:46 2023

        *************************************************************
        *                                                           *
        *  Thank you very much for using Q-Chem.  Have a nice day.  *
        *                                                           *
        *************************************************************


0 sent ACK to 0 
now end server 0 ... 
cleanup process ... done
remove work dirs ./qchem933719.0 -- ./qchem933719.0
rm -rf ./qchem933719.0
rm -rf ./qchem933719
