LAMMPS (29 Sep 2021 - Update 2)
OMP_NUM_THREADS environment is not set. Defaulting to 1 thread. (src/comm.cpp:98)
  using 1 OpenMP thread(s) per MPI task
units           real
atom_style      full
pair_style      lj/cut/coul/cut 10.0 13.4
bond_style      harmonic
angle_style     harmonic
dihedral_style  opls
special_bonds   lj/coul 0 0 0.5
improper_style  cvff
pair_modify mix geometric
dielectric 4.9
read_data       ./lammps_files_ligpargen/Methylthiophene_Phi_5_Theta_160_Methylthiophene.lmp
Reading data file ...
  orthogonal box = (-3.0286100 0.10487000 -0.93240000) to (46.971390 50.104870 49.067600)
  1 by 1 by 1 MPI processor grid
  reading atoms ...
  22 atoms
  scanning bonds ...
  2 = max bonds/atom
  scanning angles ...
  6 = max angles/atom
  scanning dihedrals ...
  6 = max dihedrals/atom
  scanning impropers ...
  2 = max impropers/atom
  reading bonds ...
  23 bonds
  reading angles ...
  38 angles
  reading dihedrals ...
  48 dihedrals
  reading impropers ...
  12 impropers
Finding 1-2 1-3 1-4 neighbors ...
  special bond factors lj:    0        0        0.5     
  special bond factors coul:  0        0        0.5     
     4 = max # of 1-2 neighbors
     7 = max # of 1-3 neighbors
    15 = max # of 1-4 neighbors
    16 = max # of special neighbors
  special bonds CPU = 0.000 seconds
  read_data CPU = 0.004 seconds
timestep 1.0
thermo 1
thermo_style multi
neighbor 2.0 bin
run_style verlet
run 0
WARNING: No fixes defined, atoms won't move (src/verlet.cpp:55)
Neighbor list info ...
  update every 1 steps, delay 10 steps, check yes
  max neighbors/atom: 2000, page size: 100000
  master list distance cutoff = 15.4
  ghost atom cutoff = 15.4
  binsize = 7.7, bins = 7 7 7
  1 neighbor lists, perpetual/occasional/extra = 1 0 0
  (1) pair lj/cut/coul/cut, perpetual
      attributes: half, newton on
      pair build: half/bin/newton
      stencil: half/bin/3d
      bin: standard
Per MPI rank memory allocation (min/avg/max) = 11.20 | 11.20 | 11.20 Mbytes
---------------- Step        0 ----- CPU =      0.0000 (sec) ----------------
TotEng   =        34.7052 KinEng   =         0.0000 Temp     =         0.0000 
PotEng   =        34.7052 E_bond   =         3.4109 E_angle  =        29.5211 
E_dihed  =         1.9287 E_impro  =         0.0145 E_vdwl   =         0.6791 
E_coul   =        -0.8492 E_long   =         0.0000 Press    =       -36.8278 
Loop time of 1.281e-06 on 1 procs for 0 steps with 22 atoms

78.1% CPU use with 1 MPI tasks x 1 OpenMP threads

MPI task timing breakdown:
Section |  min time  |  avg time  |  max time  |%varavg| %total
---------------------------------------------------------------
Pair    | 0          | 0          | 0          |   0.0 |  0.00
Bond    | 0          | 0          | 0          |   0.0 |  0.00
Neigh   | 0          | 0          | 0          |   0.0 |  0.00
Comm    | 0          | 0          | 0          |   0.0 |  0.00
Output  | 0          | 0          | 0          |   0.0 |  0.00
Modify  | 0          | 0          | 0          |   0.0 |  0.00
Other   |            | 1.281e-06  |            |       |100.00

Nlocal:        22.0000 ave          22 max          22 min
Histogram: 1 0 0 0 0 0 0 0 0 0
Nghost:        154.000 ave         154 max         154 min
Histogram: 1 0 0 0 0 0 0 0 0 0
Neighs:        170.000 ave         170 max         170 min
Histogram: 1 0 0 0 0 0 0 0 0 0

Total # of neighbors = 170
Ave neighs/atom = 7.7272727
Ave special neighs/atom = 9.0000000
Neighbor list builds = 0
Dangerous builds = 0
Total wall time: 0:00:00
