You are running Q-Chem version: 5.4.0

#
# job setting
#
local host:  exp-2-02
current dir: /home/rramji/project-csd799/aromodel/p3ht-qchem/rotation-run
input file:  Methylthiophene_Phi_20_Theta_270_Methylthiophene.qcin
output file: 
nprocs     : 1
nthreads   : 64
#
# qchem installation setting
#
QC:          /cm/shared/apps/spack/cpu/opt/spack/linux-centos8-zen2/gcc-10.2.0/qchem-5.4-akfmr7b3t57bfs6qan3padb2wnb2i7cl
QCAUX:       /cm/shared/apps/spack/cpu/opt/spack/linux-centos8-zen2/gcc-10.2.0/qchem-5.4-akfmr7b3t57bfs6qan3padb2wnb2i7cl/qcaux
QCPROG:      /cm/shared/apps/spack/cpu/opt/spack/linux-centos8-zen2/gcc-10.2.0/qchem-5.4-akfmr7b3t57bfs6qan3padb2wnb2i7cl/exe/qcprog.exe
QCPROG_S:    /cm/shared/apps/spack/cpu/opt/spack/linux-centos8-zen2/gcc-10.2.0/qchem-5.4-akfmr7b3t57bfs6qan3padb2wnb2i7cl/exe/qcprog.exe_s
PARALLEL:    -DPARALLEL
QCMPI:       mpich
#
# qchem directory setting
#
qcrun:       qchem1722632
QCSCRATCH:   .
QCLOCALSCR:  
QCTMPDIR:    .
QCFILEPREF:  ./qchem1722632
QCSAVEDIR:   
workdirs:    ./qchem1722632
workdir0:    ./qchem1722632
partmpdirs =  
#
# parallel setting
#
QCRSH:           ssh
QCMPI:           mpich
QCMPIRUN:        /cm/shared/apps/spack/cpu/opt/spack/linux-centos8-zen2/gcc-10.2.0/qchem-5.4-akfmr7b3t57bfs6qan3padb2wnb2i7cl/bin/mpi/mpirun_qchem
QCMACHINEFILE:   ./qchem1722632/hostfile
exp-2-02

#
# env setting
#
exported envs:   QC QCAUX QCSCRATCH QCRUNNAME QCFILEPREF QCPROG QCPROG_S GUIFILE

Running Job 1 of 1 Methylthiophene_Phi_20_Theta_270_Methylthiophene.qcin
qchem Methylthiophene_Phi_20_Theta_270_Methylthiophene.qcin_1722632.0 ./qchem1722632/ 1
/cm/shared/apps/spack/cpu/opt/spack/linux-centos8-zen2/gcc-10.2.0/qchem-5.4-akfmr7b3t57bfs6qan3padb2wnb2i7cl/bin/mpi/mpirun_qchem -machinefile ./qchem1722632/hostfile -np 1 /cm/shared/apps/spack/cpu/opt/spack/linux-centos8-zen2/gcc-10.2.0/qchem-5.4-akfmr7b3t57bfs6qan3padb2wnb2i7cl/exe/qcprog.exe Methylthiophene_Phi_20_Theta_270_Methylthiophene.qcin_1722632.0 ./qchem1722632/

Process 0 of 1 is on exp-2-02 - thread support 0
initial socket setup ...start
initial socket setup ...done 
now start server 0 ... 
                  Welcome to Q-Chem
     A Quantum Leap Into The Future Of Chemistry


 Q-Chem 5.4, Q-Chem, Inc., Pleasanton, CA (2021)

 License issued to: University of California, San Diego (site)

 E. Epifanovsky,  A. T. B. Gilbert,  Xintian Feng,  Joonho Lee,  Yuezhi Mao,  
 N. Mardirossian,  P. Pokhilko,  A. White,  M. Wormit,  M. P. Coons,  
 A. L. Dempwolff,  Zhengting Gan,  D. Hait,  P. R. Horn,  L. D. Jacobson,  
 I. Kaliman,  J. Kussmann,  A. W. Lange,  Ka Un Lao,  D. S. Levine,  Jie Liu,  
 S. C. McKenzie,  A. F. Morrison,  K. Nanda,  F. Plasser,  D. R. Rehn,  
 M. L. Vidal,  Zhi-Qiang You,  Ying Zhu,  B. Alam,  B. Albrecht,  
 A. Aldossary,  E. Alguire,  J. H. Andersen,  D. Barton,  K. Begam,  A. Behn,  
 Y. A. Bernard,  E. J. Berquist,  H. Burton,  A. Carreras,  K. Carter-Fenk,  
 R. Chakraborty,  A. D. Chien,  K. D. Closser,  V. Cofer-Shabica,  
 S. Dasgupta,  Jia Deng,  M. de Wergifosse,  M. Diedenhofen,  Hainam Do,  
 S. Ehlert,  Po-Tung Fang,  S. Fatehi,  Qingguo Feng,  J. Gayvert,  
 Qinghui Ge,  G. Gidofalvi,  M. Goldey,  J. Gomes,  C. Gonzalez-Espinoza,  
 S. Gulania,  A. Gunina,  M. W. D. Hanson-Heine,  P. H. P. Harbach,  
 A. W. Hauser,  M. F. Herbst,  M. Hernandez Vera,  M. Hodecker,  
 Z. C. Holden,  S. Houck,  Xunkun Huang,  Kerwin Hui,  B. C. Huynh,  
 M. Ivanov,  Hyunjun Ji,  Hanjie Jiang,  B. Kaduk,  S. Kaehler,  
 K. Khistyaev,  Jaehoon Kim,  P. Klunzinger,  Z. Koczor-Benda,  
 Joong Hoon Koh,  D. Kosenkov,  L. Koulias,  T. Kowalczyk,  C. M. Krauter,  
 K. Kue,  A. Kunitsa,  T. Kus,  A. Landau,  K. V. Lawler,  D. Lefrancois,  
 S. Lehtola,  Rain Li,  Yi-Pei Li,  Jiashu Liang,  M. Liebenthal,  
 Hung-Hsuan Lin,  You-Sheng Lin,  Fenglai Liu,  Kuan-Yu Liu,  
 M. Loipersberger,  A. Luenser,  A. Manjanath,  P. Manohar,  E. Mansoor,  
 S. F. Manzer,  Shan-Ping Mao,  A. V. Marenich,  T. Markovich,  S. Mason,  
 S. A. Maurer,  P. F. McLaughlin,  M. F. S. J. Menger,  J.-M. Mewes,  
 S. A. Mewes,  P. Morgante,  J. W. Mullinax,  T. S. Nguyen-Beck,  
 K. J. Oosterbaan,  G. Paran,  Alexander C. Paul,  Suranjan K. Paul,  
 F. Pavosevic,  Zheng Pei,  S. Prager,  E. I. Proynov,  E. Ramos,  B. Rana,  
 A. E. Rask,  A. Rettig,  R. M. Richard,  F. Rob,  E. Rossomme,  T. Scheele,  
 M. Scheurer,  M. Schneider,  N. Sergueev,  S. M. Sharada,  W. Skomorowski,  
 D. W. Small,  C. J. Stein,  Yu-Chuan Su,  E. J. Sundstrom,  Zhen Tao,  
 J. Thirman,  T. Tsuchimochi,  N. M. Tubman,  S. P. Veccham,  O. Vydrov,  
 J. Wenzel,  J. Witte,  A. Yamada,  Kun Yao,  S. Yeganeh,  S. R. Yost,  
 A. Zech,  Igor Ying Zhang,  Xing Zhang,  Yu Zhang,  D. Zuev,  
 A. Aspuru-Guzik,  A. T. Bell,  N. A. Besley,  K. B. Bravaya,  B. R. Brooks,  
 D. Casanova,  Jeng-Da Chai,  S. Coriani,  C. J. Cramer,  
 A. E. DePrince, III,  R. A. DiStasio Jr.,  A. Dreuw,  B. D. Dunietz,  
 T. R. Furlani,  W. A. Goddard III,  S. Grimme,  S. Hammes-Schiffer,  
 T. Head-Gordon,  W. J. Hehre,  Chao-Ping Hsu,  T.-C. Jagau,  Yousung Jung,  
 A. Klamt,  Jing Kong,  D. S. Lambrecht,  WanZhen Liang,  N. J. Mayhall,  
 C. W. McCurdy,  J. B. Neaton,  C. Ochsenfeld,  J. A. Parkhill,  R. Peverati,  
 V. A. Rassolov,  Yihan Shao,  L. V. Slipchenko,  T. Stauch,  R. P. Steele,  
 J. E. Subotnik,  A. J. W. Thom,  A. Tkatchenko,  D. G. Truhlar,  
 T. Van Voorhis,  T. A. Wesolowski,  K. B. Whaley,  H. L. Woodcock III,  
 P. M. Zimmerman,  S. Faraji,  P. M. W. Gill,  M. Head-Gordon,  
 J. M. Herbert,  A. I. Krylov

 Contributors to earlier versions of Q-Chem not listed above: 
 R. D. Adamson,  B. Austin,  R. Baer,  J. Baker,  G. J. O. Beran,  
 K. Brandhorst,  S. T. Brown,  E. F. C. Byrd,  A. K. Chakraborty,  
 G. K. L. Chan,  Chun-Min Chang,  Yunqing Chen,  C.-L. Cheng,  
 Siu Hung Chien,  D. M. Chipman,  D. L. Crittenden,  H. Dachsel,  
 R. J. Doerksen,  A. D. Dutoi,  R. G. Edgar,  J. Fosso-Tande,  
 L. Fusti-Molnar,  D. Ghosh,  A. Ghysels,  A. Golubeva-Zadorozhnaya,  
 J. Gonthier,  M. S. Gordon,  S. R. Gwaltney,  G. Hawkins,  J. E. Herr,  
 A. Heyden,  S. Hirata,  E. G. Hohenstein,  G. Kedziora,  F. J. Keil,  
 C. Kelley,  Jihan Kim,  R. A. King,  R. Z. Khaliullin,  P. P. Korambath,  
 W. Kurlancheek,  A. Laurent,  A. M. Lee,  M. S. Lee,  S. V. Levchenko,  
 Ching Yeh Lin,  D. Liotard,  E. Livshits,  R. C. Lochan,  I. Lotan,  
 L. A. Martinez-Martinez,  P. E. Maslen,  N. Nair,  D. P. O'Neill,  
 D. Neuhauser,  E. Neuscamman,  C. M. Oana,  R. Olivares-Amaya,  R. Olson,  
 T. M. Perrine,  B. Peters,  P. A. Pieniazek,  A. Prociuk,  Y. M. Rhee,  
 J. Ritchie,  M. A. Rohrdanz,  E. Rosta,  N. J. Russ,  H. F. Schaefer III,  
 M. W. Schmidt,  N. E. Schultz,  S. Sharma,  N. Shenvi,  C. D. Sherrill,  
 A. C. Simmonett,  A. Sodt,  T. Stein,  D. Stuck,  K. S. Thanthiriwatte,  
 V. Vanovschi,  L. Vogt,  Tao Wang,  A. Warshel,  M. A. Watson,  
 C. F. Williams,  Q. Wu,  X. Xu,  Jun Yang,  W. Zhang,  Yan Zhao

 Please cite Q-Chem as follows:
 Y. Shao et al., Mol. Phys. 113, 184-215 (2015)
 DOI: 10.1080/00268976.2014.952696

 Q-Chem 5.4.0 for Intel X86 EM64T Linux

 Parts of Q-Chem use Armadillo 9.800.1 (Horizon Scraper).
 http://arma.sourceforge.net/

 Q-Chem begins on Wed Dec 13 16:15:53 2023  

 Host: 
0

     Scratch files written to ./qchem1722632//
 May1621 |scratch|qcdevops|jenkins|workspace|build_RNUM    
 Parallel job on  1  processors
 Processing $rem in /cm/shared/apps/spack/cpu/opt/spack/linux-centos8-zen2/gcc-10.2.0/qchem-5.4-akfmr7b3t57bfs6qan3padb2wnb2i7cl/config/preferences:
 Processing $rem in /home/rramji/.qchemrc:
 Symmetry turned off for PCM/SM12/SMD calculation
 Core orbitals will be frozen

 Checking the input file for inconsistencies... 	...done.

 Q-Chem warning in module forms1/BasisType.C, line 2236:

 You are not using the predefined 5D/6D in this basis set.


--------------------------------------------------------------
User input:
--------------------------------------------------------------
$molecule
0 1
C	0.724460	-3.887800	0.001092
C	-0.661131	-3.701456	0.001036
C	-1.085203	-2.345170	0.000406
H	-1.367305	-4.545233	0.001433
C	0.000000	-1.450135	0.000000
S	1.527517	-2.321334	0.000367
C	-2.531478	-1.934439	0.000233
H	-3.196254	-2.819799	0.000656
H	-2.787305	-1.326210	-0.892447
H	-2.787282	-1.325374	0.892350
H	1.307907	-4.815326	0.001511
C	0.000000	0.000000	0.000000
C	0.285976	0.794723	1.113020
C	0.757308	2.103412	0.820578
H	0.154498	0.429575	2.142881
C	0.841565	2.336821	-0.563588
S	0.328498	0.913334	-1.464748
C	1.118059	3.105040	1.882380
H	0.966197	2.683616	2.894974
H	0.500773	4.024668	1.808137
H	2.180000	3.419766	1.808230
H	1.166129	3.238200	-1.097114
$end

$rem
JOBTYPE		SP
EXCHANGE	HF
CORRELATION	pRIMP2
BASIS		cc-pvtz
METHOD		rimp2
AUX_BASIS	rimp2-cc-pvtz
SOLVENT_METHOD	PCM
PURECART	11111
SYMMETRY	false
MEM_TOTAL	110000
SCF_CONVERGENCE = 6
THRESH=10
GUI = 2
$end



$solvent
dielectric 4.90
$end
--------------------------------------------------------------
 ----------------------------------------------------------------
             Standard Nuclear Orientation (Angstroms)
    I     Atom           X                Y                Z
 ----------------------------------------------------------------
    1      C       0.7244600000    -3.8878000000     0.0010920000
    2      C      -0.6611310000    -3.7014560000     0.0010360000
    3      C      -1.0852030000    -2.3451700000     0.0004060000
    4      H      -1.3673050000    -4.5452330000     0.0014330000
    5      C       0.0000000000    -1.4501350000     0.0000000000
    6      S       1.5275170000    -2.3213340000     0.0003670000
    7      C      -2.5314780000    -1.9344390000     0.0002330000
    8      H      -3.1962540000    -2.8197990000     0.0006560000
    9      H      -2.7873050000    -1.3262100000    -0.8924470000
   10      H      -2.7872820000    -1.3253740000     0.8923500000
   11      H       1.3079070000    -4.8153260000     0.0015110000
   12      C       0.0000000000     0.0000000000     0.0000000000
   13      C       0.2859760000     0.7947230000     1.1130200000
   14      C       0.7573080000     2.1034120000     0.8205780000
   15      H       0.1544980000     0.4295750000     2.1428810000
   16      C       0.8415650000     2.3368210000    -0.5635880000
   17      S       0.3284980000     0.9133340000    -1.4647480000
   18      C       1.1180590000     3.1050400000     1.8823800000
   19      H       0.9661970000     2.6836160000     2.8949740000
   20      H       0.5007730000     4.0246680000     1.8081370000
   21      H       2.1800000000     3.4197660000     1.8082300000
   22      H       1.1661290000     3.2382000000    -1.0971140000
 ----------------------------------------------------------------
 Nuclear Repulsion Energy =         834.40151757 hartrees
 There are       51 alpha and       51 beta electrons
 Requested basis set is cc-pVTZ
 There are 184 shells and 508 basis functions

 Total QAlloc Memory Limit 110000 MB
 Mega-Array Size       188 MB
 MEM_STATIC part       192 MB
 Discretize the solute cavity surface with Lebedev spheres
	Using 110 Lebedev grid points for each H atom
	Using 194 Lebedev grid points for other atoms
	Atomic van der Waals radii will be scaled by 1.20
 Remove points where switching function is < 1.0e-08
 Keep 1566 surface tesserae and discard 1862 interior tesserae
 Molecular Surface Area = 238.023 Angst**2
 Requested basis set is rimp2-cc-pVTZ
 There are 394 shells and 1354 basis functions
 A cutoff of  1.0D-10 yielded  12170 shell pairs
 There are     90204 function pairs (    116416 Cartesian)
 Smallest overlap matrix eigenvalue = 7.49E-05

 Scale SEOQF with 1.000000e-01/1.000000e-01/1.000000e-01

 Standard Electronic Orientation quadrupole field applied
 Nucleus-field energy     =     0.0000000355 hartrees
 Guess from superposition of atomic densities
 Warning:  Energy on first SCF cycle will be non-variational
 SAD guess density has 102.000000 electrons

 -----------------------------------------------------------------------
  General SCF calculation program by
  Eric Jon Sundstrom, Paul Horn, Yuezhi Mao, Dmitri Zuev, Alec White,
  David Stuck, Shaama M.S., Shane Yost, Joonho Lee, David Small,
  Daniel Levine, Susi Lehtola, Hugh Burton, Evgeny Epifanovsky,
  Bang C. Huynh
 -----------------------------------------------------------------------
 Hartree-Fock
 using 64 threads for integral computing
 -------------------------------------------------------
 OpenMP Integral computing Module                
 Release: version 1.0, May 2013, Q-Chem Inc. Pittsburgh 
 -------------------------------------------------------
 A restricted SCF calculation will be
 performed using DIIS
 SCF converges when DIIS error is below 1.0e-06
 ---------------------------------------
  Cycle       Energy         DIIS error
 ---------------------------------------
    1   -1184.1878333629      2.38e-02  
    2   -1179.5410172981      1.59e-03  
    3   -1179.6603108630      6.08e-04  
    4   -1179.6736512655      3.36e-04  
    5   -1179.6783618613      6.70e-05  
    6   -1179.6786428033      3.09e-05  
    7   -1179.6787312046      1.29e-05  
    8   -1179.6787599604      5.29e-06  
    9   -1179.6787649450      1.68e-06  
   10   -1179.6787653878      5.05e-07  Convergence criterion met
 ---------------------------------------
 SCF time:   CPU 1519.44s  wall 46.00s 

************** Final PCM Free Energy Summary **************
 G_electrostatic  =      -0.00786240 hartree =      -4.93373189 kcal/mol
 G_cavitation     =       0.00000000 hartree =       0.00000000 kcal/mol
 G_dispersion     =       0.00000000 hartree =       0.00000000 kcal/mol
 G_repulsion      =       0.00000000 hartree =       0.00000000 kcal/mol
 --------------------------------------------------
 Non-electrostatic Free Energy =       0.00000000 hartree =       0.00000000 kcal/mol
 Total                         =      -0.00786240 hartree =      -4.93373189 kcal/mol
 --------------------------------------------------
 SCF Energy (H0 + V/2)                       =   -1179.67876539 
 Solute Internal Energy (H0)                 =   -1179.67090299 
 Total Free Energy (H0 + V/2 + non-elec)     =   -1179.67876539 hartree
                                             = -740259.59801845 kcal/mol
***********************************************************

 SCF   energy in the final basis set =    -1179.6787653878
 Total energy in the final basis set =    -1179.6787653878


 --------------------------------------------------------------
  Generalized many-body perturbation theory program
  by Joonho Lee, Fazle Rob, Xintian Feng, Evgeny Epifanovsky

 No regularization used 
 (reg. param. = 0.0000e+00)
  (P|Q)^-1/2 Time:  CPU 25.69 s  wall 0.41 s

 In RI-MP2 calculation: 
 # of frozen core orbitals: 20

 Components of the RIMP2 correlation energy:
        aaaa    correlation energy =        -0.2522838856 a.u.
        abab    correlation energy =        -1.4743500873 a.u.
        bbbb    correlation energy =        -0.2522838856 a.u.
        non-Brillouin singles      =        -0.0000000000 a.u.
        total same-spin energy     =        -0.5045677712 a.u.
        total opposite-spin energy =        -1.4743500873 a.u.

 Total  RIMP2   correlation energy =        -1.9789178586 a.u.
        RIMP2         total energy =     -1181.6576832464 a.u.

 RI-MP2 Energy Time:  CPU 155.46 s  wall 3.19 s
 
 --------------------------------------------------------------
 
                    Orbital Energies (a.u.)
 --------------------------------------------------------------
 
 Alpha MOs
 -- Occupied --
-91.9849 -91.9844 -11.2759 -11.2723 -11.2721 -11.2675 -11.2517 -11.2510
-11.2438 -11.2411 -11.2292 -11.2288  -8.9845  -8.9840  -6.6653  -6.6649
 -6.6648  -6.6643  -6.6642  -6.6637  -1.1783  -1.1492  -1.0393  -1.0223
 -0.9967  -0.9534  -0.9128  -0.8922  -0.7993  -0.7529  -0.7306  -0.6936
 -0.6614  -0.6168  -0.5827  -0.5792  -0.5702  -0.5690  -0.5511  -0.5313
 -0.5291  -0.5188  -0.5075  -0.4921  -0.4848  -0.4642  -0.4634  -0.3487
 -0.3358  -0.3125  -0.3109
 -- Virtual --
  0.0895   0.0980   0.1429   0.1477   0.1625   0.1739   0.1753   0.1849
  0.1889   0.1956   0.2048   0.2182   0.2305   0.2321   0.2390   0.2475
  0.2533   0.2661   0.2931   0.3046   0.3377   0.3412   0.3535   0.3633
  0.3761   0.3822   0.3916   0.3974   0.4082   0.4118   0.4228   0.4351
  0.4375   0.4535   0.4680   0.4694   0.4747   0.4795   0.4846   0.4969
  0.5077   0.5145   0.5221   0.5356   0.5422   0.5539   0.5555   0.5569
  0.5762   0.5848   0.5925   0.5999   0.6026   0.6113   0.6196   0.6200
  0.6281   0.6320   0.6380   0.6403   0.6439   0.6480   0.6539   0.6680
  0.6746   0.6784   0.6833   0.7049   0.7170   0.7307   0.7398   0.7502
  0.7618   0.7835   0.7996   0.8104   0.8174   0.8215   0.8310   0.8402
  0.8432   0.8501   0.8648   0.8839   0.8997   0.9269   0.9375   0.9463
  0.9517   0.9630   0.9816   0.9936   0.9995   1.0128   1.0207   1.0314
  1.0357   1.0552   1.0580   1.0693   1.0715   1.0832   1.0919   1.1030
  1.1089   1.1238   1.1266   1.1415   1.1651   1.1779   1.1791   1.1839
  1.1875   1.2126   1.2171   1.2273   1.2463   1.2500   1.2572   1.2686
  1.2799   1.2843   1.2971   1.3111   1.3317   1.3453   1.3550   1.3627
  1.3699   1.3862   1.4002   1.4168   1.4220   1.4467   1.4526   1.4604
  1.4697   1.4821   1.5013   1.5054   1.5116   1.5275   1.5383   1.5512
  1.5567   1.5672   1.5684   1.5736   1.5865   1.5923   1.6038   1.6274
  1.6465   1.6613   1.6778   1.6820   1.7024   1.7040   1.7135   1.7149
  1.7419   1.7553   1.7679   1.7750   1.7901   1.8062   1.8210   1.8560
  1.8785   1.8865   1.8940   1.9164   1.9279   1.9551   1.9687   1.9922
  2.0084   2.0528   2.0633   2.0907   2.1048   2.1316   2.1482   2.1740
  2.1814   2.1923   2.1981   2.2236   2.2364   2.2388   2.2658   2.2802
  2.2988   2.3119   2.3287   2.3989   2.4057   2.4150   2.4329   2.4470
  2.4779   2.4893   2.5070   2.5267   2.5401   2.5677   2.5730   2.5897
  2.6097   2.6279   2.6331   2.6608   2.6735   2.6901   2.7216   2.7325
  2.7419   2.7431   2.7541   2.7596   2.7640   2.7779   2.8005   2.8136
  2.8301   2.8424   2.8478   2.8663   2.8855   2.8948   2.9039   2.9129
  2.9469   2.9576   2.9683   2.9878   2.9978   3.0140   3.0230   3.0375
  3.0400   3.0797   3.0932   3.1026   3.1123   3.1198   3.1250   3.1417
  3.1471   3.1541   3.1664   3.1694   3.1847   3.2001   3.2093   3.2213
  3.2453   3.2503   3.2592   3.2790   3.2832   3.2939   3.3093   3.3125
  3.3179   3.3259   3.3341   3.3436   3.3482   3.3547   3.3738   3.3763
  3.3803   3.3919   3.4003   3.4092   3.4188   3.4214   3.4338   3.4406
  3.4475   3.4518   3.4669   3.4895   3.4986   3.5058   3.5154   3.5199
  3.5316   3.5345   3.5385   3.5542   3.5581   3.5781   3.5917   3.5971
  3.6042   3.6167   3.6204   3.6280   3.6409   3.6444   3.6521   3.6643
  3.6791   3.6876   3.7081   3.7165   3.7237   3.7338   3.7368   3.7442
  3.7569   3.7777   3.7796   3.7925   3.8037   3.8101   3.8191   3.8504
  3.8580   3.8625   3.8761   3.8876   3.9029   3.9198   3.9366   3.9549
  3.9737   3.9814   3.9933   4.0095   4.0135   4.0253   4.0393   4.0415
  4.0694   4.0843   4.0893   4.1028   4.1166   4.1257   4.1322   4.1535
  4.1641   4.1714   4.1870   4.1959   4.2002   4.2120   4.2209   4.2280
  4.2517   4.2616   4.2661   4.2873   4.2945   4.3136   4.3234   4.3317
  4.3453   4.3609   4.3650   4.3777   4.3850   4.3985   4.4036   4.4206
  4.4252   4.4453   4.4619   4.4772   4.4823   4.5017   4.5260   4.5627
  4.5794   4.5935   4.6138   4.6201   4.6355   4.6400   4.6646   4.6797
  4.7070   4.7233   4.7282   4.7379   4.7669   4.7804   4.8222   4.8367
  4.8690   4.8837   4.8952   4.9199   4.9514   4.9724   5.0039   5.0545
  5.0847   5.1050   5.1081   5.1448   5.1641   5.1728   5.1933   5.2053
  5.2624   5.2771   5.2921   5.2998   5.3309   5.3642   5.3933   5.3988
  5.4303   5.4508   5.4639   5.4723   5.5172   5.5238   5.5432   5.5542
  5.5731   5.5925   5.6189   5.6257   5.6268   5.6793   5.7027   5.7134
  5.7728   5.8212   5.8940   5.9295   6.0023   6.0370   6.1214   6.2264
  6.2273   6.2387   6.2697   6.2861   6.3209   6.4226   6.5008   8.9018
  9.7929  11.6768  11.9904  12.8878  12.9354  13.7409  13.9122  14.2040
 14.3043
 --------------------------------------------------------------
 
          Ground-State Mulliken Net Atomic Charges

     Atom                 Charge (a.u.)
  ----------------------------------------
      1 C                    -0.205015
      2 C                    -0.253453
      3 C                     0.059824
      4 H                     0.184009
      5 C                    -0.064840
      6 S                     0.026788
      7 C                    -0.284429
      8 H                     0.106582
      9 H                     0.110536
     10 H                     0.109504
     11 H                     0.204033
     12 C                    -0.007746
     13 C                    -0.234743
     14 C                     0.027351
     15 H                     0.184167
     16 C                    -0.235313
     17 S                     0.025675
     18 C                    -0.270080
     19 H                     0.102861
     20 H                     0.107755
     21 H                     0.108115
     22 H                     0.198419
  ----------------------------------------
  Sum of atomic charges =     0.000000

 -----------------------------------------------------------------
                    Cartesian Multipole Moments
 -----------------------------------------------------------------
    Charge (ESU x 10^10)
                -0.0000
    Dipole Moment (Debye)
         X      -0.8056      Y       0.3272      Z       1.5005
       Tot       1.7342
    Quadrupole Moments (Debye-Ang)
        XX     -84.8768     XY       5.7661     YY     -70.1707
        XZ       0.4054     YZ       1.0378     ZZ     -86.6602
    Octopole Moments (Debye-Ang^2)
       XXX     -65.9664    XXY      33.7028    XYY      -5.6260
       YYY     102.6174    XXZ      -2.8448    XYZ      -0.7865
       YYZ      -4.7260    XZZ     -17.9834    YZZ      63.3747
       ZZZ      -0.0455
    Hexadecapole Moments (Debye-Ang^3)
      XXXX    -794.6538   XXXY    -148.3162   XXYY    -548.3828
      XYYY    -159.6390   YYYY   -2499.9601   XXXZ     -33.5765
      XXYZ     -32.4876   XYYZ     -16.5888   YYYZ    -107.2763
      XXZZ    -230.8495   XYZZ     -44.1959   YYZZ    -598.7146
      XZZZ     -34.7823   YZZZ     -95.6860   ZZZZ    -534.4875
 -----------------------------------------------------------------
 Total job time:  51.30s(wall), 1763.31s(cpu) 
 Wed Dec 13 16:16:44 2023

        *************************************************************
        *                                                           *
        *  Thank you very much for using Q-Chem.  Have a nice day.  *
        *                                                           *
        *************************************************************


0 sent ACK to 0 
now end server 0 ... 
cleanup process ... done
remove work dirs ./qchem1722632.0 -- ./qchem1722632.0
rm -rf ./qchem1722632.0
rm -rf ./qchem1722632
