You are running Q-Chem version: 5.4.0

#
# job setting
#
local host:  exp-1-44
current dir: /home/rramji/project-csd799/aromodel/p3ht-qchem/rotation-run
input file:  Methylthiophene_Phi_15_Theta_140_Methylthiophene.qcin
output file: 
nprocs     : 1
nthreads   : 64
#
# qchem installation setting
#
QC:          /cm/shared/apps/spack/cpu/opt/spack/linux-centos8-zen2/gcc-10.2.0/qchem-5.4-akfmr7b3t57bfs6qan3padb2wnb2i7cl
QCAUX:       /cm/shared/apps/spack/cpu/opt/spack/linux-centos8-zen2/gcc-10.2.0/qchem-5.4-akfmr7b3t57bfs6qan3padb2wnb2i7cl/qcaux
QCPROG:      /cm/shared/apps/spack/cpu/opt/spack/linux-centos8-zen2/gcc-10.2.0/qchem-5.4-akfmr7b3t57bfs6qan3padb2wnb2i7cl/exe/qcprog.exe
QCPROG_S:    /cm/shared/apps/spack/cpu/opt/spack/linux-centos8-zen2/gcc-10.2.0/qchem-5.4-akfmr7b3t57bfs6qan3padb2wnb2i7cl/exe/qcprog.exe_s
PARALLEL:    -DPARALLEL
QCMPI:       mpich
#
# qchem directory setting
#
qcrun:       qchem2789656
QCSCRATCH:   .
QCLOCALSCR:  
QCTMPDIR:    .
QCFILEPREF:  ./qchem2789656
QCSAVEDIR:   
workdirs:    ./qchem2789656
workdir0:    ./qchem2789656
partmpdirs =  
#
# parallel setting
#
QCRSH:           ssh
QCMPI:           mpich
QCMPIRUN:        /cm/shared/apps/spack/cpu/opt/spack/linux-centos8-zen2/gcc-10.2.0/qchem-5.4-akfmr7b3t57bfs6qan3padb2wnb2i7cl/bin/mpi/mpirun_qchem
QCMACHINEFILE:   ./qchem2789656/hostfile
exp-1-44

#
# env setting
#
exported envs:   QC QCAUX QCSCRATCH QCRUNNAME QCFILEPREF QCPROG QCPROG_S GUIFILE

Running Job 1 of 1 Methylthiophene_Phi_15_Theta_140_Methylthiophene.qcin
qchem Methylthiophene_Phi_15_Theta_140_Methylthiophene.qcin_2789656.0 ./qchem2789656/ 1
/cm/shared/apps/spack/cpu/opt/spack/linux-centos8-zen2/gcc-10.2.0/qchem-5.4-akfmr7b3t57bfs6qan3padb2wnb2i7cl/bin/mpi/mpirun_qchem -machinefile ./qchem2789656/hostfile -np 1 /cm/shared/apps/spack/cpu/opt/spack/linux-centos8-zen2/gcc-10.2.0/qchem-5.4-akfmr7b3t57bfs6qan3padb2wnb2i7cl/exe/qcprog.exe Methylthiophene_Phi_15_Theta_140_Methylthiophene.qcin_2789656.0 ./qchem2789656/

Process 0 of 1 is on exp-1-44 - thread support 0
initial socket setup ...start
initial socket setup ...done 
now start server 0 ... 
                  Welcome to Q-Chem
     A Quantum Leap Into The Future Of Chemistry


 Q-Chem 5.4, Q-Chem, Inc., Pleasanton, CA (2021)

 License issued to: University of California, San Diego (site)

 E. Epifanovsky,  A. T. B. Gilbert,  Xintian Feng,  Joonho Lee,  Yuezhi Mao,  
 N. Mardirossian,  P. Pokhilko,  A. White,  M. Wormit,  M. P. Coons,  
 A. L. Dempwolff,  Zhengting Gan,  D. Hait,  P. R. Horn,  L. D. Jacobson,  
 I. Kaliman,  J. Kussmann,  A. W. Lange,  Ka Un Lao,  D. S. Levine,  Jie Liu,  
 S. C. McKenzie,  A. F. Morrison,  K. Nanda,  F. Plasser,  D. R. Rehn,  
 M. L. Vidal,  Zhi-Qiang You,  Ying Zhu,  B. Alam,  B. Albrecht,  
 A. Aldossary,  E. Alguire,  J. H. Andersen,  D. Barton,  K. Begam,  A. Behn,  
 Y. A. Bernard,  E. J. Berquist,  H. Burton,  A. Carreras,  K. Carter-Fenk,  
 R. Chakraborty,  A. D. Chien,  K. D. Closser,  V. Cofer-Shabica,  
 S. Dasgupta,  Jia Deng,  M. de Wergifosse,  M. Diedenhofen,  Hainam Do,  
 S. Ehlert,  Po-Tung Fang,  S. Fatehi,  Qingguo Feng,  J. Gayvert,  
 Qinghui Ge,  G. Gidofalvi,  M. Goldey,  J. Gomes,  C. Gonzalez-Espinoza,  
 S. Gulania,  A. Gunina,  M. W. D. Hanson-Heine,  P. H. P. Harbach,  
 A. W. Hauser,  M. F. Herbst,  M. Hernandez Vera,  M. Hodecker,  
 Z. C. Holden,  S. Houck,  Xunkun Huang,  Kerwin Hui,  B. C. Huynh,  
 M. Ivanov,  Hyunjun Ji,  Hanjie Jiang,  B. Kaduk,  S. Kaehler,  
 K. Khistyaev,  Jaehoon Kim,  P. Klunzinger,  Z. Koczor-Benda,  
 Joong Hoon Koh,  D. Kosenkov,  L. Koulias,  T. Kowalczyk,  C. M. Krauter,  
 K. Kue,  A. Kunitsa,  T. Kus,  A. Landau,  K. V. Lawler,  D. Lefrancois,  
 S. Lehtola,  Rain Li,  Yi-Pei Li,  Jiashu Liang,  M. Liebenthal,  
 Hung-Hsuan Lin,  You-Sheng Lin,  Fenglai Liu,  Kuan-Yu Liu,  
 M. Loipersberger,  A. Luenser,  A. Manjanath,  P. Manohar,  E. Mansoor,  
 S. F. Manzer,  Shan-Ping Mao,  A. V. Marenich,  T. Markovich,  S. Mason,  
 S. A. Maurer,  P. F. McLaughlin,  M. F. S. J. Menger,  J.-M. Mewes,  
 S. A. Mewes,  P. Morgante,  J. W. Mullinax,  T. S. Nguyen-Beck,  
 K. J. Oosterbaan,  G. Paran,  Alexander C. Paul,  Suranjan K. Paul,  
 F. Pavosevic,  Zheng Pei,  S. Prager,  E. I. Proynov,  E. Ramos,  B. Rana,  
 A. E. Rask,  A. Rettig,  R. M. Richard,  F. Rob,  E. Rossomme,  T. Scheele,  
 M. Scheurer,  M. Schneider,  N. Sergueev,  S. M. Sharada,  W. Skomorowski,  
 D. W. Small,  C. J. Stein,  Yu-Chuan Su,  E. J. Sundstrom,  Zhen Tao,  
 J. Thirman,  T. Tsuchimochi,  N. M. Tubman,  S. P. Veccham,  O. Vydrov,  
 J. Wenzel,  J. Witte,  A. Yamada,  Kun Yao,  S. Yeganeh,  S. R. Yost,  
 A. Zech,  Igor Ying Zhang,  Xing Zhang,  Yu Zhang,  D. Zuev,  
 A. Aspuru-Guzik,  A. T. Bell,  N. A. Besley,  K. B. Bravaya,  B. R. Brooks,  
 D. Casanova,  Jeng-Da Chai,  S. Coriani,  C. J. Cramer,  
 A. E. DePrince, III,  R. A. DiStasio Jr.,  A. Dreuw,  B. D. Dunietz,  
 T. R. Furlani,  W. A. Goddard III,  S. Grimme,  S. Hammes-Schiffer,  
 T. Head-Gordon,  W. J. Hehre,  Chao-Ping Hsu,  T.-C. Jagau,  Yousung Jung,  
 A. Klamt,  Jing Kong,  D. S. Lambrecht,  WanZhen Liang,  N. J. Mayhall,  
 C. W. McCurdy,  J. B. Neaton,  C. Ochsenfeld,  J. A. Parkhill,  R. Peverati,  
 V. A. Rassolov,  Yihan Shao,  L. V. Slipchenko,  T. Stauch,  R. P. Steele,  
 J. E. Subotnik,  A. J. W. Thom,  A. Tkatchenko,  D. G. Truhlar,  
 T. Van Voorhis,  T. A. Wesolowski,  K. B. Whaley,  H. L. Woodcock III,  
 P. M. Zimmerman,  S. Faraji,  P. M. W. Gill,  M. Head-Gordon,  
 J. M. Herbert,  A. I. Krylov

 Contributors to earlier versions of Q-Chem not listed above: 
 R. D. Adamson,  B. Austin,  R. Baer,  J. Baker,  G. J. O. Beran,  
 K. Brandhorst,  S. T. Brown,  E. F. C. Byrd,  A. K. Chakraborty,  
 G. K. L. Chan,  Chun-Min Chang,  Yunqing Chen,  C.-L. Cheng,  
 Siu Hung Chien,  D. M. Chipman,  D. L. Crittenden,  H. Dachsel,  
 R. J. Doerksen,  A. D. Dutoi,  R. G. Edgar,  J. Fosso-Tande,  
 L. Fusti-Molnar,  D. Ghosh,  A. Ghysels,  A. Golubeva-Zadorozhnaya,  
 J. Gonthier,  M. S. Gordon,  S. R. Gwaltney,  G. Hawkins,  J. E. Herr,  
 A. Heyden,  S. Hirata,  E. G. Hohenstein,  G. Kedziora,  F. J. Keil,  
 C. Kelley,  Jihan Kim,  R. A. King,  R. Z. Khaliullin,  P. P. Korambath,  
 W. Kurlancheek,  A. Laurent,  A. M. Lee,  M. S. Lee,  S. V. Levchenko,  
 Ching Yeh Lin,  D. Liotard,  E. Livshits,  R. C. Lochan,  I. Lotan,  
 L. A. Martinez-Martinez,  P. E. Maslen,  N. Nair,  D. P. O'Neill,  
 D. Neuhauser,  E. Neuscamman,  C. M. Oana,  R. Olivares-Amaya,  R. Olson,  
 T. M. Perrine,  B. Peters,  P. A. Pieniazek,  A. Prociuk,  Y. M. Rhee,  
 J. Ritchie,  M. A. Rohrdanz,  E. Rosta,  N. J. Russ,  H. F. Schaefer III,  
 M. W. Schmidt,  N. E. Schultz,  S. Sharma,  N. Shenvi,  C. D. Sherrill,  
 A. C. Simmonett,  A. Sodt,  T. Stein,  D. Stuck,  K. S. Thanthiriwatte,  
 V. Vanovschi,  L. Vogt,  Tao Wang,  A. Warshel,  M. A. Watson,  
 C. F. Williams,  Q. Wu,  X. Xu,  Jun Yang,  W. Zhang,  Yan Zhao

 Please cite Q-Chem as follows:
 Y. Shao et al., Mol. Phys. 113, 184-215 (2015)
 DOI: 10.1080/00268976.2014.952696

 Q-Chem 5.4.0 for Intel X86 EM64T Linux

 Parts of Q-Chem use Armadillo 9.800.1 (Horizon Scraper).
 http://arma.sourceforge.net/

 Q-Chem begins on Wed Dec 13 16:04:05 2023  

 Host: 
0

     Scratch files written to ./qchem2789656//
 May1621 |scratch|qcdevops|jenkins|workspace|build_RNUM    
 Parallel job on  1  processors
 Processing $rem in /cm/shared/apps/spack/cpu/opt/spack/linux-centos8-zen2/gcc-10.2.0/qchem-5.4-akfmr7b3t57bfs6qan3padb2wnb2i7cl/config/preferences:
 Processing $rem in /home/rramji/.qchemrc:
 Symmetry turned off for PCM/SM12/SMD calculation
 Core orbitals will be frozen

 Checking the input file for inconsistencies... 	...done.

 Q-Chem warning in module forms1/BasisType.C, line 2236:

 You are not using the predefined 5D/6D in this basis set.


--------------------------------------------------------------
User input:
--------------------------------------------------------------
$molecule
0 1
C	-0.464838	-3.887800	-0.555670
C	0.425760	-3.701456	0.505790
C	0.697866	-2.345170	0.831053
H	0.879984	-4.545233	1.046496
C	-0.000000	-1.450135	-0.000000
S	-0.981588	-2.321334	-1.170382
C	1.627381	-1.934439	1.939074
H	2.055015	-2.819799	2.448051
H	1.107991	-1.326210	2.708853
H	2.475210	-1.325374	1.561590
H	-0.839549	-4.815326	-1.002886
C	0.000000	0.000000	0.000000
C	0.215623	0.816623	1.113020
C	0.571102	2.161411	0.820578
H	0.116470	0.441406	2.142881
C	0.634696	2.401276	-0.563588
S	0.247646	0.938489	-1.464748
C	0.843182	3.190669	1.882380
H	0.728628	2.757614	2.894974
H	0.148095	4.052998	1.808137
H	1.873652	3.596752	1.808230
H	0.879464	3.327513	-1.097114
$end

$rem
JOBTYPE		SP
EXCHANGE	HF
CORRELATION	pRIMP2
BASIS		cc-pvtz
METHOD		rimp2
AUX_BASIS	rimp2-cc-pvtz
SOLVENT_METHOD	PCM
PURECART	11111
SYMMETRY	false
MEM_TOTAL	110000
SCF_CONVERGENCE = 6
THRESH=10
GUI = 2
$end



$solvent
dielectric 4.90
$end
--------------------------------------------------------------
 ----------------------------------------------------------------
             Standard Nuclear Orientation (Angstroms)
    I     Atom           X                Y                Z
 ----------------------------------------------------------------
    1      C      -0.4648380000    -3.8878000000    -0.5556700000
    2      C       0.4257600000    -3.7014560000     0.5057900000
    3      C       0.6978660000    -2.3451700000     0.8310530000
    4      H       0.8799840000    -4.5452330000     1.0464960000
    5      C       0.0000000000    -1.4501350000     0.0000000000
    6      S      -0.9815880000    -2.3213340000    -1.1703820000
    7      C       1.6273810000    -1.9344390000     1.9390740000
    8      H       2.0550150000    -2.8197990000     2.4480510000
    9      H       1.1079910000    -1.3262100000     2.7088530000
   10      H       2.4752100000    -1.3253740000     1.5615900000
   11      H      -0.8395490000    -4.8153260000    -1.0028860000
   12      C       0.0000000000     0.0000000000     0.0000000000
   13      C       0.2156230000     0.8166230000     1.1130200000
   14      C       0.5711020000     2.1614110000     0.8205780000
   15      H       0.1164700000     0.4414060000     2.1428810000
   16      C       0.6346960000     2.4012760000    -0.5635880000
   17      S       0.2476460000     0.9384890000    -1.4647480000
   18      C       0.8431820000     3.1906690000     1.8823800000
   19      H       0.7286280000     2.7576140000     2.8949740000
   20      H       0.1480950000     4.0529980000     1.8081370000
   21      H       1.8736520000     3.5967520000     1.8082300000
   22      H       0.8794640000     3.3275130000    -1.0971140000
 ----------------------------------------------------------------
 Nuclear Repulsion Energy =         836.32071793 hartrees
 There are       51 alpha and       51 beta electrons
 Requested basis set is cc-pVTZ
 There are 184 shells and 508 basis functions

 Total QAlloc Memory Limit 110000 MB
 Mega-Array Size       188 MB
 MEM_STATIC part       192 MB
 Discretize the solute cavity surface with Lebedev spheres
	Using 110 Lebedev grid points for each H atom
	Using 194 Lebedev grid points for other atoms
	Atomic van der Waals radii will be scaled by 1.20
 Remove points where switching function is < 1.0e-08
 Keep 1523 surface tesserae and discard 1905 interior tesserae
 Molecular Surface Area = 231.952 Angst**2
 Requested basis set is rimp2-cc-pVTZ
 There are 394 shells and 1354 basis functions
 A cutoff of  1.0D-10 yielded  12426 shell pairs
 There are     92216 function pairs (    118949 Cartesian)
 Smallest overlap matrix eigenvalue = 5.59E-05

 Scale SEOQF with 1.000000e-01/1.000000e-01/1.000000e-01

 Standard Electronic Orientation quadrupole field applied
 Nucleus-field energy     =     0.0000000261 hartrees
 Guess from superposition of atomic densities
 Warning:  Energy on first SCF cycle will be non-variational
 SAD guess density has 102.000000 electrons

 -----------------------------------------------------------------------
  General SCF calculation program by
  Eric Jon Sundstrom, Paul Horn, Yuezhi Mao, Dmitri Zuev, Alec White,
  David Stuck, Shaama M.S., Shane Yost, Joonho Lee, David Small,
  Daniel Levine, Susi Lehtola, Hugh Burton, Evgeny Epifanovsky,
  Bang C. Huynh
 -----------------------------------------------------------------------
 Hartree-Fock
 using 64 threads for integral computing
 -------------------------------------------------------
 OpenMP Integral computing Module                
 Release: version 1.0, May 2013, Q-Chem Inc. Pittsburgh 
 -------------------------------------------------------
 A restricted SCF calculation will be
 performed using DIIS
 SCF converges when DIIS error is below 1.0e-06
 ---------------------------------------
  Cycle       Energy         DIIS error
 ---------------------------------------
    1   -1184.2164877670      2.38e-02  
    2   -1179.5422535639      1.60e-03  
    3   -1179.6629240517      6.22e-04  
    4   -1179.6767452018      3.41e-04  
    5   -1179.6816370351      6.50e-05  
    6   -1179.6819077017      2.97e-05  
    7   -1179.6819891929      1.23e-05  
    8   -1179.6820147329      5.26e-06  
    9   -1179.6820192872      1.64e-06  
   10   -1179.6820197357      5.20e-07  Convergence criterion met
 ---------------------------------------
 SCF time:   CPU 1458.87s  wall 46.00s 

************** Final PCM Free Energy Summary **************
 G_electrostatic  =      -0.00856559 hartree =      -5.37499061 kcal/mol
 G_cavitation     =       0.00000000 hartree =       0.00000000 kcal/mol
 G_dispersion     =       0.00000000 hartree =       0.00000000 kcal/mol
 G_repulsion      =       0.00000000 hartree =       0.00000000 kcal/mol
 --------------------------------------------------
 Non-electrostatic Free Energy =       0.00000000 hartree =       0.00000000 kcal/mol
 Total                         =      -0.00856559 hartree =      -5.37499061 kcal/mol
 --------------------------------------------------
 SCF Energy (H0 + V/2)                       =   -1179.68201974 
 Solute Internal Energy (H0)                 =   -1179.67345414 
 Total Free Energy (H0 + V/2 + non-elec)     =   -1179.68201974 hartree
                                             = -740261.64015258 kcal/mol
***********************************************************

 SCF   energy in the final basis set =    -1179.6820197357
 Total energy in the final basis set =    -1179.6820197357


 --------------------------------------------------------------
  Generalized many-body perturbation theory program
  by Joonho Lee, Fazle Rob, Xintian Feng, Evgeny Epifanovsky

 No regularization used 
 (reg. param. = 0.0000e+00)
  (P|Q)^-1/2 Time:  CPU 35.25 s  wall 0.58 s

 In RI-MP2 calculation: 
 # of frozen core orbitals: 20

 Components of the RIMP2 correlation energy:
        aaaa    correlation energy =        -0.2528255390 a.u.
        abab    correlation energy =        -1.4745775434 a.u.
        bbbb    correlation energy =        -0.2528255390 a.u.
        non-Brillouin singles      =        -0.0000000000 a.u.
        total same-spin energy     =        -0.5056510779 a.u.
        total opposite-spin energy =        -1.4745775434 a.u.

 Total  RIMP2   correlation energy =        -1.9802286214 a.u.
        RIMP2         total energy =     -1181.6622483571 a.u.

 RI-MP2 Energy Time:  CPU 152.88 s  wall 2.53 s
 
 --------------------------------------------------------------
 
                    Orbital Energies (a.u.)
 --------------------------------------------------------------
 
 Alpha MOs
 -- Occupied --
-91.9857 -91.9848 -11.2803 -11.2769 -11.2727 -11.2656 -11.2536 -11.2520
-11.2434 -11.2410 -11.2296 -11.2295  -8.9853  -8.9846  -6.6662  -6.6656
 -6.6655  -6.6650  -6.6649  -6.6643  -1.1799  -1.1500  -1.0405  -1.0251
 -0.9959  -0.9552  -0.9136  -0.8938  -0.8007  -0.7543  -0.7295  -0.6988
 -0.6614  -0.6156  -0.5881  -0.5808  -0.5706  -0.5633  -0.5510  -0.5370
 -0.5291  -0.5220  -0.5060  -0.4925  -0.4859  -0.4706  -0.4571  -0.3558
 -0.3432  -0.3401  -0.2783
 -- Virtual --
  0.0699   0.1252   0.1387   0.1486   0.1626   0.1745   0.1783   0.1877
  0.1958   0.2012   0.2023   0.2205   0.2326   0.2394   0.2456   0.2526
  0.2666   0.2812   0.2886   0.3199   0.3362   0.3495   0.3609   0.3773
  0.3817   0.3843   0.3987   0.3992   0.4089   0.4201   0.4317   0.4389
  0.4485   0.4553   0.4692   0.4725   0.4798   0.4894   0.4958   0.4987
  0.5059   0.5167   0.5298   0.5374   0.5399   0.5538   0.5616   0.5677
  0.5748   0.5841   0.5897   0.5937   0.5981   0.6073   0.6135   0.6166
  0.6215   0.6335   0.6398   0.6423   0.6547   0.6568   0.6670   0.6743
  0.6805   0.6866   0.7009   0.7110   0.7255   0.7375   0.7414   0.7599
  0.7629   0.7779   0.7869   0.7907   0.8047   0.8198   0.8325   0.8476
  0.8597   0.8680   0.8796   0.8887   0.9063   0.9305   0.9373   0.9404
  0.9427   0.9744   0.9799   0.9910   0.9994   1.0167   1.0262   1.0412
  1.0481   1.0545   1.0664   1.0713   1.0773   1.0864   1.0981   1.1019
  1.1066   1.1239   1.1362   1.1450   1.1503   1.1567   1.1943   1.2007
  1.2130   1.2202   1.2281   1.2362   1.2465   1.2551   1.2606   1.2779
  1.2866   1.2929   1.3064   1.3091   1.3289   1.3418   1.3498   1.3681
  1.3807   1.3916   1.3962   1.4136   1.4183   1.4350   1.4476   1.4582
  1.4728   1.4838   1.4974   1.5060   1.5229   1.5258   1.5375   1.5463
  1.5526   1.5687   1.5722   1.5772   1.5832   1.6084   1.6240   1.6396
  1.6475   1.6641   1.6720   1.6896   1.7061   1.7120   1.7237   1.7437
  1.7479   1.7662   1.7755   1.7855   1.8089   1.8124   1.8579   1.8689
  1.8743   1.8976   1.9017   1.9160   1.9435   1.9515   1.9777   1.9921
  2.0044   2.0421   2.0581   2.0957   2.1187   2.1363   2.1428   2.1728
  2.1908   2.1924   2.2214   2.2271   2.2504   2.2592   2.2627   2.2679
  2.2732   2.3114   2.3177   2.3652   2.4012   2.4139   2.4476   2.4565
  2.4773   2.4916   2.5222   2.5245   2.5482   2.5724   2.5921   2.6153
  2.6182   2.6382   2.6462   2.6656   2.6853   2.6974   2.7215   2.7303
  2.7428   2.7462   2.7513   2.7585   2.7706   2.7742   2.7890   2.8196
  2.8288   2.8456   2.8478   2.8521   2.8708   2.8827   2.9218   2.9258
  2.9493   2.9574   2.9597   2.9901   2.9952   3.0165   3.0309   3.0395
  3.0496   3.0742   3.0818   3.1066   3.1105   3.1149   3.1249   3.1409
  3.1467   3.1516   3.1712   3.1821   3.1949   3.2025   3.2074   3.2209
  3.2227   3.2498   3.2681   3.2758   3.2801   3.2859   3.2940   3.3123
  3.3188   3.3267   3.3429   3.3482   3.3571   3.3654   3.3701   3.3806
  3.3848   3.3884   3.3967   3.4137   3.4144   3.4281   3.4356   3.4403
  3.4451   3.4541   3.4718   3.4832   3.4902   3.5095   3.5137   3.5185
  3.5237   3.5272   3.5397   3.5564   3.5596   3.5727   3.5800   3.5820
  3.5996   3.6188   3.6220   3.6250   3.6352   3.6544   3.6572   3.6736
  3.6858   3.6939   3.7074   3.7147   3.7165   3.7258   3.7488   3.7563
  3.7615   3.7752   3.7798   3.7926   3.8047   3.8206   3.8305   3.8403
  3.8638   3.8821   3.8949   3.9055   3.9198   3.9289   3.9549   3.9625
  3.9760   3.9844   3.9923   4.0129   4.0159   4.0216   4.0301   4.0523
  4.0658   4.0844   4.0984   4.1076   4.1152   4.1447   4.1462   4.1521
  4.1609   4.1660   4.1920   4.1956   4.2064   4.2130   4.2257   4.2305
  4.2559   4.2596   4.2749   4.2901   4.2966   4.3061   4.3326   4.3462
  4.3527   4.3636   4.3798   4.3959   4.4019   4.4055   4.4173   4.4256
  4.4348   4.4557   4.4705   4.4851   4.4964   4.5293   4.5680   4.5760
  4.5908   4.6101   4.6176   4.6238   4.6355   4.6472   4.6597   4.6658
  4.6920   4.7218   4.7310   4.7520   4.7704   4.8044   4.8335   4.8433
  4.8682   4.8996   4.9169   4.9247   4.9343   4.9760   4.9800   5.0571
  5.0795   5.1008   5.1124   5.1360   5.1630   5.1821   5.2034   5.2624
  5.2716   5.2771   5.2980   5.3109   5.3303   5.3606   5.3733   5.4005
  5.4066   5.4418   5.4698   5.4918   5.5075   5.5236   5.5501   5.5599
  5.5689   5.5900   5.6127   5.6252   5.6490   5.7000   5.7121   5.7264
  5.7839   5.8282   5.9311   5.9687   6.0016   6.1042   6.1427   6.2280
  6.2484   6.2538   6.2902   6.2965   6.3396   6.4533   6.5840   8.6983
  9.8963  11.5470  11.9455  12.8325  13.1445  13.7298  14.1090  14.2588
 14.4284
 --------------------------------------------------------------
 
          Ground-State Mulliken Net Atomic Charges

     Atom                 Charge (a.u.)
  ----------------------------------------
      1 C                    -0.211848
      2 C                    -0.249987
      3 C                     0.058720
      4 H                     0.185256
      5 C                    -0.034606
      6 S                     0.017898
      7 C                    -0.294358
      8 H                     0.114037
      9 H                     0.105573
     10 H                     0.116824
     11 H                     0.205231
     12 C                     0.001706
     13 C                    -0.270473
     14 C                     0.040137
     15 H                     0.192000
     16 C                    -0.248205
     17 S                     0.024195
     18 C                    -0.270526
     19 H                     0.102177
     20 H                     0.108854
     21 H                     0.108593
     22 H                     0.198803
  ----------------------------------------
  Sum of atomic charges =     0.000000

 -----------------------------------------------------------------
                    Cartesian Multipole Moments
 -----------------------------------------------------------------
    Charge (ESU x 10^10)
                -0.0000
    Dipole Moment (Debye)
         X       1.4847      Y       0.2208      Z       2.6706
       Tot       3.0636
    Quadrupole Moments (Debye-Ang)
        XX     -89.3000     XY       1.3176     YY     -69.2890
        XZ       3.5505     YZ      -0.6188     ZZ     -82.8943
    Octopole Moments (Debye-Ang^2)
       XXX     -60.5066    XXY      43.9115    XYY     -11.9861
       YYY      97.7514    XXZ      -4.0867    XYZ     -12.5145
       YYZ      -9.0392    XZZ     -16.8569    YZZ      47.5653
       ZZZ      -6.0377
    Hexadecapole Moments (Debye-Ang^3)
      XXXX    -427.9229   XXXY    -125.2217   XXYY    -558.3770
      XYYY     -69.8921   YYYY   -2527.9370   XXXZ    -161.9766
      XXYZ     -35.2160   XYYZ      -8.6952   YYYZ     -83.0093
      XXZZ    -217.3490   XYZZ     -36.8827   YYZZ    -600.5101
      XZZZ    -161.2662   YZZZ    -101.9204   ZZZZ    -865.2448
 -----------------------------------------------------------------
 Total job time:  50.98s(wall), 1683.76s(cpu) 
 Wed Dec 13 16:04:56 2023

        *************************************************************
        *                                                           *
        *  Thank you very much for using Q-Chem.  Have a nice day.  *
        *                                                           *
        *************************************************************


0 sent ACK to 0 
now end server 0 ... 
cleanup process ... done
remove work dirs ./qchem2789656.0 -- ./qchem2789656.0
rm -rf ./qchem2789656.0
rm -rf ./qchem2789656
