You are running Q-Chem version: 5.4.0

#
# job setting
#
local host:  exp-1-10
current dir: /home/rramji/project-csd799/aromodel/p3ht-qchem/rotation-run
input file:  Methylthiophene_Phi_0_Theta_100_Methylthiophene.qcin
output file: 
nprocs     : 1
nthreads   : 64
#
# qchem installation setting
#
QC:          /cm/shared/apps/spack/cpu/opt/spack/linux-centos8-zen2/gcc-10.2.0/qchem-5.4-akfmr7b3t57bfs6qan3padb2wnb2i7cl
QCAUX:       /cm/shared/apps/spack/cpu/opt/spack/linux-centos8-zen2/gcc-10.2.0/qchem-5.4-akfmr7b3t57bfs6qan3padb2wnb2i7cl/qcaux
QCPROG:      /cm/shared/apps/spack/cpu/opt/spack/linux-centos8-zen2/gcc-10.2.0/qchem-5.4-akfmr7b3t57bfs6qan3padb2wnb2i7cl/exe/qcprog.exe
QCPROG_S:    /cm/shared/apps/spack/cpu/opt/spack/linux-centos8-zen2/gcc-10.2.0/qchem-5.4-akfmr7b3t57bfs6qan3padb2wnb2i7cl/exe/qcprog.exe_s
PARALLEL:    -DPARALLEL
QCMPI:       mpich
#
# qchem directory setting
#
qcrun:       qchem1457413
QCSCRATCH:   .
QCLOCALSCR:  
QCTMPDIR:    .
QCFILEPREF:  ./qchem1457413
QCSAVEDIR:   
workdirs:    ./qchem1457413
workdir0:    ./qchem1457413
partmpdirs =  
#
# parallel setting
#
QCRSH:           ssh
QCMPI:           mpich
QCMPIRUN:        /cm/shared/apps/spack/cpu/opt/spack/linux-centos8-zen2/gcc-10.2.0/qchem-5.4-akfmr7b3t57bfs6qan3padb2wnb2i7cl/bin/mpi/mpirun_qchem
QCMACHINEFILE:   ./qchem1457413/hostfile
exp-1-10

#
# env setting
#
exported envs:   QC QCAUX QCSCRATCH QCRUNNAME QCFILEPREF QCPROG QCPROG_S GUIFILE

Running Job 1 of 1 Methylthiophene_Phi_0_Theta_100_Methylthiophene.qcin
qchem Methylthiophene_Phi_0_Theta_100_Methylthiophene.qcin_1457413.0 ./qchem1457413/ 1
/cm/shared/apps/spack/cpu/opt/spack/linux-centos8-zen2/gcc-10.2.0/qchem-5.4-akfmr7b3t57bfs6qan3padb2wnb2i7cl/bin/mpi/mpirun_qchem -machinefile ./qchem1457413/hostfile -np 1 /cm/shared/apps/spack/cpu/opt/spack/linux-centos8-zen2/gcc-10.2.0/qchem-5.4-akfmr7b3t57bfs6qan3padb2wnb2i7cl/exe/qcprog.exe Methylthiophene_Phi_0_Theta_100_Methylthiophene.qcin_1457413.0 ./qchem1457413/

Process 0 of 1 is on exp-1-10 - thread support 0
initial socket setup ...start
initial socket setup ...done 
now start server 0 ... 
                  Welcome to Q-Chem
     A Quantum Leap Into The Future Of Chemistry


 Q-Chem 5.4, Q-Chem, Inc., Pleasanton, CA (2021)

 License issued to: University of California, San Diego (site)

 E. Epifanovsky,  A. T. B. Gilbert,  Xintian Feng,  Joonho Lee,  Yuezhi Mao,  
 N. Mardirossian,  P. Pokhilko,  A. White,  M. Wormit,  M. P. Coons,  
 A. L. Dempwolff,  Zhengting Gan,  D. Hait,  P. R. Horn,  L. D. Jacobson,  
 I. Kaliman,  J. Kussmann,  A. W. Lange,  Ka Un Lao,  D. S. Levine,  Jie Liu,  
 S. C. McKenzie,  A. F. Morrison,  K. Nanda,  F. Plasser,  D. R. Rehn,  
 M. L. Vidal,  Zhi-Qiang You,  Ying Zhu,  B. Alam,  B. Albrecht,  
 A. Aldossary,  E. Alguire,  J. H. Andersen,  D. Barton,  K. Begam,  A. Behn,  
 Y. A. Bernard,  E. J. Berquist,  H. Burton,  A. Carreras,  K. Carter-Fenk,  
 R. Chakraborty,  A. D. Chien,  K. D. Closser,  V. Cofer-Shabica,  
 S. Dasgupta,  Jia Deng,  M. de Wergifosse,  M. Diedenhofen,  Hainam Do,  
 S. Ehlert,  Po-Tung Fang,  S. Fatehi,  Qingguo Feng,  J. Gayvert,  
 Qinghui Ge,  G. Gidofalvi,  M. Goldey,  J. Gomes,  C. Gonzalez-Espinoza,  
 S. Gulania,  A. Gunina,  M. W. D. Hanson-Heine,  P. H. P. Harbach,  
 A. W. Hauser,  M. F. Herbst,  M. Hernandez Vera,  M. Hodecker,  
 Z. C. Holden,  S. Houck,  Xunkun Huang,  Kerwin Hui,  B. C. Huynh,  
 M. Ivanov,  Hyunjun Ji,  Hanjie Jiang,  B. Kaduk,  S. Kaehler,  
 K. Khistyaev,  Jaehoon Kim,  P. Klunzinger,  Z. Koczor-Benda,  
 Joong Hoon Koh,  D. Kosenkov,  L. Koulias,  T. Kowalczyk,  C. M. Krauter,  
 K. Kue,  A. Kunitsa,  T. Kus,  A. Landau,  K. V. Lawler,  D. Lefrancois,  
 S. Lehtola,  Rain Li,  Yi-Pei Li,  Jiashu Liang,  M. Liebenthal,  
 Hung-Hsuan Lin,  You-Sheng Lin,  Fenglai Liu,  Kuan-Yu Liu,  
 M. Loipersberger,  A. Luenser,  A. Manjanath,  P. Manohar,  E. Mansoor,  
 S. F. Manzer,  Shan-Ping Mao,  A. V. Marenich,  T. Markovich,  S. Mason,  
 S. A. Maurer,  P. F. McLaughlin,  M. F. S. J. Menger,  J.-M. Mewes,  
 S. A. Mewes,  P. Morgante,  J. W. Mullinax,  T. S. Nguyen-Beck,  
 K. J. Oosterbaan,  G. Paran,  Alexander C. Paul,  Suranjan K. Paul,  
 F. Pavosevic,  Zheng Pei,  S. Prager,  E. I. Proynov,  E. Ramos,  B. Rana,  
 A. E. Rask,  A. Rettig,  R. M. Richard,  F. Rob,  E. Rossomme,  T. Scheele,  
 M. Scheurer,  M. Schneider,  N. Sergueev,  S. M. Sharada,  W. Skomorowski,  
 D. W. Small,  C. J. Stein,  Yu-Chuan Su,  E. J. Sundstrom,  Zhen Tao,  
 J. Thirman,  T. Tsuchimochi,  N. M. Tubman,  S. P. Veccham,  O. Vydrov,  
 J. Wenzel,  J. Witte,  A. Yamada,  Kun Yao,  S. Yeganeh,  S. R. Yost,  
 A. Zech,  Igor Ying Zhang,  Xing Zhang,  Yu Zhang,  D. Zuev,  
 A. Aspuru-Guzik,  A. T. Bell,  N. A. Besley,  K. B. Bravaya,  B. R. Brooks,  
 D. Casanova,  Jeng-Da Chai,  S. Coriani,  C. J. Cramer,  
 A. E. DePrince, III,  R. A. DiStasio Jr.,  A. Dreuw,  B. D. Dunietz,  
 T. R. Furlani,  W. A. Goddard III,  S. Grimme,  S. Hammes-Schiffer,  
 T. Head-Gordon,  W. J. Hehre,  Chao-Ping Hsu,  T.-C. Jagau,  Yousung Jung,  
 A. Klamt,  Jing Kong,  D. S. Lambrecht,  WanZhen Liang,  N. J. Mayhall,  
 C. W. McCurdy,  J. B. Neaton,  C. Ochsenfeld,  J. A. Parkhill,  R. Peverati,  
 V. A. Rassolov,  Yihan Shao,  L. V. Slipchenko,  T. Stauch,  R. P. Steele,  
 J. E. Subotnik,  A. J. W. Thom,  A. Tkatchenko,  D. G. Truhlar,  
 T. Van Voorhis,  T. A. Wesolowski,  K. B. Whaley,  H. L. Woodcock III,  
 P. M. Zimmerman,  S. Faraji,  P. M. W. Gill,  M. Head-Gordon,  
 J. M. Herbert,  A. I. Krylov

 Contributors to earlier versions of Q-Chem not listed above: 
 R. D. Adamson,  B. Austin,  R. Baer,  J. Baker,  G. J. O. Beran,  
 K. Brandhorst,  S. T. Brown,  E. F. C. Byrd,  A. K. Chakraborty,  
 G. K. L. Chan,  Chun-Min Chang,  Yunqing Chen,  C.-L. Cheng,  
 Siu Hung Chien,  D. M. Chipman,  D. L. Crittenden,  H. Dachsel,  
 R. J. Doerksen,  A. D. Dutoi,  R. G. Edgar,  J. Fosso-Tande,  
 L. Fusti-Molnar,  D. Ghosh,  A. Ghysels,  A. Golubeva-Zadorozhnaya,  
 J. Gonthier,  M. S. Gordon,  S. R. Gwaltney,  G. Hawkins,  J. E. Herr,  
 A. Heyden,  S. Hirata,  E. G. Hohenstein,  G. Kedziora,  F. J. Keil,  
 C. Kelley,  Jihan Kim,  R. A. King,  R. Z. Khaliullin,  P. P. Korambath,  
 W. Kurlancheek,  A. Laurent,  A. M. Lee,  M. S. Lee,  S. V. Levchenko,  
 Ching Yeh Lin,  D. Liotard,  E. Livshits,  R. C. Lochan,  I. Lotan,  
 L. A. Martinez-Martinez,  P. E. Maslen,  N. Nair,  D. P. O'Neill,  
 D. Neuhauser,  E. Neuscamman,  C. M. Oana,  R. Olivares-Amaya,  R. Olson,  
 T. M. Perrine,  B. Peters,  P. A. Pieniazek,  A. Prociuk,  Y. M. Rhee,  
 J. Ritchie,  M. A. Rohrdanz,  E. Rosta,  N. J. Russ,  H. F. Schaefer III,  
 M. W. Schmidt,  N. E. Schultz,  S. Sharma,  N. Shenvi,  C. D. Sherrill,  
 A. C. Simmonett,  A. Sodt,  T. Stein,  D. Stuck,  K. S. Thanthiriwatte,  
 V. Vanovschi,  L. Vogt,  Tao Wang,  A. Warshel,  M. A. Watson,  
 C. F. Williams,  Q. Wu,  X. Xu,  Jun Yang,  W. Zhang,  Yan Zhao

 Please cite Q-Chem as follows:
 Y. Shao et al., Mol. Phys. 113, 184-215 (2015)
 DOI: 10.1080/00268976.2014.952696

 Q-Chem 5.4.0 for Intel X86 EM64T Linux

 Parts of Q-Chem use Armadillo 9.800.1 (Horizon Scraper).
 http://arma.sourceforge.net/

 Q-Chem begins on Wed Dec 13 15:59:12 2023  

 Host: 
0

     Scratch files written to ./qchem1457413//
 May1621 |scratch|qcdevops|jenkins|workspace|build_RNUM    
 Parallel job on  1  processors
 Processing $rem in /cm/shared/apps/spack/cpu/opt/spack/linux-centos8-zen2/gcc-10.2.0/qchem-5.4-akfmr7b3t57bfs6qan3padb2wnb2i7cl/config/preferences:
 Processing $rem in /home/rramji/.qchemrc:
 Symmetry turned off for PCM/SM12/SMD calculation
 Core orbitals will be frozen

 Checking the input file for inconsistencies... 	...done.

 Q-Chem warning in module forms1/BasisType.C, line 2236:

 You are not using the predefined 5D/6D in this basis set.


--------------------------------------------------------------
User input:
--------------------------------------------------------------
$molecule
0 1
C	-0.713264	-3.887800	-0.126876
C	0.651267	-3.701456	0.113784
C	1.068787	-2.345170	0.188043
H	1.346782	-4.545233	0.236019
C	0.000000	-1.450135	0.000000
S	-1.504247	-2.321334	-0.265612
C	2.493059	-1.934439	0.439357
H	3.147809	-2.819799	0.554378
H	2.589987	-1.326210	1.362899
H	2.899892	-1.325374	-0.394786
H	-1.287774	-4.815326	-0.228603
C	0.000000	0.000000	0.000000
C	-0.003081	0.844605	1.113020
C	-0.007772	2.235575	0.820578
H	-0.001743	0.456510	2.142881
C	-0.008427	2.483726	-0.563588
S	-0.003691	0.970607	-1.464748
C	-0.011355	3.300181	1.882380
H	-0.009922	2.852233	2.894974
H	-0.905944	3.953225	1.808137
H	0.878901	3.959133	1.808230
H	-0.011727	3.441752	-1.097114
$end

$rem
JOBTYPE		SP
EXCHANGE	HF
CORRELATION	pRIMP2
BASIS		cc-pvtz
METHOD		rimp2
AUX_BASIS	rimp2-cc-pvtz
SOLVENT_METHOD	PCM
PURECART	11111
SYMMETRY	false
MEM_TOTAL	110000
SCF_CONVERGENCE = 6
THRESH=10
GUI = 2
$end



$solvent
dielectric 4.90
$end
--------------------------------------------------------------
 ----------------------------------------------------------------
             Standard Nuclear Orientation (Angstroms)
    I     Atom           X                Y                Z
 ----------------------------------------------------------------
    1      C      -0.7132640000    -3.8878000000    -0.1268760000
    2      C       0.6512670000    -3.7014560000     0.1137840000
    3      C       1.0687870000    -2.3451700000     0.1880430000
    4      H       1.3467820000    -4.5452330000     0.2360190000
    5      C       0.0000000000    -1.4501350000     0.0000000000
    6      S      -1.5042470000    -2.3213340000    -0.2656120000
    7      C       2.4930590000    -1.9344390000     0.4393570000
    8      H       3.1478090000    -2.8197990000     0.5543780000
    9      H       2.5899870000    -1.3262100000     1.3628990000
   10      H       2.8998920000    -1.3253740000    -0.3947860000
   11      H      -1.2877740000    -4.8153260000    -0.2286030000
   12      C       0.0000000000     0.0000000000     0.0000000000
   13      C      -0.0030810000     0.8446050000     1.1130200000
   14      C      -0.0077720000     2.2355750000     0.8205780000
   15      H      -0.0017430000     0.4565100000     2.1428810000
   16      C      -0.0084270000     2.4837260000    -0.5635880000
   17      S      -0.0036910000     0.9706070000    -1.4647480000
   18      C      -0.0113550000     3.3001810000     1.8823800000
   19      H      -0.0099220000     2.8522330000     2.8949740000
   20      H      -0.9059440000     3.9532250000     1.8081370000
   21      H       0.8789010000     3.9591330000     1.8082300000
   22      H      -0.0117270000     3.4417520000    -1.0971140000
 ----------------------------------------------------------------
 Nuclear Repulsion Energy =         831.85410840 hartrees
 There are       51 alpha and       51 beta electrons
 Requested basis set is cc-pVTZ
 There are 184 shells and 508 basis functions

 Total QAlloc Memory Limit 110000 MB
 Mega-Array Size       188 MB
 MEM_STATIC part       192 MB
 Discretize the solute cavity surface with Lebedev spheres
	Using 110 Lebedev grid points for each H atom
	Using 194 Lebedev grid points for other atoms
	Atomic van der Waals radii will be scaled by 1.20
 Remove points where switching function is < 1.0e-08
 Keep 1580 surface tesserae and discard 1848 interior tesserae
 Molecular Surface Area = 239.174 Angst**2
 Requested basis set is rimp2-cc-pVTZ
 There are 394 shells and 1354 basis functions
 A cutoff of  1.0D-10 yielded  12208 shell pairs
 There are     90682 function pairs (    117180 Cartesian)
 Smallest overlap matrix eigenvalue = 7.00E-05

 Scale SEOQF with 1.000000e-01/1.000000e-01/1.000000e-01

 Standard Electronic Orientation quadrupole field applied
 Nucleus-field energy     =     0.0000000358 hartrees
 Guess from superposition of atomic densities
 Warning:  Energy on first SCF cycle will be non-variational
 SAD guess density has 102.000000 electrons

 -----------------------------------------------------------------------
  General SCF calculation program by
  Eric Jon Sundstrom, Paul Horn, Yuezhi Mao, Dmitri Zuev, Alec White,
  David Stuck, Shaama M.S., Shane Yost, Joonho Lee, David Small,
  Daniel Levine, Susi Lehtola, Hugh Burton, Evgeny Epifanovsky,
  Bang C. Huynh
 -----------------------------------------------------------------------
 Hartree-Fock
 using 64 threads for integral computing
 -------------------------------------------------------
 OpenMP Integral computing Module                
 Release: version 1.0, May 2013, Q-Chem Inc. Pittsburgh 
 -------------------------------------------------------
 A restricted SCF calculation will be
 performed using DIIS
 SCF converges when DIIS error is below 1.0e-06
 ---------------------------------------
  Cycle       Energy         DIIS error
 ---------------------------------------
    1   -1184.1799070789      2.38e-02  
    2   -1179.5477410102      1.60e-03  
    3   -1179.6671254990      6.17e-04  
    4   -1179.6806490200      3.42e-04  
    5   -1179.6855298415      6.75e-05  
    6   -1179.6858110413      3.05e-05  
    7   -1179.6858973174      1.26e-05  
    8   -1179.6859247439      5.30e-06  
    9   -1179.6859295745      1.65e-06  
   10   -1179.6859300049      5.13e-07  Convergence criterion met
 ---------------------------------------
 SCF time:   CPU 1541.91s  wall 48.00s 

************** Final PCM Free Energy Summary **************
 G_electrostatic  =      -0.00781675 hartree =      -4.90508182 kcal/mol
 G_cavitation     =       0.00000000 hartree =       0.00000000 kcal/mol
 G_dispersion     =       0.00000000 hartree =       0.00000000 kcal/mol
 G_repulsion      =       0.00000000 hartree =       0.00000000 kcal/mol
 --------------------------------------------------
 Non-electrostatic Free Energy =       0.00000000 hartree =       0.00000000 kcal/mol
 Total                         =      -0.00781675 hartree =      -4.90508182 kcal/mol
 --------------------------------------------------
 SCF Energy (H0 + V/2)                       =   -1179.68593000 
 Solute Internal Energy (H0)                 =   -1179.67811326 
 Total Free Energy (H0 + V/2 + non-elec)     =   -1179.68593000 hartree
                                             = -740264.09388353 kcal/mol
***********************************************************

 SCF   energy in the final basis set =    -1179.6859300049
 Total energy in the final basis set =    -1179.6859300049


 --------------------------------------------------------------
  Generalized many-body perturbation theory program
  by Joonho Lee, Fazle Rob, Xintian Feng, Evgeny Epifanovsky

 No regularization used 
 (reg. param. = 0.0000e+00)
  (P|Q)^-1/2 Time:  CPU 50.18 s  wall 0.85 s

 In RI-MP2 calculation: 
 # of frozen core orbitals: 20

 Components of the RIMP2 correlation energy:
        aaaa    correlation energy =        -0.2520765943 a.u.
        abab    correlation energy =        -1.4733602384 a.u.
        bbbb    correlation energy =        -0.2520765943 a.u.
        non-Brillouin singles      =        -0.0000000000 a.u.
        total same-spin energy     =        -0.5041531887 a.u.
        total opposite-spin energy =        -1.4733602384 a.u.

 Total  RIMP2   correlation energy =        -1.9775134271 a.u.
        RIMP2         total energy =     -1181.6634434320 a.u.

 RI-MP2 Energy Time:  CPU 191.62 s  wall 3.63 s
 
 --------------------------------------------------------------
 
                    Orbital Energies (a.u.)
 --------------------------------------------------------------
 
 Alpha MOs
 -- Occupied --
-91.9857 -91.9852 -11.2791 -11.2735 -11.2730 -11.2650 -11.2540 -11.2509
-11.2422 -11.2415 -11.2292 -11.2291  -8.9851  -8.9847  -6.6660  -6.6656
 -6.6655  -6.6650  -6.6648  -6.6644  -1.1777  -1.1496  -1.0391  -1.0230
 -0.9965  -0.9543  -0.9130  -0.8926  -0.8001  -0.7528  -0.7305  -0.6951
 -0.6621  -0.6164  -0.5826  -0.5794  -0.5704  -0.5684  -0.5516  -0.5305
 -0.5299  -0.5198  -0.5071  -0.4920  -0.4889  -0.4648  -0.4627  -0.3464
 -0.3382  -0.3211  -0.3044
 -- Virtual --
  0.0910   0.1028   0.1416   0.1487   0.1624   0.1758   0.1768   0.1882
  0.1888   0.1943   0.2008   0.2173   0.2307   0.2339   0.2417   0.2470
  0.2503   0.2697   0.2893   0.3026   0.3377   0.3503   0.3549   0.3629
  0.3770   0.3831   0.3918   0.3939   0.4064   0.4110   0.4205   0.4349
  0.4433   0.4560   0.4649   0.4699   0.4734   0.4819   0.4917   0.5018
  0.5117   0.5129   0.5244   0.5367   0.5439   0.5513   0.5607   0.5657
  0.5744   0.5867   0.5903   0.5965   0.6017   0.6083   0.6111   0.6192
  0.6274   0.6321   0.6325   0.6447   0.6478   0.6512   0.6552   0.6613
  0.6709   0.6767   0.6891   0.7129   0.7175   0.7273   0.7413   0.7505
  0.7649   0.7786   0.7911   0.8043   0.8193   0.8321   0.8323   0.8390
  0.8496   0.8522   0.8702   0.8908   0.8993   0.9287   0.9401   0.9439
  0.9481   0.9549   0.9686   0.9926   1.0032   1.0127   1.0204   1.0242
  1.0396   1.0466   1.0619   1.0665   1.0757   1.0843   1.0886   1.0964
  1.1061   1.1147   1.1278   1.1467   1.1589   1.1768   1.1816   1.1951
  1.1972   1.2129   1.2235   1.2260   1.2497   1.2540   1.2562   1.2671
  1.2807   1.2889   1.3016   1.3231   1.3260   1.3457   1.3510   1.3647
  1.3736   1.3843   1.3989   1.4149   1.4203   1.4315   1.4509   1.4705
  1.4754   1.4830   1.4996   1.5047   1.5118   1.5338   1.5367   1.5543
  1.5559   1.5642   1.5702   1.5817   1.5921   1.6031   1.6063   1.6312
  1.6487   1.6554   1.6808   1.6876   1.6916   1.7050   1.7207   1.7247
  1.7527   1.7597   1.7674   1.7803   1.8012   1.8078   1.8238   1.8579
  1.8778   1.8933   1.8953   1.9184   1.9340   1.9448   1.9560   1.9859
  2.0243   2.0423   2.0537   2.1029   2.1242   2.1320   2.1540   2.1743
  2.1912   2.1964   2.1987   2.2113   2.2299   2.2428   2.2678   2.2802
  2.2991   2.3148   2.3284   2.3973   2.4046   2.4131   2.4332   2.4474
  2.4699   2.4906   2.5102   2.5271   2.5499   2.5609   2.5789   2.6038
  2.6093   2.6211   2.6429   2.6581   2.6725   2.6854   2.7094   2.7254
  2.7313   2.7425   2.7496   2.7582   2.7615   2.7680   2.7957   2.7985
  2.8273   2.8438   2.8524   2.8673   2.8780   2.8840   2.9079   2.9228
  2.9265   2.9648   2.9731   2.9881   2.9964   3.0145   3.0241   3.0363
  3.0543   3.0784   3.0973   3.1104   3.1170   3.1290   3.1342   3.1398
  3.1485   3.1571   3.1667   3.1687   3.1855   3.2070   3.2164   3.2298
  3.2356   3.2453   3.2534   3.2735   3.2803   3.2935   3.3004   3.3052
  3.3300   3.3328   3.3356   3.3444   3.3467   3.3581   3.3667   3.3779
  3.3815   3.3834   3.3914   3.4037   3.4235   3.4294   3.4325   3.4373
  3.4505   3.4615   3.4699   3.4793   3.4960   3.5050   3.5126   3.5225
  3.5304   3.5343   3.5426   3.5490   3.5570   3.5685   3.5843   3.5963
  3.6095   3.6146   3.6206   3.6267   3.6332   3.6396   3.6451   3.6631
  3.6708   3.6859   3.6965   3.7045   3.7144   3.7169   3.7353   3.7514
  3.7599   3.7771   3.7853   3.8002   3.8041   3.8178   3.8331   3.8445
  3.8598   3.8678   3.8814   3.9002   3.9069   3.9226   3.9432   3.9655
  3.9800   3.9854   3.9954   4.0025   4.0124   4.0252   4.0340   4.0529
  4.0789   4.0820   4.0906   4.1005   4.1200   4.1352   4.1401   4.1454
  4.1596   4.1752   4.1937   4.1942   4.1982   4.2062   4.2165   4.2366
  4.2412   4.2585   4.2638   4.2866   4.2927   4.3109   4.3253   4.3279
  4.3527   4.3590   4.3765   4.3833   4.3977   4.4005   4.4022   4.4246
  4.4293   4.4412   4.4556   4.4803   4.4920   4.5006   4.5275   4.5621
  4.5887   4.5974   4.6078   4.6157   4.6318   4.6356   4.6573   4.6682
  4.7015   4.7228   4.7427   4.7525   4.7689   4.7749   4.8145   4.8294
  4.8745   4.8840   4.9053   4.9184   4.9589   4.9821   5.0037   5.0547
  5.0985   5.1033   5.1130   5.1360   5.1667   5.1826   5.2013   5.2481
  5.2682   5.2794   5.2932   5.2998   5.3275   5.3675   5.3926   5.3967
  5.4177   5.4463   5.4663   5.4882   5.5189   5.5316   5.5465   5.5535
  5.5716   5.6091   5.6190   5.6243   5.6383   5.6642   5.6978   5.7126
  5.7733   5.8253   5.9092   5.9608   6.0034   6.0572   6.1343   6.2249
  6.2310   6.2463   6.2739   6.3032   6.3186   6.4406   6.5092   8.8736
  9.8920  11.6979  11.9667  12.9253  13.0088  13.7440  13.9580  14.2189
 14.2989
 --------------------------------------------------------------
 
          Ground-State Mulliken Net Atomic Charges

     Atom                 Charge (a.u.)
  ----------------------------------------
      1 C                    -0.212142
      2 C                    -0.248624
      3 C                     0.047784
      4 H                     0.185318
      5 C                    -0.049051
      6 S                     0.025801
      7 C                    -0.282092
      8 H                     0.108243
      9 H                     0.109441
     10 H                     0.111176
     11 H                     0.204171
     12 C                    -0.012597
     13 C                    -0.222784
     14 C                     0.015494
     15 H                     0.186005
     16 C                    -0.238024
     17 S                     0.026008
     18 C                    -0.271384
     19 H                     0.102792
     20 H                     0.108411
     21 H                     0.107789
     22 H                     0.198264
  ----------------------------------------
  Sum of atomic charges =     0.000000

 -----------------------------------------------------------------
                    Cartesian Multipole Moments
 -----------------------------------------------------------------
    Charge (ESU x 10^10)
                -0.0000
    Dipole Moment (Debye)
         X       1.4916      Y       0.2360      Z       1.7394
       Tot       2.3035
    Quadrupole Moments (Debye-Ang)
        XX     -86.3318     XY      -2.2462     YY     -68.7165
        XZ       1.1171     YZ       0.7480     ZZ     -86.5562
    Octopole Moments (Debye-Ang^2)
       XXX      -5.4482    XXY      25.0470    XYY      -5.7294
       YYY      94.4269    XXZ      -2.5223    XYZ      -4.1611
       YYZ      -5.8149    XZZ      -2.8316    YZZ      58.8163
       ZZZ      -1.7046
    Hexadecapole Moments (Debye-Ang^3)
      XXXX    -663.2634   XXXY      -6.6933   XXYY    -562.7861
      XYYY      37.3028   YYYY   -2580.0183   XXXZ     -44.7294
      XXYZ     -34.0959   XYYZ       1.3858   YYYZ    -109.1809
      XXZZ    -214.3868   XYZZ       0.6082   YYZZ    -614.0056
      XZZZ     -49.1342   YZZZ    -102.3418   ZZZZ    -552.5065
 -----------------------------------------------------------------
 Total job time:  55.78s(wall), 1804.03s(cpu) 
 Wed Dec 13 16:00:08 2023

        *************************************************************
        *                                                           *
        *  Thank you very much for using Q-Chem.  Have a nice day.  *
        *                                                           *
        *************************************************************


0 sent ACK to 0 
now end server 0 ... 
cleanup process ... done
remove work dirs ./qchem1457413.0 -- ./qchem1457413.0
rm -rf ./qchem1457413.0
rm -rf ./qchem1457413
