You are running Q-Chem version: 5.4.0

#
# job setting
#
local host:  exp-2-34
current dir: /home/rramji/project-csd799/aromodel/p3ht-qchem/rotation-run
input file:  Methylthiophene_Phi_25_Theta_250_Methylthiophene.qcin
output file: 
nprocs     : 1
nthreads   : 64
#
# qchem installation setting
#
QC:          /cm/shared/apps/spack/cpu/opt/spack/linux-centos8-zen2/gcc-10.2.0/qchem-5.4-akfmr7b3t57bfs6qan3padb2wnb2i7cl
QCAUX:       /cm/shared/apps/spack/cpu/opt/spack/linux-centos8-zen2/gcc-10.2.0/qchem-5.4-akfmr7b3t57bfs6qan3padb2wnb2i7cl/qcaux
QCPROG:      /cm/shared/apps/spack/cpu/opt/spack/linux-centos8-zen2/gcc-10.2.0/qchem-5.4-akfmr7b3t57bfs6qan3padb2wnb2i7cl/exe/qcprog.exe
QCPROG_S:    /cm/shared/apps/spack/cpu/opt/spack/linux-centos8-zen2/gcc-10.2.0/qchem-5.4-akfmr7b3t57bfs6qan3padb2wnb2i7cl/exe/qcprog.exe_s
PARALLEL:    -DPARALLEL
QCMPI:       mpich
#
# qchem directory setting
#
qcrun:       qchem274799
QCSCRATCH:   .
QCLOCALSCR:  
QCTMPDIR:    .
QCFILEPREF:  ./qchem274799
QCSAVEDIR:   
workdirs:    ./qchem274799
workdir0:    ./qchem274799
partmpdirs =  
#
# parallel setting
#
QCRSH:           ssh
QCMPI:           mpich
QCMPIRUN:        /cm/shared/apps/spack/cpu/opt/spack/linux-centos8-zen2/gcc-10.2.0/qchem-5.4-akfmr7b3t57bfs6qan3padb2wnb2i7cl/bin/mpi/mpirun_qchem
QCMACHINEFILE:   ./qchem274799/hostfile
exp-2-34

#
# env setting
#
exported envs:   QC QCAUX QCSCRATCH QCRUNNAME QCFILEPREF QCPROG QCPROG_S GUIFILE

Running Job 1 of 1 Methylthiophene_Phi_25_Theta_250_Methylthiophene.qcin
qchem Methylthiophene_Phi_25_Theta_250_Methylthiophene.qcin_274799.0 ./qchem274799/ 1
/cm/shared/apps/spack/cpu/opt/spack/linux-centos8-zen2/gcc-10.2.0/qchem-5.4-akfmr7b3t57bfs6qan3padb2wnb2i7cl/bin/mpi/mpirun_qchem -machinefile ./qchem274799/hostfile -np 1 /cm/shared/apps/spack/cpu/opt/spack/linux-centos8-zen2/gcc-10.2.0/qchem-5.4-akfmr7b3t57bfs6qan3padb2wnb2i7cl/exe/qcprog.exe Methylthiophene_Phi_25_Theta_250_Methylthiophene.qcin_274799.0 ./qchem274799/

Process 0 of 1 is on exp-2-34 - thread support 0
initial socket setup ...start
initial socket setup ...done 
now start server 0 ... 
                  Welcome to Q-Chem
     A Quantum Leap Into The Future Of Chemistry


 Q-Chem 5.4, Q-Chem, Inc., Pleasanton, CA (2021)

 License issued to: University of California, San Diego (site)

 E. Epifanovsky,  A. T. B. Gilbert,  Xintian Feng,  Joonho Lee,  Yuezhi Mao,  
 N. Mardirossian,  P. Pokhilko,  A. White,  M. Wormit,  M. P. Coons,  
 A. L. Dempwolff,  Zhengting Gan,  D. Hait,  P. R. Horn,  L. D. Jacobson,  
 I. Kaliman,  J. Kussmann,  A. W. Lange,  Ka Un Lao,  D. S. Levine,  Jie Liu,  
 S. C. McKenzie,  A. F. Morrison,  K. Nanda,  F. Plasser,  D. R. Rehn,  
 M. L. Vidal,  Zhi-Qiang You,  Ying Zhu,  B. Alam,  B. Albrecht,  
 A. Aldossary,  E. Alguire,  J. H. Andersen,  D. Barton,  K. Begam,  A. Behn,  
 Y. A. Bernard,  E. J. Berquist,  H. Burton,  A. Carreras,  K. Carter-Fenk,  
 R. Chakraborty,  A. D. Chien,  K. D. Closser,  V. Cofer-Shabica,  
 S. Dasgupta,  Jia Deng,  M. de Wergifosse,  M. Diedenhofen,  Hainam Do,  
 S. Ehlert,  Po-Tung Fang,  S. Fatehi,  Qingguo Feng,  J. Gayvert,  
 Qinghui Ge,  G. Gidofalvi,  M. Goldey,  J. Gomes,  C. Gonzalez-Espinoza,  
 S. Gulania,  A. Gunina,  M. W. D. Hanson-Heine,  P. H. P. Harbach,  
 A. W. Hauser,  M. F. Herbst,  M. Hernandez Vera,  M. Hodecker,  
 Z. C. Holden,  S. Houck,  Xunkun Huang,  Kerwin Hui,  B. C. Huynh,  
 M. Ivanov,  Hyunjun Ji,  Hanjie Jiang,  B. Kaduk,  S. Kaehler,  
 K. Khistyaev,  Jaehoon Kim,  P. Klunzinger,  Z. Koczor-Benda,  
 Joong Hoon Koh,  D. Kosenkov,  L. Koulias,  T. Kowalczyk,  C. M. Krauter,  
 K. Kue,  A. Kunitsa,  T. Kus,  A. Landau,  K. V. Lawler,  D. Lefrancois,  
 S. Lehtola,  Rain Li,  Yi-Pei Li,  Jiashu Liang,  M. Liebenthal,  
 Hung-Hsuan Lin,  You-Sheng Lin,  Fenglai Liu,  Kuan-Yu Liu,  
 M. Loipersberger,  A. Luenser,  A. Manjanath,  P. Manohar,  E. Mansoor,  
 S. F. Manzer,  Shan-Ping Mao,  A. V. Marenich,  T. Markovich,  S. Mason,  
 S. A. Maurer,  P. F. McLaughlin,  M. F. S. J. Menger,  J.-M. Mewes,  
 S. A. Mewes,  P. Morgante,  J. W. Mullinax,  T. S. Nguyen-Beck,  
 K. J. Oosterbaan,  G. Paran,  Alexander C. Paul,  Suranjan K. Paul,  
 F. Pavosevic,  Zheng Pei,  S. Prager,  E. I. Proynov,  E. Ramos,  B. Rana,  
 A. E. Rask,  A. Rettig,  R. M. Richard,  F. Rob,  E. Rossomme,  T. Scheele,  
 M. Scheurer,  M. Schneider,  N. Sergueev,  S. M. Sharada,  W. Skomorowski,  
 D. W. Small,  C. J. Stein,  Yu-Chuan Su,  E. J. Sundstrom,  Zhen Tao,  
 J. Thirman,  T. Tsuchimochi,  N. M. Tubman,  S. P. Veccham,  O. Vydrov,  
 J. Wenzel,  J. Witte,  A. Yamada,  Kun Yao,  S. Yeganeh,  S. R. Yost,  
 A. Zech,  Igor Ying Zhang,  Xing Zhang,  Yu Zhang,  D. Zuev,  
 A. Aspuru-Guzik,  A. T. Bell,  N. A. Besley,  K. B. Bravaya,  B. R. Brooks,  
 D. Casanova,  Jeng-Da Chai,  S. Coriani,  C. J. Cramer,  
 A. E. DePrince, III,  R. A. DiStasio Jr.,  A. Dreuw,  B. D. Dunietz,  
 T. R. Furlani,  W. A. Goddard III,  S. Grimme,  S. Hammes-Schiffer,  
 T. Head-Gordon,  W. J. Hehre,  Chao-Ping Hsu,  T.-C. Jagau,  Yousung Jung,  
 A. Klamt,  Jing Kong,  D. S. Lambrecht,  WanZhen Liang,  N. J. Mayhall,  
 C. W. McCurdy,  J. B. Neaton,  C. Ochsenfeld,  J. A. Parkhill,  R. Peverati,  
 V. A. Rassolov,  Yihan Shao,  L. V. Slipchenko,  T. Stauch,  R. P. Steele,  
 J. E. Subotnik,  A. J. W. Thom,  A. Tkatchenko,  D. G. Truhlar,  
 T. Van Voorhis,  T. A. Wesolowski,  K. B. Whaley,  H. L. Woodcock III,  
 P. M. Zimmerman,  S. Faraji,  P. M. W. Gill,  M. Head-Gordon,  
 J. M. Herbert,  A. I. Krylov

 Contributors to earlier versions of Q-Chem not listed above: 
 R. D. Adamson,  B. Austin,  R. Baer,  J. Baker,  G. J. O. Beran,  
 K. Brandhorst,  S. T. Brown,  E. F. C. Byrd,  A. K. Chakraborty,  
 G. K. L. Chan,  Chun-Min Chang,  Yunqing Chen,  C.-L. Cheng,  
 Siu Hung Chien,  D. M. Chipman,  D. L. Crittenden,  H. Dachsel,  
 R. J. Doerksen,  A. D. Dutoi,  R. G. Edgar,  J. Fosso-Tande,  
 L. Fusti-Molnar,  D. Ghosh,  A. Ghysels,  A. Golubeva-Zadorozhnaya,  
 J. Gonthier,  M. S. Gordon,  S. R. Gwaltney,  G. Hawkins,  J. E. Herr,  
 A. Heyden,  S. Hirata,  E. G. Hohenstein,  G. Kedziora,  F. J. Keil,  
 C. Kelley,  Jihan Kim,  R. A. King,  R. Z. Khaliullin,  P. P. Korambath,  
 W. Kurlancheek,  A. Laurent,  A. M. Lee,  M. S. Lee,  S. V. Levchenko,  
 Ching Yeh Lin,  D. Liotard,  E. Livshits,  R. C. Lochan,  I. Lotan,  
 L. A. Martinez-Martinez,  P. E. Maslen,  N. Nair,  D. P. O'Neill,  
 D. Neuhauser,  E. Neuscamman,  C. M. Oana,  R. Olivares-Amaya,  R. Olson,  
 T. M. Perrine,  B. Peters,  P. A. Pieniazek,  A. Prociuk,  Y. M. Rhee,  
 J. Ritchie,  M. A. Rohrdanz,  E. Rosta,  N. J. Russ,  H. F. Schaefer III,  
 M. W. Schmidt,  N. E. Schultz,  S. Sharma,  N. Shenvi,  C. D. Sherrill,  
 A. C. Simmonett,  A. Sodt,  T. Stein,  D. Stuck,  K. S. Thanthiriwatte,  
 V. Vanovschi,  L. Vogt,  Tao Wang,  A. Warshel,  M. A. Watson,  
 C. F. Williams,  Q. Wu,  X. Xu,  Jun Yang,  W. Zhang,  Yan Zhao

 Please cite Q-Chem as follows:
 Y. Shao et al., Mol. Phys. 113, 184-215 (2015)
 DOI: 10.1080/00268976.2014.952696

 Q-Chem 5.4.0 for Intel X86 EM64T Linux

 Parts of Q-Chem use Armadillo 9.800.1 (Horizon Scraper).
 http://arma.sourceforge.net/

 Q-Chem begins on Wed Dec 13 16:14:27 2023  

 Host: 
0

     Scratch files written to ./qchem274799//
 May1621 |scratch|qcdevops|jenkins|workspace|build_RNUM    
 Parallel job on  1  processors
 Processing $rem in /cm/shared/apps/spack/cpu/opt/spack/linux-centos8-zen2/gcc-10.2.0/qchem-5.4-akfmr7b3t57bfs6qan3padb2wnb2i7cl/config/preferences:
 Processing $rem in /home/rramji/.qchemrc:
 Symmetry turned off for PCM/SM12/SMD calculation
 Core orbitals will be frozen

 Checking the input file for inconsistencies... 	...done.

 Q-Chem warning in module forms1/BasisType.C, line 2236:

 You are not using the predefined 5D/6D in this basis set.


--------------------------------------------------------------
User input:
--------------------------------------------------------------
$molecule
0 1
C	0.681143	-3.887800	-0.246754
C	-0.620906	-3.701456	0.227093
C	-1.019618	-2.345170	0.371543
H	-1.284357	-4.545233	0.468992
C	0.000000	-1.450135	0.000000
S	1.435522	-2.321334	-0.522097
C	-2.378731	-1.934439	0.866035
H	-3.003272	-2.819799	1.093799
H	-2.924444	-1.326210	0.114688
H	-2.313987	-1.325374	1.791841
H	1.229547	-4.815326	-0.445911
C	0.000000	0.000000	0.000000
C	0.354153	0.766774	1.113020
C	0.937751	2.029404	0.820578
H	0.191350	0.414475	2.142881
C	1.042030	2.254581	-0.563588
S	0.406851	0.881228	-1.464748
C	1.384426	2.995779	1.882380
H	1.196413	2.589194	2.894974
H	0.849641	3.965707	1.808137
H	2.469756	3.216753	1.808230
H	1.443919	3.124243	-1.097114
$end

$rem
JOBTYPE		SP
EXCHANGE	HF
CORRELATION	pRIMP2
BASIS		cc-pvtz
METHOD		rimp2
AUX_BASIS	rimp2-cc-pvtz
SOLVENT_METHOD	PCM
PURECART	11111
SYMMETRY	false
MEM_TOTAL	110000
SCF_CONVERGENCE = 6
THRESH=10
GUI = 2
$end



$solvent
dielectric 4.90
$end
--------------------------------------------------------------
 ----------------------------------------------------------------
             Standard Nuclear Orientation (Angstroms)
    I     Atom           X                Y                Z
 ----------------------------------------------------------------
    1      C       0.6811430000    -3.8878000000    -0.2467540000
    2      C      -0.6209060000    -3.7014560000     0.2270930000
    3      C      -1.0196180000    -2.3451700000     0.3715430000
    4      H      -1.2843570000    -4.5452330000     0.4689920000
    5      C       0.0000000000    -1.4501350000     0.0000000000
    6      S       1.4355220000    -2.3213340000    -0.5220970000
    7      C      -2.3787310000    -1.9344390000     0.8660350000
    8      H      -3.0032720000    -2.8197990000     1.0937990000
    9      H      -2.9244440000    -1.3262100000     0.1146880000
   10      H      -2.3139870000    -1.3253740000     1.7918410000
   11      H       1.2295470000    -4.8153260000    -0.4459110000
   12      C       0.0000000000     0.0000000000     0.0000000000
   13      C       0.3541530000     0.7667740000     1.1130200000
   14      C       0.9377510000     2.0294040000     0.8205780000
   15      H       0.1913500000     0.4144750000     2.1428810000
   16      C       1.0420300000     2.2545810000    -0.5635880000
   17      S       0.4068510000     0.8812280000    -1.4647480000
   18      C       1.3844260000     2.9957790000     1.8823800000
   19      H       1.1964130000     2.5891940000     2.8949740000
   20      H       0.8496410000     3.9657070000     1.8081370000
   21      H       2.4697560000     3.2167530000     1.8082300000
   22      H       1.4439190000     3.1242430000    -1.0971140000
 ----------------------------------------------------------------
 Nuclear Repulsion Energy =         836.71653327 hartrees
 There are       51 alpha and       51 beta electrons
 Requested basis set is cc-pVTZ
 There are 184 shells and 508 basis functions

 Total QAlloc Memory Limit 110000 MB
 Mega-Array Size       188 MB
 MEM_STATIC part       192 MB
 Discretize the solute cavity surface with Lebedev spheres
	Using 110 Lebedev grid points for each H atom
	Using 194 Lebedev grid points for other atoms
	Atomic van der Waals radii will be scaled by 1.20
 Remove points where switching function is < 1.0e-08
 Keep 1568 surface tesserae and discard 1860 interior tesserae
 Molecular Surface Area = 236.486 Angst**2
 Requested basis set is rimp2-cc-pVTZ
 There are 394 shells and 1354 basis functions
 A cutoff of  1.0D-10 yielded  12241 shell pairs
 There are     90701 function pairs (    117031 Cartesian)
 Smallest overlap matrix eigenvalue = 7.35E-05

 Scale SEOQF with 1.000000e-01/1.000000e-01/1.000000e-01

 Standard Electronic Orientation quadrupole field applied
 Nucleus-field energy     =     0.0000000331 hartrees
 Guess from superposition of atomic densities
 Warning:  Energy on first SCF cycle will be non-variational
 SAD guess density has 102.000000 electrons

 -----------------------------------------------------------------------
  General SCF calculation program by
  Eric Jon Sundstrom, Paul Horn, Yuezhi Mao, Dmitri Zuev, Alec White,
  David Stuck, Shaama M.S., Shane Yost, Joonho Lee, David Small,
  Daniel Levine, Susi Lehtola, Hugh Burton, Evgeny Epifanovsky,
  Bang C. Huynh
 -----------------------------------------------------------------------
 Hartree-Fock
 using 64 threads for integral computing
 -------------------------------------------------------
 OpenMP Integral computing Module                
 Release: version 1.0, May 2013, Q-Chem Inc. Pittsburgh 
 -------------------------------------------------------
 A restricted SCF calculation will be
 performed using DIIS
 SCF converges when DIIS error is below 1.0e-06
 ---------------------------------------
  Cycle       Energy         DIIS error
 ---------------------------------------
    1   -1184.1974556644      2.38e-02  
    2   -1179.5363926376      1.59e-03  
    3   -1179.6559327985      6.11e-04  
    4   -1179.6693805225      3.37e-04  
    5   -1179.6741436585      6.68e-05  
    6   -1179.6744243282      3.09e-05  
    7   -1179.6745125107      1.29e-05  
    8   -1179.6745412683      5.31e-06  
    9   -1179.6745463030      1.71e-06  
   10   -1179.6745467691      5.11e-07  Convergence criterion met
 ---------------------------------------
 SCF time:   CPU 1491.56s  wall 45.00s 

************** Final PCM Free Energy Summary **************
 G_electrostatic  =      -0.00807944 hartree =      -5.06992543 kcal/mol
 G_cavitation     =       0.00000000 hartree =       0.00000000 kcal/mol
 G_dispersion     =       0.00000000 hartree =       0.00000000 kcal/mol
 G_repulsion      =       0.00000000 hartree =       0.00000000 kcal/mol
 --------------------------------------------------
 Non-electrostatic Free Energy =       0.00000000 hartree =       0.00000000 kcal/mol
 Total                         =      -0.00807944 hartree =      -5.06992543 kcal/mol
 --------------------------------------------------
 SCF Energy (H0 + V/2)                       =   -1179.67454677 
 Solute Internal Energy (H0)                 =   -1179.66646733 
 Total Free Energy (H0 + V/2 + non-elec)     =   -1179.67454677 hartree
                                             = -740256.95079525 kcal/mol
***********************************************************

 SCF   energy in the final basis set =    -1179.6745467691
 Total energy in the final basis set =    -1179.6745467691


 --------------------------------------------------------------
  Generalized many-body perturbation theory program
  by Joonho Lee, Fazle Rob, Xintian Feng, Evgeny Epifanovsky

 No regularization used 
 (reg. param. = 0.0000e+00)
  (P|Q)^-1/2 Time:  CPU 43.63 s  wall 0.73 s

 In RI-MP2 calculation: 
 # of frozen core orbitals: 20

 Components of the RIMP2 correlation energy:
        aaaa    correlation energy =        -0.2525832566 a.u.
        abab    correlation energy =        -1.4751443507 a.u.
        bbbb    correlation energy =        -0.2525832566 a.u.
        non-Brillouin singles      =        -0.0000000000 a.u.
        total same-spin energy     =        -0.5051665132 a.u.
        total opposite-spin energy =        -1.4751443507 a.u.

 Total  RIMP2   correlation energy =        -1.9803108639 a.u.
        RIMP2         total energy =     -1181.6548576330 a.u.

 RI-MP2 Energy Time:  CPU 180.44 s  wall 3.09 s
 
 --------------------------------------------------------------
 
                    Orbital Energies (a.u.)
 --------------------------------------------------------------
 
 Alpha MOs
 -- Occupied --
-91.9855 -91.9839 -11.2754 -11.2734 -11.2703 -11.2690 -11.2517 -11.2495
-11.2454 -11.2408 -11.2295 -11.2284  -8.9851  -8.9835  -6.6659  -6.6654
 -6.6648  -6.6644  -6.6638  -6.6632  -1.1793  -1.1491  -1.0401  -1.0220
 -0.9963  -0.9543  -0.9120  -0.8926  -0.7997  -0.7509  -0.7325  -0.6943
 -0.6607  -0.6167  -0.5836  -0.5793  -0.5696  -0.5680  -0.5510  -0.5317
 -0.5303  -0.5188  -0.5079  -0.4913  -0.4824  -0.4674  -0.4611  -0.3518
 -0.3368  -0.3263  -0.2938
 -- Virtual --
  0.0797   0.1067   0.1421   0.1501   0.1631   0.1739   0.1759   0.1850
  0.1907   0.1974   0.2046   0.2194   0.2300   0.2318   0.2378   0.2445
  0.2527   0.2735   0.2922   0.3148   0.3363   0.3450   0.3494   0.3654
  0.3768   0.3860   0.3879   0.3952   0.4051   0.4123   0.4233   0.4297
  0.4348   0.4483   0.4684   0.4694   0.4805   0.4829   0.4913   0.5009
  0.5076   0.5145   0.5177   0.5364   0.5402   0.5494   0.5586   0.5615
  0.5733   0.5854   0.5933   0.6001   0.6034   0.6092   0.6155   0.6238
  0.6297   0.6329   0.6407   0.6410   0.6469   0.6535   0.6558   0.6623
  0.6659   0.6878   0.6927   0.7075   0.7159   0.7287   0.7330   0.7493
  0.7602   0.7814   0.8000   0.8062   0.8155   0.8273   0.8347   0.8422
  0.8454   0.8479   0.8745   0.8872   0.8995   0.9195   0.9241   0.9397
  0.9510   0.9665   0.9754   0.9940   1.0091   1.0111   1.0259   1.0373
  1.0417   1.0445   1.0602   1.0627   1.0711   1.0833   1.0898   1.1021
  1.1074   1.1157   1.1301   1.1418   1.1573   1.1796   1.1850   1.1881
  1.2011   1.2128   1.2248   1.2260   1.2416   1.2485   1.2560   1.2687
  1.2709   1.2865   1.2942   1.3288   1.3332   1.3446   1.3494   1.3671
  1.3789   1.3910   1.4062   1.4144   1.4201   1.4386   1.4537   1.4576
  1.4750   1.4808   1.5005   1.5056   1.5105   1.5260   1.5379   1.5504
  1.5555   1.5614   1.5646   1.5750   1.5889   1.5918   1.6009   1.6308
  1.6522   1.6599   1.6795   1.6862   1.6930   1.7067   1.7159   1.7282
  1.7475   1.7486   1.7668   1.7767   1.7960   1.8013   1.8314   1.8466
  1.8764   1.8875   1.8971   1.9198   1.9399   1.9470   1.9684   1.9839
  2.0073   2.0425   2.0733   2.0914   2.1033   2.1348   2.1465   2.1672
  2.1814   2.1916   2.1963   2.2244   2.2315   2.2500   2.2649   2.2752
  2.2927   2.3085   2.3281   2.3974   2.4001   2.4301   2.4330   2.4468
  2.4737   2.4947   2.5079   2.5297   2.5347   2.5615   2.5705   2.5825
  2.6110   2.6278   2.6394   2.6657   2.6714   2.6830   2.7292   2.7305
  2.7393   2.7433   2.7539   2.7582   2.7704   2.7796   2.8091   2.8211
  2.8318   2.8431   2.8491   2.8685   2.8852   2.9015   2.9188   2.9242
  2.9464   2.9641   2.9747   2.9817   2.9953   3.0159   3.0201   3.0361
  3.0392   3.0884   3.0928   3.1034   3.1118   3.1233   3.1252   3.1422
  3.1440   3.1542   3.1668   3.1758   3.1847   3.2073   3.2100   3.2193
  3.2492   3.2518   3.2588   3.2648   3.2773   3.2781   3.2962   3.3172
  3.3210   3.3243   3.3378   3.3445   3.3538   3.3652   3.3681   3.3773
  3.3836   3.4004   3.4027   3.4066   3.4130   3.4161   3.4340   3.4375
  3.4524   3.4589   3.4711   3.4832   3.5001   3.5052   3.5147   3.5159
  3.5292   3.5360   3.5408   3.5495   3.5577   3.5811   3.5927   3.5940
  3.6126   3.6216   3.6275   3.6360   3.6437   3.6482   3.6577   3.6627
  3.6763   3.6815   3.6995   3.7076   3.7219   3.7303   3.7440   3.7551
  3.7604   3.7725   3.7765   3.7951   3.8064   3.8097   3.8198   3.8453
  3.8534   3.8673   3.8732   3.8832   3.9120   3.9219   3.9404   3.9532
  3.9747   3.9775   3.9998   4.0059   4.0190   4.0347   4.0383   4.0470
  4.0783   4.0832   4.0897   4.1065   4.1091   4.1264   4.1306   4.1586
  4.1592   4.1736   4.1857   4.1969   4.1996   4.2103   4.2181   4.2304
  4.2450   4.2586   4.2620   4.2903   4.2934   4.3163   4.3207   4.3278
  4.3417   4.3532   4.3729   4.3834   4.3986   4.4003   4.4084   4.4199
  4.4312   4.4488   4.4653   4.4765   4.4880   4.4967   4.5238   4.5629
  4.5830   4.5924   4.6211   4.6239   4.6291   4.6414   4.6555   4.6761
  4.7004   4.7180   4.7302   4.7396   4.7547   4.7729   4.8279   4.8349
  4.8665   4.8902   4.8982   4.9262   4.9547   4.9698   5.0181   5.0543
  5.0941   5.1051   5.1166   5.1356   5.1589   5.1700   5.1979   5.2068
  5.2636   5.2788   5.2906   5.3006   5.3255   5.3658   5.3956   5.4001
  5.4237   5.4532   5.4648   5.4804   5.5205   5.5256   5.5463   5.5503
  5.5690   5.6000   5.6242   5.6269   5.6356   5.6623   5.6994   5.7140
  5.7716   5.8202   5.9034   5.9336   6.0125   6.0360   6.1175   6.2258
  6.2270   6.2373   6.2722   6.2850   6.3202   6.4051   6.5016   8.8392
  9.8064  11.6898  12.0623  12.9093  12.9447  13.7477  13.9153  14.2099
 14.3063
 --------------------------------------------------------------
 
          Ground-State Mulliken Net Atomic Charges

     Atom                 Charge (a.u.)
  ----------------------------------------
      1 C                    -0.210235
      2 C                    -0.252322
      3 C                     0.054248
      4 H                     0.183723
      5 C                    -0.057931
      6 S                     0.027016
      7 C                    -0.284997
      8 H                     0.107022
      9 H                     0.110630
     10 H                     0.107658
     11 H                     0.203746
     12 C                    -0.024377
     13 C                    -0.208304
     14 C                     0.016719
     15 H                     0.185769
     16 C                    -0.226420
     17 S                     0.021062
     18 C                    -0.270222
     19 H                     0.102763
     20 H                     0.107887
     21 H                     0.107999
     22 H                     0.198566
  ----------------------------------------
  Sum of atomic charges =     0.000000

 -----------------------------------------------------------------
                    Cartesian Multipole Moments
 -----------------------------------------------------------------
    Charge (ESU x 10^10)
                -0.0000
    Dipole Moment (Debye)
         X      -0.4873      Y       0.4748      Z       2.0291
       Tot       2.1401
    Quadrupole Moments (Debye-Ang)
        XX     -85.0404     XY       6.3493     YY     -71.2233
        XZ      -1.5919     YZ       0.1948     ZZ     -85.8103
    Octopole Moments (Debye-Ang^2)
       XXX     -81.5998    XXY      41.6150    XYY      -9.8643
       YYY     108.9984    XXZ      -3.2045    XYZ       6.7842
       YYZ      -6.6326    XZZ     -23.4534    YZZ      62.9160
       ZZZ      -3.2499
    Hexadecapole Moments (Debye-Ang^3)
      XXXX    -793.4015   XXXY    -177.5044   XXYY    -543.6171
      XYYY    -183.1516   YYYY   -2460.6394   XXXZ      43.4681
      XXYZ     -35.1020   XYYZ     -22.4483   YYYZ     -90.4205
      XXZZ    -236.5505   XYZZ     -51.6339   YYZZ    -589.8595
      XZZZ      49.2791   YZZZ     -92.2995   ZZZZ    -601.2357
 -----------------------------------------------------------------
 Total job time:  51.01s(wall), 1761.42s(cpu) 
 Wed Dec 13 16:15:18 2023

        *************************************************************
        *                                                           *
        *  Thank you very much for using Q-Chem.  Have a nice day.  *
        *                                                           *
        *************************************************************


0 sent ACK to 0 
now end server 0 ... 
cleanup process ... done
remove work dirs ./qchem274799.0 -- ./qchem274799.0
rm -rf ./qchem274799.0
rm -rf ./qchem274799
