You are running Q-Chem version: 5.4.0

#
# job setting
#
local host:  exp-2-02
current dir: /home/rramji/project-csd799/aromodel/p3ht-qchem/rotation-run
input file:  Methylthiophene_Phi_20_Theta_50_Methylthiophene.qcin
output file: 
nprocs     : 1
nthreads   : 64
#
# qchem installation setting
#
QC:          /cm/shared/apps/spack/cpu/opt/spack/linux-centos8-zen2/gcc-10.2.0/qchem-5.4-akfmr7b3t57bfs6qan3padb2wnb2i7cl
QCAUX:       /cm/shared/apps/spack/cpu/opt/spack/linux-centos8-zen2/gcc-10.2.0/qchem-5.4-akfmr7b3t57bfs6qan3padb2wnb2i7cl/qcaux
QCPROG:      /cm/shared/apps/spack/cpu/opt/spack/linux-centos8-zen2/gcc-10.2.0/qchem-5.4-akfmr7b3t57bfs6qan3padb2wnb2i7cl/exe/qcprog.exe
QCPROG_S:    /cm/shared/apps/spack/cpu/opt/spack/linux-centos8-zen2/gcc-10.2.0/qchem-5.4-akfmr7b3t57bfs6qan3padb2wnb2i7cl/exe/qcprog.exe_s
PARALLEL:    -DPARALLEL
QCMPI:       mpich
#
# qchem directory setting
#
qcrun:       qchem1715586
QCSCRATCH:   .
QCLOCALSCR:  
QCTMPDIR:    .
QCFILEPREF:  ./qchem1715586
QCSAVEDIR:   
workdirs:    ./qchem1715586
workdir0:    ./qchem1715586
partmpdirs =  
#
# parallel setting
#
QCRSH:           ssh
QCMPI:           mpich
QCMPIRUN:        /cm/shared/apps/spack/cpu/opt/spack/linux-centos8-zen2/gcc-10.2.0/qchem-5.4-akfmr7b3t57bfs6qan3padb2wnb2i7cl/bin/mpi/mpirun_qchem
QCMACHINEFILE:   ./qchem1715586/hostfile
exp-2-02

#
# env setting
#
exported envs:   QC QCAUX QCSCRATCH QCRUNNAME QCFILEPREF QCPROG QCPROG_S GUIFILE

Running Job 1 of 1 Methylthiophene_Phi_20_Theta_50_Methylthiophene.qcin
qchem Methylthiophene_Phi_20_Theta_50_Methylthiophene.qcin_1715586.0 ./qchem1715586/ 1
/cm/shared/apps/spack/cpu/opt/spack/linux-centos8-zen2/gcc-10.2.0/qchem-5.4-akfmr7b3t57bfs6qan3padb2wnb2i7cl/bin/mpi/mpirun_qchem -machinefile ./qchem1715586/hostfile -np 1 /cm/shared/apps/spack/cpu/opt/spack/linux-centos8-zen2/gcc-10.2.0/qchem-5.4-akfmr7b3t57bfs6qan3padb2wnb2i7cl/exe/qcprog.exe Methylthiophene_Phi_20_Theta_50_Methylthiophene.qcin_1715586.0 ./qchem1715586/

Process 0 of 1 is on exp-2-02 - thread support 0
initial socket setup ...start
initial socket setup ...done 
now start server 0 ... 
                  Welcome to Q-Chem
     A Quantum Leap Into The Future Of Chemistry


 Q-Chem 5.4, Q-Chem, Inc., Pleasanton, CA (2021)

 License issued to: University of California, San Diego (site)

 E. Epifanovsky,  A. T. B. Gilbert,  Xintian Feng,  Joonho Lee,  Yuezhi Mao,  
 N. Mardirossian,  P. Pokhilko,  A. White,  M. Wormit,  M. P. Coons,  
 A. L. Dempwolff,  Zhengting Gan,  D. Hait,  P. R. Horn,  L. D. Jacobson,  
 I. Kaliman,  J. Kussmann,  A. W. Lange,  Ka Un Lao,  D. S. Levine,  Jie Liu,  
 S. C. McKenzie,  A. F. Morrison,  K. Nanda,  F. Plasser,  D. R. Rehn,  
 M. L. Vidal,  Zhi-Qiang You,  Ying Zhu,  B. Alam,  B. Albrecht,  
 A. Aldossary,  E. Alguire,  J. H. Andersen,  D. Barton,  K. Begam,  A. Behn,  
 Y. A. Bernard,  E. J. Berquist,  H. Burton,  A. Carreras,  K. Carter-Fenk,  
 R. Chakraborty,  A. D. Chien,  K. D. Closser,  V. Cofer-Shabica,  
 S. Dasgupta,  Jia Deng,  M. de Wergifosse,  M. Diedenhofen,  Hainam Do,  
 S. Ehlert,  Po-Tung Fang,  S. Fatehi,  Qingguo Feng,  J. Gayvert,  
 Qinghui Ge,  G. Gidofalvi,  M. Goldey,  J. Gomes,  C. Gonzalez-Espinoza,  
 S. Gulania,  A. Gunina,  M. W. D. Hanson-Heine,  P. H. P. Harbach,  
 A. W. Hauser,  M. F. Herbst,  M. Hernandez Vera,  M. Hodecker,  
 Z. C. Holden,  S. Houck,  Xunkun Huang,  Kerwin Hui,  B. C. Huynh,  
 M. Ivanov,  Hyunjun Ji,  Hanjie Jiang,  B. Kaduk,  S. Kaehler,  
 K. Khistyaev,  Jaehoon Kim,  P. Klunzinger,  Z. Koczor-Benda,  
 Joong Hoon Koh,  D. Kosenkov,  L. Koulias,  T. Kowalczyk,  C. M. Krauter,  
 K. Kue,  A. Kunitsa,  T. Kus,  A. Landau,  K. V. Lawler,  D. Lefrancois,  
 S. Lehtola,  Rain Li,  Yi-Pei Li,  Jiashu Liang,  M. Liebenthal,  
 Hung-Hsuan Lin,  You-Sheng Lin,  Fenglai Liu,  Kuan-Yu Liu,  
 M. Loipersberger,  A. Luenser,  A. Manjanath,  P. Manohar,  E. Mansoor,  
 S. F. Manzer,  Shan-Ping Mao,  A. V. Marenich,  T. Markovich,  S. Mason,  
 S. A. Maurer,  P. F. McLaughlin,  M. F. S. J. Menger,  J.-M. Mewes,  
 S. A. Mewes,  P. Morgante,  J. W. Mullinax,  T. S. Nguyen-Beck,  
 K. J. Oosterbaan,  G. Paran,  Alexander C. Paul,  Suranjan K. Paul,  
 F. Pavosevic,  Zheng Pei,  S. Prager,  E. I. Proynov,  E. Ramos,  B. Rana,  
 A. E. Rask,  A. Rettig,  R. M. Richard,  F. Rob,  E. Rossomme,  T. Scheele,  
 M. Scheurer,  M. Schneider,  N. Sergueev,  S. M. Sharada,  W. Skomorowski,  
 D. W. Small,  C. J. Stein,  Yu-Chuan Su,  E. J. Sundstrom,  Zhen Tao,  
 J. Thirman,  T. Tsuchimochi,  N. M. Tubman,  S. P. Veccham,  O. Vydrov,  
 J. Wenzel,  J. Witte,  A. Yamada,  Kun Yao,  S. Yeganeh,  S. R. Yost,  
 A. Zech,  Igor Ying Zhang,  Xing Zhang,  Yu Zhang,  D. Zuev,  
 A. Aspuru-Guzik,  A. T. Bell,  N. A. Besley,  K. B. Bravaya,  B. R. Brooks,  
 D. Casanova,  Jeng-Da Chai,  S. Coriani,  C. J. Cramer,  
 A. E. DePrince, III,  R. A. DiStasio Jr.,  A. Dreuw,  B. D. Dunietz,  
 T. R. Furlani,  W. A. Goddard III,  S. Grimme,  S. Hammes-Schiffer,  
 T. Head-Gordon,  W. J. Hehre,  Chao-Ping Hsu,  T.-C. Jagau,  Yousung Jung,  
 A. Klamt,  Jing Kong,  D. S. Lambrecht,  WanZhen Liang,  N. J. Mayhall,  
 C. W. McCurdy,  J. B. Neaton,  C. Ochsenfeld,  J. A. Parkhill,  R. Peverati,  
 V. A. Rassolov,  Yihan Shao,  L. V. Slipchenko,  T. Stauch,  R. P. Steele,  
 J. E. Subotnik,  A. J. W. Thom,  A. Tkatchenko,  D. G. Truhlar,  
 T. Van Voorhis,  T. A. Wesolowski,  K. B. Whaley,  H. L. Woodcock III,  
 P. M. Zimmerman,  S. Faraji,  P. M. W. Gill,  M. Head-Gordon,  
 J. M. Herbert,  A. I. Krylov

 Contributors to earlier versions of Q-Chem not listed above: 
 R. D. Adamson,  B. Austin,  R. Baer,  J. Baker,  G. J. O. Beran,  
 K. Brandhorst,  S. T. Brown,  E. F. C. Byrd,  A. K. Chakraborty,  
 G. K. L. Chan,  Chun-Min Chang,  Yunqing Chen,  C.-L. Cheng,  
 Siu Hung Chien,  D. M. Chipman,  D. L. Crittenden,  H. Dachsel,  
 R. J. Doerksen,  A. D. Dutoi,  R. G. Edgar,  J. Fosso-Tande,  
 L. Fusti-Molnar,  D. Ghosh,  A. Ghysels,  A. Golubeva-Zadorozhnaya,  
 J. Gonthier,  M. S. Gordon,  S. R. Gwaltney,  G. Hawkins,  J. E. Herr,  
 A. Heyden,  S. Hirata,  E. G. Hohenstein,  G. Kedziora,  F. J. Keil,  
 C. Kelley,  Jihan Kim,  R. A. King,  R. Z. Khaliullin,  P. P. Korambath,  
 W. Kurlancheek,  A. Laurent,  A. M. Lee,  M. S. Lee,  S. V. Levchenko,  
 Ching Yeh Lin,  D. Liotard,  E. Livshits,  R. C. Lochan,  I. Lotan,  
 L. A. Martinez-Martinez,  P. E. Maslen,  N. Nair,  D. P. O'Neill,  
 D. Neuhauser,  E. Neuscamman,  C. M. Oana,  R. Olivares-Amaya,  R. Olson,  
 T. M. Perrine,  B. Peters,  P. A. Pieniazek,  A. Prociuk,  Y. M. Rhee,  
 J. Ritchie,  M. A. Rohrdanz,  E. Rosta,  N. J. Russ,  H. F. Schaefer III,  
 M. W. Schmidt,  N. E. Schultz,  S. Sharma,  N. Shenvi,  C. D. Sherrill,  
 A. C. Simmonett,  A. Sodt,  T. Stein,  D. Stuck,  K. S. Thanthiriwatte,  
 V. Vanovschi,  L. Vogt,  Tao Wang,  A. Warshel,  M. A. Watson,  
 C. F. Williams,  Q. Wu,  X. Xu,  Jun Yang,  W. Zhang,  Yan Zhao

 Please cite Q-Chem as follows:
 Y. Shao et al., Mol. Phys. 113, 184-215 (2015)
 DOI: 10.1080/00268976.2014.952696

 Q-Chem 5.4.0 for Intel X86 EM64T Linux

 Parts of Q-Chem use Armadillo 9.800.1 (Horizon Scraper).
 http://arma.sourceforge.net/

 Q-Chem begins on Wed Dec 13 15:55:07 2023  

 Host: 
0

     Scratch files written to ./qchem1715586//
 May1621 |scratch|qcdevops|jenkins|workspace|build_RNUM    
 Parallel job on  1  processors
 Processing $rem in /cm/shared/apps/spack/cpu/opt/spack/linux-centos8-zen2/gcc-10.2.0/qchem-5.4-akfmr7b3t57bfs6qan3padb2wnb2i7cl/config/preferences:
 Processing $rem in /home/rramji/.qchemrc:
 Symmetry turned off for PCM/SM12/SMD calculation
 Core orbitals will be frozen

 Checking the input file for inconsistencies... 	...done.

 Q-Chem warning in module forms1/BasisType.C, line 2236:

 You are not using the predefined 5D/6D in this basis set.


--------------------------------------------------------------
User input:
--------------------------------------------------------------
$molecule
0 1
C	-0.555670	-3.887800	0.464838
C	0.505790	-3.701456	-0.425760
C	0.831053	-2.345170	-0.697866
H	1.046496	-4.545233	-0.879984
C	0.000000	-1.450135	0.000000
S	-1.170382	-2.321334	0.981588
C	1.939074	-1.934439	-1.627381
H	2.448051	-2.819799	-2.055015
H	2.708853	-1.326210	-1.107991
H	1.561590	-1.325374	-2.475210
H	-1.002886	-4.815326	0.839549
C	0.000000	0.000000	0.000000
C	0.285976	0.794723	1.113020
C	0.757308	2.103412	0.820578
H	0.154498	0.429575	2.142881
C	0.841565	2.336821	-0.563588
S	0.328498	0.913334	-1.464748
C	1.118059	3.105040	1.882380
H	0.966197	2.683616	2.894974
H	0.500773	4.024668	1.808137
H	2.180000	3.419766	1.808230
H	1.166129	3.238200	-1.097114
$end

$rem
JOBTYPE		SP
EXCHANGE	HF
CORRELATION	pRIMP2
BASIS		cc-pvtz
METHOD		rimp2
AUX_BASIS	rimp2-cc-pvtz
SOLVENT_METHOD	PCM
PURECART	11111
SYMMETRY	false
MEM_TOTAL	110000
SCF_CONVERGENCE = 6
THRESH=10
GUI = 2
$end



$solvent
dielectric 4.90
$end
--------------------------------------------------------------
 ----------------------------------------------------------------
             Standard Nuclear Orientation (Angstroms)
    I     Atom           X                Y                Z
 ----------------------------------------------------------------
    1      C      -0.5556700000    -3.8878000000     0.4648380000
    2      C       0.5057900000    -3.7014560000    -0.4257600000
    3      C       0.8310530000    -2.3451700000    -0.6978660000
    4      H       1.0464960000    -4.5452330000    -0.8799840000
    5      C       0.0000000000    -1.4501350000     0.0000000000
    6      S      -1.1703820000    -2.3213340000     0.9815880000
    7      C       1.9390740000    -1.9344390000    -1.6273810000
    8      H       2.4480510000    -2.8197990000    -2.0550150000
    9      H       2.7088530000    -1.3262100000    -1.1079910000
   10      H       1.5615900000    -1.3253740000    -2.4752100000
   11      H      -1.0028860000    -4.8153260000     0.8395490000
   12      C       0.0000000000     0.0000000000     0.0000000000
   13      C       0.2859760000     0.7947230000     1.1130200000
   14      C       0.7573080000     2.1034120000     0.8205780000
   15      H       0.1544980000     0.4295750000     2.1428810000
   16      C       0.8415650000     2.3368210000    -0.5635880000
   17      S       0.3284980000     0.9133340000    -1.4647480000
   18      C       1.1180590000     3.1050400000     1.8823800000
   19      H       0.9661970000     2.6836160000     2.8949740000
   20      H       0.5007730000     4.0246680000     1.8081370000
   21      H       2.1800000000     3.4197660000     1.8082300000
   22      H       1.1661290000     3.2382000000    -1.0971140000
 ----------------------------------------------------------------
 Nuclear Repulsion Energy =         837.65194319 hartrees
 There are       51 alpha and       51 beta electrons
 Requested basis set is cc-pVTZ
 There are 184 shells and 508 basis functions

 Total QAlloc Memory Limit 110000 MB
 Mega-Array Size       188 MB
 MEM_STATIC part       192 MB
 Discretize the solute cavity surface with Lebedev spheres
	Using 110 Lebedev grid points for each H atom
	Using 194 Lebedev grid points for other atoms
	Atomic van der Waals radii will be scaled by 1.20
 Remove points where switching function is < 1.0e-08
 Keep 1534 surface tesserae and discard 1894 interior tesserae
 Molecular Surface Area = 232.140 Angst**2
 Requested basis set is rimp2-cc-pVTZ
 There are 394 shells and 1354 basis functions
 A cutoff of  1.0D-10 yielded  12359 shell pairs
 There are     91705 function pairs (    118362 Cartesian)
 Smallest overlap matrix eigenvalue = 6.01E-05

 Scale SEOQF with 1.000000e-01/1.000000e-01/1.000000e-01

 Standard Electronic Orientation quadrupole field applied
 Nucleus-field energy     =     0.0000000286 hartrees
 Guess from superposition of atomic densities
 Warning:  Energy on first SCF cycle will be non-variational
 SAD guess density has 102.000000 electrons

 -----------------------------------------------------------------------
  General SCF calculation program by
  Eric Jon Sundstrom, Paul Horn, Yuezhi Mao, Dmitri Zuev, Alec White,
  David Stuck, Shaama M.S., Shane Yost, Joonho Lee, David Small,
  Daniel Levine, Susi Lehtola, Hugh Burton, Evgeny Epifanovsky,
  Bang C. Huynh
 -----------------------------------------------------------------------
 Hartree-Fock
 using 64 threads for integral computing
 -------------------------------------------------------
 OpenMP Integral computing Module                
 Release: version 1.0, May 2013, Q-Chem Inc. Pittsburgh 
 -------------------------------------------------------
 A restricted SCF calculation will be
 performed using DIIS
 SCF converges when DIIS error is below 1.0e-06
 ---------------------------------------
  Cycle       Energy         DIIS error
 ---------------------------------------
    1   -1184.2147096623      2.38e-02  
    2   -1179.5377015829      1.60e-03  
    3   -1179.6581397368      6.10e-04  
    4   -1179.6716831169      3.34e-04  
    5   -1179.6763742885      6.64e-05  
    6   -1179.6766569356      3.06e-05  
    7   -1179.6767445062      1.28e-05  
    8   -1179.6767726392      5.22e-06  
    9   -1179.6767776155      1.69e-06  
   10   -1179.6767780535      5.09e-07  Convergence criterion met
 ---------------------------------------
 SCF time:   CPU 1488.71s  wall 45.00s 

************** Final PCM Free Energy Summary **************
 G_electrostatic  =      -0.00753779 hartree =      -4.73003696 kcal/mol
 G_cavitation     =       0.00000000 hartree =       0.00000000 kcal/mol
 G_dispersion     =       0.00000000 hartree =       0.00000000 kcal/mol
 G_repulsion      =       0.00000000 hartree =       0.00000000 kcal/mol
 --------------------------------------------------
 Non-electrostatic Free Energy =       0.00000000 hartree =       0.00000000 kcal/mol
 Total                         =      -0.00753779 hartree =      -4.73003696 kcal/mol
 --------------------------------------------------
 SCF Energy (H0 + V/2)                       =   -1179.67677805 
 Solute Internal Energy (H0)                 =   -1179.66924026 
 Total Free Energy (H0 + V/2 + non-elec)     =   -1179.67677805 hartree
                                             = -740258.35094736 kcal/mol
***********************************************************

 SCF   energy in the final basis set =    -1179.6767780535
 Total energy in the final basis set =    -1179.6767780535


 --------------------------------------------------------------
  Generalized many-body perturbation theory program
  by Joonho Lee, Fazle Rob, Xintian Feng, Evgeny Epifanovsky

 No regularization used 
 (reg. param. = 0.0000e+00)
  (P|Q)^-1/2 Time:  CPU 25.98 s  wall 0.42 s

 In RI-MP2 calculation: 
 # of frozen core orbitals: 20

 Components of the RIMP2 correlation energy:
        aaaa    correlation energy =        -0.2530361145 a.u.
        abab    correlation energy =        -1.4755357104 a.u.
        bbbb    correlation energy =        -0.2530361145 a.u.
        non-Brillouin singles      =        -0.0000000000 a.u.
        total same-spin energy     =        -0.5060722290 a.u.
        total opposite-spin energy =        -1.4755357104 a.u.

 Total  RIMP2   correlation energy =        -1.9816079394 a.u.
        RIMP2         total energy =     -1181.6583859929 a.u.

 RI-MP2 Energy Time:  CPU 158.60 s  wall 3.29 s
 
 --------------------------------------------------------------
 
                    Orbital Energies (a.u.)
 --------------------------------------------------------------
 
 Alpha MOs
 -- Occupied --
-91.9848 -91.9843 -11.2789 -11.2765 -11.2702 -11.2673 -11.2516 -11.2504
-11.2439 -11.2422 -11.2294 -11.2266  -8.9845  -8.9839  -6.6654  -6.6649
 -6.6648  -6.6643  -6.6643  -6.6637  -1.1796  -1.1493  -1.0407  -1.0216
 -0.9980  -0.9533  -0.9127  -0.8933  -0.7982  -0.7595  -0.7251  -0.6951
 -0.6607  -0.6166  -0.5822  -0.5781  -0.5750  -0.5697  -0.5511  -0.5319
 -0.5271  -0.5192  -0.5105  -0.4945  -0.4833  -0.4659  -0.4567  -0.3545
 -0.3417  -0.3351  -0.2813
 -- Virtual --
  0.0727   0.1235   0.1429   0.1532   0.1612   0.1731   0.1768   0.1866
  0.1925   0.1970   0.2016   0.2120   0.2301   0.2407   0.2414   0.2457
  0.2579   0.2685   0.2978   0.3118   0.3410   0.3481   0.3579   0.3635
  0.3668   0.3862   0.3990   0.4049   0.4073   0.4218   0.4309   0.4415
  0.4505   0.4571   0.4687   0.4719   0.4750   0.4921   0.4993   0.5047
  0.5142   0.5145   0.5286   0.5398   0.5410   0.5522   0.5539   0.5658
  0.5733   0.5787   0.5856   0.5934   0.6073   0.6131   0.6171   0.6197
  0.6288   0.6356   0.6377   0.6420   0.6474   0.6557   0.6623   0.6702
  0.6789   0.6819   0.6965   0.7059   0.7137   0.7268   0.7358   0.7575
  0.7622   0.7799   0.7881   0.8007   0.8126   0.8270   0.8337   0.8445
  0.8537   0.8611   0.8769   0.8785   0.9034   0.9112   0.9224   0.9447
  0.9506   0.9690   0.9842   1.0048   1.0082   1.0169   1.0256   1.0290
  1.0470   1.0494   1.0605   1.0699   1.0751   1.0796   1.0976   1.1021
  1.1054   1.1273   1.1320   1.1418   1.1602   1.1649   1.1697   1.1903
  1.2114   1.2214   1.2245   1.2308   1.2452   1.2546   1.2599   1.2614
  1.2799   1.2928   1.3002   1.3092   1.3278   1.3359   1.3504   1.3663
  1.3714   1.3824   1.4014   1.4171   1.4262   1.4352   1.4533   1.4721
  1.4854   1.4913   1.4980   1.5059   1.5180   1.5337   1.5360   1.5438
  1.5555   1.5593   1.5678   1.5735   1.5808   1.5839   1.6244   1.6283
  1.6501   1.6599   1.6693   1.6843   1.6948   1.7016   1.7054   1.7361
  1.7504   1.7624   1.7709   1.7881   1.8100   1.8189   1.8253   1.8445
  1.8836   1.8984   1.9104   1.9283   1.9412   1.9682   1.9737   1.9929
  2.0114   2.0405   2.0651   2.0868   2.1097   2.1293   2.1500   2.1727
  2.1867   2.1909   2.2052   2.2366   2.2462   2.2613   2.2676   2.2806
  2.3011   2.3324   2.3394   2.3688   2.3791   2.4149   2.4278   2.4618
  2.4666   2.4994   2.5048   2.5206   2.5462   2.5663   2.5800   2.6145
  2.6230   2.6411   2.6637   2.6695   2.6838   2.6949   2.7220   2.7254
  2.7398   2.7509   2.7532   2.7643   2.7710   2.7764   2.7833   2.7971
  2.8211   2.8248   2.8435   2.8601   2.8905   2.8942   2.9259   2.9347
  2.9531   2.9544   2.9746   2.9980   3.0042   3.0117   3.0186   3.0313
  3.0403   3.0853   3.0897   3.1093   3.1153   3.1234   3.1273   3.1440
  3.1471   3.1567   3.1594   3.1764   3.1927   3.2027   3.2094   3.2259
  3.2326   3.2378   3.2536   3.2698   3.2776   3.2857   3.2993   3.3062
  3.3144   3.3307   3.3348   3.3443   3.3525   3.3647   3.3682   3.3796
  3.3851   3.3930   3.4054   3.4157   3.4201   3.4315   3.4410   3.4461
  3.4549   3.4626   3.4725   3.4816   3.4900   3.5006   3.5085   3.5165
  3.5185   3.5322   3.5431   3.5447   3.5594   3.5681   3.5882   3.5968
  3.6052   3.6138   3.6231   3.6265   3.6339   3.6500   3.6523   3.6636
  3.6742   3.6893   3.6995   3.7153   3.7278   3.7337   3.7409   3.7517
  3.7685   3.7747   3.7896   3.7963   3.7994   3.8160   3.8295   3.8369
  3.8556   3.8727   3.8829   3.8908   3.9119   3.9355   3.9439   3.9563
  3.9659   3.9718   3.9883   4.0115   4.0148   4.0262   4.0404   4.0493
  4.0663   4.0728   4.0907   4.1020   4.1115   4.1187   4.1385   4.1524
  4.1616   4.1805   4.1911   4.1967   4.2056   4.2117   4.2195   4.2318
  4.2539   4.2662   4.2834   4.2909   4.3061   4.3142   4.3264   4.3306
  4.3434   4.3595   4.3682   4.3744   4.3944   4.4011   4.4121   4.4297
  4.4442   4.4525   4.4641   4.4787   4.4839   4.4980   4.5260   4.5654
  4.5845   4.6048   4.6208   4.6268   4.6389   4.6408   4.6518   4.6676
  4.6990   4.7175   4.7327   4.7479   4.7619   4.7837   4.8076   4.8442
  4.8804   4.8943   4.8985   4.9185   4.9359   4.9808   4.9955   5.0555
  5.0819   5.1022   5.1122   5.1463   5.1702   5.1941   5.2006   5.2292
  5.2705   5.2773   5.2892   5.3073   5.3223   5.3615   5.3972   5.4009
  5.4154   5.4435   5.4614   5.4893   5.5193   5.5297   5.5478   5.5628
  5.5724   5.6082   5.6198   5.6304   5.6385   5.6541   5.6975   5.7128
  5.7799   5.8271   5.9269   5.9697   6.0133   6.1068   6.1527   6.2256
  6.2392   6.2431   6.2779   6.2997   6.3320   6.4069   6.5182   8.7285
  9.7835  11.5907  12.0035  12.9079  13.1386  13.7430  13.9299  14.2101
 14.3500
 --------------------------------------------------------------
 
          Ground-State Mulliken Net Atomic Charges

     Atom                 Charge (a.u.)
  ----------------------------------------
      1 C                    -0.216149
      2 C                    -0.252252
      3 C                     0.048296
      4 H                     0.185214
      5 C                    -0.030910
      6 S                     0.020110
      7 C                    -0.295086
      8 H                     0.108777
      9 H                     0.117022
     10 H                     0.113204
     11 H                     0.203953
     12 C                    -0.022235
     13 C                    -0.221941
     14 C                     0.015678
     15 H                     0.187056
     16 C                    -0.229439
     17 S                     0.020694
     18 C                    -0.269771
     19 H                     0.103061
     20 H                     0.108216
     21 H                     0.107687
     22 H                     0.198815
  ----------------------------------------
  Sum of atomic charges =     0.000000

 -----------------------------------------------------------------
                    Cartesian Multipole Moments
 -----------------------------------------------------------------
    Charge (ESU x 10^10)
                -0.0000
    Dipole Moment (Debye)
         X       1.8791      Y       0.4534      Z       0.4502
       Tot       1.9847
    Quadrupole Moments (Debye-Ang)
        XX     -87.7138     XY       1.8864     YY     -70.7799
        XZ      -2.9044     YZ       2.4699     ZZ     -83.7996
    Octopole Moments (Debye-Ang^2)
       XXX     -78.3198    XXY      44.2167    XYY     -16.1801
       YYY     104.6773    XXZ      -2.0408    XYZ      10.9716
       YYZ      -0.9958    XZZ     -22.2944    YZZ      53.7020
       ZZZ       4.6411
    Hexadecapole Moments (Debye-Ang^3)
      XXXX    -574.1867   XXXY    -159.9413   XXYY    -553.3625
      XYYY     -95.6109   YYYY   -2507.7330   XXXZ     101.0601
      XXYZ     -29.7920   XYYZ     -19.6799   YYYZ    -128.9070
      XXZZ    -224.0491   XYZZ     -46.2586   YYZZ    -596.6793
      XZZZ     101.8909   YZZZ     -94.3652   ZZZZ    -767.2744
 -----------------------------------------------------------------
 Total job time:  51.03s(wall), 1705.36s(cpu) 
 Wed Dec 13 15:55:58 2023

        *************************************************************
        *                                                           *
        *  Thank you very much for using Q-Chem.  Have a nice day.  *
        *                                                           *
        *************************************************************


0 sent ACK to 0 
now end server 0 ... 
cleanup process ... done
remove work dirs ./qchem1715586.0 -- ./qchem1715586.0
rm -rf ./qchem1715586.0
rm -rf ./qchem1715586
