You are running Q-Chem version: 5.4.0

#
# job setting
#
local host:  exp-2-34
current dir: /home/rramji/project-csd799/aromodel/p3ht-qchem/rotation-run
input file:  Methylthiophene_Phi_25_Theta_270_Methylthiophene.qcin
output file: 
nprocs     : 1
nthreads   : 64
#
# qchem installation setting
#
QC:          /cm/shared/apps/spack/cpu/opt/spack/linux-centos8-zen2/gcc-10.2.0/qchem-5.4-akfmr7b3t57bfs6qan3padb2wnb2i7cl
QCAUX:       /cm/shared/apps/spack/cpu/opt/spack/linux-centos8-zen2/gcc-10.2.0/qchem-5.4-akfmr7b3t57bfs6qan3padb2wnb2i7cl/qcaux
QCPROG:      /cm/shared/apps/spack/cpu/opt/spack/linux-centos8-zen2/gcc-10.2.0/qchem-5.4-akfmr7b3t57bfs6qan3padb2wnb2i7cl/exe/qcprog.exe
QCPROG_S:    /cm/shared/apps/spack/cpu/opt/spack/linux-centos8-zen2/gcc-10.2.0/qchem-5.4-akfmr7b3t57bfs6qan3padb2wnb2i7cl/exe/qcprog.exe_s
PARALLEL:    -DPARALLEL
QCMPI:       mpich
#
# qchem directory setting
#
qcrun:       qchem275709
QCSCRATCH:   .
QCLOCALSCR:  
QCTMPDIR:    .
QCFILEPREF:  ./qchem275709
QCSAVEDIR:   
workdirs:    ./qchem275709
workdir0:    ./qchem275709
partmpdirs =  
#
# parallel setting
#
QCRSH:           ssh
QCMPI:           mpich
QCMPIRUN:        /cm/shared/apps/spack/cpu/opt/spack/linux-centos8-zen2/gcc-10.2.0/qchem-5.4-akfmr7b3t57bfs6qan3padb2wnb2i7cl/bin/mpi/mpirun_qchem
QCMACHINEFILE:   ./qchem275709/hostfile
exp-2-34

#
# env setting
#
exported envs:   QC QCAUX QCSCRATCH QCRUNNAME QCFILEPREF QCPROG QCPROG_S GUIFILE

Running Job 1 of 1 Methylthiophene_Phi_25_Theta_270_Methylthiophene.qcin
qchem Methylthiophene_Phi_25_Theta_270_Methylthiophene.qcin_275709.0 ./qchem275709/ 1
/cm/shared/apps/spack/cpu/opt/spack/linux-centos8-zen2/gcc-10.2.0/qchem-5.4-akfmr7b3t57bfs6qan3padb2wnb2i7cl/bin/mpi/mpirun_qchem -machinefile ./qchem275709/hostfile -np 1 /cm/shared/apps/spack/cpu/opt/spack/linux-centos8-zen2/gcc-10.2.0/qchem-5.4-akfmr7b3t57bfs6qan3padb2wnb2i7cl/exe/qcprog.exe Methylthiophene_Phi_25_Theta_270_Methylthiophene.qcin_275709.0 ./qchem275709/

Process 0 of 1 is on exp-2-34 - thread support 0
initial socket setup ...start
initial socket setup ...done 
now start server 0 ... 
                  Welcome to Q-Chem
     A Quantum Leap Into The Future Of Chemistry


 Q-Chem 5.4, Q-Chem, Inc., Pleasanton, CA (2021)

 License issued to: University of California, San Diego (site)

 E. Epifanovsky,  A. T. B. Gilbert,  Xintian Feng,  Joonho Lee,  Yuezhi Mao,  
 N. Mardirossian,  P. Pokhilko,  A. White,  M. Wormit,  M. P. Coons,  
 A. L. Dempwolff,  Zhengting Gan,  D. Hait,  P. R. Horn,  L. D. Jacobson,  
 I. Kaliman,  J. Kussmann,  A. W. Lange,  Ka Un Lao,  D. S. Levine,  Jie Liu,  
 S. C. McKenzie,  A. F. Morrison,  K. Nanda,  F. Plasser,  D. R. Rehn,  
 M. L. Vidal,  Zhi-Qiang You,  Ying Zhu,  B. Alam,  B. Albrecht,  
 A. Aldossary,  E. Alguire,  J. H. Andersen,  D. Barton,  K. Begam,  A. Behn,  
 Y. A. Bernard,  E. J. Berquist,  H. Burton,  A. Carreras,  K. Carter-Fenk,  
 R. Chakraborty,  A. D. Chien,  K. D. Closser,  V. Cofer-Shabica,  
 S. Dasgupta,  Jia Deng,  M. de Wergifosse,  M. Diedenhofen,  Hainam Do,  
 S. Ehlert,  Po-Tung Fang,  S. Fatehi,  Qingguo Feng,  J. Gayvert,  
 Qinghui Ge,  G. Gidofalvi,  M. Goldey,  J. Gomes,  C. Gonzalez-Espinoza,  
 S. Gulania,  A. Gunina,  M. W. D. Hanson-Heine,  P. H. P. Harbach,  
 A. W. Hauser,  M. F. Herbst,  M. Hernandez Vera,  M. Hodecker,  
 Z. C. Holden,  S. Houck,  Xunkun Huang,  Kerwin Hui,  B. C. Huynh,  
 M. Ivanov,  Hyunjun Ji,  Hanjie Jiang,  B. Kaduk,  S. Kaehler,  
 K. Khistyaev,  Jaehoon Kim,  P. Klunzinger,  Z. Koczor-Benda,  
 Joong Hoon Koh,  D. Kosenkov,  L. Koulias,  T. Kowalczyk,  C. M. Krauter,  
 K. Kue,  A. Kunitsa,  T. Kus,  A. Landau,  K. V. Lawler,  D. Lefrancois,  
 S. Lehtola,  Rain Li,  Yi-Pei Li,  Jiashu Liang,  M. Liebenthal,  
 Hung-Hsuan Lin,  You-Sheng Lin,  Fenglai Liu,  Kuan-Yu Liu,  
 M. Loipersberger,  A. Luenser,  A. Manjanath,  P. Manohar,  E. Mansoor,  
 S. F. Manzer,  Shan-Ping Mao,  A. V. Marenich,  T. Markovich,  S. Mason,  
 S. A. Maurer,  P. F. McLaughlin,  M. F. S. J. Menger,  J.-M. Mewes,  
 S. A. Mewes,  P. Morgante,  J. W. Mullinax,  T. S. Nguyen-Beck,  
 K. J. Oosterbaan,  G. Paran,  Alexander C. Paul,  Suranjan K. Paul,  
 F. Pavosevic,  Zheng Pei,  S. Prager,  E. I. Proynov,  E. Ramos,  B. Rana,  
 A. E. Rask,  A. Rettig,  R. M. Richard,  F. Rob,  E. Rossomme,  T. Scheele,  
 M. Scheurer,  M. Schneider,  N. Sergueev,  S. M. Sharada,  W. Skomorowski,  
 D. W. Small,  C. J. Stein,  Yu-Chuan Su,  E. J. Sundstrom,  Zhen Tao,  
 J. Thirman,  T. Tsuchimochi,  N. M. Tubman,  S. P. Veccham,  O. Vydrov,  
 J. Wenzel,  J. Witte,  A. Yamada,  Kun Yao,  S. Yeganeh,  S. R. Yost,  
 A. Zech,  Igor Ying Zhang,  Xing Zhang,  Yu Zhang,  D. Zuev,  
 A. Aspuru-Guzik,  A. T. Bell,  N. A. Besley,  K. B. Bravaya,  B. R. Brooks,  
 D. Casanova,  Jeng-Da Chai,  S. Coriani,  C. J. Cramer,  
 A. E. DePrince, III,  R. A. DiStasio Jr.,  A. Dreuw,  B. D. Dunietz,  
 T. R. Furlani,  W. A. Goddard III,  S. Grimme,  S. Hammes-Schiffer,  
 T. Head-Gordon,  W. J. Hehre,  Chao-Ping Hsu,  T.-C. Jagau,  Yousung Jung,  
 A. Klamt,  Jing Kong,  D. S. Lambrecht,  WanZhen Liang,  N. J. Mayhall,  
 C. W. McCurdy,  J. B. Neaton,  C. Ochsenfeld,  J. A. Parkhill,  R. Peverati,  
 V. A. Rassolov,  Yihan Shao,  L. V. Slipchenko,  T. Stauch,  R. P. Steele,  
 J. E. Subotnik,  A. J. W. Thom,  A. Tkatchenko,  D. G. Truhlar,  
 T. Van Voorhis,  T. A. Wesolowski,  K. B. Whaley,  H. L. Woodcock III,  
 P. M. Zimmerman,  S. Faraji,  P. M. W. Gill,  M. Head-Gordon,  
 J. M. Herbert,  A. I. Krylov

 Contributors to earlier versions of Q-Chem not listed above: 
 R. D. Adamson,  B. Austin,  R. Baer,  J. Baker,  G. J. O. Beran,  
 K. Brandhorst,  S. T. Brown,  E. F. C. Byrd,  A. K. Chakraborty,  
 G. K. L. Chan,  Chun-Min Chang,  Yunqing Chen,  C.-L. Cheng,  
 Siu Hung Chien,  D. M. Chipman,  D. L. Crittenden,  H. Dachsel,  
 R. J. Doerksen,  A. D. Dutoi,  R. G. Edgar,  J. Fosso-Tande,  
 L. Fusti-Molnar,  D. Ghosh,  A. Ghysels,  A. Golubeva-Zadorozhnaya,  
 J. Gonthier,  M. S. Gordon,  S. R. Gwaltney,  G. Hawkins,  J. E. Herr,  
 A. Heyden,  S. Hirata,  E. G. Hohenstein,  G. Kedziora,  F. J. Keil,  
 C. Kelley,  Jihan Kim,  R. A. King,  R. Z. Khaliullin,  P. P. Korambath,  
 W. Kurlancheek,  A. Laurent,  A. M. Lee,  M. S. Lee,  S. V. Levchenko,  
 Ching Yeh Lin,  D. Liotard,  E. Livshits,  R. C. Lochan,  I. Lotan,  
 L. A. Martinez-Martinez,  P. E. Maslen,  N. Nair,  D. P. O'Neill,  
 D. Neuhauser,  E. Neuscamman,  C. M. Oana,  R. Olivares-Amaya,  R. Olson,  
 T. M. Perrine,  B. Peters,  P. A. Pieniazek,  A. Prociuk,  Y. M. Rhee,  
 J. Ritchie,  M. A. Rohrdanz,  E. Rosta,  N. J. Russ,  H. F. Schaefer III,  
 M. W. Schmidt,  N. E. Schultz,  S. Sharma,  N. Shenvi,  C. D. Sherrill,  
 A. C. Simmonett,  A. Sodt,  T. Stein,  D. Stuck,  K. S. Thanthiriwatte,  
 V. Vanovschi,  L. Vogt,  Tao Wang,  A. Warshel,  M. A. Watson,  
 C. F. Williams,  Q. Wu,  X. Xu,  Jun Yang,  W. Zhang,  Yan Zhao

 Please cite Q-Chem as follows:
 Y. Shao et al., Mol. Phys. 113, 184-215 (2015)
 DOI: 10.1080/00268976.2014.952696

 Q-Chem 5.4.0 for Intel X86 EM64T Linux

 Parts of Q-Chem use Armadillo 9.800.1 (Horizon Scraper).
 http://arma.sourceforge.net/

 Q-Chem begins on Wed Dec 13 16:16:16 2023  

 Host: 
0

     Scratch files written to ./qchem275709//
 May1621 |scratch|qcdevops|jenkins|workspace|build_RNUM    
 Parallel job on  1  processors
 Processing $rem in /cm/shared/apps/spack/cpu/opt/spack/linux-centos8-zen2/gcc-10.2.0/qchem-5.4-akfmr7b3t57bfs6qan3padb2wnb2i7cl/config/preferences:
 Processing $rem in /home/rramji/.qchemrc:
 Symmetry turned off for PCM/SM12/SMD calculation
 Core orbitals will be frozen

 Checking the input file for inconsistencies... 	...done.

 Q-Chem warning in module forms1/BasisType.C, line 2236:

 You are not using the predefined 5D/6D in this basis set.


--------------------------------------------------------------
User input:
--------------------------------------------------------------
$molecule
0 1
C	0.724460	-3.887800	0.001092
C	-0.661131	-3.701456	0.001036
C	-1.085203	-2.345170	0.000406
H	-1.367305	-4.545233	0.001433
C	0.000000	-1.450135	0.000000
S	1.527517	-2.321334	0.000367
C	-2.531478	-1.934439	0.000233
H	-3.196254	-2.819799	0.000656
H	-2.787305	-1.326210	-0.892447
H	-2.787282	-1.325374	0.892350
H	1.307907	-4.815326	0.001511
C	0.000000	0.000000	0.000000
C	0.354153	0.766774	1.113020
C	0.937751	2.029404	0.820578
H	0.191350	0.414475	2.142881
C	1.042030	2.254581	-0.563588
S	0.406851	0.881228	-1.464748
C	1.384426	2.995779	1.882380
H	1.196413	2.589194	2.894974
H	0.849641	3.965707	1.808137
H	2.469756	3.216753	1.808230
H	1.443919	3.124243	-1.097114
$end

$rem
JOBTYPE		SP
EXCHANGE	HF
CORRELATION	pRIMP2
BASIS		cc-pvtz
METHOD		rimp2
AUX_BASIS	rimp2-cc-pvtz
SOLVENT_METHOD	PCM
PURECART	11111
SYMMETRY	false
MEM_TOTAL	110000
SCF_CONVERGENCE = 6
THRESH=10
GUI = 2
$end



$solvent
dielectric 4.90
$end
--------------------------------------------------------------
 ----------------------------------------------------------------
             Standard Nuclear Orientation (Angstroms)
    I     Atom           X                Y                Z
 ----------------------------------------------------------------
    1      C       0.7244600000    -3.8878000000     0.0010920000
    2      C      -0.6611310000    -3.7014560000     0.0010360000
    3      C      -1.0852030000    -2.3451700000     0.0004060000
    4      H      -1.3673050000    -4.5452330000     0.0014330000
    5      C       0.0000000000    -1.4501350000     0.0000000000
    6      S       1.5275170000    -2.3213340000     0.0003670000
    7      C      -2.5314780000    -1.9344390000     0.0002330000
    8      H      -3.1962540000    -2.8197990000     0.0006560000
    9      H      -2.7873050000    -1.3262100000    -0.8924470000
   10      H      -2.7872820000    -1.3253740000     0.8923500000
   11      H       1.3079070000    -4.8153260000     0.0015110000
   12      C       0.0000000000     0.0000000000     0.0000000000
   13      C       0.3541530000     0.7667740000     1.1130200000
   14      C       0.9377510000     2.0294040000     0.8205780000
   15      H       0.1913500000     0.4144750000     2.1428810000
   16      C       1.0420300000     2.2545810000    -0.5635880000
   17      S       0.4068510000     0.8812280000    -1.4647480000
   18      C       1.3844260000     2.9957790000     1.8823800000
   19      H       1.1964130000     2.5891940000     2.8949740000
   20      H       0.8496410000     3.9657070000     1.8081370000
   21      H       2.4697560000     3.2167530000     1.8082300000
   22      H       1.4439190000     3.1242430000    -1.0971140000
 ----------------------------------------------------------------
 Nuclear Repulsion Energy =         836.11421161 hartrees
 There are       51 alpha and       51 beta electrons
 Requested basis set is cc-pVTZ
 There are 184 shells and 508 basis functions

 Total QAlloc Memory Limit 110000 MB
 Mega-Array Size       188 MB
 MEM_STATIC part       192 MB
 Discretize the solute cavity surface with Lebedev spheres
	Using 110 Lebedev grid points for each H atom
	Using 194 Lebedev grid points for other atoms
	Atomic van der Waals radii will be scaled by 1.20
 Remove points where switching function is < 1.0e-08
 Keep 1560 surface tesserae and discard 1868 interior tesserae
 Molecular Surface Area = 237.570 Angst**2
 Requested basis set is rimp2-cc-pVTZ
 There are 394 shells and 1354 basis functions
 A cutoff of  1.0D-10 yielded  12203 shell pairs
 There are     90391 function pairs (    116643 Cartesian)
 Smallest overlap matrix eigenvalue = 7.35E-05

 Scale SEOQF with 1.000000e-01/1.000000e-01/1.000000e-01

 Standard Electronic Orientation quadrupole field applied
 Nucleus-field energy     =     0.0000000351 hartrees
 Guess from superposition of atomic densities
 Warning:  Energy on first SCF cycle will be non-variational
 SAD guess density has 102.000000 electrons

 -----------------------------------------------------------------------
  General SCF calculation program by
  Eric Jon Sundstrom, Paul Horn, Yuezhi Mao, Dmitri Zuev, Alec White,
  David Stuck, Shaama M.S., Shane Yost, Joonho Lee, David Small,
  Daniel Levine, Susi Lehtola, Hugh Burton, Evgeny Epifanovsky,
  Bang C. Huynh
 -----------------------------------------------------------------------
 Hartree-Fock
 using 64 threads for integral computing
 -------------------------------------------------------
 OpenMP Integral computing Module                
 Release: version 1.0, May 2013, Q-Chem Inc. Pittsburgh 
 -------------------------------------------------------
 A restricted SCF calculation will be
 performed using DIIS
 SCF converges when DIIS error is below 1.0e-06
 ---------------------------------------
  Cycle       Energy         DIIS error
 ---------------------------------------
    1   -1184.1933447924      2.38e-02  
    2   -1179.5370635887      1.59e-03  
    3   -1179.6563559163      6.04e-04  
    4   -1179.6696195925      3.32e-04  
    5   -1179.6742468512      6.66e-05  
    6   -1179.6745269145      3.10e-05  
    7   -1179.6746158833      1.30e-05  
    8   -1179.6746451879      5.30e-06  
    9   -1179.6746502571      1.71e-06  
   10   -1179.6746507118      5.09e-07  Convergence criterion met
 ---------------------------------------
 SCF time:   CPU 1526.43s  wall 45.00s 

************** Final PCM Free Energy Summary **************
 G_electrostatic  =      -0.00792247 hartree =      -4.97142279 kcal/mol
 G_cavitation     =       0.00000000 hartree =       0.00000000 kcal/mol
 G_dispersion     =       0.00000000 hartree =       0.00000000 kcal/mol
 G_repulsion      =       0.00000000 hartree =       0.00000000 kcal/mol
 --------------------------------------------------
 Non-electrostatic Free Energy =       0.00000000 hartree =       0.00000000 kcal/mol
 Total                         =      -0.00792247 hartree =      -4.97142279 kcal/mol
 --------------------------------------------------
 SCF Energy (H0 + V/2)                       =   -1179.67465071 
 Solute Internal Energy (H0)                 =   -1179.66672825 
 Total Free Energy (H0 + V/2 + non-elec)     =   -1179.67465071 hartree
                                             = -740257.01602027 kcal/mol
***********************************************************

 SCF   energy in the final basis set =    -1179.6746507118
 Total energy in the final basis set =    -1179.6746507118


 --------------------------------------------------------------
  Generalized many-body perturbation theory program
  by Joonho Lee, Fazle Rob, Xintian Feng, Evgeny Epifanovsky

 No regularization used 
 (reg. param. = 0.0000e+00)
  (P|Q)^-1/2 Time:  CPU 30.13 s  wall 0.49 s

 In RI-MP2 calculation: 
 # of frozen core orbitals: 20

 Components of the RIMP2 correlation energy:
        aaaa    correlation energy =        -0.2524611282 a.u.
        abab    correlation energy =        -1.4750093042 a.u.
        bbbb    correlation energy =        -0.2524611282 a.u.
        non-Brillouin singles      =        -0.0000000000 a.u.
        total same-spin energy     =        -0.5049222564 a.u.
        total opposite-spin energy =        -1.4750093042 a.u.

 Total  RIMP2   correlation energy =        -1.9799315606 a.u.
        RIMP2         total energy =     -1181.6545822724 a.u.

 RI-MP2 Energy Time:  CPU 164.59 s  wall 3.48 s
 
 --------------------------------------------------------------
 
                    Orbital Energies (a.u.)
 --------------------------------------------------------------
 
 Alpha MOs
 -- Occupied --
-91.9846 -91.9838 -11.2740 -11.2718 -11.2715 -11.2690 -11.2512 -11.2506
-11.2450 -11.2406 -11.2293 -11.2285  -8.9842  -8.9834  -6.6651  -6.6645
 -6.6642  -6.6640  -6.6637  -6.6631  -1.1787  -1.1490  -1.0396  -1.0218
 -0.9967  -0.9531  -0.9126  -0.8921  -0.7989  -0.7525  -0.7312  -0.6931
 -0.6610  -0.6170  -0.5827  -0.5792  -0.5701  -0.5690  -0.5508  -0.5315
 -0.5291  -0.5185  -0.5078  -0.4918  -0.4826  -0.4641  -0.4633  -0.3497
 -0.3350  -0.3126  -0.3096
 -- Virtual --
  0.0861   0.0985   0.1427   0.1479   0.1627   0.1736   0.1750   0.1844
  0.1890   0.1963   0.2055   0.2180   0.2306   0.2315   0.2388   0.2473
  0.2542   0.2661   0.2936   0.3056   0.3366   0.3391   0.3535   0.3628
  0.3759   0.3826   0.3921   0.3981   0.4072   0.4131   0.4232   0.4317
  0.4382   0.4521   0.4670   0.4701   0.4744   0.4804   0.4849   0.4965
  0.5071   0.5145   0.5200   0.5364   0.5410   0.5543   0.5548   0.5586
  0.5753   0.5839   0.5925   0.6008   0.6039   0.6133   0.6199   0.6214
  0.6293   0.6323   0.6384   0.6403   0.6445   0.6484   0.6533   0.6687
  0.6747   0.6768   0.6839   0.7025   0.7174   0.7315   0.7417   0.7493
  0.7619   0.7847   0.8015   0.8026   0.8163   0.8225   0.8298   0.8408
  0.8439   0.8485   0.8653   0.8843   0.9009   0.9251   0.9346   0.9469
  0.9567   0.9609   0.9824   0.9918   1.0017   1.0110   1.0221   1.0333
  1.0369   1.0539   1.0585   1.0666   1.0700   1.0865   1.0914   1.1050
  1.1099   1.1247   1.1301   1.1437   1.1613   1.1775   1.1799   1.1843
  1.1909   1.2125   1.2171   1.2252   1.2466   1.2489   1.2578   1.2671
  1.2780   1.2830   1.2937   1.3110   1.3344   1.3486   1.3566   1.3626
  1.3735   1.3869   1.4010   1.4166   1.4230   1.4457   1.4498   1.4606
  1.4706   1.4815   1.5014   1.5062   1.5124   1.5294   1.5393   1.5492
  1.5567   1.5662   1.5686   1.5725   1.5852   1.5924   1.6014   1.6246
  1.6456   1.6602   1.6772   1.6824   1.7018   1.7037   1.7125   1.7173
  1.7398   1.7554   1.7665   1.7779   1.7884   1.8026   1.8243   1.8569
  1.8791   1.8798   1.8961   1.9218   1.9273   1.9564   1.9703   1.9934
  2.0043   2.0544   2.0655   2.0810   2.1047   2.1336   2.1450   2.1757
  2.1802   2.1911   2.1965   2.2254   2.2345   2.2406   2.2648   2.2791
  2.2952   2.3153   2.3278   2.3993   2.4008   2.4174   2.4331   2.4469
  2.4825   2.4902   2.5089   2.5285   2.5400   2.5663   2.5720   2.5833
  2.6148   2.6267   2.6398   2.6632   2.6728   2.6921   2.7208   2.7334
  2.7413   2.7447   2.7539   2.7603   2.7654   2.7822   2.8027   2.8196
  2.8274   2.8417   2.8447   2.8692   2.8844   2.8963   2.9049   2.9138
  2.9537   2.9628   2.9699   2.9876   2.9933   3.0138   3.0213   3.0376
  3.0391   3.0694   3.0919   3.1075   3.1134   3.1197   3.1233   3.1429
  3.1491   3.1553   3.1670   3.1726   3.1842   3.1960   3.2079   3.2188
  3.2472   3.2504   3.2602   3.2780   3.2806   3.2941   3.3040   3.3135
  3.3161   3.3257   3.3304   3.3432   3.3494   3.3536   3.3748   3.3769
  3.3837   3.3916   3.3980   3.4097   3.4189   3.4218   3.4346   3.4413
  3.4502   3.4538   3.4673   3.4893   3.5003   3.5057   3.5164   3.5182
  3.5321   3.5353   3.5419   3.5550   3.5576   3.5821   3.5892   3.6012
  3.6095   3.6181   3.6220   3.6302   3.6418   3.6468   3.6571   3.6655
  3.6807   3.6890   3.7076   3.7186   3.7273   3.7345   3.7412   3.7445
  3.7634   3.7761   3.7781   3.7896   3.8025   3.8126   3.8188   3.8489
  3.8601   3.8651   3.8751   3.8821   3.9056   3.9155   3.9344   3.9540
  3.9701   3.9761   3.9968   4.0110   4.0137   4.0238   4.0421   4.0449
  4.0679   4.0836   4.0879   4.1027   4.1178   4.1229   4.1277   4.1558
  4.1638   4.1722   4.1885   4.1957   4.2014   4.2158   4.2166   4.2322
  4.2546   4.2600   4.2651   4.2875   4.2955   4.3147   4.3239   4.3331
  4.3422   4.3597   4.3620   4.3764   4.3837   4.3988   4.4040   4.4241
  4.4264   4.4423   4.4632   4.4777   4.4830   4.4999   4.5235   4.5599
  4.5802   4.5938   4.6151   4.6224   4.6386   4.6427   4.6641   4.6816
  4.7066   4.7201   4.7300   4.7363   4.7660   4.7797   4.8226   4.8389
  4.8719   4.8839   4.8950   4.9241   4.9475   4.9658   5.0061   5.0549
  5.0825   5.1063   5.1075   5.1473   5.1598   5.1688   5.1878   5.2043
  5.2623   5.2773   5.2924   5.3002   5.3306   5.3638   5.3934   5.3998
  5.4272   5.4522   5.4640   5.4702   5.5185   5.5228   5.5430   5.5526
  5.5750   5.5898   5.6195   5.6269   5.6275   5.6783   5.7017   5.7133
  5.7712   5.8193   5.8923   5.9251   6.0010   6.0324   6.1157   6.2263
  6.2270   6.2356   6.2695   6.2824   6.3221   6.4131   6.5018   8.8863
  9.7596  11.6657  12.0266  12.8752  12.9257  13.7408  13.9000  14.2018
 14.3081
 --------------------------------------------------------------
 
          Ground-State Mulliken Net Atomic Charges

     Atom                 Charge (a.u.)
  ----------------------------------------
      1 C                    -0.205243
      2 C                    -0.254148
      3 C                     0.061645
      4 H                     0.183588
      5 C                    -0.066413
      6 S                     0.026904
      7 C                    -0.284885
      8 H                     0.106632
      9 H                     0.110545
     10 H                     0.109332
     11 H                     0.203869
     12 C                    -0.012173
     13 C                    -0.234781
     14 C                     0.030055
     15 H                     0.183701
     16 C                    -0.232489
     17 S                     0.026055
     18 C                    -0.269446
     19 H                     0.102922
     20 H                     0.107734
     21 H                     0.107961
     22 H                     0.198634
  ----------------------------------------
  Sum of atomic charges =     0.000000

 -----------------------------------------------------------------
                    Cartesian Multipole Moments
 -----------------------------------------------------------------
    Charge (ESU x 10^10)
                -0.0000
    Dipole Moment (Debye)
         X      -0.6003      Y       0.3830      Z       1.5170
       Tot       1.6758
    Quadrupole Moments (Debye-Ang)
        XX     -84.2175     XY       6.4987     YY     -70.9812
        XZ       0.4843     YZ       0.9890     ZZ     -86.6055
    Octopole Moments (Debye-Ang^2)
       XXX     -81.8491    XXY      38.6569    XYY      -9.4462
       YYY     107.6303    XXZ      -3.0084    XYZ      -0.9868
       YYZ      -4.6808    XZZ     -23.0047    YZZ      65.5233
       ZZZ       0.0507
    Hexadecapole Moments (Debye-Ang^3)
      XXXX    -854.7849   XXXY    -175.4593   XXYY    -542.5725
      XYYY    -186.5301   YYYY   -2456.1589   XXXZ     -42.1591
      XXYZ     -32.4736   XYYZ     -20.2403   YYYZ    -102.7783
      XXZZ    -239.2367   XYZZ     -52.7229   YYZZ    -590.4612
      XZZZ     -43.0527   YZZZ     -92.1521   ZZZZ    -534.1765
 -----------------------------------------------------------------
 Total job time:  51.91s(wall), 1804.21s(cpu) 
 Wed Dec 13 16:17:08 2023

        *************************************************************
        *                                                           *
        *  Thank you very much for using Q-Chem.  Have a nice day.  *
        *                                                           *
        *************************************************************


0 sent ACK to 0 
now end server 0 ... 
cleanup process ... done
remove work dirs ./qchem275709.0 -- ./qchem275709.0
rm -rf ./qchem275709.0
rm -rf ./qchem275709
