You are running Q-Chem version: 5.4.0

#
# job setting
#
local host:  exp-4-03
current dir: /home/rramji/project-csd799/aromodel/p3ht-qchem/rotation-run
input file:  Methylthiophene_Phi_50_Theta_50_Methylthiophene.qcin
output file: 
nprocs     : 1
nthreads   : 64
#
# qchem installation setting
#
QC:          /cm/shared/apps/spack/cpu/opt/spack/linux-centos8-zen2/gcc-10.2.0/qchem-5.4-akfmr7b3t57bfs6qan3padb2wnb2i7cl
QCAUX:       /cm/shared/apps/spack/cpu/opt/spack/linux-centos8-zen2/gcc-10.2.0/qchem-5.4-akfmr7b3t57bfs6qan3padb2wnb2i7cl/qcaux
QCPROG:      /cm/shared/apps/spack/cpu/opt/spack/linux-centos8-zen2/gcc-10.2.0/qchem-5.4-akfmr7b3t57bfs6qan3padb2wnb2i7cl/exe/qcprog.exe
QCPROG_S:    /cm/shared/apps/spack/cpu/opt/spack/linux-centos8-zen2/gcc-10.2.0/qchem-5.4-akfmr7b3t57bfs6qan3padb2wnb2i7cl/exe/qcprog.exe_s
PARALLEL:    -DPARALLEL
QCMPI:       mpich
#
# qchem directory setting
#
qcrun:       qchem1333261
QCSCRATCH:   .
QCLOCALSCR:  
QCTMPDIR:    .
QCFILEPREF:  ./qchem1333261
QCSAVEDIR:   
workdirs:    ./qchem1333261
workdir0:    ./qchem1333261
partmpdirs =  
#
# parallel setting
#
QCRSH:           ssh
QCMPI:           mpich
QCMPIRUN:        /cm/shared/apps/spack/cpu/opt/spack/linux-centos8-zen2/gcc-10.2.0/qchem-5.4-akfmr7b3t57bfs6qan3padb2wnb2i7cl/bin/mpi/mpirun_qchem
QCMACHINEFILE:   ./qchem1333261/hostfile
exp-4-03

#
# env setting
#
exported envs:   QC QCAUX QCSCRATCH QCRUNNAME QCFILEPREF QCPROG QCPROG_S GUIFILE

Running Job 1 of 1 Methylthiophene_Phi_50_Theta_50_Methylthiophene.qcin
qchem Methylthiophene_Phi_50_Theta_50_Methylthiophene.qcin_1333261.0 ./qchem1333261/ 1
/cm/shared/apps/spack/cpu/opt/spack/linux-centos8-zen2/gcc-10.2.0/qchem-5.4-akfmr7b3t57bfs6qan3padb2wnb2i7cl/bin/mpi/mpirun_qchem -machinefile ./qchem1333261/hostfile -np 1 /cm/shared/apps/spack/cpu/opt/spack/linux-centos8-zen2/gcc-10.2.0/qchem-5.4-akfmr7b3t57bfs6qan3padb2wnb2i7cl/exe/qcprog.exe Methylthiophene_Phi_50_Theta_50_Methylthiophene.qcin_1333261.0 ./qchem1333261/

Process 0 of 1 is on exp-4-03 - thread support 0
initial socket setup ...start
initial socket setup ...done 
now start server 0 ... 
                  Welcome to Q-Chem
     A Quantum Leap Into The Future Of Chemistry


 Q-Chem 5.4, Q-Chem, Inc., Pleasanton, CA (2021)

 License issued to: University of California, San Diego (site)

 E. Epifanovsky,  A. T. B. Gilbert,  Xintian Feng,  Joonho Lee,  Yuezhi Mao,  
 N. Mardirossian,  P. Pokhilko,  A. White,  M. Wormit,  M. P. Coons,  
 A. L. Dempwolff,  Zhengting Gan,  D. Hait,  P. R. Horn,  L. D. Jacobson,  
 I. Kaliman,  J. Kussmann,  A. W. Lange,  Ka Un Lao,  D. S. Levine,  Jie Liu,  
 S. C. McKenzie,  A. F. Morrison,  K. Nanda,  F. Plasser,  D. R. Rehn,  
 M. L. Vidal,  Zhi-Qiang You,  Ying Zhu,  B. Alam,  B. Albrecht,  
 A. Aldossary,  E. Alguire,  J. H. Andersen,  D. Barton,  K. Begam,  A. Behn,  
 Y. A. Bernard,  E. J. Berquist,  H. Burton,  A. Carreras,  K. Carter-Fenk,  
 R. Chakraborty,  A. D. Chien,  K. D. Closser,  V. Cofer-Shabica,  
 S. Dasgupta,  Jia Deng,  M. de Wergifosse,  M. Diedenhofen,  Hainam Do,  
 S. Ehlert,  Po-Tung Fang,  S. Fatehi,  Qingguo Feng,  J. Gayvert,  
 Qinghui Ge,  G. Gidofalvi,  M. Goldey,  J. Gomes,  C. Gonzalez-Espinoza,  
 S. Gulania,  A. Gunina,  M. W. D. Hanson-Heine,  P. H. P. Harbach,  
 A. W. Hauser,  M. F. Herbst,  M. Hernandez Vera,  M. Hodecker,  
 Z. C. Holden,  S. Houck,  Xunkun Huang,  Kerwin Hui,  B. C. Huynh,  
 M. Ivanov,  Hyunjun Ji,  Hanjie Jiang,  B. Kaduk,  S. Kaehler,  
 K. Khistyaev,  Jaehoon Kim,  P. Klunzinger,  Z. Koczor-Benda,  
 Joong Hoon Koh,  D. Kosenkov,  L. Koulias,  T. Kowalczyk,  C. M. Krauter,  
 K. Kue,  A. Kunitsa,  T. Kus,  A. Landau,  K. V. Lawler,  D. Lefrancois,  
 S. Lehtola,  Rain Li,  Yi-Pei Li,  Jiashu Liang,  M. Liebenthal,  
 Hung-Hsuan Lin,  You-Sheng Lin,  Fenglai Liu,  Kuan-Yu Liu,  
 M. Loipersberger,  A. Luenser,  A. Manjanath,  P. Manohar,  E. Mansoor,  
 S. F. Manzer,  Shan-Ping Mao,  A. V. Marenich,  T. Markovich,  S. Mason,  
 S. A. Maurer,  P. F. McLaughlin,  M. F. S. J. Menger,  J.-M. Mewes,  
 S. A. Mewes,  P. Morgante,  J. W. Mullinax,  T. S. Nguyen-Beck,  
 K. J. Oosterbaan,  G. Paran,  Alexander C. Paul,  Suranjan K. Paul,  
 F. Pavosevic,  Zheng Pei,  S. Prager,  E. I. Proynov,  E. Ramos,  B. Rana,  
 A. E. Rask,  A. Rettig,  R. M. Richard,  F. Rob,  E. Rossomme,  T. Scheele,  
 M. Scheurer,  M. Schneider,  N. Sergueev,  S. M. Sharada,  W. Skomorowski,  
 D. W. Small,  C. J. Stein,  Yu-Chuan Su,  E. J. Sundstrom,  Zhen Tao,  
 J. Thirman,  T. Tsuchimochi,  N. M. Tubman,  S. P. Veccham,  O. Vydrov,  
 J. Wenzel,  J. Witte,  A. Yamada,  Kun Yao,  S. Yeganeh,  S. R. Yost,  
 A. Zech,  Igor Ying Zhang,  Xing Zhang,  Yu Zhang,  D. Zuev,  
 A. Aspuru-Guzik,  A. T. Bell,  N. A. Besley,  K. B. Bravaya,  B. R. Brooks,  
 D. Casanova,  Jeng-Da Chai,  S. Coriani,  C. J. Cramer,  
 A. E. DePrince, III,  R. A. DiStasio Jr.,  A. Dreuw,  B. D. Dunietz,  
 T. R. Furlani,  W. A. Goddard III,  S. Grimme,  S. Hammes-Schiffer,  
 T. Head-Gordon,  W. J. Hehre,  Chao-Ping Hsu,  T.-C. Jagau,  Yousung Jung,  
 A. Klamt,  Jing Kong,  D. S. Lambrecht,  WanZhen Liang,  N. J. Mayhall,  
 C. W. McCurdy,  J. B. Neaton,  C. Ochsenfeld,  J. A. Parkhill,  R. Peverati,  
 V. A. Rassolov,  Yihan Shao,  L. V. Slipchenko,  T. Stauch,  R. P. Steele,  
 J. E. Subotnik,  A. J. W. Thom,  A. Tkatchenko,  D. G. Truhlar,  
 T. Van Voorhis,  T. A. Wesolowski,  K. B. Whaley,  H. L. Woodcock III,  
 P. M. Zimmerman,  S. Faraji,  P. M. W. Gill,  M. Head-Gordon,  
 J. M. Herbert,  A. I. Krylov

 Contributors to earlier versions of Q-Chem not listed above: 
 R. D. Adamson,  B. Austin,  R. Baer,  J. Baker,  G. J. O. Beran,  
 K. Brandhorst,  S. T. Brown,  E. F. C. Byrd,  A. K. Chakraborty,  
 G. K. L. Chan,  Chun-Min Chang,  Yunqing Chen,  C.-L. Cheng,  
 Siu Hung Chien,  D. M. Chipman,  D. L. Crittenden,  H. Dachsel,  
 R. J. Doerksen,  A. D. Dutoi,  R. G. Edgar,  J. Fosso-Tande,  
 L. Fusti-Molnar,  D. Ghosh,  A. Ghysels,  A. Golubeva-Zadorozhnaya,  
 J. Gonthier,  M. S. Gordon,  S. R. Gwaltney,  G. Hawkins,  J. E. Herr,  
 A. Heyden,  S. Hirata,  E. G. Hohenstein,  G. Kedziora,  F. J. Keil,  
 C. Kelley,  Jihan Kim,  R. A. King,  R. Z. Khaliullin,  P. P. Korambath,  
 W. Kurlancheek,  A. Laurent,  A. M. Lee,  M. S. Lee,  S. V. Levchenko,  
 Ching Yeh Lin,  D. Liotard,  E. Livshits,  R. C. Lochan,  I. Lotan,  
 L. A. Martinez-Martinez,  P. E. Maslen,  N. Nair,  D. P. O'Neill,  
 D. Neuhauser,  E. Neuscamman,  C. M. Oana,  R. Olivares-Amaya,  R. Olson,  
 T. M. Perrine,  B. Peters,  P. A. Pieniazek,  A. Prociuk,  Y. M. Rhee,  
 J. Ritchie,  M. A. Rohrdanz,  E. Rosta,  N. J. Russ,  H. F. Schaefer III,  
 M. W. Schmidt,  N. E. Schultz,  S. Sharma,  N. Shenvi,  C. D. Sherrill,  
 A. C. Simmonett,  A. Sodt,  T. Stein,  D. Stuck,  K. S. Thanthiriwatte,  
 V. Vanovschi,  L. Vogt,  Tao Wang,  A. Warshel,  M. A. Watson,  
 C. F. Williams,  Q. Wu,  X. Xu,  Jun Yang,  W. Zhang,  Yan Zhao

 Please cite Q-Chem as follows:
 Y. Shao et al., Mol. Phys. 113, 184-215 (2015)
 DOI: 10.1080/00268976.2014.952696

 Q-Chem 5.4.0 for Intel X86 EM64T Linux

 Parts of Q-Chem use Armadillo 9.800.1 (Horizon Scraper).
 http://arma.sourceforge.net/

 Q-Chem begins on Wed Dec 13 15:55:15 2023  

 Host: 
0

     Scratch files written to ./qchem1333261//
 May1621 |scratch|qcdevops|jenkins|workspace|build_RNUM    
 Parallel job on  1  processors
 Processing $rem in /cm/shared/apps/spack/cpu/opt/spack/linux-centos8-zen2/gcc-10.2.0/qchem-5.4-akfmr7b3t57bfs6qan3padb2wnb2i7cl/config/preferences:
 Processing $rem in /home/rramji/.qchemrc:
 Symmetry turned off for PCM/SM12/SMD calculation
 Core orbitals will be frozen

 Checking the input file for inconsistencies... 	...done.

 Q-Chem warning in module forms1/BasisType.C, line 2236:

 You are not using the predefined 5D/6D in this basis set.


--------------------------------------------------------------
User input:
--------------------------------------------------------------
$molecule
0 1
C	-0.555670	-3.887800	0.464838
C	0.505790	-3.701456	-0.425760
C	0.831053	-2.345170	-0.697866
H	1.046496	-4.545233	-0.879984
C	0.000000	-1.450135	0.000000
S	-1.170382	-2.321334	0.981588
C	1.939074	-1.934439	-1.627381
H	2.448051	-2.819799	-2.055015
H	2.708853	-1.326210	-1.107991
H	1.561590	-1.325374	-2.475210
H	-1.002886	-4.815326	0.839549
C	0.000000	0.000000	0.000000
C	0.645024	0.545262	1.113020
C	1.707554	1.442954	0.820578
H	0.348587	0.294774	2.142881
C	1.897227	1.602964	-0.563588
S	0.741155	0.626722	-1.464748
C	2.520787	2.130014	1.882380
H	2.178559	1.840981	2.894974
H	2.446016	3.235078	1.808137
H	3.597818	1.871604	1.808230
H	2.628997	2.221299	-1.097114
$end

$rem
JOBTYPE		SP
EXCHANGE	HF
CORRELATION	pRIMP2
BASIS		cc-pvtz
METHOD		rimp2
AUX_BASIS	rimp2-cc-pvtz
SOLVENT_METHOD	PCM
PURECART	11111
SYMMETRY	false
MEM_TOTAL	110000
SCF_CONVERGENCE = 6
THRESH=10
GUI = 2
$end



$solvent
dielectric 4.90
$end
--------------------------------------------------------------
 ----------------------------------------------------------------
             Standard Nuclear Orientation (Angstroms)
    I     Atom           X                Y                Z
 ----------------------------------------------------------------
    1      C      -0.5556700000    -3.8878000000     0.4648380000
    2      C       0.5057900000    -3.7014560000    -0.4257600000
    3      C       0.8310530000    -2.3451700000    -0.6978660000
    4      H       1.0464960000    -4.5452330000    -0.8799840000
    5      C       0.0000000000    -1.4501350000     0.0000000000
    6      S      -1.1703820000    -2.3213340000     0.9815880000
    7      C       1.9390740000    -1.9344390000    -1.6273810000
    8      H       2.4480510000    -2.8197990000    -2.0550150000
    9      H       2.7088530000    -1.3262100000    -1.1079910000
   10      H       1.5615900000    -1.3253740000    -2.4752100000
   11      H      -1.0028860000    -4.8153260000     0.8395490000
   12      C       0.0000000000     0.0000000000     0.0000000000
   13      C       0.6450240000     0.5452620000     1.1130200000
   14      C       1.7075540000     1.4429540000     0.8205780000
   15      H       0.3485870000     0.2947740000     2.1428810000
   16      C       1.8972270000     1.6029640000    -0.5635880000
   17      S       0.7411550000     0.6267220000    -1.4647480000
   18      C       2.5207870000     2.1300140000     1.8823800000
   19      H       2.1785590000     1.8409810000     2.8949740000
   20      H       2.4460160000     3.2350780000     1.8081370000
   21      H       3.5978180000     1.8716040000     1.8082300000
   22      H       2.6289970000     2.2212990000    -1.0971140000
 ----------------------------------------------------------------
 Nuclear Repulsion Energy =         856.36936385 hartrees
 There are       51 alpha and       51 beta electrons
 Requested basis set is cc-pVTZ
 There are 184 shells and 508 basis functions

 Total QAlloc Memory Limit 110000 MB
 Mega-Array Size       188 MB
 MEM_STATIC part       192 MB
 Discretize the solute cavity surface with Lebedev spheres
	Using 110 Lebedev grid points for each H atom
	Using 194 Lebedev grid points for other atoms
	Atomic van der Waals radii will be scaled by 1.20
 Remove points where switching function is < 1.0e-08
 Keep 1497 surface tesserae and discard 1931 interior tesserae
 Molecular Surface Area = 226.439 Angst**2
 Requested basis set is rimp2-cc-pVTZ
 There are 394 shells and 1354 basis functions
 A cutoff of  1.0D-10 yielded  12869 shell pairs
 There are     95577 function pairs (    123329 Cartesian)
 Smallest overlap matrix eigenvalue = 7.00E-05

 Scale SEOQF with 1.000000e-01/1.000000e-01/1.000000e-01

 Standard Electronic Orientation quadrupole field applied
 Nucleus-field energy     =     0.0000000253 hartrees
 Guess from superposition of atomic densities
 Warning:  Energy on first SCF cycle will be non-variational
 SAD guess density has 102.000000 electrons

 -----------------------------------------------------------------------
  General SCF calculation program by
  Eric Jon Sundstrom, Paul Horn, Yuezhi Mao, Dmitri Zuev, Alec White,
  David Stuck, Shaama M.S., Shane Yost, Joonho Lee, David Small,
  Daniel Levine, Susi Lehtola, Hugh Burton, Evgeny Epifanovsky,
  Bang C. Huynh
 -----------------------------------------------------------------------
 Hartree-Fock
 using 64 threads for integral computing
 -------------------------------------------------------
 OpenMP Integral computing Module                
 Release: version 1.0, May 2013, Q-Chem Inc. Pittsburgh 
 -------------------------------------------------------
 A restricted SCF calculation will be
 performed using DIIS
 SCF converges when DIIS error is below 1.0e-06
 ---------------------------------------
  Cycle       Energy         DIIS error
 ---------------------------------------
    1   -1184.3354160341      2.40e-02  
    2   -1179.4826960528      1.59e-03  
    3   -1179.6044628184      5.83e-04  
    4   -1179.6178729560      3.11e-04  
    5   -1179.6220729848      6.44e-05  
    6   -1179.6223667296      3.10e-05  
    7   -1179.6224651282      1.49e-05  
    8   -1179.6225020816      5.94e-06  
    9   -1179.6225098033      2.38e-06  
   10   -1179.6225106981      9.20e-07  Convergence criterion met
 ---------------------------------------
 SCF time:   CPU 1547.11s  wall 46.00s 

************** Final PCM Free Energy Summary **************
 G_electrostatic  =      -0.00851191 hartree =      -5.34130304 kcal/mol
 G_cavitation     =       0.00000000 hartree =       0.00000000 kcal/mol
 G_dispersion     =       0.00000000 hartree =       0.00000000 kcal/mol
 G_repulsion      =       0.00000000 hartree =       0.00000000 kcal/mol
 --------------------------------------------------
 Non-electrostatic Free Energy =       0.00000000 hartree =       0.00000000 kcal/mol
 Total                         =      -0.00851191 hartree =      -5.34130304 kcal/mol
 --------------------------------------------------
 SCF Energy (H0 + V/2)                       =   -1179.62251070 
 Solute Internal Energy (H0)                 =   -1179.61399879 
 Total Free Energy (H0 + V/2 + non-elec)     =   -1179.62251070 hartree
                                             = -740224.29766786 kcal/mol
***********************************************************

 SCF   energy in the final basis set =    -1179.6225106981
 Total energy in the final basis set =    -1179.6225106981


 --------------------------------------------------------------
  Generalized many-body perturbation theory program
  by Joonho Lee, Fazle Rob, Xintian Feng, Evgeny Epifanovsky

 No regularization used 
 (reg. param. = 0.0000e+00)
  (P|Q)^-1/2 Time:  CPU 44.02 s  wall 0.72 s

 In RI-MP2 calculation: 
 # of frozen core orbitals: 20

 Components of the RIMP2 correlation energy:
        aaaa    correlation energy =        -0.2559099470 a.u.
        abab    correlation energy =        -1.4840909986 a.u.
        bbbb    correlation energy =        -0.2559099470 a.u.
        non-Brillouin singles      =        -0.0000000000 a.u.
        total same-spin energy     =        -0.5118198941 a.u.
        total opposite-spin energy =        -1.4840909986 a.u.

 Total  RIMP2   correlation energy =        -1.9959108926 a.u.
        RIMP2         total energy =     -1181.6184215908 a.u.

 RI-MP2 Energy Time:  CPU 244.08 s  wall 4.32 s
 
 --------------------------------------------------------------
 
                    Orbital Energies (a.u.)
 --------------------------------------------------------------
 
 Alpha MOs
 -- Occupied --
-91.9811 -91.9770 -11.2824 -11.2783 -11.2628 -11.2612 -11.2580 -11.2534
-11.2397 -11.2384 -11.2310 -11.2200  -8.9821  -8.9771  -6.6628  -6.6621
 -6.6618  -6.6580  -6.6575  -6.6568  -1.1866  -1.1459  -1.0446  -1.0190
 -0.9982  -0.9524  -0.9101  -0.8934  -0.7936  -0.7594  -0.7292  -0.6950
 -0.6554  -0.6193  -0.5853  -0.5818  -0.5747  -0.5678  -0.5487  -0.5366
 -0.5247  -0.5213  -0.5113  -0.4933  -0.4681  -0.4574  -0.4492  -0.3579
 -0.3377  -0.3297  -0.2749
 -- Virtual --
  0.0623   0.1176   0.1387   0.1581   0.1622   0.1692   0.1741   0.1821
  0.1935   0.1967   0.2075   0.2134   0.2279   0.2394   0.2409   0.2491
  0.2607   0.2753   0.2914   0.3061   0.3349   0.3423   0.3523   0.3605
  0.3642   0.3804   0.3932   0.4047   0.4154   0.4191   0.4349   0.4380
  0.4453   0.4525   0.4644   0.4701   0.4745   0.4877   0.4895   0.5139
  0.5188   0.5205   0.5301   0.5375   0.5445   0.5473   0.5614   0.5711
  0.5822   0.5845   0.5872   0.6018   0.6060   0.6103   0.6192   0.6268
  0.6293   0.6333   0.6372   0.6475   0.6510   0.6537   0.6697   0.6735
  0.6777   0.6862   0.6945   0.7069   0.7221   0.7267   0.7432   0.7655
  0.7735   0.7865   0.7994   0.8069   0.8127   0.8262   0.8352   0.8432
  0.8531   0.8723   0.8802   0.8907   0.8996   0.9145   0.9325   0.9420
  0.9527   0.9698   0.9812   0.9919   1.0134   1.0226   1.0339   1.0397
  1.0480   1.0616   1.0664   1.0704   1.0850   1.0883   1.1073   1.1106
  1.1209   1.1313   1.1432   1.1608   1.1686   1.1870   1.1937   1.2029
  1.2128   1.2253   1.2273   1.2340   1.2415   1.2554   1.2578   1.2742
  1.2835   1.2837   1.3055   1.3184   1.3411   1.3473   1.3648   1.3739
  1.3792   1.3892   1.4039   1.4173   1.4302   1.4406   1.4480   1.4657
  1.4802   1.4966   1.5032   1.5059   1.5168   1.5235   1.5358   1.5496
  1.5553   1.5613   1.5687   1.5754   1.5884   1.5984   1.6105   1.6275
  1.6652   1.6770   1.6822   1.6889   1.6946   1.7158   1.7172   1.7215
  1.7493   1.7603   1.7620   1.7964   1.8111   1.8166   1.8307   1.8660
  1.8679   1.8983   1.9092   1.9538   1.9643   1.9784   1.9854   2.0143
  2.0298   2.0482   2.0655   2.1025   2.1105   2.1245   2.1438   2.1661
  2.1854   2.1899   2.2116   2.2236   2.2555   2.2605   2.2714   2.2809
  2.3149   2.3272   2.3378   2.3669   2.4222   2.4252   2.4390   2.4524
  2.4871   2.5050   2.5144   2.5378   2.5552   2.5741   2.5957   2.6201
  2.6355   2.6448   2.6658   2.6705   2.6836   2.7011   2.7150   2.7354
  2.7423   2.7560   2.7649   2.7745   2.7809   2.7998   2.8100   2.8232
  2.8354   2.8416   2.8479   2.8722   2.8807   2.9095   2.9162   2.9453
  2.9599   2.9783   2.9855   3.0030   3.0112   3.0224   3.0294   3.0403
  3.0588   3.0729   3.0904   3.1122   3.1157   3.1320   3.1458   3.1548
  3.1577   3.1635   3.1702   3.1839   3.1958   3.2057   3.2240   3.2290
  3.2466   3.2533   3.2690   3.2804   3.2837   3.2991   3.3043   3.3085
  3.3188   3.3302   3.3352   3.3455   3.3574   3.3639   3.3750   3.3865
  3.3938   3.4050   3.4090   3.4181   3.4215   3.4273   3.4494   3.4529
  3.4627   3.4706   3.4753   3.4860   3.4894   3.5009   3.5147   3.5271
  3.5300   3.5348   3.5409   3.5517   3.5726   3.5795   3.5863   3.6000
  3.6079   3.6253   3.6326   3.6395   3.6526   3.6615   3.6712   3.6914
  3.7022   3.7060   3.7166   3.7224   3.7296   3.7366   3.7535   3.7631
  3.7854   3.7956   3.8017   3.8195   3.8339   3.8406   3.8507   3.8695
  3.8767   3.8791   3.9125   3.9183   3.9328   3.9410   3.9627   3.9673
  3.9722   3.9947   4.0218   4.0241   4.0269   4.0337   4.0426   4.0483
  4.0717   4.0768   4.1023   4.1095   4.1192   4.1359   4.1440   4.1624
  4.1803   4.1901   4.1956   4.2031   4.2049   4.2258   4.2284   4.2461
  4.2692   4.2796   4.2859   4.2977   4.3056   4.3185   4.3270   4.3319
  4.3496   4.3661   4.3764   4.3948   4.3994   4.4055   4.4331   4.4373
  4.4444   4.4599   4.4878   4.5021   4.5031   4.5285   4.5452   4.5690
  4.5912   4.5962   4.6201   4.6333   4.6394   4.6484   4.6677   4.6714
  4.6976   4.7099   4.7383   4.7488   4.7740   4.8013   4.8109   4.8520
  4.8901   4.9103   4.9173   4.9258   4.9385   4.9705   4.9988   5.0610
  5.0643   5.0956   5.1083   5.1337   5.1639   5.1843   5.1922   5.2149
  5.2650   5.2788   5.2963   5.3031   5.3201   5.3657   5.3979   5.4091
  5.4135   5.4497   5.4646   5.4794   5.5135   5.5302   5.5482   5.5640
  5.5753   5.5935   5.6220   5.6295   5.6500   5.6572   5.6981   5.7314
  5.7912   5.8098   5.9364   5.9920   6.0197   6.0956   6.1906   6.2261
  6.2405   6.2671   6.2965   6.3158   6.3472   6.3773   6.5192   8.7080
  9.6825  11.6204  12.2552  12.8412  13.1409  13.7740  13.9274  14.2166
 14.3946
 --------------------------------------------------------------
 
          Ground-State Mulliken Net Atomic Charges

     Atom                 Charge (a.u.)
  ----------------------------------------
      1 C                    -0.227697
      2 C                    -0.256808
      3 C                     0.023285
      4 H                     0.184175
      5 C                     0.001574
      6 S                    -0.004877
      7 C                    -0.290625
      8 H                     0.103931
      9 H                     0.112515
     10 H                     0.115569
     11 H                     0.200392
     12 C                    -0.105901
     13 C                    -0.129850
     14 C                    -0.009591
     15 H                     0.189976
     16 C                    -0.196317
     17 S                     0.038743
     18 C                    -0.266558
     19 H                     0.103493
     20 H                     0.107652
     21 H                     0.106019
     22 H                     0.200899
  ----------------------------------------
  Sum of atomic charges =     0.000000

 -----------------------------------------------------------------
                    Cartesian Multipole Moments
 -----------------------------------------------------------------
    Charge (ESU x 10^10)
                -0.0000
    Dipole Moment (Debye)
         X       3.4550      Y       1.1088      Z       0.4678
       Tot       3.6586
    Quadrupole Moments (Debye-Ang)
        XX     -82.1048     XY       4.4732     YY     -78.9845
        XZ      -2.4767     YZ       2.2042     ZZ     -83.2061
    Octopole Moments (Debye-Ang^2)
       XXX    -150.8624    XXY      81.2776    XYY     -45.0027
       YYY     161.9434    XXZ      -3.8066    XYZ       8.7648
       YYZ      -0.4477    XZZ     -48.1946    YZZ      73.9236
       ZZZ       4.6027
    Hexadecapole Moments (Debye-Ang^3)
      XXXX   -1001.0344   XXXY    -206.6340   XXYY    -539.3471
      XYYY    -194.8175   YYYY   -2176.5116   XXXZ      51.3845
      XXYZ     -28.4825   XYYZ     -31.0284   YYYZ     -87.9083
      XXZZ    -288.3961   XYZZ     -68.8417   YYZZ    -538.3786
      XZZZ      59.2516   YZZZ     -63.1221   ZZZZ    -763.0999
 -----------------------------------------------------------------
 Total job time:  53.26s(wall), 1864.12s(cpu) 
 Wed Dec 13 15:56:08 2023

        *************************************************************
        *                                                           *
        *  Thank you very much for using Q-Chem.  Have a nice day.  *
        *                                                           *
        *************************************************************


0 sent ACK to 0 
now end server 0 ... 
cleanup process ... done
remove work dirs ./qchem1333261.0 -- ./qchem1333261.0
rm -rf ./qchem1333261.0
rm -rf ./qchem1333261
