You are running Q-Chem version: 5.4.0

#
# job setting
#
local host:  exp-2-34
current dir: /home/rramji/project-csd799/aromodel/p3ht-qchem/rotation-run
input file:  Methylthiophene_Phi_25_Theta_220_Methylthiophene.qcin
output file: 
nprocs     : 1
nthreads   : 64
#
# qchem installation setting
#
QC:          /cm/shared/apps/spack/cpu/opt/spack/linux-centos8-zen2/gcc-10.2.0/qchem-5.4-akfmr7b3t57bfs6qan3padb2wnb2i7cl
QCAUX:       /cm/shared/apps/spack/cpu/opt/spack/linux-centos8-zen2/gcc-10.2.0/qchem-5.4-akfmr7b3t57bfs6qan3padb2wnb2i7cl/qcaux
QCPROG:      /cm/shared/apps/spack/cpu/opt/spack/linux-centos8-zen2/gcc-10.2.0/qchem-5.4-akfmr7b3t57bfs6qan3padb2wnb2i7cl/exe/qcprog.exe
QCPROG_S:    /cm/shared/apps/spack/cpu/opt/spack/linux-centos8-zen2/gcc-10.2.0/qchem-5.4-akfmr7b3t57bfs6qan3padb2wnb2i7cl/exe/qcprog.exe_s
PARALLEL:    -DPARALLEL
QCMPI:       mpich
#
# qchem directory setting
#
qcrun:       qchem273815
QCSCRATCH:   .
QCLOCALSCR:  
QCTMPDIR:    .
QCFILEPREF:  ./qchem273815
QCSAVEDIR:   
workdirs:    ./qchem273815
workdir0:    ./qchem273815
partmpdirs =  
#
# parallel setting
#
QCRSH:           ssh
QCMPI:           mpich
QCMPIRUN:        /cm/shared/apps/spack/cpu/opt/spack/linux-centos8-zen2/gcc-10.2.0/qchem-5.4-akfmr7b3t57bfs6qan3padb2wnb2i7cl/bin/mpi/mpirun_qchem
QCMACHINEFILE:   ./qchem273815/hostfile
exp-2-34

#
# env setting
#
exported envs:   QC QCAUX QCSCRATCH QCRUNNAME QCFILEPREF QCPROG QCPROG_S GUIFILE

Running Job 1 of 1 Methylthiophene_Phi_25_Theta_220_Methylthiophene.qcin
qchem Methylthiophene_Phi_25_Theta_220_Methylthiophene.qcin_273815.0 ./qchem273815/ 1
/cm/shared/apps/spack/cpu/opt/spack/linux-centos8-zen2/gcc-10.2.0/qchem-5.4-akfmr7b3t57bfs6qan3padb2wnb2i7cl/bin/mpi/mpirun_qchem -machinefile ./qchem273815/hostfile -np 1 /cm/shared/apps/spack/cpu/opt/spack/linux-centos8-zen2/gcc-10.2.0/qchem-5.4-akfmr7b3t57bfs6qan3padb2wnb2i7cl/exe/qcprog.exe Methylthiophene_Phi_25_Theta_220_Methylthiophene.qcin_273815.0 ./qchem273815/

Process 0 of 1 is on exp-2-34 - thread support 0
initial socket setup ...start
initial socket setup ...done 
now start server 0 ... 
                  Welcome to Q-Chem
     A Quantum Leap Into The Future Of Chemistry


 Q-Chem 5.4, Q-Chem, Inc., Pleasanton, CA (2021)

 License issued to: University of California, San Diego (site)

 E. Epifanovsky,  A. T. B. Gilbert,  Xintian Feng,  Joonho Lee,  Yuezhi Mao,  
 N. Mardirossian,  P. Pokhilko,  A. White,  M. Wormit,  M. P. Coons,  
 A. L. Dempwolff,  Zhengting Gan,  D. Hait,  P. R. Horn,  L. D. Jacobson,  
 I. Kaliman,  J. Kussmann,  A. W. Lange,  Ka Un Lao,  D. S. Levine,  Jie Liu,  
 S. C. McKenzie,  A. F. Morrison,  K. Nanda,  F. Plasser,  D. R. Rehn,  
 M. L. Vidal,  Zhi-Qiang You,  Ying Zhu,  B. Alam,  B. Albrecht,  
 A. Aldossary,  E. Alguire,  J. H. Andersen,  D. Barton,  K. Begam,  A. Behn,  
 Y. A. Bernard,  E. J. Berquist,  H. Burton,  A. Carreras,  K. Carter-Fenk,  
 R. Chakraborty,  A. D. Chien,  K. D. Closser,  V. Cofer-Shabica,  
 S. Dasgupta,  Jia Deng,  M. de Wergifosse,  M. Diedenhofen,  Hainam Do,  
 S. Ehlert,  Po-Tung Fang,  S. Fatehi,  Qingguo Feng,  J. Gayvert,  
 Qinghui Ge,  G. Gidofalvi,  M. Goldey,  J. Gomes,  C. Gonzalez-Espinoza,  
 S. Gulania,  A. Gunina,  M. W. D. Hanson-Heine,  P. H. P. Harbach,  
 A. W. Hauser,  M. F. Herbst,  M. Hernandez Vera,  M. Hodecker,  
 Z. C. Holden,  S. Houck,  Xunkun Huang,  Kerwin Hui,  B. C. Huynh,  
 M. Ivanov,  Hyunjun Ji,  Hanjie Jiang,  B. Kaduk,  S. Kaehler,  
 K. Khistyaev,  Jaehoon Kim,  P. Klunzinger,  Z. Koczor-Benda,  
 Joong Hoon Koh,  D. Kosenkov,  L. Koulias,  T. Kowalczyk,  C. M. Krauter,  
 K. Kue,  A. Kunitsa,  T. Kus,  A. Landau,  K. V. Lawler,  D. Lefrancois,  
 S. Lehtola,  Rain Li,  Yi-Pei Li,  Jiashu Liang,  M. Liebenthal,  
 Hung-Hsuan Lin,  You-Sheng Lin,  Fenglai Liu,  Kuan-Yu Liu,  
 M. Loipersberger,  A. Luenser,  A. Manjanath,  P. Manohar,  E. Mansoor,  
 S. F. Manzer,  Shan-Ping Mao,  A. V. Marenich,  T. Markovich,  S. Mason,  
 S. A. Maurer,  P. F. McLaughlin,  M. F. S. J. Menger,  J.-M. Mewes,  
 S. A. Mewes,  P. Morgante,  J. W. Mullinax,  T. S. Nguyen-Beck,  
 K. J. Oosterbaan,  G. Paran,  Alexander C. Paul,  Suranjan K. Paul,  
 F. Pavosevic,  Zheng Pei,  S. Prager,  E. I. Proynov,  E. Ramos,  B. Rana,  
 A. E. Rask,  A. Rettig,  R. M. Richard,  F. Rob,  E. Rossomme,  T. Scheele,  
 M. Scheurer,  M. Schneider,  N. Sergueev,  S. M. Sharada,  W. Skomorowski,  
 D. W. Small,  C. J. Stein,  Yu-Chuan Su,  E. J. Sundstrom,  Zhen Tao,  
 J. Thirman,  T. Tsuchimochi,  N. M. Tubman,  S. P. Veccham,  O. Vydrov,  
 J. Wenzel,  J. Witte,  A. Yamada,  Kun Yao,  S. Yeganeh,  S. R. Yost,  
 A. Zech,  Igor Ying Zhang,  Xing Zhang,  Yu Zhang,  D. Zuev,  
 A. Aspuru-Guzik,  A. T. Bell,  N. A. Besley,  K. B. Bravaya,  B. R. Brooks,  
 D. Casanova,  Jeng-Da Chai,  S. Coriani,  C. J. Cramer,  
 A. E. DePrince, III,  R. A. DiStasio Jr.,  A. Dreuw,  B. D. Dunietz,  
 T. R. Furlani,  W. A. Goddard III,  S. Grimme,  S. Hammes-Schiffer,  
 T. Head-Gordon,  W. J. Hehre,  Chao-Ping Hsu,  T.-C. Jagau,  Yousung Jung,  
 A. Klamt,  Jing Kong,  D. S. Lambrecht,  WanZhen Liang,  N. J. Mayhall,  
 C. W. McCurdy,  J. B. Neaton,  C. Ochsenfeld,  J. A. Parkhill,  R. Peverati,  
 V. A. Rassolov,  Yihan Shao,  L. V. Slipchenko,  T. Stauch,  R. P. Steele,  
 J. E. Subotnik,  A. J. W. Thom,  A. Tkatchenko,  D. G. Truhlar,  
 T. Van Voorhis,  T. A. Wesolowski,  K. B. Whaley,  H. L. Woodcock III,  
 P. M. Zimmerman,  S. Faraji,  P. M. W. Gill,  M. Head-Gordon,  
 J. M. Herbert,  A. I. Krylov

 Contributors to earlier versions of Q-Chem not listed above: 
 R. D. Adamson,  B. Austin,  R. Baer,  J. Baker,  G. J. O. Beran,  
 K. Brandhorst,  S. T. Brown,  E. F. C. Byrd,  A. K. Chakraborty,  
 G. K. L. Chan,  Chun-Min Chang,  Yunqing Chen,  C.-L. Cheng,  
 Siu Hung Chien,  D. M. Chipman,  D. L. Crittenden,  H. Dachsel,  
 R. J. Doerksen,  A. D. Dutoi,  R. G. Edgar,  J. Fosso-Tande,  
 L. Fusti-Molnar,  D. Ghosh,  A. Ghysels,  A. Golubeva-Zadorozhnaya,  
 J. Gonthier,  M. S. Gordon,  S. R. Gwaltney,  G. Hawkins,  J. E. Herr,  
 A. Heyden,  S. Hirata,  E. G. Hohenstein,  G. Kedziora,  F. J. Keil,  
 C. Kelley,  Jihan Kim,  R. A. King,  R. Z. Khaliullin,  P. P. Korambath,  
 W. Kurlancheek,  A. Laurent,  A. M. Lee,  M. S. Lee,  S. V. Levchenko,  
 Ching Yeh Lin,  D. Liotard,  E. Livshits,  R. C. Lochan,  I. Lotan,  
 L. A. Martinez-Martinez,  P. E. Maslen,  N. Nair,  D. P. O'Neill,  
 D. Neuhauser,  E. Neuscamman,  C. M. Oana,  R. Olivares-Amaya,  R. Olson,  
 T. M. Perrine,  B. Peters,  P. A. Pieniazek,  A. Prociuk,  Y. M. Rhee,  
 J. Ritchie,  M. A. Rohrdanz,  E. Rosta,  N. J. Russ,  H. F. Schaefer III,  
 M. W. Schmidt,  N. E. Schultz,  S. Sharma,  N. Shenvi,  C. D. Sherrill,  
 A. C. Simmonett,  A. Sodt,  T. Stein,  D. Stuck,  K. S. Thanthiriwatte,  
 V. Vanovschi,  L. Vogt,  Tao Wang,  A. Warshel,  M. A. Watson,  
 C. F. Williams,  Q. Wu,  X. Xu,  Jun Yang,  W. Zhang,  Yan Zhao

 Please cite Q-Chem as follows:
 Y. Shao et al., Mol. Phys. 113, 184-215 (2015)
 DOI: 10.1080/00268976.2014.952696

 Q-Chem 5.4.0 for Intel X86 EM64T Linux

 Parts of Q-Chem use Armadillo 9.800.1 (Horizon Scraper).
 http://arma.sourceforge.net/

 Q-Chem begins on Wed Dec 13 16:11:37 2023  

 Host: 
0

     Scratch files written to ./qchem273815//
 May1621 |scratch|qcdevops|jenkins|workspace|build_RNUM    
 Parallel job on  1  processors
 Processing $rem in /cm/shared/apps/spack/cpu/opt/spack/linux-centos8-zen2/gcc-10.2.0/qchem-5.4-akfmr7b3t57bfs6qan3padb2wnb2i7cl/config/preferences:
 Processing $rem in /home/rramji/.qchemrc:
 Symmetry turned off for PCM/SM12/SMD calculation
 Core orbitals will be frozen

 Checking the input file for inconsistencies... 	...done.

 Q-Chem warning in module forms1/BasisType.C, line 2236:

 You are not using the predefined 5D/6D in this basis set.


--------------------------------------------------------------
User input:
--------------------------------------------------------------
$molecule
0 1
C	0.466510	-3.887800	-0.554267
C	-0.424173	-3.701456	0.507121
C	-0.697244	-2.345170	0.831575
H	-0.877789	-4.545233	1.048337
C	0.000000	-1.450135	0.000000
S	0.982150	-2.321334	-1.169911
C	-1.627024	-1.934439	1.939374
H	-2.054010	-2.819799	2.448894
H	-2.475299	-1.326210	1.561545
H	-1.108051	-1.325374	2.708773
H	0.841863	-4.815326	-1.000944
C	0.000000	0.000000	0.000000
C	0.354153	0.766774	1.113020
C	0.937751	2.029404	0.820578
H	0.191350	0.414475	2.142881
C	1.042030	2.254581	-0.563588
S	0.406851	0.881228	-1.464748
C	1.384426	2.995779	1.882380
H	1.196413	2.589194	2.894974
H	0.849641	3.965707	1.808137
H	2.469756	3.216753	1.808230
H	1.443919	3.124243	-1.097114
$end

$rem
JOBTYPE		SP
EXCHANGE	HF
CORRELATION	pRIMP2
BASIS		cc-pvtz
METHOD		rimp2
AUX_BASIS	rimp2-cc-pvtz
SOLVENT_METHOD	PCM
PURECART	11111
SYMMETRY	false
MEM_TOTAL	110000
SCF_CONVERGENCE = 6
THRESH=10
GUI = 2
$end



$solvent
dielectric 4.90
$end
--------------------------------------------------------------
 ----------------------------------------------------------------
             Standard Nuclear Orientation (Angstroms)
    I     Atom           X                Y                Z
 ----------------------------------------------------------------
    1      C       0.4665100000    -3.8878000000    -0.5542670000
    2      C      -0.4241730000    -3.7014560000     0.5071210000
    3      C      -0.6972440000    -2.3451700000     0.8315750000
    4      H      -0.8777890000    -4.5452330000     1.0483370000
    5      C       0.0000000000    -1.4501350000     0.0000000000
    6      S       0.9821500000    -2.3213340000    -1.1699110000
    7      C      -1.6270240000    -1.9344390000     1.9393740000
    8      H      -2.0540100000    -2.8197990000     2.4488940000
    9      H      -2.4752990000    -1.3262100000     1.5615450000
   10      H      -1.1080510000    -1.3253740000     2.7087730000
   11      H       0.8418630000    -4.8153260000    -1.0009440000
   12      C       0.0000000000     0.0000000000     0.0000000000
   13      C       0.3541530000     0.7667740000     1.1130200000
   14      C       0.9377510000     2.0294040000     0.8205780000
   15      H       0.1913500000     0.4144750000     2.1428810000
   16      C       1.0420300000     2.2545810000    -0.5635880000
   17      S       0.4068510000     0.8812280000    -1.4647480000
   18      C       1.3844260000     2.9957790000     1.8823800000
   19      H       1.1964130000     2.5891940000     2.8949740000
   20      H       0.8496410000     3.9657070000     1.8081370000
   21      H       2.4697560000     3.2167530000     1.8082300000
   22      H       1.4439190000     3.1242430000    -1.0971140000
 ----------------------------------------------------------------
 Nuclear Repulsion Energy =         838.86694339 hartrees
 There are       51 alpha and       51 beta electrons
 Requested basis set is cc-pVTZ
 There are 184 shells and 508 basis functions

 Total QAlloc Memory Limit 110000 MB
 Mega-Array Size       188 MB
 MEM_STATIC part       192 MB
 Discretize the solute cavity surface with Lebedev spheres
	Using 110 Lebedev grid points for each H atom
	Using 194 Lebedev grid points for other atoms
	Atomic van der Waals radii will be scaled by 1.20
 Remove points where switching function is < 1.0e-08
 Keep 1538 surface tesserae and discard 1890 interior tesserae
 Molecular Surface Area = 232.059 Angst**2
 Requested basis set is rimp2-cc-pVTZ
 There are 394 shells and 1354 basis functions
 A cutoff of  1.0D-10 yielded  12350 shell pairs
 There are     91602 function pairs (    118203 Cartesian)
 Smallest overlap matrix eigenvalue = 7.34E-05

 Scale SEOQF with 1.000000e-01/1.000000e-01/1.000000e-01

 Standard Electronic Orientation quadrupole field applied
 Nucleus-field energy     =     0.0000000253 hartrees
 Guess from superposition of atomic densities
 Warning:  Energy on first SCF cycle will be non-variational
 SAD guess density has 102.000000 electrons

 -----------------------------------------------------------------------
  General SCF calculation program by
  Eric Jon Sundstrom, Paul Horn, Yuezhi Mao, Dmitri Zuev, Alec White,
  David Stuck, Shaama M.S., Shane Yost, Joonho Lee, David Small,
  Daniel Levine, Susi Lehtola, Hugh Burton, Evgeny Epifanovsky,
  Bang C. Huynh
 -----------------------------------------------------------------------
 Hartree-Fock
 using 64 threads for integral computing
 -------------------------------------------------------
 OpenMP Integral computing Module                
 Release: version 1.0, May 2013, Q-Chem Inc. Pittsburgh 
 -------------------------------------------------------
 A restricted SCF calculation will be
 performed using DIIS
 SCF converges when DIIS error is below 1.0e-06
 ---------------------------------------
  Cycle       Energy         DIIS error
 ---------------------------------------
    1   -1184.2213508352      2.38e-02  
    2   -1179.5350255754      1.60e-03  
    3   -1179.6557130429      6.22e-04  
    4   -1179.6695604792      3.41e-04  
    5   -1179.6744604256      6.51e-05  
    6   -1179.6747346720      3.04e-05  
    7   -1179.6748189751      1.25e-05  
    8   -1179.6748459496      5.23e-06  
    9   -1179.6748507087      1.67e-06  
   10   -1179.6748511623      4.99e-07  Convergence criterion met
 ---------------------------------------
 SCF time:   CPU 1525.36s  wall 45.00s 

************** Final PCM Free Energy Summary **************
 G_electrostatic  =      -0.00850073 hartree =      -5.33429159 kcal/mol
 G_cavitation     =       0.00000000 hartree =       0.00000000 kcal/mol
 G_dispersion     =       0.00000000 hartree =       0.00000000 kcal/mol
 G_repulsion      =       0.00000000 hartree =       0.00000000 kcal/mol
 --------------------------------------------------
 Non-electrostatic Free Energy =       0.00000000 hartree =       0.00000000 kcal/mol
 Total                         =      -0.00850073 hartree =      -5.33429159 kcal/mol
 --------------------------------------------------
 SCF Energy (H0 + V/2)                       =   -1179.67485116 
 Solute Internal Energy (H0)                 =   -1179.66635043 
 Total Free Energy (H0 + V/2 + non-elec)     =   -1179.67485116 hartree
                                             = -740257.14180488 kcal/mol
***********************************************************

 SCF   energy in the final basis set =    -1179.6748511623
 Total energy in the final basis set =    -1179.6748511623


 --------------------------------------------------------------
  Generalized many-body perturbation theory program
  by Joonho Lee, Fazle Rob, Xintian Feng, Evgeny Epifanovsky

 No regularization used 
 (reg. param. = 0.0000e+00)
  (P|Q)^-1/2 Time:  CPU 22.53 s  wall 0.36 s

 In RI-MP2 calculation: 
 # of frozen core orbitals: 20

 Components of the RIMP2 correlation energy:
        aaaa    correlation energy =        -0.2530695860 a.u.
        abab    correlation energy =        -1.4755542551 a.u.
        bbbb    correlation energy =        -0.2530695860 a.u.
        non-Brillouin singles      =        -0.0000000000 a.u.
        total same-spin energy     =        -0.5061391720 a.u.
        total opposite-spin energy =        -1.4755542551 a.u.

 Total  RIMP2   correlation energy =        -1.9816934270 a.u.
        RIMP2         total energy =     -1181.6565445894 a.u.

 RI-MP2 Energy Time:  CPU 155.17 s  wall 2.80 s
 
 --------------------------------------------------------------
 
                    Orbital Energies (a.u.)
 --------------------------------------------------------------
 
 Alpha MOs
 -- Occupied --
-91.9867 -91.9848 -11.2792 -11.2774 -11.2691 -11.2681 -11.2532 -11.2478
-11.2455 -11.2419 -11.2300 -11.2291  -8.9864  -8.9844  -6.6673  -6.6667
 -6.6661  -6.6653  -6.6648  -6.6641  -1.1811  -1.1495  -1.0416  -1.0237
 -0.9961  -0.9559  -0.9120  -0.8939  -0.8013  -0.7528  -0.7308  -0.6974
 -0.6603  -0.6159  -0.5878  -0.5806  -0.5700  -0.5643  -0.5514  -0.5367
 -0.5304  -0.5201  -0.5069  -0.4911  -0.4837  -0.4737  -0.4556  -0.3610
 -0.3418  -0.3378  -0.2756
 -- Virtual --
  0.0667   0.1243   0.1412   0.1540   0.1621   0.1732   0.1779   0.1858
  0.1975   0.2008   0.2071   0.2234   0.2302   0.2372   0.2401   0.2449
  0.2615   0.2818   0.2959   0.3196   0.3332   0.3536   0.3577   0.3713
  0.3786   0.3834   0.3904   0.4018   0.4085   0.4111   0.4311   0.4408
  0.4469   0.4487   0.4698   0.4717   0.4770   0.4900   0.4929   0.5028
  0.5109   0.5190   0.5305   0.5362   0.5382   0.5518   0.5615   0.5665
  0.5743   0.5851   0.5871   0.5956   0.6037   0.6087   0.6156   0.6194
  0.6224   0.6315   0.6421   0.6428   0.6448   0.6526   0.6612   0.6734
  0.6874   0.6904   0.6963   0.7153   0.7220   0.7265   0.7411   0.7528
  0.7620   0.7778   0.7888   0.7979   0.8091   0.8203   0.8409   0.8440
  0.8570   0.8643   0.8776   0.9035   0.9119   0.9142   0.9231   0.9385
  0.9459   0.9564   0.9700   0.9970   1.0071   1.0183   1.0259   1.0314
  1.0488   1.0503   1.0625   1.0690   1.0740   1.0853   1.0904   1.1009
  1.1154   1.1229   1.1289   1.1387   1.1529   1.1660   1.1752   1.1902
  1.1950   1.2168   1.2291   1.2322   1.2361   1.2510   1.2620   1.2641
  1.2746   1.2828   1.3023   1.3191   1.3263   1.3393   1.3478   1.3679
  1.3753   1.3825   1.3985   1.4138   1.4167   1.4254   1.4399   1.4638
  1.4772   1.4827   1.5037   1.5077   1.5185   1.5295   1.5373   1.5483
  1.5527   1.5630   1.5698   1.5767   1.5817   1.5921   1.6078   1.6484
  1.6508   1.6670   1.6740   1.6774   1.6904   1.7068   1.7290   1.7308
  1.7431   1.7516   1.7709   1.7863   1.7965   1.8048   1.8423   1.8560
  1.8651   1.8916   1.9105   1.9179   1.9389   1.9575   1.9724   1.9838
  2.0033   2.0317   2.0883   2.1054   2.1249   2.1416   2.1449   2.1710
  2.1807   2.1921   2.2175   2.2293   2.2305   2.2517   2.2644   2.2731
  2.2871   2.2918   2.3078   2.3862   2.4058   2.4114   2.4418   2.4509
  2.4748   2.4872   2.5070   2.5169   2.5424   2.5626   2.5840   2.5861
  2.5993   2.6264   2.6550   2.6714   2.6771   2.6819   2.7183   2.7284
  2.7370   2.7486   2.7521   2.7594   2.7755   2.7804   2.7991   2.8088
  2.8280   2.8353   2.8493   2.8669   2.8876   2.9054   2.9197   2.9231
  2.9458   2.9671   2.9846   2.9928   3.0137   3.0242   3.0268   3.0364
  3.0467   3.0635   3.0967   3.1076   3.1123   3.1227   3.1337   3.1384
  3.1494   3.1548   3.1642   3.1801   3.1872   3.1961   3.2111   3.2207
  3.2367   3.2460   3.2559   3.2742   3.2791   3.2920   3.2975   3.3080
  3.3217   3.3253   3.3331   3.3466   3.3492   3.3652   3.3686   3.3841
  3.3861   3.3963   3.4007   3.4052   3.4149   3.4238   3.4264   3.4411
  3.4467   3.4647   3.4710   3.4784   3.4912   3.5017   3.5157   3.5227
  3.5285   3.5383   3.5403   3.5457   3.5635   3.5730   3.5832   3.5967
  3.6061   3.6088   3.6208   3.6290   3.6403   3.6429   3.6557   3.6594
  3.6721   3.6882   3.6922   3.7030   3.7203   3.7314   3.7411   3.7579
  3.7688   3.7776   3.7825   3.7890   3.7990   3.8204   3.8238   3.8386
  3.8498   3.8734   3.8834   3.8942   3.9140   3.9325   3.9397   3.9474
  3.9572   3.9800   4.0018   4.0090   4.0194   4.0307   4.0369   4.0469
  4.0557   4.0678   4.0922   4.0982   4.1046   4.1364   4.1430   4.1481
  4.1692   4.1833   4.1950   4.1983   4.2122   4.2213   4.2221   4.2265
  4.2521   4.2666   4.2745   4.2848   4.2902   4.3013   4.3245   4.3381
  4.3554   4.3586   4.3604   4.3925   4.4007   4.4043   4.4158   4.4255
  4.4472   4.4616   4.4645   4.4726   4.4920   4.5187   4.5374   4.5590
  4.5754   4.5997   4.6045   4.6176   4.6315   4.6473   4.6531   4.6728
  4.6922   4.7252   4.7442   4.7615   4.7699   4.7903   4.8331   4.8407
  4.8802   4.9010   4.9166   4.9289   4.9633   4.9807   5.0119   5.0574
  5.0879   5.0948   5.1150   5.1339   5.1694   5.1778   5.1977   5.2315
  5.2686   5.2755   5.2923   5.3113   5.3259   5.3653   5.3983   5.4017
  5.4122   5.4530   5.4656   5.4914   5.5210   5.5304   5.5477   5.5536
  5.5576   5.6128   5.6175   5.6238   5.6549   5.6713   5.6994   5.7136
  5.7775   5.8248   5.9101   5.9589   6.0312   6.1051   6.1245   6.2250
  6.2348   6.2438   6.2802   6.2871   6.3310   6.4144   6.5094   8.7454
  9.8084  11.6187  12.0700  12.8936  13.0325  13.7574  13.9614  14.2211
 14.3239
 --------------------------------------------------------------
 
          Ground-State Mulliken Net Atomic Charges

     Atom                 Charge (a.u.)
  ----------------------------------------
      1 C                    -0.223395
      2 C                    -0.248012
      3 C                     0.033715
      4 H                     0.184186
      5 C                    -0.026891
      6 S                     0.020686
      7 C                    -0.295045
      8 H                     0.110251
      9 H                     0.112270
     10 H                     0.105054
     11 H                     0.203967
     12 C                    -0.012989
     13 C                    -0.199629
     14 C                     0.009149
     15 H                     0.193153
     16 C                    -0.222365
     17 S                     0.007822
     18 C                    -0.271049
     19 H                     0.102142
     20 H                     0.108521
     21 H                     0.108424
     22 H                     0.200034
  ----------------------------------------
  Sum of atomic charges =     0.000000

 -----------------------------------------------------------------
                    Cartesian Multipole Moments
 -----------------------------------------------------------------
    Charge (ESU x 10^10)
                -0.0000
    Dipole Moment (Debye)
         X      -0.0234      Y       0.5943      Z       2.6212
       Tot       2.6878
    Quadrupole Moments (Debye-Ang)
        XX     -88.0763     XY       5.7536     YY     -71.4005
        XZ      -2.6788     YZ      -0.7473     ZZ     -82.7674
    Octopole Moments (Debye-Ang^2)
       XXX     -82.6823    XXY      53.0928    XYY     -11.7097
       YYY     110.7282    XXZ      -4.6319    XYZ      11.0871
       YYZ      -8.6651    XZZ     -24.9024    YZZ      51.8744
       ZZZ      -6.6233
    Hexadecapole Moments (Debye-Ang^3)
      XXXX    -537.1490   XXXY    -182.1598   XXYY    -546.8339
      XYYY    -169.8382   YYYY   -2464.4893   XXXZ      95.2022
      XXYZ     -34.7989   XYYZ     -23.9704   YYYZ     -76.7439
      XXZZ    -232.4089   XYZZ     -49.0528   YYZZ    -585.9684
      XZZZ      92.1126   YZZZ     -95.2656   ZZZZ    -864.4018
 -----------------------------------------------------------------
 Total job time:  56.63s(wall), 1818.23s(cpu) 
 Wed Dec 13 16:12:34 2023

        *************************************************************
        *                                                           *
        *  Thank you very much for using Q-Chem.  Have a nice day.  *
        *                                                           *
        *************************************************************


0 sent ACK to 0 
now end server 0 ... 
cleanup process ... done
remove work dirs ./qchem273815.0 -- ./qchem273815.0
rm -rf ./qchem273815.0
rm -rf ./qchem273815
