You are running Q-Chem version: 5.4.0

#
# job setting
#
local host:  exp-2-02
current dir: /home/rramji/project-csd799/aromodel/p3ht-qchem/rotation-run
input file:  Methylthiophene_Phi_20_Theta_170_Methylthiophene.qcin
output file: 
nprocs     : 1
nthreads   : 64
#
# qchem installation setting
#
QC:          /cm/shared/apps/spack/cpu/opt/spack/linux-centos8-zen2/gcc-10.2.0/qchem-5.4-akfmr7b3t57bfs6qan3padb2wnb2i7cl
QCAUX:       /cm/shared/apps/spack/cpu/opt/spack/linux-centos8-zen2/gcc-10.2.0/qchem-5.4-akfmr7b3t57bfs6qan3padb2wnb2i7cl/qcaux
QCPROG:      /cm/shared/apps/spack/cpu/opt/spack/linux-centos8-zen2/gcc-10.2.0/qchem-5.4-akfmr7b3t57bfs6qan3padb2wnb2i7cl/exe/qcprog.exe
QCPROG_S:    /cm/shared/apps/spack/cpu/opt/spack/linux-centos8-zen2/gcc-10.2.0/qchem-5.4-akfmr7b3t57bfs6qan3padb2wnb2i7cl/exe/qcprog.exe_s
PARALLEL:    -DPARALLEL
QCMPI:       mpich
#
# qchem directory setting
#
qcrun:       qchem1719442
QCSCRATCH:   .
QCLOCALSCR:  
QCTMPDIR:    .
QCFILEPREF:  ./qchem1719442
QCSAVEDIR:   
workdirs:    ./qchem1719442
workdir0:    ./qchem1719442
partmpdirs =  
#
# parallel setting
#
QCRSH:           ssh
QCMPI:           mpich
QCMPIRUN:        /cm/shared/apps/spack/cpu/opt/spack/linux-centos8-zen2/gcc-10.2.0/qchem-5.4-akfmr7b3t57bfs6qan3padb2wnb2i7cl/bin/mpi/mpirun_qchem
QCMACHINEFILE:   ./qchem1719442/hostfile
exp-2-02

#
# env setting
#
exported envs:   QC QCAUX QCSCRATCH QCRUNNAME QCFILEPREF QCPROG QCPROG_S GUIFILE

Running Job 1 of 1 Methylthiophene_Phi_20_Theta_170_Methylthiophene.qcin
qchem Methylthiophene_Phi_20_Theta_170_Methylthiophene.qcin_1719442.0 ./qchem1719442/ 1
/cm/shared/apps/spack/cpu/opt/spack/linux-centos8-zen2/gcc-10.2.0/qchem-5.4-akfmr7b3t57bfs6qan3padb2wnb2i7cl/bin/mpi/mpirun_qchem -machinefile ./qchem1719442/hostfile -np 1 /cm/shared/apps/spack/cpu/opt/spack/linux-centos8-zen2/gcc-10.2.0/qchem-5.4-akfmr7b3t57bfs6qan3padb2wnb2i7cl/exe/qcprog.exe Methylthiophene_Phi_20_Theta_170_Methylthiophene.qcin_1719442.0 ./qchem1719442/

Process 0 of 1 is on exp-2-02 - thread support 0
initial socket setup ...start
initial socket setup ...done 
now start server 0 ... 
                  Welcome to Q-Chem
     A Quantum Leap Into The Future Of Chemistry


 Q-Chem 5.4, Q-Chem, Inc., Pleasanton, CA (2021)

 License issued to: University of California, San Diego (site)

 E. Epifanovsky,  A. T. B. Gilbert,  Xintian Feng,  Joonho Lee,  Yuezhi Mao,  
 N. Mardirossian,  P. Pokhilko,  A. White,  M. Wormit,  M. P. Coons,  
 A. L. Dempwolff,  Zhengting Gan,  D. Hait,  P. R. Horn,  L. D. Jacobson,  
 I. Kaliman,  J. Kussmann,  A. W. Lange,  Ka Un Lao,  D. S. Levine,  Jie Liu,  
 S. C. McKenzie,  A. F. Morrison,  K. Nanda,  F. Plasser,  D. R. Rehn,  
 M. L. Vidal,  Zhi-Qiang You,  Ying Zhu,  B. Alam,  B. Albrecht,  
 A. Aldossary,  E. Alguire,  J. H. Andersen,  D. Barton,  K. Begam,  A. Behn,  
 Y. A. Bernard,  E. J. Berquist,  H. Burton,  A. Carreras,  K. Carter-Fenk,  
 R. Chakraborty,  A. D. Chien,  K. D. Closser,  V. Cofer-Shabica,  
 S. Dasgupta,  Jia Deng,  M. de Wergifosse,  M. Diedenhofen,  Hainam Do,  
 S. Ehlert,  Po-Tung Fang,  S. Fatehi,  Qingguo Feng,  J. Gayvert,  
 Qinghui Ge,  G. Gidofalvi,  M. Goldey,  J. Gomes,  C. Gonzalez-Espinoza,  
 S. Gulania,  A. Gunina,  M. W. D. Hanson-Heine,  P. H. P. Harbach,  
 A. W. Hauser,  M. F. Herbst,  M. Hernandez Vera,  M. Hodecker,  
 Z. C. Holden,  S. Houck,  Xunkun Huang,  Kerwin Hui,  B. C. Huynh,  
 M. Ivanov,  Hyunjun Ji,  Hanjie Jiang,  B. Kaduk,  S. Kaehler,  
 K. Khistyaev,  Jaehoon Kim,  P. Klunzinger,  Z. Koczor-Benda,  
 Joong Hoon Koh,  D. Kosenkov,  L. Koulias,  T. Kowalczyk,  C. M. Krauter,  
 K. Kue,  A. Kunitsa,  T. Kus,  A. Landau,  K. V. Lawler,  D. Lefrancois,  
 S. Lehtola,  Rain Li,  Yi-Pei Li,  Jiashu Liang,  M. Liebenthal,  
 Hung-Hsuan Lin,  You-Sheng Lin,  Fenglai Liu,  Kuan-Yu Liu,  
 M. Loipersberger,  A. Luenser,  A. Manjanath,  P. Manohar,  E. Mansoor,  
 S. F. Manzer,  Shan-Ping Mao,  A. V. Marenich,  T. Markovich,  S. Mason,  
 S. A. Maurer,  P. F. McLaughlin,  M. F. S. J. Menger,  J.-M. Mewes,  
 S. A. Mewes,  P. Morgante,  J. W. Mullinax,  T. S. Nguyen-Beck,  
 K. J. Oosterbaan,  G. Paran,  Alexander C. Paul,  Suranjan K. Paul,  
 F. Pavosevic,  Zheng Pei,  S. Prager,  E. I. Proynov,  E. Ramos,  B. Rana,  
 A. E. Rask,  A. Rettig,  R. M. Richard,  F. Rob,  E. Rossomme,  T. Scheele,  
 M. Scheurer,  M. Schneider,  N. Sergueev,  S. M. Sharada,  W. Skomorowski,  
 D. W. Small,  C. J. Stein,  Yu-Chuan Su,  E. J. Sundstrom,  Zhen Tao,  
 J. Thirman,  T. Tsuchimochi,  N. M. Tubman,  S. P. Veccham,  O. Vydrov,  
 J. Wenzel,  J. Witte,  A. Yamada,  Kun Yao,  S. Yeganeh,  S. R. Yost,  
 A. Zech,  Igor Ying Zhang,  Xing Zhang,  Yu Zhang,  D. Zuev,  
 A. Aspuru-Guzik,  A. T. Bell,  N. A. Besley,  K. B. Bravaya,  B. R. Brooks,  
 D. Casanova,  Jeng-Da Chai,  S. Coriani,  C. J. Cramer,  
 A. E. DePrince, III,  R. A. DiStasio Jr.,  A. Dreuw,  B. D. Dunietz,  
 T. R. Furlani,  W. A. Goddard III,  S. Grimme,  S. Hammes-Schiffer,  
 T. Head-Gordon,  W. J. Hehre,  Chao-Ping Hsu,  T.-C. Jagau,  Yousung Jung,  
 A. Klamt,  Jing Kong,  D. S. Lambrecht,  WanZhen Liang,  N. J. Mayhall,  
 C. W. McCurdy,  J. B. Neaton,  C. Ochsenfeld,  J. A. Parkhill,  R. Peverati,  
 V. A. Rassolov,  Yihan Shao,  L. V. Slipchenko,  T. Stauch,  R. P. Steele,  
 J. E. Subotnik,  A. J. W. Thom,  A. Tkatchenko,  D. G. Truhlar,  
 T. Van Voorhis,  T. A. Wesolowski,  K. B. Whaley,  H. L. Woodcock III,  
 P. M. Zimmerman,  S. Faraji,  P. M. W. Gill,  M. Head-Gordon,  
 J. M. Herbert,  A. I. Krylov

 Contributors to earlier versions of Q-Chem not listed above: 
 R. D. Adamson,  B. Austin,  R. Baer,  J. Baker,  G. J. O. Beran,  
 K. Brandhorst,  S. T. Brown,  E. F. C. Byrd,  A. K. Chakraborty,  
 G. K. L. Chan,  Chun-Min Chang,  Yunqing Chen,  C.-L. Cheng,  
 Siu Hung Chien,  D. M. Chipman,  D. L. Crittenden,  H. Dachsel,  
 R. J. Doerksen,  A. D. Dutoi,  R. G. Edgar,  J. Fosso-Tande,  
 L. Fusti-Molnar,  D. Ghosh,  A. Ghysels,  A. Golubeva-Zadorozhnaya,  
 J. Gonthier,  M. S. Gordon,  S. R. Gwaltney,  G. Hawkins,  J. E. Herr,  
 A. Heyden,  S. Hirata,  E. G. Hohenstein,  G. Kedziora,  F. J. Keil,  
 C. Kelley,  Jihan Kim,  R. A. King,  R. Z. Khaliullin,  P. P. Korambath,  
 W. Kurlancheek,  A. Laurent,  A. M. Lee,  M. S. Lee,  S. V. Levchenko,  
 Ching Yeh Lin,  D. Liotard,  E. Livshits,  R. C. Lochan,  I. Lotan,  
 L. A. Martinez-Martinez,  P. E. Maslen,  N. Nair,  D. P. O'Neill,  
 D. Neuhauser,  E. Neuscamman,  C. M. Oana,  R. Olivares-Amaya,  R. Olson,  
 T. M. Perrine,  B. Peters,  P. A. Pieniazek,  A. Prociuk,  Y. M. Rhee,  
 J. Ritchie,  M. A. Rohrdanz,  E. Rosta,  N. J. Russ,  H. F. Schaefer III,  
 M. W. Schmidt,  N. E. Schultz,  S. Sharma,  N. Shenvi,  C. D. Sherrill,  
 A. C. Simmonett,  A. Sodt,  T. Stein,  D. Stuck,  K. S. Thanthiriwatte,  
 V. Vanovschi,  L. Vogt,  Tao Wang,  A. Warshel,  M. A. Watson,  
 C. F. Williams,  Q. Wu,  X. Xu,  Jun Yang,  W. Zhang,  Yan Zhao

 Please cite Q-Chem as follows:
 Y. Shao et al., Mol. Phys. 113, 184-215 (2015)
 DOI: 10.1080/00268976.2014.952696

 Q-Chem 5.4.0 for Intel X86 EM64T Linux

 Parts of Q-Chem use Armadillo 9.800.1 (Horizon Scraper).
 http://arma.sourceforge.net/

 Q-Chem begins on Wed Dec 13 16:06:20 2023  

 Host: 
0

     Scratch files written to ./qchem1719442//
 May1621 |scratch|qcdevops|jenkins|workspace|build_RNUM    
 Parallel job on  1  processors
 Processing $rem in /cm/shared/apps/spack/cpu/opt/spack/linux-centos8-zen2/gcc-10.2.0/qchem-5.4-akfmr7b3t57bfs6qan3padb2wnb2i7cl/config/preferences:
 Processing $rem in /home/rramji/.qchemrc:
 Symmetry turned off for PCM/SM12/SMD calculation
 Core orbitals will be frozen

 Checking the input file for inconsistencies... 	...done.

 Q-Chem warning in module forms1/BasisType.C, line 2236:

 You are not using the predefined 5D/6D in this basis set.


--------------------------------------------------------------
User input:
--------------------------------------------------------------
$molecule
0 1
C	-0.124726	-3.887800	-0.713644
C	0.115824	-3.701456	0.650907
C	0.188844	-2.345170	1.068646
H	0.238841	-4.545233	1.346284
C	0.000000	-1.450135	0.000000
S	-0.264890	-2.321334	-1.504375
C	0.439816	-1.934439	2.492978
H	0.555669	-2.819799	3.147582
H	-0.394879	-1.326210	2.899931
H	1.362799	-1.325374	2.589982
H	-0.225628	-4.815326	-1.288299
C	0.000000	0.000000	0.000000
C	0.285976	0.794723	1.113020
C	0.757308	2.103412	0.820578
H	0.154498	0.429575	2.142881
C	0.841565	2.336821	-0.563588
S	0.328498	0.913334	-1.464748
C	1.118059	3.105040	1.882380
H	0.966197	2.683616	2.894974
H	0.500773	4.024668	1.808137
H	2.180000	3.419766	1.808230
H	1.166129	3.238200	-1.097114
$end

$rem
JOBTYPE		SP
EXCHANGE	HF
CORRELATION	pRIMP2
BASIS		cc-pvtz
METHOD		rimp2
AUX_BASIS	rimp2-cc-pvtz
SOLVENT_METHOD	PCM
PURECART	11111
SYMMETRY	false
MEM_TOTAL	110000
SCF_CONVERGENCE = 6
THRESH=10
GUI = 2
$end



$solvent
dielectric 4.90
$end
--------------------------------------------------------------
 ----------------------------------------------------------------
             Standard Nuclear Orientation (Angstroms)
    I     Atom           X                Y                Z
 ----------------------------------------------------------------
    1      C      -0.1247260000    -3.8878000000    -0.7136440000
    2      C       0.1158240000    -3.7014560000     0.6509070000
    3      C       0.1888440000    -2.3451700000     1.0686460000
    4      H       0.2388410000    -4.5452330000     1.3462840000
    5      C       0.0000000000    -1.4501350000     0.0000000000
    6      S      -0.2648900000    -2.3213340000    -1.5043750000
    7      C       0.4398160000    -1.9344390000     2.4929780000
    8      H       0.5556690000    -2.8197990000     3.1475820000
    9      H      -0.3948790000    -1.3262100000     2.8999310000
   10      H       1.3627990000    -1.3253740000     2.5899820000
   11      H      -0.2256280000    -4.8153260000    -1.2882990000
   12      C       0.0000000000     0.0000000000     0.0000000000
   13      C       0.2859760000     0.7947230000     1.1130200000
   14      C       0.7573080000     2.1034120000     0.8205780000
   15      H       0.1544980000     0.4295750000     2.1428810000
   16      C       0.8415650000     2.3368210000    -0.5635880000
   17      S       0.3284980000     0.9133340000    -1.4647480000
   18      C       1.1180590000     3.1050400000     1.8823800000
   19      H       0.9661970000     2.6836160000     2.8949740000
   20      H       0.5007730000     4.0246680000     1.8081370000
   21      H       2.1800000000     3.4197660000     1.8082300000
   22      H       1.1661290000     3.2382000000    -1.0971140000
 ----------------------------------------------------------------
 Nuclear Repulsion Energy =         839.30878044 hartrees
 There are       51 alpha and       51 beta electrons
 Requested basis set is cc-pVTZ
 There are 184 shells and 508 basis functions

 Total QAlloc Memory Limit 110000 MB
 Mega-Array Size       188 MB
 MEM_STATIC part       192 MB
 Discretize the solute cavity surface with Lebedev spheres
	Using 110 Lebedev grid points for each H atom
	Using 194 Lebedev grid points for other atoms
	Atomic van der Waals radii will be scaled by 1.20
 Remove points where switching function is < 1.0e-08
 Keep 1526 surface tesserae and discard 1902 interior tesserae
 Molecular Surface Area = 228.716 Angst**2
 Requested basis set is rimp2-cc-pVTZ
 There are 394 shells and 1354 basis functions
 A cutoff of  1.0D-10 yielded  12452 shell pairs
 There are     92354 function pairs (    119090 Cartesian)
 Smallest overlap matrix eigenvalue = 5.52E-05

 Scale SEOQF with 1.000000e-01/1.000000e-01/1.000000e-01

 Standard Electronic Orientation quadrupole field applied
 Nucleus-field energy     =     0.0000000194 hartrees
 Guess from superposition of atomic densities
 Warning:  Energy on first SCF cycle will be non-variational
 SAD guess density has 102.000000 electrons

 -----------------------------------------------------------------------
  General SCF calculation program by
  Eric Jon Sundstrom, Paul Horn, Yuezhi Mao, Dmitri Zuev, Alec White,
  David Stuck, Shaama M.S., Shane Yost, Joonho Lee, David Small,
  Daniel Levine, Susi Lehtola, Hugh Burton, Evgeny Epifanovsky,
  Bang C. Huynh
 -----------------------------------------------------------------------
 Hartree-Fock
 using 64 threads for integral computing
 -------------------------------------------------------
 OpenMP Integral computing Module                
 Release: version 1.0, May 2013, Q-Chem Inc. Pittsburgh 
 -------------------------------------------------------
 A restricted SCF calculation will be
 performed using DIIS
 SCF converges when DIIS error is below 1.0e-06
 ---------------------------------------
  Cycle       Energy         DIIS error
 ---------------------------------------
    1   -1184.2574864330      2.38e-02  
    2   -1179.5355391387      1.61e-03  
    3   -1179.6572605978      6.27e-04  
    4   -1179.6713700846      3.40e-04  
    5   -1179.6762740066      6.31e-05  
    6   -1179.6765360902      2.92e-05  
    7   -1179.6766134288      1.19e-05  
    8   -1179.6766369223      5.08e-06  
    9   -1179.6766410127      1.58e-06  
   10   -1179.6766414204      4.81e-07  Convergence criterion met
 ---------------------------------------
 SCF time:   CPU 1532.08s  wall 45.00s 

************** Final PCM Free Energy Summary **************
 G_electrostatic  =      -0.00876199 hartree =      -5.49823146 kcal/mol
 G_cavitation     =       0.00000000 hartree =       0.00000000 kcal/mol
 G_dispersion     =       0.00000000 hartree =       0.00000000 kcal/mol
 G_repulsion      =       0.00000000 hartree =       0.00000000 kcal/mol
 --------------------------------------------------
 Non-electrostatic Free Energy =       0.00000000 hartree =       0.00000000 kcal/mol
 Total                         =      -0.00876199 hartree =      -5.49823146 kcal/mol
 --------------------------------------------------
 SCF Energy (H0 + V/2)                       =   -1179.67664142 
 Solute Internal Energy (H0)                 =   -1179.66787943 
 Total Free Energy (H0 + V/2 + non-elec)     =   -1179.67664142 hartree
                                             = -740258.26520880 kcal/mol
***********************************************************

 SCF   energy in the final basis set =    -1179.6766414204
 Total energy in the final basis set =    -1179.6766414204


 --------------------------------------------------------------
  Generalized many-body perturbation theory program
  by Joonho Lee, Fazle Rob, Xintian Feng, Evgeny Epifanovsky

 No regularization used 
 (reg. param. = 0.0000e+00)
  (P|Q)^-1/2 Time:  CPU 27.13 s  wall 0.44 s

 In RI-MP2 calculation: 
 # of frozen core orbitals: 20

 Components of the RIMP2 correlation energy:
        aaaa    correlation energy =        -0.2533850692 a.u.
        abab    correlation energy =        -1.4755545488 a.u.
        bbbb    correlation energy =        -0.2533850692 a.u.
        non-Brillouin singles      =        -0.0000000000 a.u.
        total same-spin energy     =        -0.5067701384 a.u.
        total opposite-spin energy =        -1.4755545488 a.u.

 Total  RIMP2   correlation energy =        -1.9823246871 a.u.
        RIMP2         total energy =     -1181.6589661076 a.u.

 RI-MP2 Energy Time:  CPU 157.24 s  wall 2.60 s
 
 --------------------------------------------------------------
 
                    Orbital Energies (a.u.)
 --------------------------------------------------------------
 
 Alpha MOs
 -- Occupied --
-91.9855 -91.9844 -11.2816 -11.2794 -11.2717 -11.2668 -11.2524 -11.2522
-11.2438 -11.2407 -11.2313 -11.2298  -8.9853  -8.9844  -6.6663  -6.6657
 -6.6654  -6.6651  -6.6648  -6.6642  -1.1817  -1.1501  -1.0416  -1.0276
 -0.9956  -0.9556  -0.9149  -0.8950  -0.8014  -0.7562  -0.7274  -0.7019
 -0.6608  -0.6147  -0.5923  -0.5824  -0.5704  -0.5627  -0.5511  -0.5405
 -0.5294  -0.5233  -0.5034  -0.4924  -0.4853  -0.4757  -0.4515  -0.3690
 -0.3474  -0.3375  -0.2692
 -- Virtual --
  0.0615   0.1352   0.1407   0.1470   0.1618   0.1734   0.1801   0.1840
  0.1971   0.2038   0.2056   0.2172   0.2354   0.2362   0.2413   0.2697
  0.2726   0.2847   0.3055   0.3159   0.3253   0.3564   0.3671   0.3748
  0.3833   0.3869   0.3935   0.4031   0.4074   0.4207   0.4340   0.4409
  0.4570   0.4657   0.4742   0.4791   0.4834   0.4878   0.5066   0.5121
  0.5147   0.5205   0.5291   0.5334   0.5411   0.5486   0.5530   0.5716
  0.5860   0.5875   0.5897   0.6001   0.6086   0.6130   0.6192   0.6218
  0.6292   0.6321   0.6362   0.6396   0.6454   0.6619   0.6716   0.6770
  0.6802   0.6941   0.6962   0.7156   0.7234   0.7401   0.7440   0.7652
  0.7682   0.7748   0.7962   0.8023   0.8055   0.8200   0.8440   0.8528
  0.8592   0.8667   0.8788   0.8885   0.9067   0.9248   0.9397   0.9533
  0.9556   0.9714   0.9867   0.9899   1.0031   1.0196   1.0285   1.0382
  1.0505   1.0532   1.0633   1.0734   1.0770   1.0836   1.0912   1.0957
  1.1065   1.1215   1.1310   1.1399   1.1537   1.1678   1.1758   1.2052
  1.2093   1.2175   1.2256   1.2334   1.2402   1.2542   1.2589   1.2747
  1.2797   1.2819   1.2952   1.3126   1.3284   1.3404   1.3499   1.3690
  1.3841   1.3888   1.3993   1.4094   1.4185   1.4421   1.4510   1.4673
  1.4821   1.4924   1.5095   1.5215   1.5252   1.5368   1.5418   1.5540
  1.5633   1.5715   1.5769   1.5839   1.5891   1.6067   1.6246   1.6296
  1.6406   1.6623   1.6700   1.6897   1.6937   1.7128   1.7269   1.7421
  1.7521   1.7758   1.7802   1.8025   1.8152   1.8306   1.8391   1.8672
  1.8674   1.8987   1.9013   1.9146   1.9479   1.9661   1.9714   1.9875
  2.0113   2.0479   2.0769   2.1002   2.1355   2.1456   2.1580   2.1654
  2.1942   2.1984   2.2173   2.2278   2.2463   2.2613   2.2682   2.2730
  2.2763   2.2906   2.3019   2.3805   2.4062   2.4212   2.4491   2.4539
  2.4775   2.4886   2.5116   2.5283   2.5511   2.5758   2.5830   2.6199
  2.6231   2.6350   2.6639   2.6649   2.6939   2.7049   2.7169   2.7345
  2.7440   2.7454   2.7565   2.7623   2.7732   2.7869   2.7931   2.8086
  2.8092   2.8440   2.8511   2.8557   2.8733   2.8971   2.9210   2.9440
  2.9597   2.9687   2.9820   2.9942   3.0038   3.0189   3.0297   3.0502
  3.0622   3.0721   3.1015   3.1103   3.1142   3.1270   3.1397   3.1482
  3.1489   3.1585   3.1709   3.1806   3.1834   3.1863   3.2137   3.2208
  3.2296   3.2430   3.2581   3.2737   3.2790   3.2866   3.2948   3.3061
  3.3100   3.3168   3.3389   3.3483   3.3561   3.3636   3.3751   3.3817
  3.3838   3.3880   3.3980   3.4086   3.4160   3.4245   3.4356   3.4441
  3.4567   3.4677   3.4727   3.4866   3.4904   3.5032   3.5074   3.5243
  3.5256   3.5313   3.5353   3.5464   3.5617   3.5692   3.5881   3.5941
  3.5998   3.6135   3.6242   3.6272   3.6338   3.6478   3.6645   3.6765
  3.6829   3.6857   3.6933   3.7059   3.7131   3.7163   3.7400   3.7556
  3.7612   3.7776   3.7804   3.7957   3.8028   3.8094   3.8311   3.8482
  3.8631   3.8766   3.8993   3.9119   3.9224   3.9311   3.9484   3.9632
  3.9733   3.9833   4.0068   4.0114   4.0194   4.0324   4.0504   4.0540
  4.0631   4.0899   4.1036   4.1132   4.1286   4.1411   4.1545   4.1574
  4.1686   4.1815   4.1955   4.2044   4.2118   4.2163   4.2232   4.2364
  4.2485   4.2693   4.2761   4.2909   4.3068   4.3285   4.3307   4.3462
  4.3542   4.3630   4.3792   4.4005   4.4017   4.4047   4.4096   4.4326
  4.4430   4.4640   4.4745   4.4912   4.5285   4.5430   4.5572   4.5685
  4.5944   4.6184   4.6217   4.6293   4.6498   4.6576   4.6669   4.6854
  4.6998   4.7159   4.7635   4.7704   4.7861   4.7935   4.8513   4.8624
  4.8739   4.8855   4.9045   4.9618   4.9743   4.9902   4.9933   5.0550
  5.0971   5.1076   5.1168   5.1509   5.1694   5.1871   5.2073   5.2730
  5.2762   5.2911   5.3062   5.3141   5.3399   5.3678   5.3819   5.4011
  5.4119   5.4446   5.4665   5.4992   5.5133   5.5362   5.5516   5.5662
  5.5690   5.6093   5.6188   5.6305   5.6445   5.7003   5.7143   5.7408
  5.7851   5.8348   5.9078   5.9855   6.0540   6.1335   6.1935   6.2273
  6.2436   6.2677   6.2811   6.3197   6.3690   6.4564   6.5744   8.7454
  9.9596  11.5362  12.0398  12.8618  13.1455  13.7726  14.1393  14.2799
 14.5428
 --------------------------------------------------------------
 
          Ground-State Mulliken Net Atomic Charges

     Atom                 Charge (a.u.)
  ----------------------------------------
      1 C                    -0.215849
      2 C                    -0.249667
      3 C                     0.061531
      4 H                     0.185548
      5 C                    -0.041977
      6 S                     0.009780
      7 C                    -0.311671
      8 H                     0.118365
      9 H                     0.105625
     10 H                     0.113508
     11 H                     0.206383
     12 C                     0.038236
     13 C                    -0.271151
     14 C                     0.041410
     15 H                     0.196538
     16 C                    -0.251751
     17 S                     0.015762
     18 C                    -0.269678
     19 H                     0.101598
     20 H                     0.108710
     21 H                     0.108946
     22 H                     0.199805
  ----------------------------------------
  Sum of atomic charges =     0.000000

 -----------------------------------------------------------------
                    Cartesian Multipole Moments
 -----------------------------------------------------------------
    Charge (ESU x 10^10)
                -0.0000
    Dipole Moment (Debye)
         X       0.9483      Y       0.2644      Z       3.0066
       Tot       3.1637
    Quadrupole Moments (Debye-Ang)
        XX     -91.2632     XY       3.1649     YY     -69.9113
        XZ       1.5541     YZ      -1.2491     ZZ     -80.2499
    Octopole Moments (Debye-Ang^2)
       XXX     -74.0722    XXY      57.2814    XYY     -12.4843
       YYY     101.7043    XXZ      -5.7798    XYZ      -4.9675
       YYZ     -10.0548    XZZ     -21.0146    YZZ      39.6512
       ZZZ      -6.6310
    Hexadecapole Moments (Debye-Ang^3)
      XXXX    -259.9919   XXXY    -156.8081   XXYY    -555.8573
      XYYY    -115.7553   YYYY   -2492.8058   XXXZ     -82.9420
      XXYZ     -32.5406   XYYZ     -14.8288   YYYZ     -72.7420
      XXZZ    -229.7144   XYZZ     -45.2044   YYZZ    -589.4628
      XZZZ     -79.3765   YZZZ    -104.1042   ZZZZ   -1068.1768
 -----------------------------------------------------------------
 Total job time:  50.86s(wall), 1795.97s(cpu) 
 Wed Dec 13 16:07:10 2023

        *************************************************************
        *                                                           *
        *  Thank you very much for using Q-Chem.  Have a nice day.  *
        *                                                           *
        *************************************************************


0 sent ACK to 0 
now end server 0 ... 
cleanup process ... done
remove work dirs ./qchem1719442.0 -- ./qchem1719442.0
rm -rf ./qchem1719442.0
rm -rf ./qchem1719442
