You are running Q-Chem version: 5.4.0

#
# job setting
#
local host:  exp-4-03
current dir: /home/rramji/project-csd799/aromodel/p3ht-qchem/rotation-run
input file:  Methylthiophene_Phi_50_Theta_20_Methylthiophene.qcin
output file: 
nprocs     : 1
nthreads   : 64
#
# qchem installation setting
#
QC:          /cm/shared/apps/spack/cpu/opt/spack/linux-centos8-zen2/gcc-10.2.0/qchem-5.4-akfmr7b3t57bfs6qan3padb2wnb2i7cl
QCAUX:       /cm/shared/apps/spack/cpu/opt/spack/linux-centos8-zen2/gcc-10.2.0/qchem-5.4-akfmr7b3t57bfs6qan3padb2wnb2i7cl/qcaux
QCPROG:      /cm/shared/apps/spack/cpu/opt/spack/linux-centos8-zen2/gcc-10.2.0/qchem-5.4-akfmr7b3t57bfs6qan3padb2wnb2i7cl/exe/qcprog.exe
QCPROG_S:    /cm/shared/apps/spack/cpu/opt/spack/linux-centos8-zen2/gcc-10.2.0/qchem-5.4-akfmr7b3t57bfs6qan3padb2wnb2i7cl/exe/qcprog.exe_s
PARALLEL:    -DPARALLEL
QCMPI:       mpich
#
# qchem directory setting
#
qcrun:       qchem1332405
QCSCRATCH:   .
QCLOCALSCR:  
QCTMPDIR:    .
QCFILEPREF:  ./qchem1332405
QCSAVEDIR:   
workdirs:    ./qchem1332405
workdir0:    ./qchem1332405
partmpdirs =  
#
# parallel setting
#
QCRSH:           ssh
QCMPI:           mpich
QCMPIRUN:        /cm/shared/apps/spack/cpu/opt/spack/linux-centos8-zen2/gcc-10.2.0/qchem-5.4-akfmr7b3t57bfs6qan3padb2wnb2i7cl/bin/mpi/mpirun_qchem
QCMACHINEFILE:   ./qchem1332405/hostfile
exp-4-03

#
# env setting
#
exported envs:   QC QCAUX QCSCRATCH QCRUNNAME QCFILEPREF QCPROG QCPROG_S GUIFILE

Running Job 1 of 1 Methylthiophene_Phi_50_Theta_20_Methylthiophene.qcin
qchem Methylthiophene_Phi_50_Theta_20_Methylthiophene.qcin_1332405.0 ./qchem1332405/ 1
/cm/shared/apps/spack/cpu/opt/spack/linux-centos8-zen2/gcc-10.2.0/qchem-5.4-akfmr7b3t57bfs6qan3padb2wnb2i7cl/bin/mpi/mpirun_qchem -machinefile ./qchem1332405/hostfile -np 1 /cm/shared/apps/spack/cpu/opt/spack/linux-centos8-zen2/gcc-10.2.0/qchem-5.4-akfmr7b3t57bfs6qan3padb2wnb2i7cl/exe/qcprog.exe Methylthiophene_Phi_50_Theta_20_Methylthiophene.qcin_1332405.0 ./qchem1332405/

Process 0 of 1 is on exp-4-03 - thread support 0
initial socket setup ...start
initial socket setup ...done 
now start server 0 ... 
                  Welcome to Q-Chem
     A Quantum Leap Into The Future Of Chemistry


 Q-Chem 5.4, Q-Chem, Inc., Pleasanton, CA (2021)

 License issued to: University of California, San Diego (site)

 E. Epifanovsky,  A. T. B. Gilbert,  Xintian Feng,  Joonho Lee,  Yuezhi Mao,  
 N. Mardirossian,  P. Pokhilko,  A. White,  M. Wormit,  M. P. Coons,  
 A. L. Dempwolff,  Zhengting Gan,  D. Hait,  P. R. Horn,  L. D. Jacobson,  
 I. Kaliman,  J. Kussmann,  A. W. Lange,  Ka Un Lao,  D. S. Levine,  Jie Liu,  
 S. C. McKenzie,  A. F. Morrison,  K. Nanda,  F. Plasser,  D. R. Rehn,  
 M. L. Vidal,  Zhi-Qiang You,  Ying Zhu,  B. Alam,  B. Albrecht,  
 A. Aldossary,  E. Alguire,  J. H. Andersen,  D. Barton,  K. Begam,  A. Behn,  
 Y. A. Bernard,  E. J. Berquist,  H. Burton,  A. Carreras,  K. Carter-Fenk,  
 R. Chakraborty,  A. D. Chien,  K. D. Closser,  V. Cofer-Shabica,  
 S. Dasgupta,  Jia Deng,  M. de Wergifosse,  M. Diedenhofen,  Hainam Do,  
 S. Ehlert,  Po-Tung Fang,  S. Fatehi,  Qingguo Feng,  J. Gayvert,  
 Qinghui Ge,  G. Gidofalvi,  M. Goldey,  J. Gomes,  C. Gonzalez-Espinoza,  
 S. Gulania,  A. Gunina,  M. W. D. Hanson-Heine,  P. H. P. Harbach,  
 A. W. Hauser,  M. F. Herbst,  M. Hernandez Vera,  M. Hodecker,  
 Z. C. Holden,  S. Houck,  Xunkun Huang,  Kerwin Hui,  B. C. Huynh,  
 M. Ivanov,  Hyunjun Ji,  Hanjie Jiang,  B. Kaduk,  S. Kaehler,  
 K. Khistyaev,  Jaehoon Kim,  P. Klunzinger,  Z. Koczor-Benda,  
 Joong Hoon Koh,  D. Kosenkov,  L. Koulias,  T. Kowalczyk,  C. M. Krauter,  
 K. Kue,  A. Kunitsa,  T. Kus,  A. Landau,  K. V. Lawler,  D. Lefrancois,  
 S. Lehtola,  Rain Li,  Yi-Pei Li,  Jiashu Liang,  M. Liebenthal,  
 Hung-Hsuan Lin,  You-Sheng Lin,  Fenglai Liu,  Kuan-Yu Liu,  
 M. Loipersberger,  A. Luenser,  A. Manjanath,  P. Manohar,  E. Mansoor,  
 S. F. Manzer,  Shan-Ping Mao,  A. V. Marenich,  T. Markovich,  S. Mason,  
 S. A. Maurer,  P. F. McLaughlin,  M. F. S. J. Menger,  J.-M. Mewes,  
 S. A. Mewes,  P. Morgante,  J. W. Mullinax,  T. S. Nguyen-Beck,  
 K. J. Oosterbaan,  G. Paran,  Alexander C. Paul,  Suranjan K. Paul,  
 F. Pavosevic,  Zheng Pei,  S. Prager,  E. I. Proynov,  E. Ramos,  B. Rana,  
 A. E. Rask,  A. Rettig,  R. M. Richard,  F. Rob,  E. Rossomme,  T. Scheele,  
 M. Scheurer,  M. Schneider,  N. Sergueev,  S. M. Sharada,  W. Skomorowski,  
 D. W. Small,  C. J. Stein,  Yu-Chuan Su,  E. J. Sundstrom,  Zhen Tao,  
 J. Thirman,  T. Tsuchimochi,  N. M. Tubman,  S. P. Veccham,  O. Vydrov,  
 J. Wenzel,  J. Witte,  A. Yamada,  Kun Yao,  S. Yeganeh,  S. R. Yost,  
 A. Zech,  Igor Ying Zhang,  Xing Zhang,  Yu Zhang,  D. Zuev,  
 A. Aspuru-Guzik,  A. T. Bell,  N. A. Besley,  K. B. Bravaya,  B. R. Brooks,  
 D. Casanova,  Jeng-Da Chai,  S. Coriani,  C. J. Cramer,  
 A. E. DePrince, III,  R. A. DiStasio Jr.,  A. Dreuw,  B. D. Dunietz,  
 T. R. Furlani,  W. A. Goddard III,  S. Grimme,  S. Hammes-Schiffer,  
 T. Head-Gordon,  W. J. Hehre,  Chao-Ping Hsu,  T.-C. Jagau,  Yousung Jung,  
 A. Klamt,  Jing Kong,  D. S. Lambrecht,  WanZhen Liang,  N. J. Mayhall,  
 C. W. McCurdy,  J. B. Neaton,  C. Ochsenfeld,  J. A. Parkhill,  R. Peverati,  
 V. A. Rassolov,  Yihan Shao,  L. V. Slipchenko,  T. Stauch,  R. P. Steele,  
 J. E. Subotnik,  A. J. W. Thom,  A. Tkatchenko,  D. G. Truhlar,  
 T. Van Voorhis,  T. A. Wesolowski,  K. B. Whaley,  H. L. Woodcock III,  
 P. M. Zimmerman,  S. Faraji,  P. M. W. Gill,  M. Head-Gordon,  
 J. M. Herbert,  A. I. Krylov

 Contributors to earlier versions of Q-Chem not listed above: 
 R. D. Adamson,  B. Austin,  R. Baer,  J. Baker,  G. J. O. Beran,  
 K. Brandhorst,  S. T. Brown,  E. F. C. Byrd,  A. K. Chakraborty,  
 G. K. L. Chan,  Chun-Min Chang,  Yunqing Chen,  C.-L. Cheng,  
 Siu Hung Chien,  D. M. Chipman,  D. L. Crittenden,  H. Dachsel,  
 R. J. Doerksen,  A. D. Dutoi,  R. G. Edgar,  J. Fosso-Tande,  
 L. Fusti-Molnar,  D. Ghosh,  A. Ghysels,  A. Golubeva-Zadorozhnaya,  
 J. Gonthier,  M. S. Gordon,  S. R. Gwaltney,  G. Hawkins,  J. E. Herr,  
 A. Heyden,  S. Hirata,  E. G. Hohenstein,  G. Kedziora,  F. J. Keil,  
 C. Kelley,  Jihan Kim,  R. A. King,  R. Z. Khaliullin,  P. P. Korambath,  
 W. Kurlancheek,  A. Laurent,  A. M. Lee,  M. S. Lee,  S. V. Levchenko,  
 Ching Yeh Lin,  D. Liotard,  E. Livshits,  R. C. Lochan,  I. Lotan,  
 L. A. Martinez-Martinez,  P. E. Maslen,  N. Nair,  D. P. O'Neill,  
 D. Neuhauser,  E. Neuscamman,  C. M. Oana,  R. Olivares-Amaya,  R. Olson,  
 T. M. Perrine,  B. Peters,  P. A. Pieniazek,  A. Prociuk,  Y. M. Rhee,  
 J. Ritchie,  M. A. Rohrdanz,  E. Rosta,  N. J. Russ,  H. F. Schaefer III,  
 M. W. Schmidt,  N. E. Schultz,  S. Sharma,  N. Shenvi,  C. D. Sherrill,  
 A. C. Simmonett,  A. Sodt,  T. Stein,  D. Stuck,  K. S. Thanthiriwatte,  
 V. Vanovschi,  L. Vogt,  Tao Wang,  A. Warshel,  M. A. Watson,  
 C. F. Williams,  Q. Wu,  X. Xu,  Jun Yang,  W. Zhang,  Yan Zhao

 Please cite Q-Chem as follows:
 Y. Shao et al., Mol. Phys. 113, 184-215 (2015)
 DOI: 10.1080/00268976.2014.952696

 Q-Chem 5.4.0 for Intel X86 EM64T Linux

 Parts of Q-Chem use Armadillo 9.800.1 (Horizon Scraper).
 http://arma.sourceforge.net/

 Q-Chem begins on Wed Dec 13 15:52:13 2023  

 Host: 
0

     Scratch files written to ./qchem1332405//
 May1621 |scratch|qcdevops|jenkins|workspace|build_RNUM    
 Parallel job on  1  processors
 Processing $rem in /cm/shared/apps/spack/cpu/opt/spack/linux-centos8-zen2/gcc-10.2.0/qchem-5.4-akfmr7b3t57bfs6qan3padb2wnb2i7cl/config/preferences:
 Processing $rem in /home/rramji/.qchemrc:
 Symmetry turned off for PCM/SM12/SMD calculation
 Core orbitals will be frozen

 Checking the input file for inconsistencies... 	...done.

 Q-Chem warning in module forms1/BasisType.C, line 2236:

 You are not using the predefined 5D/6D in this basis set.


--------------------------------------------------------------
User input:
--------------------------------------------------------------
$molecule
0 1
C	-0.248806	-3.887800	0.680396
C	0.225147	-3.701456	-0.621614
C	0.370780	-2.345170	-1.019896
H	0.466300	-4.545233	-1.285337
C	0.000000	-1.450135	0.000000
S	-0.522786	-2.321334	1.435271
C	0.865597	-1.934439	-2.378891
H	1.092567	-2.819799	-3.003720
H	1.791940	-1.326210	-2.313975
H	0.114772	-1.325374	-2.924390
H	-0.448750	-4.815326	1.228514
C	0.000000	0.000000	0.000000
C	0.645024	0.545262	1.113020
C	1.707554	1.442954	0.820578
H	0.348587	0.294774	2.142881
C	1.897227	1.602964	-0.563588
S	0.741155	0.626722	-1.464748
C	2.520787	2.130014	1.882380
H	2.178559	1.840981	2.894974
H	2.446016	3.235078	1.808137
H	3.597818	1.871604	1.808230
H	2.628997	2.221299	-1.097114
$end

$rem
JOBTYPE		SP
EXCHANGE	HF
CORRELATION	pRIMP2
BASIS		cc-pvtz
METHOD		rimp2
AUX_BASIS	rimp2-cc-pvtz
SOLVENT_METHOD	PCM
PURECART	11111
SYMMETRY	false
MEM_TOTAL	110000
SCF_CONVERGENCE = 6
THRESH=10
GUI = 2
$end



$solvent
dielectric 4.90
$end
--------------------------------------------------------------
 ----------------------------------------------------------------
             Standard Nuclear Orientation (Angstroms)
    I     Atom           X                Y                Z
 ----------------------------------------------------------------
    1      C      -0.2488060000    -3.8878000000     0.6803960000
    2      C       0.2251470000    -3.7014560000    -0.6216140000
    3      C       0.3707800000    -2.3451700000    -1.0198960000
    4      H       0.4663000000    -4.5452330000    -1.2853370000
    5      C       0.0000000000    -1.4501350000     0.0000000000
    6      S      -0.5227860000    -2.3213340000     1.4352710000
    7      C       0.8655970000    -1.9344390000    -2.3788910000
    8      H       1.0925670000    -2.8197990000    -3.0037200000
    9      H       1.7919400000    -1.3262100000    -2.3139750000
   10      H       0.1147720000    -1.3253740000    -2.9243900000
   11      H      -0.4487500000    -4.8153260000     1.2285140000
   12      C       0.0000000000     0.0000000000     0.0000000000
   13      C       0.6450240000     0.5452620000     1.1130200000
   14      C       1.7075540000     1.4429540000     0.8205780000
   15      H       0.3485870000     0.2947740000     2.1428810000
   16      C       1.8972270000     1.6029640000    -0.5635880000
   17      S       0.7411550000     0.6267220000    -1.4647480000
   18      C       2.5207870000     2.1300140000     1.8823800000
   19      H       2.1785590000     1.8409810000     2.8949740000
   20      H       2.4460160000     3.2350780000     1.8081370000
   21      H       3.5978180000     1.8716040000     1.8082300000
   22      H       2.6289970000     2.2212990000    -1.0971140000
 ----------------------------------------------------------------
 Nuclear Repulsion Energy =         856.85094267 hartrees
 There are       51 alpha and       51 beta electrons
 Requested basis set is cc-pVTZ
 There are 184 shells and 508 basis functions

 Total QAlloc Memory Limit 110000 MB
 Mega-Array Size       188 MB
 MEM_STATIC part       192 MB
 Discretize the solute cavity surface with Lebedev spheres
	Using 110 Lebedev grid points for each H atom
	Using 194 Lebedev grid points for other atoms
	Atomic van der Waals radii will be scaled by 1.20
 Remove points where switching function is < 1.0e-08
 Keep 1488 surface tesserae and discard 1940 interior tesserae
 Molecular Surface Area = 224.498 Angst**2
 Requested basis set is rimp2-cc-pVTZ
 There are 394 shells and 1354 basis functions
 A cutoff of  1.0D-10 yielded  12717 shell pairs
 There are     94259 function pairs (    121570 Cartesian)
 Smallest overlap matrix eigenvalue = 6.58E-05

 Scale SEOQF with 1.000000e-01/1.000000e-01/1.000000e-01

 Standard Electronic Orientation quadrupole field applied
 Nucleus-field energy     =     0.0000000174 hartrees
 Guess from superposition of atomic densities
 Warning:  Energy on first SCF cycle will be non-variational
 SAD guess density has 102.000000 electrons

 -----------------------------------------------------------------------
  General SCF calculation program by
  Eric Jon Sundstrom, Paul Horn, Yuezhi Mao, Dmitri Zuev, Alec White,
  David Stuck, Shaama M.S., Shane Yost, Joonho Lee, David Small,
  Daniel Levine, Susi Lehtola, Hugh Burton, Evgeny Epifanovsky,
  Bang C. Huynh
 -----------------------------------------------------------------------
 Hartree-Fock
 using 64 threads for integral computing
 -------------------------------------------------------
 OpenMP Integral computing Module                
 Release: version 1.0, May 2013, Q-Chem Inc. Pittsburgh 
 -------------------------------------------------------
 A restricted SCF calculation will be
 performed using DIIS
 SCF converges when DIIS error is below 1.0e-06
 ---------------------------------------
  Cycle       Energy         DIIS error
 ---------------------------------------
    1   -1184.3698248084      2.40e-02  
    2   -1179.4786220841      1.59e-03  
    3   -1179.6010419085      5.94e-04  
    4   -1179.6147027991      3.18e-04  
    5   -1179.6190867506      6.46e-05  
    6   -1179.6193850467      3.17e-05  
    7   -1179.6194851243      1.45e-05  
    8   -1179.6195223543      5.90e-06  
    9   -1179.6195303809      2.58e-06  
   10   -1179.6195314846      1.03e-06  
   11   -1179.6195317045      5.54e-07  Convergence criterion met
 ---------------------------------------
 SCF time:   CPU 1647.04s  wall 49.00s 

************** Final PCM Free Energy Summary **************
 G_electrostatic  =      -0.00848807 hartree =      -5.32634394 kcal/mol
 G_cavitation     =       0.00000000 hartree =       0.00000000 kcal/mol
 G_dispersion     =       0.00000000 hartree =       0.00000000 kcal/mol
 G_repulsion      =       0.00000000 hartree =       0.00000000 kcal/mol
 --------------------------------------------------
 Non-electrostatic Free Energy =       0.00000000 hartree =       0.00000000 kcal/mol
 Total                         =      -0.00848807 hartree =      -5.32634394 kcal/mol
 --------------------------------------------------
 SCF Energy (H0 + V/2)                       =   -1179.61953170 
 Solute Internal Energy (H0)                 =   -1179.61104364 
 Total Free Energy (H0 + V/2 + non-elec)     =   -1179.61953170 hartree
                                             = -740222.42832114 kcal/mol
***********************************************************

 SCF   energy in the final basis set =    -1179.6195317045
 Total energy in the final basis set =    -1179.6195317045


 --------------------------------------------------------------
  Generalized many-body perturbation theory program
  by Joonho Lee, Fazle Rob, Xintian Feng, Evgeny Epifanovsky

 No regularization used 
 (reg. param. = 0.0000e+00)
  (P|Q)^-1/2 Time:  CPU 37.44 s  wall 0.60 s

 In RI-MP2 calculation: 
 # of frozen core orbitals: 20

 Components of the RIMP2 correlation energy:
        aaaa    correlation energy =        -0.2561885818 a.u.
        abab    correlation energy =        -1.4843634081 a.u.
        bbbb    correlation energy =        -0.2561885818 a.u.
        non-Brillouin singles      =        -0.0000000000 a.u.
        total same-spin energy     =        -0.5123771635 a.u.
        total opposite-spin energy =        -1.4843634081 a.u.

 Total  RIMP2   correlation energy =        -1.9967405717 a.u.
        RIMP2         total energy =     -1181.6162722762 a.u.

 RI-MP2 Energy Time:  CPU 168.03 s  wall 3.49 s
 
 --------------------------------------------------------------
 
                    Orbital Energies (a.u.)
 --------------------------------------------------------------
 
 Alpha MOs
 -- Occupied --
-91.9811 -91.9770 -11.2809 -11.2804 -11.2666 -11.2609 -11.2559 -11.2527
-11.2396 -11.2383 -11.2304 -11.2224  -8.9824  -8.9773  -6.6630  -6.6623
 -6.6619  -6.6583  -6.6577  -6.6570  -1.1879  -1.1461  -1.0453  -1.0231
 -0.9975  -0.9509  -0.9104  -0.8964  -0.7934  -0.7649  -0.7240  -0.6947
 -0.6559  -0.6187  -0.5880  -0.5831  -0.5769  -0.5692  -0.5499  -0.5341
 -0.5234  -0.5227  -0.5113  -0.4954  -0.4722  -0.4579  -0.4440  -0.3687
 -0.3393  -0.3333  -0.2641
 -- Virtual --
  0.0595   0.1246   0.1406   0.1559   0.1634   0.1681   0.1747   0.1850
  0.1931   0.1971   0.2051   0.2127   0.2318   0.2387   0.2438   0.2477
  0.2678   0.2764   0.2943   0.3151   0.3381   0.3528   0.3572   0.3620
  0.3749   0.3895   0.4010   0.4042   0.4102   0.4206   0.4388   0.4472
  0.4534   0.4623   0.4673   0.4765   0.4794   0.4858   0.4906   0.5070
  0.5154   0.5180   0.5295   0.5373   0.5472   0.5549   0.5595   0.5724
  0.5800   0.5897   0.5924   0.5955   0.6010   0.6150   0.6194   0.6234
  0.6305   0.6317   0.6400   0.6468   0.6507   0.6608   0.6614   0.6692
  0.6746   0.6892   0.7020   0.7073   0.7245   0.7407   0.7506   0.7619
  0.7666   0.7770   0.7905   0.8046   0.8228   0.8412   0.8442   0.8488
  0.8567   0.8624   0.8676   0.8797   0.9114   0.9245   0.9318   0.9418
  0.9542   0.9655   0.9764   0.9841   1.0007   1.0174   1.0289   1.0396
  1.0476   1.0616   1.0708   1.0748   1.0818   1.0896   1.1031   1.1084
  1.1155   1.1288   1.1417   1.1482   1.1651   1.1746   1.1896   1.1970
  1.2098   1.2189   1.2291   1.2355   1.2426   1.2610   1.2637   1.2742
  1.2888   1.3006   1.3059   1.3172   1.3515   1.3558   1.3630   1.3756
  1.3891   1.4075   1.4087   1.4100   1.4171   1.4232   1.4481   1.4580
  1.4693   1.4846   1.4946   1.5098   1.5177   1.5279   1.5431   1.5504
  1.5570   1.5649   1.5682   1.5715   1.5817   1.6047   1.6085   1.6300
  1.6399   1.6678   1.6761   1.6797   1.6996   1.7070   1.7109   1.7305
  1.7576   1.7689   1.7778   1.7899   1.8149   1.8298   1.8385   1.8755
  1.8861   1.9020   1.9095   1.9223   1.9572   1.9696   1.9944   2.0158
  2.0410   2.0707   2.0747   2.1031   2.1182   2.1269   2.1387   2.1723
  2.1899   2.1913   2.2090   2.2118   2.2499   2.2676   2.2728   2.2782
  2.3095   2.3134   2.3319   2.3636   2.4114   2.4270   2.4398   2.4651
  2.4959   2.5074   2.5207   2.5343   2.5485   2.5612   2.5978   2.6133
  2.6278   2.6361   2.6568   2.6780   2.6828   2.7120   2.7215   2.7302
  2.7431   2.7502   2.7564   2.7632   2.7781   2.7899   2.8051   2.8158
  2.8343   2.8380   2.8507   2.8557   2.8869   2.9128   2.9279   2.9506
  2.9638   2.9810   2.9902   3.0024   3.0146   3.0305   3.0327   3.0468
  3.0583   3.0718   3.0965   3.1102   3.1231   3.1379   3.1454   3.1483
  3.1609   3.1650   3.1782   3.1840   3.1951   3.2123   3.2169   3.2255
  3.2332   3.2532   3.2590   3.2652   3.2808   3.2876   3.3070   3.3159
  3.3222   3.3296   3.3368   3.3423   3.3514   3.3549   3.3709   3.3829
  3.3984   3.4026   3.4094   3.4163   3.4305   3.4314   3.4408   3.4578
  3.4582   3.4710   3.4758   3.4889   3.5017   3.5063   3.5161   3.5203
  3.5270   3.5385   3.5464   3.5557   3.5654   3.5778   3.5948   3.6019
  3.6161   3.6188   3.6280   3.6402   3.6500   3.6648   3.6685   3.6844
  3.6981   3.7101   3.7192   3.7256   3.7395   3.7400   3.7540   3.7674
  3.7800   3.7932   3.8043   3.8138   3.8204   3.8376   3.8405   3.8694
  3.8803   3.8854   3.8996   3.9088   3.9279   3.9410   3.9571   3.9630
  3.9658   3.9864   4.0019   4.0215   4.0277   4.0338   4.0433   4.0559
  4.0654   4.0782   4.0866   4.1017   4.1286   4.1325   4.1634   4.1671
  4.1801   4.1858   4.2017   4.2061   4.2140   4.2299   4.2388   4.2440
  4.2614   4.2769   4.2883   4.2984   4.3076   4.3238   4.3248   4.3391
  4.3509   4.3653   4.3815   4.3826   4.3981   4.4042   4.4272   4.4429
  4.4540   4.4700   4.4936   4.5037   4.5113   4.5357   4.5516   4.5725
  4.6001   4.6036   4.6221   4.6293   4.6469   4.6526   4.6724   4.6888
  4.6954   4.7129   4.7389   4.7560   4.7604   4.8015   4.8101   4.8445
  4.8823   4.9019   4.9093   4.9285   4.9388   4.9544   4.9846   5.0608
  5.0790   5.0814   5.1147   5.1527   5.1659   5.1816   5.1949   5.2071
  5.2764   5.2819   5.2960   5.3106   5.3161   5.3682   5.3965   5.4010
  5.4109   5.4454   5.4693   5.4769   5.5135   5.5342   5.5507   5.5601
  5.5841   5.5963   5.6235   5.6360   5.6412   5.6537   5.6974   5.7316
  5.7928   5.8132   5.9348   6.0035   6.0251   6.0937   6.1605   6.2157
  6.2272   6.2646   6.2689   6.3022   6.3477   6.3772   6.5234   8.6449
  9.6611  11.5785  12.2550  12.8354  13.1500  13.7651  13.8774  14.2158
 14.4703
 --------------------------------------------------------------
 
          Ground-State Mulliken Net Atomic Charges

     Atom                 Charge (a.u.)
  ----------------------------------------
      1 C                    -0.232111
      2 C                    -0.250403
      3 C                     0.019887
      4 H                     0.184251
      5 C                    -0.014421
      6 S                    -0.014786
      7 C                    -0.284411
      8 H                     0.104097
      9 H                     0.116508
     10 H                     0.104853
     11 H                     0.201692
     12 C                    -0.062422
     13 C                    -0.142416
     14 C                    -0.007407
     15 H                     0.184519
     16 C                    -0.204062
     17 S                     0.044484
     18 C                    -0.266136
     19 H                     0.103220
     20 H                     0.107660
     21 H                     0.106099
     22 H                     0.201305
  ----------------------------------------
  Sum of atomic charges =     0.000000

 -----------------------------------------------------------------
                    Cartesian Multipole Moments
 -----------------------------------------------------------------
    Charge (ESU x 10^10)
                -0.0000
    Dipole Moment (Debye)
         X       2.7903      Y       1.0588      Z      -0.0973
       Tot       2.9860
    Quadrupole Moments (Debye-Ang)
        XX     -84.6460     XY       5.0432     YY     -79.0231
        XZ      -1.6667     YZ       2.8433     ZZ     -80.5209
    Octopole Moments (Debye-Ang^2)
       XXX    -147.1349    XXY      90.5928    XYY     -42.5220
       YYY     161.6451    XXZ      -2.7697    XYZ       5.6503
       YYZ       0.8593    XZZ     -46.6225    YZZ      63.6579
       ZZZ       5.9925
    Hexadecapole Moments (Debye-Ang^3)
      XXXX    -732.6858   XXXY    -208.0710   XXYY    -538.2659
      XYYY    -209.4620   YYYY   -2176.8437   XXXZ       5.9564
      XXYZ     -28.4895   XYYZ     -32.4660   YYYZ     -97.4363
      XXZZ    -290.4925   XYZZ     -69.8612   YYZZ    -538.1958
      XZZZ       5.9230   YZZZ     -61.4109   ZZZZ   -1023.0510
 -----------------------------------------------------------------
 Total job time:  55.68s(wall), 1910.29s(cpu) 
 Wed Dec 13 15:53:08 2023

        *************************************************************
        *                                                           *
        *  Thank you very much for using Q-Chem.  Have a nice day.  *
        *                                                           *
        *************************************************************


0 sent ACK to 0 
now end server 0 ... 
cleanup process ... done
remove work dirs ./qchem1332405.0 -- ./qchem1332405.0
rm -rf ./qchem1332405.0
rm -rf ./qchem1332405
