You are running Q-Chem version: 5.4.0

#
# job setting
#
local host:  exp-1-10
current dir: /home/rramji/project-csd799/aromodel/p3ht-qchem/rotation-run
input file:  Methylthiophene_Phi_0_Theta_130_Methylthiophene.qcin
output file: 
nprocs     : 1
nthreads   : 64
#
# qchem installation setting
#
QC:          /cm/shared/apps/spack/cpu/opt/spack/linux-centos8-zen2/gcc-10.2.0/qchem-5.4-akfmr7b3t57bfs6qan3padb2wnb2i7cl
QCAUX:       /cm/shared/apps/spack/cpu/opt/spack/linux-centos8-zen2/gcc-10.2.0/qchem-5.4-akfmr7b3t57bfs6qan3padb2wnb2i7cl/qcaux
QCPROG:      /cm/shared/apps/spack/cpu/opt/spack/linux-centos8-zen2/gcc-10.2.0/qchem-5.4-akfmr7b3t57bfs6qan3padb2wnb2i7cl/exe/qcprog.exe
QCPROG_S:    /cm/shared/apps/spack/cpu/opt/spack/linux-centos8-zen2/gcc-10.2.0/qchem-5.4-akfmr7b3t57bfs6qan3padb2wnb2i7cl/exe/qcprog.exe_s
PARALLEL:    -DPARALLEL
QCMPI:       mpich
#
# qchem directory setting
#
qcrun:       qchem1459141
QCSCRATCH:   .
QCLOCALSCR:  
QCTMPDIR:    .
QCFILEPREF:  ./qchem1459141
QCSAVEDIR:   
workdirs:    ./qchem1459141
workdir0:    ./qchem1459141
partmpdirs =  
#
# parallel setting
#
QCRSH:           ssh
QCMPI:           mpich
QCMPIRUN:        /cm/shared/apps/spack/cpu/opt/spack/linux-centos8-zen2/gcc-10.2.0/qchem-5.4-akfmr7b3t57bfs6qan3padb2wnb2i7cl/bin/mpi/mpirun_qchem
QCMACHINEFILE:   ./qchem1459141/hostfile
exp-1-10

#
# env setting
#
exported envs:   QC QCAUX QCSCRATCH QCRUNNAME QCFILEPREF QCPROG QCPROG_S GUIFILE

Running Job 1 of 1 Methylthiophene_Phi_0_Theta_130_Methylthiophene.qcin
qchem Methylthiophene_Phi_0_Theta_130_Methylthiophene.qcin_1459141.0 ./qchem1459141/ 1
/cm/shared/apps/spack/cpu/opt/spack/linux-centos8-zen2/gcc-10.2.0/qchem-5.4-akfmr7b3t57bfs6qan3padb2wnb2i7cl/bin/mpi/mpirun_qchem -machinefile ./qchem1459141/hostfile -np 1 /cm/shared/apps/spack/cpu/opt/spack/linux-centos8-zen2/gcc-10.2.0/qchem-5.4-akfmr7b3t57bfs6qan3padb2wnb2i7cl/exe/qcprog.exe Methylthiophene_Phi_0_Theta_130_Methylthiophene.qcin_1459141.0 ./qchem1459141/

Process 0 of 1 is on exp-1-10 - thread support 0
initial socket setup ...start
initial socket setup ...done 
now start server 0 ... 
                  Welcome to Q-Chem
     A Quantum Leap Into The Future Of Chemistry


 Q-Chem 5.4, Q-Chem, Inc., Pleasanton, CA (2021)

 License issued to: University of California, San Diego (site)

 E. Epifanovsky,  A. T. B. Gilbert,  Xintian Feng,  Joonho Lee,  Yuezhi Mao,  
 N. Mardirossian,  P. Pokhilko,  A. White,  M. Wormit,  M. P. Coons,  
 A. L. Dempwolff,  Zhengting Gan,  D. Hait,  P. R. Horn,  L. D. Jacobson,  
 I. Kaliman,  J. Kussmann,  A. W. Lange,  Ka Un Lao,  D. S. Levine,  Jie Liu,  
 S. C. McKenzie,  A. F. Morrison,  K. Nanda,  F. Plasser,  D. R. Rehn,  
 M. L. Vidal,  Zhi-Qiang You,  Ying Zhu,  B. Alam,  B. Albrecht,  
 A. Aldossary,  E. Alguire,  J. H. Andersen,  D. Barton,  K. Begam,  A. Behn,  
 Y. A. Bernard,  E. J. Berquist,  H. Burton,  A. Carreras,  K. Carter-Fenk,  
 R. Chakraborty,  A. D. Chien,  K. D. Closser,  V. Cofer-Shabica,  
 S. Dasgupta,  Jia Deng,  M. de Wergifosse,  M. Diedenhofen,  Hainam Do,  
 S. Ehlert,  Po-Tung Fang,  S. Fatehi,  Qingguo Feng,  J. Gayvert,  
 Qinghui Ge,  G. Gidofalvi,  M. Goldey,  J. Gomes,  C. Gonzalez-Espinoza,  
 S. Gulania,  A. Gunina,  M. W. D. Hanson-Heine,  P. H. P. Harbach,  
 A. W. Hauser,  M. F. Herbst,  M. Hernandez Vera,  M. Hodecker,  
 Z. C. Holden,  S. Houck,  Xunkun Huang,  Kerwin Hui,  B. C. Huynh,  
 M. Ivanov,  Hyunjun Ji,  Hanjie Jiang,  B. Kaduk,  S. Kaehler,  
 K. Khistyaev,  Jaehoon Kim,  P. Klunzinger,  Z. Koczor-Benda,  
 Joong Hoon Koh,  D. Kosenkov,  L. Koulias,  T. Kowalczyk,  C. M. Krauter,  
 K. Kue,  A. Kunitsa,  T. Kus,  A. Landau,  K. V. Lawler,  D. Lefrancois,  
 S. Lehtola,  Rain Li,  Yi-Pei Li,  Jiashu Liang,  M. Liebenthal,  
 Hung-Hsuan Lin,  You-Sheng Lin,  Fenglai Liu,  Kuan-Yu Liu,  
 M. Loipersberger,  A. Luenser,  A. Manjanath,  P. Manohar,  E. Mansoor,  
 S. F. Manzer,  Shan-Ping Mao,  A. V. Marenich,  T. Markovich,  S. Mason,  
 S. A. Maurer,  P. F. McLaughlin,  M. F. S. J. Menger,  J.-M. Mewes,  
 S. A. Mewes,  P. Morgante,  J. W. Mullinax,  T. S. Nguyen-Beck,  
 K. J. Oosterbaan,  G. Paran,  Alexander C. Paul,  Suranjan K. Paul,  
 F. Pavosevic,  Zheng Pei,  S. Prager,  E. I. Proynov,  E. Ramos,  B. Rana,  
 A. E. Rask,  A. Rettig,  R. M. Richard,  F. Rob,  E. Rossomme,  T. Scheele,  
 M. Scheurer,  M. Schneider,  N. Sergueev,  S. M. Sharada,  W. Skomorowski,  
 D. W. Small,  C. J. Stein,  Yu-Chuan Su,  E. J. Sundstrom,  Zhen Tao,  
 J. Thirman,  T. Tsuchimochi,  N. M. Tubman,  S. P. Veccham,  O. Vydrov,  
 J. Wenzel,  J. Witte,  A. Yamada,  Kun Yao,  S. Yeganeh,  S. R. Yost,  
 A. Zech,  Igor Ying Zhang,  Xing Zhang,  Yu Zhang,  D. Zuev,  
 A. Aspuru-Guzik,  A. T. Bell,  N. A. Besley,  K. B. Bravaya,  B. R. Brooks,  
 D. Casanova,  Jeng-Da Chai,  S. Coriani,  C. J. Cramer,  
 A. E. DePrince, III,  R. A. DiStasio Jr.,  A. Dreuw,  B. D. Dunietz,  
 T. R. Furlani,  W. A. Goddard III,  S. Grimme,  S. Hammes-Schiffer,  
 T. Head-Gordon,  W. J. Hehre,  Chao-Ping Hsu,  T.-C. Jagau,  Yousung Jung,  
 A. Klamt,  Jing Kong,  D. S. Lambrecht,  WanZhen Liang,  N. J. Mayhall,  
 C. W. McCurdy,  J. B. Neaton,  C. Ochsenfeld,  J. A. Parkhill,  R. Peverati,  
 V. A. Rassolov,  Yihan Shao,  L. V. Slipchenko,  T. Stauch,  R. P. Steele,  
 J. E. Subotnik,  A. J. W. Thom,  A. Tkatchenko,  D. G. Truhlar,  
 T. Van Voorhis,  T. A. Wesolowski,  K. B. Whaley,  H. L. Woodcock III,  
 P. M. Zimmerman,  S. Faraji,  P. M. W. Gill,  M. Head-Gordon,  
 J. M. Herbert,  A. I. Krylov

 Contributors to earlier versions of Q-Chem not listed above: 
 R. D. Adamson,  B. Austin,  R. Baer,  J. Baker,  G. J. O. Beran,  
 K. Brandhorst,  S. T. Brown,  E. F. C. Byrd,  A. K. Chakraborty,  
 G. K. L. Chan,  Chun-Min Chang,  Yunqing Chen,  C.-L. Cheng,  
 Siu Hung Chien,  D. M. Chipman,  D. L. Crittenden,  H. Dachsel,  
 R. J. Doerksen,  A. D. Dutoi,  R. G. Edgar,  J. Fosso-Tande,  
 L. Fusti-Molnar,  D. Ghosh,  A. Ghysels,  A. Golubeva-Zadorozhnaya,  
 J. Gonthier,  M. S. Gordon,  S. R. Gwaltney,  G. Hawkins,  J. E. Herr,  
 A. Heyden,  S. Hirata,  E. G. Hohenstein,  G. Kedziora,  F. J. Keil,  
 C. Kelley,  Jihan Kim,  R. A. King,  R. Z. Khaliullin,  P. P. Korambath,  
 W. Kurlancheek,  A. Laurent,  A. M. Lee,  M. S. Lee,  S. V. Levchenko,  
 Ching Yeh Lin,  D. Liotard,  E. Livshits,  R. C. Lochan,  I. Lotan,  
 L. A. Martinez-Martinez,  P. E. Maslen,  N. Nair,  D. P. O'Neill,  
 D. Neuhauser,  E. Neuscamman,  C. M. Oana,  R. Olivares-Amaya,  R. Olson,  
 T. M. Perrine,  B. Peters,  P. A. Pieniazek,  A. Prociuk,  Y. M. Rhee,  
 J. Ritchie,  M. A. Rohrdanz,  E. Rosta,  N. J. Russ,  H. F. Schaefer III,  
 M. W. Schmidt,  N. E. Schultz,  S. Sharma,  N. Shenvi,  C. D. Sherrill,  
 A. C. Simmonett,  A. Sodt,  T. Stein,  D. Stuck,  K. S. Thanthiriwatte,  
 V. Vanovschi,  L. Vogt,  Tao Wang,  A. Warshel,  M. A. Watson,  
 C. F. Williams,  Q. Wu,  X. Xu,  Jun Yang,  W. Zhang,  Yan Zhao

 Please cite Q-Chem as follows:
 Y. Shao et al., Mol. Phys. 113, 184-215 (2015)
 DOI: 10.1080/00268976.2014.952696

 Q-Chem 5.4.0 for Intel X86 EM64T Linux

 Parts of Q-Chem use Armadillo 9.800.1 (Horizon Scraper).
 http://arma.sourceforge.net/

 Q-Chem begins on Wed Dec 13 16:02:04 2023  

 Host: 
0

     Scratch files written to ./qchem1459141//
 May1621 |scratch|qcdevops|jenkins|workspace|build_RNUM    
 Parallel job on  1  processors
 Processing $rem in /cm/shared/apps/spack/cpu/opt/spack/linux-centos8-zen2/gcc-10.2.0/qchem-5.4-akfmr7b3t57bfs6qan3padb2wnb2i7cl/config/preferences:
 Processing $rem in /home/rramji/.qchemrc:
 Symmetry turned off for PCM/SM12/SMD calculation
 Core orbitals will be frozen

 Checking the input file for inconsistencies... 	...done.

 Q-Chem warning in module forms1/BasisType.C, line 2236:

 You are not using the predefined 5D/6D in this basis set.


--------------------------------------------------------------
User input:
--------------------------------------------------------------
$molecule
0 1
C	-0.554267	-3.887800	-0.466510
C	0.507121	-3.701456	0.424173
C	0.831575	-2.345170	0.697244
H	1.048337	-4.545233	0.877789
C	0.000000	-1.450135	0.000000
S	-1.169911	-2.321334	-0.982150
C	1.939374	-1.934439	1.627024
H	2.448894	-2.819799	2.054010
H	1.561545	-1.326210	2.475299
H	2.708773	-1.325374	1.108051
H	-1.000944	-4.815326	-0.841863
C	0.000000	0.000000	0.000000
C	-0.003081	0.844605	1.113020
C	-0.007772	2.235575	0.820578
H	-0.001743	0.456510	2.142881
C	-0.008427	2.483726	-0.563588
S	-0.003691	0.970607	-1.464748
C	-0.011355	3.300181	1.882380
H	-0.009922	2.852233	2.894974
H	-0.905944	3.953225	1.808137
H	0.878901	3.959133	1.808230
H	-0.011727	3.441752	-1.097114
$end

$rem
JOBTYPE		SP
EXCHANGE	HF
CORRELATION	pRIMP2
BASIS		cc-pvtz
METHOD		rimp2
AUX_BASIS	rimp2-cc-pvtz
SOLVENT_METHOD	PCM
PURECART	11111
SYMMETRY	false
MEM_TOTAL	110000
SCF_CONVERGENCE = 6
THRESH=10
GUI = 2
$end



$solvent
dielectric 4.90
$end
--------------------------------------------------------------
 ----------------------------------------------------------------
             Standard Nuclear Orientation (Angstroms)
    I     Atom           X                Y                Z
 ----------------------------------------------------------------
    1      C      -0.5542670000    -3.8878000000    -0.4665100000
    2      C       0.5071210000    -3.7014560000     0.4241730000
    3      C       0.8315750000    -2.3451700000     0.6972440000
    4      H       1.0483370000    -4.5452330000     0.8777890000
    5      C       0.0000000000    -1.4501350000     0.0000000000
    6      S      -1.1699110000    -2.3213340000    -0.9821500000
    7      C       1.9393740000    -1.9344390000     1.6270240000
    8      H       2.4488940000    -2.8197990000     2.0540100000
    9      H       1.5615450000    -1.3262100000     2.4752990000
   10      H       2.7087730000    -1.3253740000     1.1080510000
   11      H      -1.0009440000    -4.8153260000    -0.8418630000
   12      C       0.0000000000     0.0000000000     0.0000000000
   13      C      -0.0030810000     0.8446050000     1.1130200000
   14      C      -0.0077720000     2.2355750000     0.8205780000
   15      H      -0.0017430000     0.4565100000     2.1428810000
   16      C      -0.0084270000     2.4837260000    -0.5635880000
   17      S      -0.0036910000     0.9706070000    -1.4647480000
   18      C      -0.0113550000     3.3001810000     1.8823800000
   19      H      -0.0099220000     2.8522330000     2.8949740000
   20      H      -0.9059440000     3.9532250000     1.8081370000
   21      H       0.8789010000     3.9591330000     1.8082300000
   22      H      -0.0117270000     3.4417520000    -1.0971140000
 ----------------------------------------------------------------
 Nuclear Repulsion Energy =         833.57474079 hartrees
 There are       51 alpha and       51 beta electrons
 Requested basis set is cc-pVTZ
 There are 184 shells and 508 basis functions

 Total QAlloc Memory Limit 110000 MB
 Mega-Array Size       188 MB
 MEM_STATIC part       192 MB
 Discretize the solute cavity surface with Lebedev spheres
	Using 110 Lebedev grid points for each H atom
	Using 194 Lebedev grid points for other atoms
	Atomic van der Waals radii will be scaled by 1.20
 Remove points where switching function is < 1.0e-08
 Keep 1545 surface tesserae and discard 1883 interior tesserae
 Molecular Surface Area = 235.368 Angst**2
 Requested basis set is rimp2-cc-pVTZ
 There are 394 shells and 1354 basis functions
 A cutoff of  1.0D-10 yielded  12302 shell pairs
 There are     91296 function pairs (    117809 Cartesian)
 Smallest overlap matrix eigenvalue = 6.53E-05

 Scale SEOQF with 1.000000e-01/1.000000e-01/1.000000e-01

 Standard Electronic Orientation quadrupole field applied
 Nucleus-field energy     =     0.0000000295 hartrees
 Guess from superposition of atomic densities
 Warning:  Energy on first SCF cycle will be non-variational
 SAD guess density has 102.000000 electrons

 -----------------------------------------------------------------------
  General SCF calculation program by
  Eric Jon Sundstrom, Paul Horn, Yuezhi Mao, Dmitri Zuev, Alec White,
  David Stuck, Shaama M.S., Shane Yost, Joonho Lee, David Small,
  Daniel Levine, Susi Lehtola, Hugh Burton, Evgeny Epifanovsky,
  Bang C. Huynh
 -----------------------------------------------------------------------
 Hartree-Fock
 using 64 threads for integral computing
 -------------------------------------------------------
 OpenMP Integral computing Module                
 Release: version 1.0, May 2013, Q-Chem Inc. Pittsburgh 
 -------------------------------------------------------
 A restricted SCF calculation will be
 performed using DIIS
 SCF converges when DIIS error is below 1.0e-06
 ---------------------------------------
  Cycle       Energy         DIIS error
 ---------------------------------------
    1   -1184.1954559802      2.38e-02  
    2   -1179.5475133188      1.60e-03  
    3   -1179.6676980626      6.25e-04  
    4   -1179.6815280219      3.44e-04  
    5   -1179.6864672442      6.59e-05  
    6   -1179.6867412742      3.00e-05  
    7   -1179.6868243257      1.23e-05  
    8   -1179.6868504359      5.30e-06  
    9   -1179.6868551028      1.63e-06  
   10   -1179.6868555498      5.22e-07  Convergence criterion met
 ---------------------------------------
 SCF time:   CPU 1523.65s  wall 49.00s 

************** Final PCM Free Energy Summary **************
 G_electrostatic  =      -0.00833116 hartree =      -5.22788316 kcal/mol
 G_cavitation     =       0.00000000 hartree =       0.00000000 kcal/mol
 G_dispersion     =       0.00000000 hartree =       0.00000000 kcal/mol
 G_repulsion      =       0.00000000 hartree =       0.00000000 kcal/mol
 --------------------------------------------------
 Non-electrostatic Free Energy =       0.00000000 hartree =       0.00000000 kcal/mol
 Total                         =      -0.00833116 hartree =      -5.22788316 kcal/mol
 --------------------------------------------------
 SCF Energy (H0 + V/2)                       =   -1179.68685555 
 Solute Internal Energy (H0)                 =   -1179.67852439 
 Total Free Energy (H0 + V/2 + non-elec)     =   -1179.68685555 hartree
                                             = -740264.67467168 kcal/mol
***********************************************************

 SCF   energy in the final basis set =    -1179.6868555498
 Total energy in the final basis set =    -1179.6868555498


 --------------------------------------------------------------
  Generalized many-body perturbation theory program
  by Joonho Lee, Fazle Rob, Xintian Feng, Evgeny Epifanovsky

 No regularization used 
 (reg. param. = 0.0000e+00)
  (P|Q)^-1/2 Time:  CPU 36.13 s  wall 0.74 s

 In RI-MP2 calculation: 
 # of frozen core orbitals: 20

 Components of the RIMP2 correlation energy:
        aaaa    correlation energy =        -0.2523752589 a.u.
        abab    correlation energy =        -1.4734931834 a.u.
        bbbb    correlation energy =        -0.2523752589 a.u.
        non-Brillouin singles      =        -0.0000000000 a.u.
        total same-spin energy     =        -0.5047505179 a.u.
        total opposite-spin energy =        -1.4734931834 a.u.

 Total  RIMP2   correlation energy =        -1.9782437013 a.u.
        RIMP2         total energy =     -1181.6650992510 a.u.

 RI-MP2 Energy Time:  CPU 169.49 s  wall 3.48 s
 
 --------------------------------------------------------------
 
                    Orbital Energies (a.u.)
 --------------------------------------------------------------
 
 Alpha MOs
 -- Occupied --
-91.9863 -91.9858 -11.2815 -11.2761 -11.2728 -11.2644 -11.2536 -11.2517
-11.2432 -11.2406 -11.2295 -11.2294  -8.9858  -8.9855  -6.6667  -6.6664
 -6.6661  -6.6658  -6.6655  -6.6652  -1.1790  -1.1500  -1.0400  -1.0245
 -0.9961  -0.9553  -0.9131  -0.8935  -0.8012  -0.7534  -0.7300  -0.6971
 -0.6620  -0.6158  -0.5855  -0.5803  -0.5701  -0.5652  -0.5517  -0.5348
 -0.5293  -0.5210  -0.5063  -0.4920  -0.4889  -0.4700  -0.4588  -0.3522
 -0.3418  -0.3385  -0.2833
 -- Virtual --
  0.0744   0.1216   0.1407   0.1503   0.1621   0.1746   0.1785   0.1878
  0.1963   0.1998   0.2015   0.2204   0.2328   0.2373   0.2416   0.2456
  0.2588   0.2804   0.2895   0.3201   0.3396   0.3451   0.3663   0.3754
  0.3781   0.3809   0.3918   0.4021   0.4075   0.4127   0.4222   0.4364
  0.4411   0.4533   0.4707   0.4733   0.4848   0.4892   0.4930   0.4997
  0.5081   0.5111   0.5283   0.5363   0.5471   0.5523   0.5577   0.5621
  0.5748   0.5848   0.5905   0.5970   0.5989   0.6099   0.6117   0.6202
  0.6246   0.6309   0.6407   0.6443   0.6487   0.6541   0.6664   0.6697
  0.6794   0.6908   0.6958   0.7062   0.7144   0.7289   0.7352   0.7552
  0.7709   0.7789   0.7876   0.7939   0.8079   0.8295   0.8385   0.8430
  0.8608   0.8665   0.8757   0.8926   0.9052   0.9211   0.9362   0.9408
  0.9457   0.9526   0.9739   0.9892   1.0040   1.0185   1.0271   1.0335
  1.0472   1.0586   1.0614   1.0712   1.0781   1.0846   1.0925   1.1005
  1.1008   1.1249   1.1361   1.1453   1.1542   1.1587   1.1799   1.2008
  1.2088   1.2151   1.2250   1.2328   1.2427   1.2554   1.2573   1.2656
  1.2752   1.2836   1.3153   1.3224   1.3314   1.3416   1.3605   1.3684
  1.3840   1.3915   1.4023   1.4126   1.4169   1.4380   1.4556   1.4607
  1.4798   1.4819   1.4955   1.5022   1.5169   1.5253   1.5420   1.5438
  1.5550   1.5645   1.5744   1.5801   1.5844   1.6022   1.6215   1.6388
  1.6525   1.6572   1.6667   1.6917   1.6979   1.7126   1.7275   1.7350
  1.7397   1.7634   1.7677   1.7852   1.7991   1.8122   1.8386   1.8551
  1.8849   1.8932   1.9114   1.9215   1.9234   1.9531   1.9622   1.9780
  2.0052   2.0452   2.0549   2.0883   2.1190   2.1377   2.1513   2.1758
  2.1924   2.1963   2.2154   2.2167   2.2273   2.2579   2.2629   2.2731
  2.2800   2.3042   2.3309   2.3885   2.4074   2.4215   2.4422   2.4624
  2.4705   2.4971   2.5121   2.5289   2.5337   2.5616   2.5899   2.6035
  2.6148   2.6279   2.6488   2.6667   2.6739   2.6871   2.7162   2.7286
  2.7371   2.7428   2.7510   2.7603   2.7664   2.7877   2.7931   2.8120
  2.8236   2.8361   2.8500   2.8620   2.8627   2.8896   2.9073   2.9181
  2.9479   2.9621   2.9770   2.9827   2.9950   3.0191   3.0256   3.0366
  3.0411   3.0594   3.0899   3.1107   3.1169   3.1230   3.1310   3.1390
  3.1463   3.1533   3.1594   3.1829   3.1948   3.2061   3.2130   3.2162
  3.2325   3.2434   3.2647   3.2705   3.2835   3.2898   3.2985   3.3128
  3.3180   3.3220   3.3420   3.3431   3.3481   3.3555   3.3612   3.3833
  3.3877   3.3944   3.3981   3.4130   3.4205   3.4246   3.4290   3.4373
  3.4440   3.4581   3.4659   3.4730   3.4868   3.5092   3.5108   3.5210
  3.5237   3.5278   3.5418   3.5548   3.5607   3.5654   3.5796   3.5869
  3.5964   3.6181   3.6242   3.6301   3.6326   3.6426   3.6590   3.6709
  3.6761   3.6798   3.6970   3.7019   3.7281   3.7299   3.7406   3.7542
  3.7592   3.7705   3.7860   3.7961   3.7991   3.8215   3.8288   3.8321
  3.8622   3.8748   3.8849   3.9049   3.9168   3.9306   3.9506   3.9575
  3.9713   3.9896   3.9989   4.0056   4.0168   4.0252   4.0340   4.0533
  4.0666   4.0738   4.0906   4.0975   4.1155   4.1371   4.1455   4.1493
  4.1539   4.1716   4.1870   4.1937   4.1995   4.2092   4.2186   4.2386
  4.2440   4.2689   4.2745   4.2878   4.2923   4.3058   4.3255   4.3449
  4.3457   4.3575   4.3773   4.3981   4.4011   4.4123   4.4168   4.4280
  4.4307   4.4487   4.4609   4.4703   4.4926   4.5055   4.5510   4.5675
  4.5803   4.5975   4.6098   4.6142   4.6371   4.6411   4.6596   4.6692
  4.6980   4.7291   4.7342   4.7501   4.7855   4.7903   4.8117   4.8265
  4.8822   4.8996   4.9069   4.9229   4.9474   4.9736   4.9957   5.0556
  5.0870   5.1027   5.1130   5.1332   5.1712   5.1872   5.2031   5.2656
  5.2723   5.2815   5.2895   5.3098   5.3169   5.3699   5.3898   5.3961
  5.4141   5.4455   5.4685   5.4910   5.5089   5.5300   5.5444   5.5574
  5.5656   5.6074   5.6159   5.6255   5.6402   5.6842   5.6980   5.7147
  5.7775   5.8276   5.9163   5.9761   6.0099   6.1043   6.1410   6.2266
  6.2374   6.2540   6.2808   6.3019   6.3314   6.4466   6.5454   8.7685
  9.9627  11.6135  11.9458  12.8742  13.0691  13.7547  14.0401  14.2461
 14.3386
 --------------------------------------------------------------
 
          Ground-State Mulliken Net Atomic Charges

     Atom                 Charge (a.u.)
  ----------------------------------------
      1 C                    -0.213353
      2 C                    -0.249597
      3 C                     0.043303
      4 H                     0.185551
      5 C                    -0.037653
      6 S                     0.020047
      7 C                    -0.285324
      8 H                     0.110776
      9 H                     0.107284
     10 H                     0.113533
     11 H                     0.204762
     12 C                     0.000344
     13 C                    -0.234161
     14 C                     0.017868
     15 H                     0.191981
     16 C                    -0.241451
     17 S                     0.019905
     18 C                    -0.271967
     19 H                     0.102347
     20 H                     0.108842
     21 H                     0.108167
     22 H                     0.198795
  ----------------------------------------
  Sum of atomic charges =     0.000000

 -----------------------------------------------------------------
                    Cartesian Multipole Moments
 -----------------------------------------------------------------
    Charge (ESU x 10^10)
                -0.0000
    Dipole Moment (Debye)
         X       1.1545      Y       0.2096      Z       2.4492
       Tot       2.7157
    Quadrupole Moments (Debye-Ang)
        XX     -88.8961     XY      -1.7048     YY     -68.5910
        XZ       3.2483     YZ      -0.2928     ZZ     -84.0168
    Octopole Moments (Debye-Ang^2)
       XXX      -5.2408    XXY      34.3414    XYY      -4.4247
       YYY      94.0278    XXZ      -3.4294    XYZ     -12.0596
       YYZ      -8.4368    XZZ      -1.2492    YZZ      49.5953
       ZZZ      -5.5209
    Hexadecapole Moments (Debye-Ang^3)
      XXXX    -457.8855   XXXY      -1.3404   XXYY    -565.6258
      XYYY      29.1498   YYYY   -2576.6556   XXXZ    -134.2583
      XXYZ     -35.7409   XYYZ       4.2239   YYYZ     -91.8455
      XXZZ    -208.4752   XYZZ      -2.0075   YYZZ    -610.5967
      XZZZ    -136.9167   YZZZ    -104.1860   ZZZZ    -769.3140
 -----------------------------------------------------------------
 Total job time:  54.88s(wall), 1777.65s(cpu) 
 Wed Dec 13 16:02:59 2023

        *************************************************************
        *                                                           *
        *  Thank you very much for using Q-Chem.  Have a nice day.  *
        *                                                           *
        *************************************************************


0 sent ACK to 0 
now end server 0 ... 
cleanup process ... done
remove work dirs ./qchem1459141.0 -- ./qchem1459141.0
rm -rf ./qchem1459141.0
rm -rf ./qchem1459141
