You are running Q-Chem version: 5.4.0

#
# job setting
#
local host:  exp-1-36
current dir: /home/rramji/project-csd799/aromodel/p3ht-qchem/rotation-run
input file:  Methylthiophene_Phi_10_Theta_240_Methylthiophene.qcin
output file: 
nprocs     : 1
nthreads   : 64
#
# qchem installation setting
#
QC:          /cm/shared/apps/spack/cpu/opt/spack/linux-centos8-zen2/gcc-10.2.0/qchem-5.4-akfmr7b3t57bfs6qan3padb2wnb2i7cl
QCAUX:       /cm/shared/apps/spack/cpu/opt/spack/linux-centos8-zen2/gcc-10.2.0/qchem-5.4-akfmr7b3t57bfs6qan3padb2wnb2i7cl/qcaux
QCPROG:      /cm/shared/apps/spack/cpu/opt/spack/linux-centos8-zen2/gcc-10.2.0/qchem-5.4-akfmr7b3t57bfs6qan3padb2wnb2i7cl/exe/qcprog.exe
QCPROG_S:    /cm/shared/apps/spack/cpu/opt/spack/linux-centos8-zen2/gcc-10.2.0/qchem-5.4-akfmr7b3t57bfs6qan3padb2wnb2i7cl/exe/qcprog.exe_s
PARALLEL:    -DPARALLEL
QCMPI:       mpich
#
# qchem directory setting
#
qcrun:       qchem2939861
QCSCRATCH:   .
QCLOCALSCR:  
QCTMPDIR:    .
QCFILEPREF:  ./qchem2939861
QCSAVEDIR:   
workdirs:    ./qchem2939861
workdir0:    ./qchem2939861
partmpdirs =  
#
# parallel setting
#
QCRSH:           ssh
QCMPI:           mpich
QCMPIRUN:        /cm/shared/apps/spack/cpu/opt/spack/linux-centos8-zen2/gcc-10.2.0/qchem-5.4-akfmr7b3t57bfs6qan3padb2wnb2i7cl/bin/mpi/mpirun_qchem
QCMACHINEFILE:   ./qchem2939861/hostfile
exp-1-36

#
# env setting
#
exported envs:   QC QCAUX QCSCRATCH QCRUNNAME QCFILEPREF QCPROG QCPROG_S GUIFILE

Running Job 1 of 1 Methylthiophene_Phi_10_Theta_240_Methylthiophene.qcin
qchem Methylthiophene_Phi_10_Theta_240_Methylthiophene.qcin_2939861.0 ./qchem2939861/ 1
/cm/shared/apps/spack/cpu/opt/spack/linux-centos8-zen2/gcc-10.2.0/qchem-5.4-akfmr7b3t57bfs6qan3padb2wnb2i7cl/bin/mpi/mpirun_qchem -machinefile ./qchem2939861/hostfile -np 1 /cm/shared/apps/spack/cpu/opt/spack/linux-centos8-zen2/gcc-10.2.0/qchem-5.4-akfmr7b3t57bfs6qan3padb2wnb2i7cl/exe/qcprog.exe Methylthiophene_Phi_10_Theta_240_Methylthiophene.qcin_2939861.0 ./qchem2939861/

Process 0 of 1 is on exp-1-36 - thread support 0
initial socket setup ...start
initial socket setup ...done 
now start server 0 ... 
                  Welcome to Q-Chem
     A Quantum Leap Into The Future Of Chemistry


 Q-Chem 5.4, Q-Chem, Inc., Pleasanton, CA (2021)

 License issued to: University of California, San Diego (site)

 E. Epifanovsky,  A. T. B. Gilbert,  Xintian Feng,  Joonho Lee,  Yuezhi Mao,  
 N. Mardirossian,  P. Pokhilko,  A. White,  M. Wormit,  M. P. Coons,  
 A. L. Dempwolff,  Zhengting Gan,  D. Hait,  P. R. Horn,  L. D. Jacobson,  
 I. Kaliman,  J. Kussmann,  A. W. Lange,  Ka Un Lao,  D. S. Levine,  Jie Liu,  
 S. C. McKenzie,  A. F. Morrison,  K. Nanda,  F. Plasser,  D. R. Rehn,  
 M. L. Vidal,  Zhi-Qiang You,  Ying Zhu,  B. Alam,  B. Albrecht,  
 A. Aldossary,  E. Alguire,  J. H. Andersen,  D. Barton,  K. Begam,  A. Behn,  
 Y. A. Bernard,  E. J. Berquist,  H. Burton,  A. Carreras,  K. Carter-Fenk,  
 R. Chakraborty,  A. D. Chien,  K. D. Closser,  V. Cofer-Shabica,  
 S. Dasgupta,  Jia Deng,  M. de Wergifosse,  M. Diedenhofen,  Hainam Do,  
 S. Ehlert,  Po-Tung Fang,  S. Fatehi,  Qingguo Feng,  J. Gayvert,  
 Qinghui Ge,  G. Gidofalvi,  M. Goldey,  J. Gomes,  C. Gonzalez-Espinoza,  
 S. Gulania,  A. Gunina,  M. W. D. Hanson-Heine,  P. H. P. Harbach,  
 A. W. Hauser,  M. F. Herbst,  M. Hernandez Vera,  M. Hodecker,  
 Z. C. Holden,  S. Houck,  Xunkun Huang,  Kerwin Hui,  B. C. Huynh,  
 M. Ivanov,  Hyunjun Ji,  Hanjie Jiang,  B. Kaduk,  S. Kaehler,  
 K. Khistyaev,  Jaehoon Kim,  P. Klunzinger,  Z. Koczor-Benda,  
 Joong Hoon Koh,  D. Kosenkov,  L. Koulias,  T. Kowalczyk,  C. M. Krauter,  
 K. Kue,  A. Kunitsa,  T. Kus,  A. Landau,  K. V. Lawler,  D. Lefrancois,  
 S. Lehtola,  Rain Li,  Yi-Pei Li,  Jiashu Liang,  M. Liebenthal,  
 Hung-Hsuan Lin,  You-Sheng Lin,  Fenglai Liu,  Kuan-Yu Liu,  
 M. Loipersberger,  A. Luenser,  A. Manjanath,  P. Manohar,  E. Mansoor,  
 S. F. Manzer,  Shan-Ping Mao,  A. V. Marenich,  T. Markovich,  S. Mason,  
 S. A. Maurer,  P. F. McLaughlin,  M. F. S. J. Menger,  J.-M. Mewes,  
 S. A. Mewes,  P. Morgante,  J. W. Mullinax,  T. S. Nguyen-Beck,  
 K. J. Oosterbaan,  G. Paran,  Alexander C. Paul,  Suranjan K. Paul,  
 F. Pavosevic,  Zheng Pei,  S. Prager,  E. I. Proynov,  E. Ramos,  B. Rana,  
 A. E. Rask,  A. Rettig,  R. M. Richard,  F. Rob,  E. Rossomme,  T. Scheele,  
 M. Scheurer,  M. Schneider,  N. Sergueev,  S. M. Sharada,  W. Skomorowski,  
 D. W. Small,  C. J. Stein,  Yu-Chuan Su,  E. J. Sundstrom,  Zhen Tao,  
 J. Thirman,  T. Tsuchimochi,  N. M. Tubman,  S. P. Veccham,  O. Vydrov,  
 J. Wenzel,  J. Witte,  A. Yamada,  Kun Yao,  S. Yeganeh,  S. R. Yost,  
 A. Zech,  Igor Ying Zhang,  Xing Zhang,  Yu Zhang,  D. Zuev,  
 A. Aspuru-Guzik,  A. T. Bell,  N. A. Besley,  K. B. Bravaya,  B. R. Brooks,  
 D. Casanova,  Jeng-Da Chai,  S. Coriani,  C. J. Cramer,  
 A. E. DePrince, III,  R. A. DiStasio Jr.,  A. Dreuw,  B. D. Dunietz,  
 T. R. Furlani,  W. A. Goddard III,  S. Grimme,  S. Hammes-Schiffer,  
 T. Head-Gordon,  W. J. Hehre,  Chao-Ping Hsu,  T.-C. Jagau,  Yousung Jung,  
 A. Klamt,  Jing Kong,  D. S. Lambrecht,  WanZhen Liang,  N. J. Mayhall,  
 C. W. McCurdy,  J. B. Neaton,  C. Ochsenfeld,  J. A. Parkhill,  R. Peverati,  
 V. A. Rassolov,  Yihan Shao,  L. V. Slipchenko,  T. Stauch,  R. P. Steele,  
 J. E. Subotnik,  A. J. W. Thom,  A. Tkatchenko,  D. G. Truhlar,  
 T. Van Voorhis,  T. A. Wesolowski,  K. B. Whaley,  H. L. Woodcock III,  
 P. M. Zimmerman,  S. Faraji,  P. M. W. Gill,  M. Head-Gordon,  
 J. M. Herbert,  A. I. Krylov

 Contributors to earlier versions of Q-Chem not listed above: 
 R. D. Adamson,  B. Austin,  R. Baer,  J. Baker,  G. J. O. Beran,  
 K. Brandhorst,  S. T. Brown,  E. F. C. Byrd,  A. K. Chakraborty,  
 G. K. L. Chan,  Chun-Min Chang,  Yunqing Chen,  C.-L. Cheng,  
 Siu Hung Chien,  D. M. Chipman,  D. L. Crittenden,  H. Dachsel,  
 R. J. Doerksen,  A. D. Dutoi,  R. G. Edgar,  J. Fosso-Tande,  
 L. Fusti-Molnar,  D. Ghosh,  A. Ghysels,  A. Golubeva-Zadorozhnaya,  
 J. Gonthier,  M. S. Gordon,  S. R. Gwaltney,  G. Hawkins,  J. E. Herr,  
 A. Heyden,  S. Hirata,  E. G. Hohenstein,  G. Kedziora,  F. J. Keil,  
 C. Kelley,  Jihan Kim,  R. A. King,  R. Z. Khaliullin,  P. P. Korambath,  
 W. Kurlancheek,  A. Laurent,  A. M. Lee,  M. S. Lee,  S. V. Levchenko,  
 Ching Yeh Lin,  D. Liotard,  E. Livshits,  R. C. Lochan,  I. Lotan,  
 L. A. Martinez-Martinez,  P. E. Maslen,  N. Nair,  D. P. O'Neill,  
 D. Neuhauser,  E. Neuscamman,  C. M. Oana,  R. Olivares-Amaya,  R. Olson,  
 T. M. Perrine,  B. Peters,  P. A. Pieniazek,  A. Prociuk,  Y. M. Rhee,  
 J. Ritchie,  M. A. Rohrdanz,  E. Rosta,  N. J. Russ,  H. F. Schaefer III,  
 M. W. Schmidt,  N. E. Schultz,  S. Sharma,  N. Shenvi,  C. D. Sherrill,  
 A. C. Simmonett,  A. Sodt,  T. Stein,  D. Stuck,  K. S. Thanthiriwatte,  
 V. Vanovschi,  L. Vogt,  Tao Wang,  A. Warshel,  M. A. Watson,  
 C. F. Williams,  Q. Wu,  X. Xu,  Jun Yang,  W. Zhang,  Yan Zhao

 Please cite Q-Chem as follows:
 Y. Shao et al., Mol. Phys. 113, 184-215 (2015)
 DOI: 10.1080/00268976.2014.952696

 Q-Chem 5.4.0 for Intel X86 EM64T Linux

 Parts of Q-Chem use Armadillo 9.800.1 (Horizon Scraper).
 http://arma.sourceforge.net/

 Q-Chem begins on Wed Dec 13 16:14:24 2023  

 Host: 
0

     Scratch files written to ./qchem2939861//
 May1621 |scratch|qcdevops|jenkins|workspace|build_RNUM    
 Parallel job on  1  processors
 Processing $rem in /cm/shared/apps/spack/cpu/opt/spack/linux-centos8-zen2/gcc-10.2.0/qchem-5.4-akfmr7b3t57bfs6qan3padb2wnb2i7cl/config/preferences:
 Processing $rem in /home/rramji/.qchemrc:
 Symmetry turned off for PCM/SM12/SMD calculation
 Core orbitals will be frozen

 Checking the input file for inconsistencies... 	...done.

 Q-Chem warning in module forms1/BasisType.C, line 2236:

 You are not using the predefined 5D/6D in this basis set.


--------------------------------------------------------------
User input:
--------------------------------------------------------------
$molecule
0 1
C	0.627947	-3.887800	-0.361285
C	-0.572038	-3.701456	0.331462
C	-0.939610	-2.345170	0.542953
H	-1.183405	-4.545233	0.684893
C	0.000000	-1.450135	0.000000
S	1.323052	-2.321334	-0.763441
C	-2.192207	-1.934439	1.265941
H	-2.767709	-2.819799	1.598695
H	-2.860100	-1.326210	0.620770
H	-1.967682	-1.325374	2.166438
H	1.133436	-4.815326	-0.652645
C	0.000000	0.000000	0.000000
C	0.143630	0.832309	1.113020
C	0.380550	2.202961	0.820578
H	0.077556	0.449877	2.142881
C	0.422995	2.447456	-0.563588
S	0.164909	0.956502	-1.464748
C	0.561888	3.252016	1.882380
H	0.485513	2.810624	2.894974
H	-0.205711	4.050482	1.808137
H	1.553045	3.746365	1.808230
H	0.586105	3.391501	-1.097114
$end

$rem
JOBTYPE		SP
EXCHANGE	HF
CORRELATION	pRIMP2
BASIS		cc-pvtz
METHOD		rimp2
AUX_BASIS	rimp2-cc-pvtz
SOLVENT_METHOD	PCM
PURECART	11111
SYMMETRY	false
MEM_TOTAL	110000
SCF_CONVERGENCE = 6
THRESH=10
GUI = 2
$end



$solvent
dielectric 4.90
$end
--------------------------------------------------------------
 ----------------------------------------------------------------
             Standard Nuclear Orientation (Angstroms)
    I     Atom           X                Y                Z
 ----------------------------------------------------------------
    1      C       0.6279470000    -3.8878000000    -0.3612850000
    2      C      -0.5720380000    -3.7014560000     0.3314620000
    3      C      -0.9396100000    -2.3451700000     0.5429530000
    4      H      -1.1834050000    -4.5452330000     0.6848930000
    5      C       0.0000000000    -1.4501350000     0.0000000000
    6      S       1.3230520000    -2.3213340000    -0.7634410000
    7      C      -2.1922070000    -1.9344390000     1.2659410000
    8      H      -2.7677090000    -2.8197990000     1.5986950000
    9      H      -2.8601000000    -1.3262100000     0.6207700000
   10      H      -1.9676820000    -1.3253740000     2.1664380000
   11      H       1.1334360000    -4.8153260000    -0.6526450000
   12      C       0.0000000000     0.0000000000     0.0000000000
   13      C       0.1436300000     0.8323090000     1.1130200000
   14      C       0.3805500000     2.2029610000     0.8205780000
   15      H       0.0775560000     0.4498770000     2.1428810000
   16      C       0.4229950000     2.4474560000    -0.5635880000
   17      S       0.1649090000     0.9565020000    -1.4647480000
   18      C       0.5618880000     3.2520160000     1.8823800000
   19      H       0.4855130000     2.8106240000     2.8949740000
   20      H      -0.2057110000     4.0504820000     1.8081370000
   21      H       1.5530450000     3.7463650000     1.8082300000
   22      H       0.5861050000     3.3915010000    -1.0971140000
 ----------------------------------------------------------------
 Nuclear Repulsion Energy =         833.40334007 hartrees
 There are       51 alpha and       51 beta electrons
 Requested basis set is cc-pVTZ
 There are 184 shells and 508 basis functions

 Total QAlloc Memory Limit 110000 MB
 Mega-Array Size       188 MB
 MEM_STATIC part       192 MB
 Discretize the solute cavity surface with Lebedev spheres
	Using 110 Lebedev grid points for each H atom
	Using 194 Lebedev grid points for other atoms
	Atomic van der Waals radii will be scaled by 1.20
 Remove points where switching function is < 1.0e-08
 Keep 1551 surface tesserae and discard 1877 interior tesserae
 Molecular Surface Area = 236.517 Angst**2
 Requested basis set is rimp2-cc-pVTZ
 There are 394 shells and 1354 basis functions
 A cutoff of  1.0D-10 yielded  12237 shell pairs
 There are     90891 function pairs (    117346 Cartesian)
 Smallest overlap matrix eigenvalue = 7.57E-05

 Scale SEOQF with 1.000000e-01/1.000000e-01/1.000000e-01

 Standard Electronic Orientation quadrupole field applied
 Nucleus-field energy     =     0.0000000320 hartrees
 Guess from superposition of atomic densities
 Warning:  Energy on first SCF cycle will be non-variational
 SAD guess density has 102.000000 electrons

 -----------------------------------------------------------------------
  General SCF calculation program by
  Eric Jon Sundstrom, Paul Horn, Yuezhi Mao, Dmitri Zuev, Alec White,
  David Stuck, Shaama M.S., Shane Yost, Joonho Lee, David Small,
  Daniel Levine, Susi Lehtola, Hugh Burton, Evgeny Epifanovsky,
  Bang C. Huynh
 -----------------------------------------------------------------------
 Hartree-Fock
 using 64 threads for integral computing
 -------------------------------------------------------
 OpenMP Integral computing Module                
 Release: version 1.0, May 2013, Q-Chem Inc. Pittsburgh 
 -------------------------------------------------------
 A restricted SCF calculation will be
 performed using DIIS
 SCF converges when DIIS error is below 1.0e-06
 ---------------------------------------
  Cycle       Energy         DIIS error
 ---------------------------------------
    1   -1184.1892818155      2.38e-02  
    2   -1179.5459491439      1.60e-03  
    3   -1179.6657499850      6.22e-04  
    4   -1179.6794639793      3.43e-04  
    5   -1179.6843873552      6.66e-05  
    6   -1179.6846650276      3.04e-05  
    7   -1179.6847499696      1.25e-05  
    8   -1179.6847769011      5.30e-06  
    9   -1179.6847816791      1.64e-06  
   10   -1179.6847821244      5.11e-07  Convergence criterion met
 ---------------------------------------
 SCF time:   CPU 1548.14s  wall 47.00s 

************** Final PCM Free Energy Summary **************
 G_electrostatic  =      -0.00814016 hartree =      -5.10802769 kcal/mol
 G_cavitation     =       0.00000000 hartree =       0.00000000 kcal/mol
 G_dispersion     =       0.00000000 hartree =       0.00000000 kcal/mol
 G_repulsion      =       0.00000000 hartree =       0.00000000 kcal/mol
 --------------------------------------------------
 Non-electrostatic Free Energy =       0.00000000 hartree =       0.00000000 kcal/mol
 Total                         =      -0.00814016 hartree =      -5.10802769 kcal/mol
 --------------------------------------------------
 SCF Energy (H0 + V/2)                       =   -1179.68478212 
 Solute Internal Energy (H0)                 =   -1179.67664196 
 Total Free Energy (H0 + V/2 + non-elec)     =   -1179.68478212 hartree
                                             = -740263.37357765 kcal/mol
***********************************************************

 SCF   energy in the final basis set =    -1179.6847821244
 Total energy in the final basis set =    -1179.6847821244


 --------------------------------------------------------------
  Generalized many-body perturbation theory program
  by Joonho Lee, Fazle Rob, Xintian Feng, Evgeny Epifanovsky

 No regularization used 
 (reg. param. = 0.0000e+00)
  (P|Q)^-1/2 Time:  CPU 25.62 s  wall 0.41 s

 In RI-MP2 calculation: 
 # of frozen core orbitals: 20

 Components of the RIMP2 correlation energy:
        aaaa    correlation energy =        -0.2522782401 a.u.
        abab    correlation energy =        -1.4736270641 a.u.
        bbbb    correlation energy =        -0.2522782401 a.u.
        non-Brillouin singles      =        -0.0000000000 a.u.
        total same-spin energy     =        -0.5045564803 a.u.
        total opposite-spin energy =        -1.4736270641 a.u.

 Total  RIMP2   correlation energy =        -1.9781835443 a.u.
        RIMP2         total energy =     -1181.6629656688 a.u.

 RI-MP2 Energy Time:  CPU 180.06 s  wall 3.74 s
 
 --------------------------------------------------------------
 
                    Orbital Energies (a.u.)
 --------------------------------------------------------------
 
 Alpha MOs
 -- Occupied --
-91.9862 -91.9856 -11.2800 -11.2750 -11.2722 -11.2652 -11.2525 -11.2515
-11.2424 -11.2417 -11.2293 -11.2292  -8.9856  -8.9851  -6.6665  -6.6660
 -6.6660  -6.6655  -6.6654  -6.6648  -1.1787  -1.1498  -1.0398  -1.0236
 -0.9962  -0.9550  -0.9126  -0.8931  -0.8008  -0.7523  -0.7308  -0.6958
 -0.6618  -0.6161  -0.5842  -0.5798  -0.5698  -0.5668  -0.5517  -0.5330
 -0.5296  -0.5201  -0.5069  -0.4917  -0.4880  -0.4687  -0.4602  -0.3503
 -0.3399  -0.3340  -0.2887
 -- Virtual --
  0.0787   0.1150   0.1417   0.1505   0.1624   0.1747   0.1776   0.1879
  0.1931   0.1979   0.2022   0.2201   0.2323   0.2345   0.2381   0.2448
  0.2535   0.2777   0.2900   0.3173   0.3402   0.3441   0.3611   0.3684
  0.3763   0.3819   0.3899   0.3992   0.4054   0.4106   0.4207   0.4344
  0.4385   0.4513   0.4693   0.4775   0.4797   0.4863   0.4913   0.4995
  0.5072   0.5115   0.5240   0.5347   0.5466   0.5517   0.5548   0.5648
  0.5713   0.5847   0.5946   0.5996   0.6014   0.6086   0.6106   0.6241
  0.6258   0.6308   0.6395   0.6448   0.6482   0.6530   0.6610   0.6642
  0.6714   0.6898   0.6956   0.7045   0.7173   0.7216   0.7324   0.7543
  0.7673   0.7838   0.7886   0.7984   0.8132   0.8333   0.8387   0.8427
  0.8505   0.8631   0.8748   0.8910   0.9036   0.9084   0.9354   0.9399
  0.9474   0.9584   0.9743   0.9935   1.0064   1.0162   1.0207   1.0301
  1.0412   1.0546   1.0625   1.0695   1.0783   1.0818   1.0887   1.1028
  1.1055   1.1175   1.1299   1.1389   1.1531   1.1651   1.1804   1.2004
  1.2051   1.2144   1.2194   1.2335   1.2414   1.2509   1.2542   1.2673
  1.2735   1.2825   1.3082   1.3278   1.3362   1.3402   1.3596   1.3722
  1.3811   1.3905   1.4094   1.4134   1.4153   1.4373   1.4559   1.4664
  1.4752   1.4819   1.5015   1.5052   1.5121   1.5174   1.5387   1.5447
  1.5561   1.5626   1.5727   1.5835   1.5877   1.5958   1.6015   1.6377
  1.6552   1.6567   1.6690   1.6920   1.6946   1.7139   1.7207   1.7304
  1.7429   1.7592   1.7635   1.7842   1.7977   1.8055   1.8307   1.8521
  1.8865   1.8961   1.9057   1.9073   1.9349   1.9526   1.9633   1.9753
  2.0074   2.0427   2.0614   2.0937   2.1237   2.1333   2.1528   2.1691
  2.1813   2.1929   2.2052   2.2187   2.2300   2.2524   2.2651   2.2776
  2.2964   2.3000   2.3296   2.3962   2.4041   2.4341   2.4407   2.4565
  2.4656   2.4986   2.5041   2.5274   2.5367   2.5597   2.5812   2.5923
  2.6118   2.6271   2.6372   2.6614   2.6720   2.6856   2.7226   2.7327
  2.7375   2.7421   2.7501   2.7606   2.7700   2.7745   2.8023   2.8079
  2.8275   2.8425   2.8496   2.8616   2.8775   2.8935   2.9097   2.9227
  2.9436   2.9627   2.9680   2.9864   2.9973   3.0168   3.0246   3.0352
  3.0381   3.0780   3.0979   3.1106   3.1168   3.1299   3.1352   3.1404
  3.1482   3.1538   3.1664   3.1813   3.1879   3.1987   3.2148   3.2182
  3.2411   3.2460   3.2548   3.2698   3.2810   3.2870   3.3034   3.3120
  3.3188   3.3220   3.3364   3.3462   3.3533   3.3557   3.3588   3.3767
  3.3880   3.3954   3.4032   3.4068   3.4168   3.4216   3.4267   3.4401
  3.4458   3.4603   3.4721   3.4745   3.4828   3.5082   3.5146   3.5233
  3.5269   3.5307   3.5417   3.5449   3.5596   3.5692   3.5869   3.5977
  3.6093   3.6154   3.6292   3.6323   3.6341   3.6364   3.6562   3.6667
  3.6714   3.6795   3.6971   3.7009   3.7204   3.7263   3.7425   3.7512
  3.7595   3.7735   3.7843   3.7969   3.8014   3.8152   3.8252   3.8390
  3.8581   3.8693   3.8769   3.8953   3.9109   3.9245   3.9503   3.9635
  3.9780   3.9932   3.9960   3.9978   4.0158   4.0329   4.0378   4.0519
  4.0649   4.0814   4.0901   4.1071   4.1136   4.1358   4.1436   4.1482
  4.1519   4.1730   4.1887   4.1952   4.1962   4.2083   4.2187   4.2293
  4.2474   4.2668   4.2763   4.2855   4.2902   4.3114   4.3204   4.3385
  4.3462   4.3542   4.3769   4.3924   4.4005   4.4073   4.4122   4.4179
  4.4341   4.4398   4.4624   4.4732   4.4886   4.5017   4.5367   4.5630
  4.5839   4.5958   4.5998   4.6180   4.6366   4.6419   4.6594   4.6684
  4.6985   4.7295   4.7373   4.7558   4.7670   4.7770   4.8155   4.8255
  4.8657   4.8925   4.9079   4.9135   4.9571   4.9809   5.0048   5.0546
  5.0984   5.1078   5.1149   5.1299   5.1728   5.1800   5.2015   5.2497
  5.2675   5.2802   5.2863   5.3029   5.3211   5.3696   5.3945   5.3985
  5.4234   5.4458   5.4668   5.4892   5.5154   5.5286   5.5461   5.5535
  5.5621   5.6124   5.6218   5.6282   5.6394   5.6611   5.6969   5.7140
  5.7760   5.8256   5.9095   5.9643   6.0141   6.0792   6.1355   6.2250
  6.2330   6.2465   6.2777   6.2987   6.3214   6.4342   6.5120   8.8156
  9.9270  11.6794  11.9688  12.9092  13.0090  13.7597  13.9717  14.2262
 14.3068
 --------------------------------------------------------------
 
          Ground-State Mulliken Net Atomic Charges

     Atom                 Charge (a.u.)
  ----------------------------------------
      1 C                    -0.211126
      2 C                    -0.250387
      3 C                     0.045648
      4 H                     0.185105
      5 C                    -0.046672
      6 S                     0.022702
      7 C                    -0.283727
      8 H                     0.108438
      9 H                     0.111696
     10 H                     0.107975
     11 H                     0.204401
     12 C                    -0.006065
     13 C                    -0.222959
     14 C                     0.015576
     15 H                     0.189700
     16 C                    -0.235905
     17 S                     0.019977
     18 C                    -0.271835
     19 H                     0.102452
     20 H                     0.107979
     21 H                     0.108589
     22 H                     0.198436
  ----------------------------------------
  Sum of atomic charges =     0.000000

 -----------------------------------------------------------------
                    Cartesian Multipole Moments
 -----------------------------------------------------------------
    Charge (ESU x 10^10)
                -0.0000
    Dipole Moment (Debye)
         X      -0.9712      Y       0.2883      Z       2.2370
       Tot       2.4557
    Quadrupole Moments (Debye-Ang)
        XX     -87.5103     XY       3.7292     YY     -69.1315
        XZ      -2.6363     YZ      -0.0196     ZZ     -85.0669
    Octopole Moments (Debye-Ang^2)
       XXX     -30.7075    XXY      32.8070    XYY      -0.1017
       YYY      96.8232    XXZ      -3.0778    XYZ      10.2159
       YYZ      -7.6244    XZZ      -8.5654    YZZ      54.5711
       ZZZ      -4.6732
    Hexadecapole Moments (Debye-Ang^3)
      XXXX    -576.0885   XXXY     -79.8016   XXYY    -560.4935
      XYYY     -93.9093   YYYY   -2560.6296   XXXZ      99.9430
      XXYZ     -35.7065   XYYZ     -11.9198   YYYZ     -95.0205
      XXZZ    -214.0439   XYZZ     -21.3462   YYZZ    -608.3403
      XZZZ     105.1928   YZZZ    -101.2268   ZZZZ    -677.7126
 -----------------------------------------------------------------
 Total job time:  54.09s(wall), 1843.24s(cpu) 
 Wed Dec 13 16:15:18 2023

        *************************************************************
        *                                                           *
        *  Thank you very much for using Q-Chem.  Have a nice day.  *
        *                                                           *
        *************************************************************


0 sent ACK to 0 
now end server 0 ... 
cleanup process ... done
remove work dirs ./qchem2939861.0 -- ./qchem2939861.0
rm -rf ./qchem2939861.0
rm -rf ./qchem2939861
