You are running Q-Chem version: 5.4.0

#
# job setting
#
local host:  exp-3-44
current dir: /home/rramji/project-csd799/aromodel/p3ht-qchem/rotation-run
input file:  Methylthiophene_Phi_30_Theta_210_Methylthiophene.qcin
output file: 
nprocs     : 1
nthreads   : 64
#
# qchem installation setting
#
QC:          /cm/shared/apps/spack/cpu/opt/spack/linux-centos8-zen2/gcc-10.2.0/qchem-5.4-akfmr7b3t57bfs6qan3padb2wnb2i7cl
QCAUX:       /cm/shared/apps/spack/cpu/opt/spack/linux-centos8-zen2/gcc-10.2.0/qchem-5.4-akfmr7b3t57bfs6qan3padb2wnb2i7cl/qcaux
QCPROG:      /cm/shared/apps/spack/cpu/opt/spack/linux-centos8-zen2/gcc-10.2.0/qchem-5.4-akfmr7b3t57bfs6qan3padb2wnb2i7cl/exe/qcprog.exe
QCPROG_S:    /cm/shared/apps/spack/cpu/opt/spack/linux-centos8-zen2/gcc-10.2.0/qchem-5.4-akfmr7b3t57bfs6qan3padb2wnb2i7cl/exe/qcprog.exe_s
PARALLEL:    -DPARALLEL
QCMPI:       mpich
#
# qchem directory setting
#
qcrun:       qchem2232824
QCSCRATCH:   .
QCLOCALSCR:  
QCTMPDIR:    .
QCFILEPREF:  ./qchem2232824
QCSAVEDIR:   
workdirs:    ./qchem2232824
workdir0:    ./qchem2232824
partmpdirs =  
#
# parallel setting
#
QCRSH:           ssh
QCMPI:           mpich
QCMPIRUN:        /cm/shared/apps/spack/cpu/opt/spack/linux-centos8-zen2/gcc-10.2.0/qchem-5.4-akfmr7b3t57bfs6qan3padb2wnb2i7cl/bin/mpi/mpirun_qchem
QCMACHINEFILE:   ./qchem2232824/hostfile
exp-3-44

#
# env setting
#
exported envs:   QC QCAUX QCSCRATCH QCRUNNAME QCFILEPREF QCPROG QCPROG_S GUIFILE

Running Job 1 of 1 Methylthiophene_Phi_30_Theta_210_Methylthiophene.qcin
qchem Methylthiophene_Phi_30_Theta_210_Methylthiophene.qcin_2232824.0 ./qchem2232824/ 1
/cm/shared/apps/spack/cpu/opt/spack/linux-centos8-zen2/gcc-10.2.0/qchem-5.4-akfmr7b3t57bfs6qan3padb2wnb2i7cl/bin/mpi/mpirun_qchem -machinefile ./qchem2232824/hostfile -np 1 /cm/shared/apps/spack/cpu/opt/spack/linux-centos8-zen2/gcc-10.2.0/qchem-5.4-akfmr7b3t57bfs6qan3padb2wnb2i7cl/exe/qcprog.exe Methylthiophene_Phi_30_Theta_210_Methylthiophene.qcin_2232824.0 ./qchem2232824/

Process 0 of 1 is on exp-3-44 - thread support 0
initial socket setup ...start
initial socket setup ...done 
now start server 0 ... 
                  Welcome to Q-Chem
     A Quantum Leap Into The Future Of Chemistry


 Q-Chem 5.4, Q-Chem, Inc., Pleasanton, CA (2021)

 License issued to: University of California, San Diego (site)

 E. Epifanovsky,  A. T. B. Gilbert,  Xintian Feng,  Joonho Lee,  Yuezhi Mao,  
 N. Mardirossian,  P. Pokhilko,  A. White,  M. Wormit,  M. P. Coons,  
 A. L. Dempwolff,  Zhengting Gan,  D. Hait,  P. R. Horn,  L. D. Jacobson,  
 I. Kaliman,  J. Kussmann,  A. W. Lange,  Ka Un Lao,  D. S. Levine,  Jie Liu,  
 S. C. McKenzie,  A. F. Morrison,  K. Nanda,  F. Plasser,  D. R. Rehn,  
 M. L. Vidal,  Zhi-Qiang You,  Ying Zhu,  B. Alam,  B. Albrecht,  
 A. Aldossary,  E. Alguire,  J. H. Andersen,  D. Barton,  K. Begam,  A. Behn,  
 Y. A. Bernard,  E. J. Berquist,  H. Burton,  A. Carreras,  K. Carter-Fenk,  
 R. Chakraborty,  A. D. Chien,  K. D. Closser,  V. Cofer-Shabica,  
 S. Dasgupta,  Jia Deng,  M. de Wergifosse,  M. Diedenhofen,  Hainam Do,  
 S. Ehlert,  Po-Tung Fang,  S. Fatehi,  Qingguo Feng,  J. Gayvert,  
 Qinghui Ge,  G. Gidofalvi,  M. Goldey,  J. Gomes,  C. Gonzalez-Espinoza,  
 S. Gulania,  A. Gunina,  M. W. D. Hanson-Heine,  P. H. P. Harbach,  
 A. W. Hauser,  M. F. Herbst,  M. Hernandez Vera,  M. Hodecker,  
 Z. C. Holden,  S. Houck,  Xunkun Huang,  Kerwin Hui,  B. C. Huynh,  
 M. Ivanov,  Hyunjun Ji,  Hanjie Jiang,  B. Kaduk,  S. Kaehler,  
 K. Khistyaev,  Jaehoon Kim,  P. Klunzinger,  Z. Koczor-Benda,  
 Joong Hoon Koh,  D. Kosenkov,  L. Koulias,  T. Kowalczyk,  C. M. Krauter,  
 K. Kue,  A. Kunitsa,  T. Kus,  A. Landau,  K. V. Lawler,  D. Lefrancois,  
 S. Lehtola,  Rain Li,  Yi-Pei Li,  Jiashu Liang,  M. Liebenthal,  
 Hung-Hsuan Lin,  You-Sheng Lin,  Fenglai Liu,  Kuan-Yu Liu,  
 M. Loipersberger,  A. Luenser,  A. Manjanath,  P. Manohar,  E. Mansoor,  
 S. F. Manzer,  Shan-Ping Mao,  A. V. Marenich,  T. Markovich,  S. Mason,  
 S. A. Maurer,  P. F. McLaughlin,  M. F. S. J. Menger,  J.-M. Mewes,  
 S. A. Mewes,  P. Morgante,  J. W. Mullinax,  T. S. Nguyen-Beck,  
 K. J. Oosterbaan,  G. Paran,  Alexander C. Paul,  Suranjan K. Paul,  
 F. Pavosevic,  Zheng Pei,  S. Prager,  E. I. Proynov,  E. Ramos,  B. Rana,  
 A. E. Rask,  A. Rettig,  R. M. Richard,  F. Rob,  E. Rossomme,  T. Scheele,  
 M. Scheurer,  M. Schneider,  N. Sergueev,  S. M. Sharada,  W. Skomorowski,  
 D. W. Small,  C. J. Stein,  Yu-Chuan Su,  E. J. Sundstrom,  Zhen Tao,  
 J. Thirman,  T. Tsuchimochi,  N. M. Tubman,  S. P. Veccham,  O. Vydrov,  
 J. Wenzel,  J. Witte,  A. Yamada,  Kun Yao,  S. Yeganeh,  S. R. Yost,  
 A. Zech,  Igor Ying Zhang,  Xing Zhang,  Yu Zhang,  D. Zuev,  
 A. Aspuru-Guzik,  A. T. Bell,  N. A. Besley,  K. B. Bravaya,  B. R. Brooks,  
 D. Casanova,  Jeng-Da Chai,  S. Coriani,  C. J. Cramer,  
 A. E. DePrince, III,  R. A. DiStasio Jr.,  A. Dreuw,  B. D. Dunietz,  
 T. R. Furlani,  W. A. Goddard III,  S. Grimme,  S. Hammes-Schiffer,  
 T. Head-Gordon,  W. J. Hehre,  Chao-Ping Hsu,  T.-C. Jagau,  Yousung Jung,  
 A. Klamt,  Jing Kong,  D. S. Lambrecht,  WanZhen Liang,  N. J. Mayhall,  
 C. W. McCurdy,  J. B. Neaton,  C. Ochsenfeld,  J. A. Parkhill,  R. Peverati,  
 V. A. Rassolov,  Yihan Shao,  L. V. Slipchenko,  T. Stauch,  R. P. Steele,  
 J. E. Subotnik,  A. J. W. Thom,  A. Tkatchenko,  D. G. Truhlar,  
 T. Van Voorhis,  T. A. Wesolowski,  K. B. Whaley,  H. L. Woodcock III,  
 P. M. Zimmerman,  S. Faraji,  P. M. W. Gill,  M. Head-Gordon,  
 J. M. Herbert,  A. I. Krylov

 Contributors to earlier versions of Q-Chem not listed above: 
 R. D. Adamson,  B. Austin,  R. Baer,  J. Baker,  G. J. O. Beran,  
 K. Brandhorst,  S. T. Brown,  E. F. C. Byrd,  A. K. Chakraborty,  
 G. K. L. Chan,  Chun-Min Chang,  Yunqing Chen,  C.-L. Cheng,  
 Siu Hung Chien,  D. M. Chipman,  D. L. Crittenden,  H. Dachsel,  
 R. J. Doerksen,  A. D. Dutoi,  R. G. Edgar,  J. Fosso-Tande,  
 L. Fusti-Molnar,  D. Ghosh,  A. Ghysels,  A. Golubeva-Zadorozhnaya,  
 J. Gonthier,  M. S. Gordon,  S. R. Gwaltney,  G. Hawkins,  J. E. Herr,  
 A. Heyden,  S. Hirata,  E. G. Hohenstein,  G. Kedziora,  F. J. Keil,  
 C. Kelley,  Jihan Kim,  R. A. King,  R. Z. Khaliullin,  P. P. Korambath,  
 W. Kurlancheek,  A. Laurent,  A. M. Lee,  M. S. Lee,  S. V. Levchenko,  
 Ching Yeh Lin,  D. Liotard,  E. Livshits,  R. C. Lochan,  I. Lotan,  
 L. A. Martinez-Martinez,  P. E. Maslen,  N. Nair,  D. P. O'Neill,  
 D. Neuhauser,  E. Neuscamman,  C. M. Oana,  R. Olivares-Amaya,  R. Olson,  
 T. M. Perrine,  B. Peters,  P. A. Pieniazek,  A. Prociuk,  Y. M. Rhee,  
 J. Ritchie,  M. A. Rohrdanz,  E. Rosta,  N. J. Russ,  H. F. Schaefer III,  
 M. W. Schmidt,  N. E. Schultz,  S. Sharma,  N. Shenvi,  C. D. Sherrill,  
 A. C. Simmonett,  A. Sodt,  T. Stein,  D. Stuck,  K. S. Thanthiriwatte,  
 V. Vanovschi,  L. Vogt,  Tao Wang,  A. Warshel,  M. A. Watson,  
 C. F. Williams,  Q. Wu,  X. Xu,  Jun Yang,  W. Zhang,  Yan Zhao

 Please cite Q-Chem as follows:
 Y. Shao et al., Mol. Phys. 113, 184-215 (2015)
 DOI: 10.1080/00268976.2014.952696

 Q-Chem 5.4.0 for Intel X86 EM64T Linux

 Parts of Q-Chem use Armadillo 9.800.1 (Horizon Scraper).
 http://arma.sourceforge.net/

 Q-Chem begins on Wed Dec 13 16:08:42 2023  

 Host: 
0

     Scratch files written to ./qchem2232824//
 May1621 |scratch|qcdevops|jenkins|workspace|build_RNUM    
 Parallel job on  1  processors
 Processing $rem in /cm/shared/apps/spack/cpu/opt/spack/linux-centos8-zen2/gcc-10.2.0/qchem-5.4-akfmr7b3t57bfs6qan3padb2wnb2i7cl/config/preferences:
 Processing $rem in /home/rramji/.qchemrc:
 Symmetry turned off for PCM/SM12/SMD calculation
 Core orbitals will be frozen

 Checking the input file for inconsistencies... 	...done.

 Q-Chem warning in module forms1/BasisType.C, line 2236:

 You are not using the predefined 5D/6D in this basis set.


--------------------------------------------------------------
User input:
--------------------------------------------------------------
$molecule
0 1
C	0.363176	-3.887800	-0.626855
C	-0.329669	-3.701456	0.573074
C	-0.542250	-2.345170	0.940016
H	-0.682412	-4.545233	1.184837
C	0.000000	-1.450135	0.000000
S	0.764076	-2.321334	-1.322686
C	-1.265537	-1.934439	2.192440
H	-1.597559	-2.819799	2.768365
H	-2.166534	-1.326210	1.967653
H	-0.620843	-1.325374	2.860032
H	0.655262	-4.815326	-1.131925
C	0.000000	0.000000	0.000000
C	0.419634	0.732990	1.113020
C	1.111057	1.939951	0.820578
H	0.226746	0.396221	2.142881
C	1.234565	2.155183	-0.563588
S	0.482106	0.842416	-1.464748
C	1.640257	2.863718	1.882380
H	1.417524	2.475067	2.894974
H	1.192042	3.876565	1.808137
H	2.740717	2.989259	1.808230
H	1.710720	2.986508	-1.097114
$end

$rem
JOBTYPE		SP
EXCHANGE	HF
CORRELATION	pRIMP2
BASIS		cc-pvtz
METHOD		rimp2
AUX_BASIS	rimp2-cc-pvtz
SOLVENT_METHOD	PCM
PURECART	11111
SYMMETRY	false
MEM_TOTAL	110000
SCF_CONVERGENCE = 6
THRESH=10
GUI = 2
$end



$solvent
dielectric 4.90
$end
--------------------------------------------------------------
 ----------------------------------------------------------------
             Standard Nuclear Orientation (Angstroms)
    I     Atom           X                Y                Z
 ----------------------------------------------------------------
    1      C       0.3631760000    -3.8878000000    -0.6268550000
    2      C      -0.3296690000    -3.7014560000     0.5730740000
    3      C      -0.5422500000    -2.3451700000     0.9400160000
    4      H      -0.6824120000    -4.5452330000     1.1848370000
    5      C       0.0000000000    -1.4501350000     0.0000000000
    6      S       0.7640760000    -2.3213340000    -1.3226860000
    7      C      -1.2655370000    -1.9344390000     2.1924400000
    8      H      -1.5975590000    -2.8197990000     2.7683650000
    9      H      -2.1665340000    -1.3262100000     1.9676530000
   10      H      -0.6208430000    -1.3253740000     2.8600320000
   11      H       0.6552620000    -4.8153260000    -1.1319250000
   12      C       0.0000000000     0.0000000000     0.0000000000
   13      C       0.4196340000     0.7329900000     1.1130200000
   14      C       1.1110570000     1.9399510000     0.8205780000
   15      H       0.2267460000     0.3962210000     2.1428810000
   16      C       1.2345650000     2.1551830000    -0.5635880000
   17      S       0.4821060000     0.8424160000    -1.4647480000
   18      C       1.6402570000     2.8637180000     1.8823800000
   19      H       1.4175240000     2.4750670000     2.8949740000
   20      H       1.1920420000     3.8765650000     1.8081370000
   21      H       2.7407170000     2.9892590000     1.8082300000
   22      H       1.7107200000     2.9865080000    -1.0971140000
 ----------------------------------------------------------------
 Nuclear Repulsion Energy =         841.72437237 hartrees
 There are       51 alpha and       51 beta electrons
 Requested basis set is cc-pVTZ
 There are 184 shells and 508 basis functions

 Total QAlloc Memory Limit 110000 MB
 Mega-Array Size       188 MB
 MEM_STATIC part       192 MB
 Discretize the solute cavity surface with Lebedev spheres
	Using 110 Lebedev grid points for each H atom
	Using 194 Lebedev grid points for other atoms
	Atomic van der Waals radii will be scaled by 1.20
 Remove points where switching function is < 1.0e-08
 Keep 1511 surface tesserae and discard 1917 interior tesserae
 Molecular Surface Area = 230.588 Angst**2
 Requested basis set is rimp2-cc-pVTZ
 There are 394 shells and 1354 basis functions
 A cutoff of  1.0D-10 yielded  12425 shell pairs
 There are     92139 function pairs (    118836 Cartesian)
 Smallest overlap matrix eigenvalue = 7.34E-05

 Scale SEOQF with 1.000000e-01/1.000000e-01/1.000000e-01

 Standard Electronic Orientation quadrupole field applied
 Nucleus-field energy     =     0.0000000221 hartrees
 Guess from superposition of atomic densities
 Warning:  Energy on first SCF cycle will be non-variational
 SAD guess density has 102.000000 electrons

 -----------------------------------------------------------------------
  General SCF calculation program by
  Eric Jon Sundstrom, Paul Horn, Yuezhi Mao, Dmitri Zuev, Alec White,
  David Stuck, Shaama M.S., Shane Yost, Joonho Lee, David Small,
  Daniel Levine, Susi Lehtola, Hugh Burton, Evgeny Epifanovsky,
  Bang C. Huynh
 -----------------------------------------------------------------------
 Hartree-Fock
 using 64 threads for integral computing
 -------------------------------------------------------
 OpenMP Integral computing Module                
 Release: version 1.0, May 2013, Q-Chem Inc. Pittsburgh 
 -------------------------------------------------------
 A restricted SCF calculation will be
 performed using DIIS
 SCF converges when DIIS error is below 1.0e-06
 ---------------------------------------
  Cycle       Energy         DIIS error
 ---------------------------------------
    1   -1184.2439626174      2.38e-02  
    2   -1179.5281516628      1.60e-03  
    3   -1179.6494011358      6.22e-04  
    4   -1179.6633080019      3.40e-04  
    5   -1179.6681904848      6.42e-05  
    6   -1179.6684630746      3.03e-05  
    7   -1179.6685468644      1.25e-05  
    8   -1179.6685738331      5.20e-06  
    9   -1179.6685785958      1.72e-06  
   10   -1179.6685790674      5.28e-07  Convergence criterion met
 ---------------------------------------
 SCF time:   CPU 1468.83s  wall 42.00s 

************** Final PCM Free Energy Summary **************
 G_electrostatic  =      -0.00866907 hartree =      -5.43992219 kcal/mol
 G_cavitation     =       0.00000000 hartree =       0.00000000 kcal/mol
 G_dispersion     =       0.00000000 hartree =       0.00000000 kcal/mol
 G_repulsion      =       0.00000000 hartree =       0.00000000 kcal/mol
 --------------------------------------------------
 Non-electrostatic Free Energy =       0.00000000 hartree =       0.00000000 kcal/mol
 Total                         =      -0.00866907 hartree =      -5.43992219 kcal/mol
 --------------------------------------------------
 SCF Energy (H0 + V/2)                       =   -1179.66857907 
 Solute Internal Energy (H0)                 =   -1179.65991000 
 Total Free Energy (H0 + V/2 + non-elec)     =   -1179.66857907 hartree
                                             = -740253.20600590 kcal/mol
***********************************************************

 SCF   energy in the final basis set =    -1179.6685790674
 Total energy in the final basis set =    -1179.6685790674


 --------------------------------------------------------------
  Generalized many-body perturbation theory program
  by Joonho Lee, Fazle Rob, Xintian Feng, Evgeny Epifanovsky

 No regularization used 
 (reg. param. = 0.0000e+00)
  (P|Q)^-1/2 Time:  CPU 22.41 s  wall 0.37 s

 In RI-MP2 calculation: 
 # of frozen core orbitals: 20

 Components of the RIMP2 correlation energy:
        aaaa    correlation energy =        -0.2535283486 a.u.
        abab    correlation energy =        -1.4766969565 a.u.
        bbbb    correlation energy =        -0.2535283486 a.u.
        non-Brillouin singles      =        -0.0000000000 a.u.
        total same-spin energy     =        -0.5070566972 a.u.
        total opposite-spin energy =        -1.4766969565 a.u.

 Total  RIMP2   correlation energy =        -1.9837536537 a.u.
        RIMP2         total energy =     -1181.6523327210 a.u.

 RI-MP2 Energy Time:  CPU 156.67 s  wall 3.03 s
 
 --------------------------------------------------------------
 
                    Orbital Energies (a.u.)
 --------------------------------------------------------------
 
 Alpha MOs
 -- Occupied --
-91.9866 -91.9840 -11.2789 -11.2780 -11.2714 -11.2662 -11.2539 -11.2474
-11.2458 -11.2416 -11.2304 -11.2292  -8.9864  -8.9837  -6.6673  -6.6667
 -6.6661  -6.6646  -6.6640  -6.6634  -1.1825  -1.1493  -1.0425  -1.0240
 -0.9961  -0.9561  -0.9120  -0.8943  -0.8013  -0.7536  -0.7302  -0.6986
 -0.6595  -0.6157  -0.5904  -0.5812  -0.5703  -0.5628  -0.5511  -0.5387
 -0.5309  -0.5203  -0.5062  -0.4907  -0.4827  -0.4751  -0.4527  -0.3657
 -0.3434  -0.3376  -0.2709
 -- Virtual --
  0.0619   0.1282   0.1405   0.1548   0.1615   0.1728   0.1776   0.1845
  0.1987   0.2022   0.2083   0.2218   0.2332   0.2369   0.2406   0.2501
  0.2674   0.2821   0.3000   0.3160   0.3241   0.3540   0.3606   0.3685
  0.3793   0.3833   0.3932   0.4032   0.4074   0.4150   0.4295   0.4437
  0.4463   0.4650   0.4692   0.4703   0.4757   0.4870   0.4922   0.5036
  0.5157   0.5239   0.5280   0.5385   0.5427   0.5545   0.5610   0.5666
  0.5787   0.5842   0.5904   0.5947   0.6055   0.6097   0.6144   0.6171
  0.6229   0.6317   0.6391   0.6435   0.6446   0.6542   0.6629   0.6776
  0.6840   0.6908   0.6984   0.7187   0.7254   0.7290   0.7451   0.7528
  0.7628   0.7783   0.7876   0.7972   0.8085   0.8200   0.8374   0.8466
  0.8564   0.8604   0.8807   0.9061   0.9096   0.9216   0.9265   0.9352
  0.9536   0.9584   0.9683   0.9975   1.0044   1.0115   1.0216   1.0302
  1.0478   1.0528   1.0619   1.0668   1.0715   1.0783   1.0906   1.1023
  1.1134   1.1210   1.1376   1.1401   1.1632   1.1675   1.1723   1.1814
  1.1903   1.2223   1.2297   1.2331   1.2433   1.2497   1.2588   1.2644
  1.2718   1.2829   1.2947   1.3236   1.3277   1.3411   1.3493   1.3657
  1.3733   1.3795   1.4003   1.4156   1.4188   1.4291   1.4418   1.4496
  1.4836   1.4857   1.5034   1.5146   1.5224   1.5253   1.5450   1.5543
  1.5567   1.5631   1.5691   1.5796   1.5851   1.5890   1.6092   1.6462
  1.6473   1.6672   1.6697   1.6866   1.6894   1.7079   1.7287   1.7385
  1.7415   1.7525   1.7783   1.7937   1.7992   1.8153   1.8425   1.8478
  1.8793   1.8827   1.9179   1.9204   1.9393   1.9626   1.9807   1.9947
  2.0039   2.0325   2.0712   2.1081   2.1213   2.1431   2.1583   2.1713
  2.1812   2.1968   2.2159   2.2229   2.2380   2.2459   2.2671   2.2770
  2.2864   2.2923   2.3046   2.3828   2.4070   2.4136   2.4444   2.4539
  2.4749   2.4888   2.5019   2.5223   2.5418   2.5681   2.5799   2.5975
  2.6014   2.6295   2.6560   2.6758   2.6782   2.6893   2.7096   2.7340
  2.7352   2.7443   2.7513   2.7610   2.7761   2.7832   2.7939   2.8103
  2.8207   2.8359   2.8449   2.8624   2.8887   2.9117   2.9222   2.9280
  2.9502   2.9666   2.9926   2.9979   3.0012   3.0249   3.0304   3.0402
  3.0475   3.0683   3.0941   3.1078   3.1152   3.1239   3.1379   3.1407
  3.1529   3.1596   3.1633   3.1863   3.1900   3.2036   3.2122   3.2167
  3.2270   3.2520   3.2557   3.2788   3.2833   3.2908   3.3030   3.3091
  3.3230   3.3255   3.3318   3.3448   3.3525   3.3649   3.3714   3.3794
  3.3875   3.3955   3.3990   3.4048   3.4156   3.4247   3.4310   3.4433
  3.4525   3.4595   3.4741   3.4833   3.4929   3.5010   3.5156   3.5219
  3.5318   3.5369   3.5408   3.5479   3.5678   3.5778   3.5783   3.5926
  3.6046   3.6169   3.6214   3.6349   3.6393   3.6435   3.6523   3.6626
  3.6716   3.6885   3.7018   3.7065   3.7236   3.7340   3.7414   3.7577
  3.7727   3.7810   3.7849   3.7964   3.8084   3.8135   3.8285   3.8438
  3.8602   3.8724   3.8817   3.9029   3.9139   3.9341   3.9368   3.9557
  3.9610   3.9763   4.0056   4.0157   4.0205   4.0328   4.0379   4.0485
  4.0547   4.0663   4.0869   4.1004   4.1100   4.1320   4.1449   4.1523
  4.1731   4.1915   4.1983   4.2021   4.2107   4.2215   4.2251   4.2430
  4.2558   4.2651   4.2765   4.2878   4.2941   4.3141   4.3244   4.3424
  4.3519   4.3610   4.3661   4.3899   4.3996   4.4049   4.4116   4.4307
  4.4549   4.4607   4.4623   4.4828   4.4908   4.5340   4.5502   4.5680
  4.5731   4.6020   4.6083   4.6206   4.6364   4.6488   4.6598   4.6781
  4.6918   4.7297   4.7485   4.7636   4.7706   4.7932   4.8416   4.8561
  4.8859   4.8986   4.9087   4.9410   4.9694   4.9908   5.0082   5.0586
  5.0841   5.1003   5.1140   5.1375   5.1648   5.1827   5.2000   5.2334
  5.2703   5.2788   5.2971   5.3130   5.3259   5.3648   5.3990   5.4021
  5.4094   5.4542   5.4678   5.4942   5.5232   5.5291   5.5494   5.5568
  5.5602   5.6145   5.6222   5.6227   5.6500   5.6786   5.7000   5.7216
  5.7792   5.8255   5.9105   5.9515   6.0382   6.1047   6.1441   6.2238
  6.2278   6.2571   6.2795   6.2959   6.3392   6.4113   6.5123   8.7342
  9.7851  11.5793  12.1222  12.8768  13.0866  13.7583  13.9830  14.2203
 14.3409
 --------------------------------------------------------------
 
          Ground-State Mulliken Net Atomic Charges

     Atom                 Charge (a.u.)
  ----------------------------------------
      1 C                    -0.230666
      2 C                    -0.245455
      3 C                     0.033221
      4 H                     0.183833
      5 C                    -0.020737
      6 S                     0.016560
      7 C                    -0.304353
      8 H                     0.112523
      9 H                     0.113995
     10 H                     0.102625
     11 H                     0.203956
     12 C                    -0.013761
     13 C                    -0.194251
     14 C                     0.009301
     15 H                     0.194573
     16 C                    -0.218978
     17 S                     0.007677
     18 C                    -0.270213
     19 H                     0.101865
     20 H                     0.108789
     21 H                     0.108355
     22 H                     0.201142
  ----------------------------------------
  Sum of atomic charges =     0.000000

 -----------------------------------------------------------------
                    Cartesian Multipole Moments
 -----------------------------------------------------------------
    Charge (ESU x 10^10)
                -0.0000
    Dipole Moment (Debye)
         X       0.4225      Y       0.7458      Z       2.7688
       Tot       2.8984
    Quadrupole Moments (Debye-Ang)
        XX     -88.2493     XY       6.1376     YY     -72.5670
        XZ      -2.2062     YZ      -1.0603     ZZ     -81.7038
    Octopole Moments (Debye-Ang^2)
       XXX     -98.1413    XXY      62.7969    XYY     -16.7728
       YYY     118.3312    XXZ      -5.4474    XYZ       9.4264
       YYZ      -8.8779    XZZ     -30.0119    YZZ      50.7165
       ZZZ      -7.2183
    Hexadecapole Moments (Debye-Ang^3)
      XXXX    -512.7566   XXXY    -202.5272   XXYY    -542.3955
      XYYY    -187.6525   YYYY   -2416.9002   XXXZ      72.1432
      XXYZ     -33.7599   XYYZ     -26.6666   YYYZ     -69.5403
      XXZZ    -243.4144   XYZZ     -55.8278   YYZZ    -575.3782
      XZZZ      65.8982   YZZZ     -92.4362   ZZZZ    -952.8961
 -----------------------------------------------------------------
 Total job time:  48.52s(wall), 1704.86s(cpu) 
 Wed Dec 13 16:09:31 2023

        *************************************************************
        *                                                           *
        *  Thank you very much for using Q-Chem.  Have a nice day.  *
        *                                                           *
        *************************************************************


0 sent ACK to 0 
now end server 0 ... 
cleanup process ... done
remove work dirs ./qchem2232824.0 -- ./qchem2232824.0
rm -rf ./qchem2232824.0
rm -rf ./qchem2232824
