You are running Q-Chem version: 5.4.0

#
# job setting
#
local host:  exp-4-03
current dir: /home/rramji/project-csd799/aromodel/p3ht-qchem/rotation-run
input file:  Methylthiophene_Phi_50_Theta_100_Methylthiophene.qcin
output file: 
nprocs     : 1
nthreads   : 64
#
# qchem installation setting
#
QC:          /cm/shared/apps/spack/cpu/opt/spack/linux-centos8-zen2/gcc-10.2.0/qchem-5.4-akfmr7b3t57bfs6qan3padb2wnb2i7cl
QCAUX:       /cm/shared/apps/spack/cpu/opt/spack/linux-centos8-zen2/gcc-10.2.0/qchem-5.4-akfmr7b3t57bfs6qan3padb2wnb2i7cl/qcaux
QCPROG:      /cm/shared/apps/spack/cpu/opt/spack/linux-centos8-zen2/gcc-10.2.0/qchem-5.4-akfmr7b3t57bfs6qan3padb2wnb2i7cl/exe/qcprog.exe
QCPROG_S:    /cm/shared/apps/spack/cpu/opt/spack/linux-centos8-zen2/gcc-10.2.0/qchem-5.4-akfmr7b3t57bfs6qan3padb2wnb2i7cl/exe/qcprog.exe_s
PARALLEL:    -DPARALLEL
QCMPI:       mpich
#
# qchem directory setting
#
qcrun:       qchem1334774
QCSCRATCH:   .
QCLOCALSCR:  
QCTMPDIR:    .
QCFILEPREF:  ./qchem1334774
QCSAVEDIR:   
workdirs:    ./qchem1334774
workdir0:    ./qchem1334774
partmpdirs =  
#
# parallel setting
#
QCRSH:           ssh
QCMPI:           mpich
QCMPIRUN:        /cm/shared/apps/spack/cpu/opt/spack/linux-centos8-zen2/gcc-10.2.0/qchem-5.4-akfmr7b3t57bfs6qan3padb2wnb2i7cl/bin/mpi/mpirun_qchem
QCMACHINEFILE:   ./qchem1334774/hostfile
exp-4-03

#
# env setting
#
exported envs:   QC QCAUX QCSCRATCH QCRUNNAME QCFILEPREF QCPROG QCPROG_S GUIFILE

Running Job 1 of 1 Methylthiophene_Phi_50_Theta_100_Methylthiophene.qcin
qchem Methylthiophene_Phi_50_Theta_100_Methylthiophene.qcin_1334774.0 ./qchem1334774/ 1
/cm/shared/apps/spack/cpu/opt/spack/linux-centos8-zen2/gcc-10.2.0/qchem-5.4-akfmr7b3t57bfs6qan3padb2wnb2i7cl/bin/mpi/mpirun_qchem -machinefile ./qchem1334774/hostfile -np 1 /cm/shared/apps/spack/cpu/opt/spack/linux-centos8-zen2/gcc-10.2.0/qchem-5.4-akfmr7b3t57bfs6qan3padb2wnb2i7cl/exe/qcprog.exe Methylthiophene_Phi_50_Theta_100_Methylthiophene.qcin_1334774.0 ./qchem1334774/

Process 0 of 1 is on exp-4-03 - thread support 0
initial socket setup ...start
initial socket setup ...done 
now start server 0 ... 
                  Welcome to Q-Chem
     A Quantum Leap Into The Future Of Chemistry


 Q-Chem 5.4, Q-Chem, Inc., Pleasanton, CA (2021)

 License issued to: University of California, San Diego (site)

 E. Epifanovsky,  A. T. B. Gilbert,  Xintian Feng,  Joonho Lee,  Yuezhi Mao,  
 N. Mardirossian,  P. Pokhilko,  A. White,  M. Wormit,  M. P. Coons,  
 A. L. Dempwolff,  Zhengting Gan,  D. Hait,  P. R. Horn,  L. D. Jacobson,  
 I. Kaliman,  J. Kussmann,  A. W. Lange,  Ka Un Lao,  D. S. Levine,  Jie Liu,  
 S. C. McKenzie,  A. F. Morrison,  K. Nanda,  F. Plasser,  D. R. Rehn,  
 M. L. Vidal,  Zhi-Qiang You,  Ying Zhu,  B. Alam,  B. Albrecht,  
 A. Aldossary,  E. Alguire,  J. H. Andersen,  D. Barton,  K. Begam,  A. Behn,  
 Y. A. Bernard,  E. J. Berquist,  H. Burton,  A. Carreras,  K. Carter-Fenk,  
 R. Chakraborty,  A. D. Chien,  K. D. Closser,  V. Cofer-Shabica,  
 S. Dasgupta,  Jia Deng,  M. de Wergifosse,  M. Diedenhofen,  Hainam Do,  
 S. Ehlert,  Po-Tung Fang,  S. Fatehi,  Qingguo Feng,  J. Gayvert,  
 Qinghui Ge,  G. Gidofalvi,  M. Goldey,  J. Gomes,  C. Gonzalez-Espinoza,  
 S. Gulania,  A. Gunina,  M. W. D. Hanson-Heine,  P. H. P. Harbach,  
 A. W. Hauser,  M. F. Herbst,  M. Hernandez Vera,  M. Hodecker,  
 Z. C. Holden,  S. Houck,  Xunkun Huang,  Kerwin Hui,  B. C. Huynh,  
 M. Ivanov,  Hyunjun Ji,  Hanjie Jiang,  B. Kaduk,  S. Kaehler,  
 K. Khistyaev,  Jaehoon Kim,  P. Klunzinger,  Z. Koczor-Benda,  
 Joong Hoon Koh,  D. Kosenkov,  L. Koulias,  T. Kowalczyk,  C. M. Krauter,  
 K. Kue,  A. Kunitsa,  T. Kus,  A. Landau,  K. V. Lawler,  D. Lefrancois,  
 S. Lehtola,  Rain Li,  Yi-Pei Li,  Jiashu Liang,  M. Liebenthal,  
 Hung-Hsuan Lin,  You-Sheng Lin,  Fenglai Liu,  Kuan-Yu Liu,  
 M. Loipersberger,  A. Luenser,  A. Manjanath,  P. Manohar,  E. Mansoor,  
 S. F. Manzer,  Shan-Ping Mao,  A. V. Marenich,  T. Markovich,  S. Mason,  
 S. A. Maurer,  P. F. McLaughlin,  M. F. S. J. Menger,  J.-M. Mewes,  
 S. A. Mewes,  P. Morgante,  J. W. Mullinax,  T. S. Nguyen-Beck,  
 K. J. Oosterbaan,  G. Paran,  Alexander C. Paul,  Suranjan K. Paul,  
 F. Pavosevic,  Zheng Pei,  S. Prager,  E. I. Proynov,  E. Ramos,  B. Rana,  
 A. E. Rask,  A. Rettig,  R. M. Richard,  F. Rob,  E. Rossomme,  T. Scheele,  
 M. Scheurer,  M. Schneider,  N. Sergueev,  S. M. Sharada,  W. Skomorowski,  
 D. W. Small,  C. J. Stein,  Yu-Chuan Su,  E. J. Sundstrom,  Zhen Tao,  
 J. Thirman,  T. Tsuchimochi,  N. M. Tubman,  S. P. Veccham,  O. Vydrov,  
 J. Wenzel,  J. Witte,  A. Yamada,  Kun Yao,  S. Yeganeh,  S. R. Yost,  
 A. Zech,  Igor Ying Zhang,  Xing Zhang,  Yu Zhang,  D. Zuev,  
 A. Aspuru-Guzik,  A. T. Bell,  N. A. Besley,  K. B. Bravaya,  B. R. Brooks,  
 D. Casanova,  Jeng-Da Chai,  S. Coriani,  C. J. Cramer,  
 A. E. DePrince, III,  R. A. DiStasio Jr.,  A. Dreuw,  B. D. Dunietz,  
 T. R. Furlani,  W. A. Goddard III,  S. Grimme,  S. Hammes-Schiffer,  
 T. Head-Gordon,  W. J. Hehre,  Chao-Ping Hsu,  T.-C. Jagau,  Yousung Jung,  
 A. Klamt,  Jing Kong,  D. S. Lambrecht,  WanZhen Liang,  N. J. Mayhall,  
 C. W. McCurdy,  J. B. Neaton,  C. Ochsenfeld,  J. A. Parkhill,  R. Peverati,  
 V. A. Rassolov,  Yihan Shao,  L. V. Slipchenko,  T. Stauch,  R. P. Steele,  
 J. E. Subotnik,  A. J. W. Thom,  A. Tkatchenko,  D. G. Truhlar,  
 T. Van Voorhis,  T. A. Wesolowski,  K. B. Whaley,  H. L. Woodcock III,  
 P. M. Zimmerman,  S. Faraji,  P. M. W. Gill,  M. Head-Gordon,  
 J. M. Herbert,  A. I. Krylov

 Contributors to earlier versions of Q-Chem not listed above: 
 R. D. Adamson,  B. Austin,  R. Baer,  J. Baker,  G. J. O. Beran,  
 K. Brandhorst,  S. T. Brown,  E. F. C. Byrd,  A. K. Chakraborty,  
 G. K. L. Chan,  Chun-Min Chang,  Yunqing Chen,  C.-L. Cheng,  
 Siu Hung Chien,  D. M. Chipman,  D. L. Crittenden,  H. Dachsel,  
 R. J. Doerksen,  A. D. Dutoi,  R. G. Edgar,  J. Fosso-Tande,  
 L. Fusti-Molnar,  D. Ghosh,  A. Ghysels,  A. Golubeva-Zadorozhnaya,  
 J. Gonthier,  M. S. Gordon,  S. R. Gwaltney,  G. Hawkins,  J. E. Herr,  
 A. Heyden,  S. Hirata,  E. G. Hohenstein,  G. Kedziora,  F. J. Keil,  
 C. Kelley,  Jihan Kim,  R. A. King,  R. Z. Khaliullin,  P. P. Korambath,  
 W. Kurlancheek,  A. Laurent,  A. M. Lee,  M. S. Lee,  S. V. Levchenko,  
 Ching Yeh Lin,  D. Liotard,  E. Livshits,  R. C. Lochan,  I. Lotan,  
 L. A. Martinez-Martinez,  P. E. Maslen,  N. Nair,  D. P. O'Neill,  
 D. Neuhauser,  E. Neuscamman,  C. M. Oana,  R. Olivares-Amaya,  R. Olson,  
 T. M. Perrine,  B. Peters,  P. A. Pieniazek,  A. Prociuk,  Y. M. Rhee,  
 J. Ritchie,  M. A. Rohrdanz,  E. Rosta,  N. J. Russ,  H. F. Schaefer III,  
 M. W. Schmidt,  N. E. Schultz,  S. Sharma,  N. Shenvi,  C. D. Sherrill,  
 A. C. Simmonett,  A. Sodt,  T. Stein,  D. Stuck,  K. S. Thanthiriwatte,  
 V. Vanovschi,  L. Vogt,  Tao Wang,  A. Warshel,  M. A. Watson,  
 C. F. Williams,  Q. Wu,  X. Xu,  Jun Yang,  W. Zhang,  Yan Zhao

 Please cite Q-Chem as follows:
 Y. Shao et al., Mol. Phys. 113, 184-215 (2015)
 DOI: 10.1080/00268976.2014.952696

 Q-Chem 5.4.0 for Intel X86 EM64T Linux

 Parts of Q-Chem use Armadillo 9.800.1 (Horizon Scraper).
 http://arma.sourceforge.net/

 Q-Chem begins on Wed Dec 13 16:00:05 2023  

 Host: 
0

     Scratch files written to ./qchem1334774//
 May1621 |scratch|qcdevops|jenkins|workspace|build_RNUM    
 Parallel job on  1  processors
 Processing $rem in /cm/shared/apps/spack/cpu/opt/spack/linux-centos8-zen2/gcc-10.2.0/qchem-5.4-akfmr7b3t57bfs6qan3padb2wnb2i7cl/config/preferences:
 Processing $rem in /home/rramji/.qchemrc:
 Symmetry turned off for PCM/SM12/SMD calculation
 Core orbitals will be frozen

 Checking the input file for inconsistencies... 	...done.

 Q-Chem warning in module forms1/BasisType.C, line 2236:

 You are not using the predefined 5D/6D in this basis set.


--------------------------------------------------------------
User input:
--------------------------------------------------------------
$molecule
0 1
C	-0.713264	-3.887800	-0.126876
C	0.651267	-3.701456	0.113784
C	1.068787	-2.345170	0.188043
H	1.346782	-4.545233	0.236019
C	0.000000	-1.450135	0.000000
S	-1.504247	-2.321334	-0.265612
C	2.493059	-1.934439	0.439357
H	3.147809	-2.819799	0.554378
H	2.589987	-1.326210	1.362899
H	2.899892	-1.325374	-0.394786
H	-1.287774	-4.815326	-0.228603
C	0.000000	0.000000	0.000000
C	0.645024	0.545262	1.113020
C	1.707554	1.442954	0.820578
H	0.348587	0.294774	2.142881
C	1.897227	1.602964	-0.563588
S	0.741155	0.626722	-1.464748
C	2.520787	2.130014	1.882380
H	2.178559	1.840981	2.894974
H	2.446016	3.235078	1.808137
H	3.597818	1.871604	1.808230
H	2.628997	2.221299	-1.097114
$end

$rem
JOBTYPE		SP
EXCHANGE	HF
CORRELATION	pRIMP2
BASIS		cc-pvtz
METHOD		rimp2
AUX_BASIS	rimp2-cc-pvtz
SOLVENT_METHOD	PCM
PURECART	11111
SYMMETRY	false
MEM_TOTAL	110000
SCF_CONVERGENCE = 6
THRESH=10
GUI = 2
$end



$solvent
dielectric 4.90
$end
--------------------------------------------------------------
 ----------------------------------------------------------------
             Standard Nuclear Orientation (Angstroms)
    I     Atom           X                Y                Z
 ----------------------------------------------------------------
    1      C      -0.7132640000    -3.8878000000    -0.1268760000
    2      C       0.6512670000    -3.7014560000     0.1137840000
    3      C       1.0687870000    -2.3451700000     0.1880430000
    4      H       1.3467820000    -4.5452330000     0.2360190000
    5      C       0.0000000000    -1.4501350000     0.0000000000
    6      S      -1.5042470000    -2.3213340000    -0.2656120000
    7      C       2.4930590000    -1.9344390000     0.4393570000
    8      H       3.1478090000    -2.8197990000     0.5543780000
    9      H       2.5899870000    -1.3262100000     1.3628990000
   10      H       2.8998920000    -1.3253740000    -0.3947860000
   11      H      -1.2877740000    -4.8153260000    -0.2286030000
   12      C       0.0000000000     0.0000000000     0.0000000000
   13      C       0.6450240000     0.5452620000     1.1130200000
   14      C       1.7075540000     1.4429540000     0.8205780000
   15      H       0.3485870000     0.2947740000     2.1428810000
   16      C       1.8972270000     1.6029640000    -0.5635880000
   17      S       0.7411550000     0.6267220000    -1.4647480000
   18      C       2.5207870000     2.1300140000     1.8823800000
   19      H       2.1785590000     1.8409810000     2.8949740000
   20      H       2.4460160000     3.2350780000     1.8081370000
   21      H       3.5978180000     1.8716040000     1.8082300000
   22      H       2.6289970000     2.2212990000    -1.0971140000
 ----------------------------------------------------------------
 Nuclear Repulsion Energy =         854.77209742 hartrees
 There are       51 alpha and       51 beta electrons
 Requested basis set is cc-pVTZ
 There are 184 shells and 508 basis functions

 Total QAlloc Memory Limit 110000 MB
 Mega-Array Size       188 MB
 MEM_STATIC part       192 MB
 Discretize the solute cavity surface with Lebedev spheres
	Using 110 Lebedev grid points for each H atom
	Using 194 Lebedev grid points for other atoms
	Atomic van der Waals radii will be scaled by 1.20
 Remove points where switching function is < 1.0e-08
 Keep 1512 surface tesserae and discard 1916 interior tesserae
 Molecular Surface Area = 227.722 Angst**2
 Requested basis set is rimp2-cc-pVTZ
 There are 394 shells and 1354 basis functions
 A cutoff of  1.0D-10 yielded  13087 shell pairs
 There are     97843 function pairs (    126413 Cartesian)
 Smallest overlap matrix eigenvalue = 7.22E-05

 Scale SEOQF with 1.000000e-01/1.000000e-01/1.000000e-01

 Standard Electronic Orientation quadrupole field applied
 Nucleus-field energy     =     0.0000000316 hartrees
 Guess from superposition of atomic densities
 Warning:  Energy on first SCF cycle will be non-variational
 SAD guess density has 102.000000 electrons

 -----------------------------------------------------------------------
  General SCF calculation program by
  Eric Jon Sundstrom, Paul Horn, Yuezhi Mao, Dmitri Zuev, Alec White,
  David Stuck, Shaama M.S., Shane Yost, Joonho Lee, David Small,
  Daniel Levine, Susi Lehtola, Hugh Burton, Evgeny Epifanovsky,
  Bang C. Huynh
 -----------------------------------------------------------------------
 Hartree-Fock
 using 64 threads for integral computing
 -------------------------------------------------------
 OpenMP Integral computing Module                
 Release: version 1.0, May 2013, Q-Chem Inc. Pittsburgh 
 -------------------------------------------------------
 A restricted SCF calculation will be
 performed using DIIS
 SCF converges when DIIS error is below 1.0e-06
 ---------------------------------------
  Cycle       Energy         DIIS error
 ---------------------------------------
    1   -1184.2715111544      2.39e-02  
    2   -1179.5007664354      1.58e-03  
    3   -1179.6209518710      5.74e-04  
    4   -1179.6340034992      3.09e-04  
    5   -1179.6381598353      6.33e-05  
    6   -1179.6384510779      2.97e-05  
    7   -1179.6385454188      1.56e-05  
    8   -1179.6385816406      6.10e-06  
    9   -1179.6385888377      2.42e-06  
   10   -1179.6385896728      9.54e-07  Convergence criterion met
 ---------------------------------------
 SCF time:   CPU 1607.38s  wall 48.00s 

************** Final PCM Free Energy Summary **************
 G_electrostatic  =      -0.00890790 hartree =      -5.58979460 kcal/mol
 G_cavitation     =       0.00000000 hartree =       0.00000000 kcal/mol
 G_dispersion     =       0.00000000 hartree =       0.00000000 kcal/mol
 G_repulsion      =       0.00000000 hartree =       0.00000000 kcal/mol
 --------------------------------------------------
 Non-electrostatic Free Energy =       0.00000000 hartree =       0.00000000 kcal/mol
 Total                         =      -0.00890790 hartree =      -5.58979460 kcal/mol
 --------------------------------------------------
 SCF Energy (H0 + V/2)                       =   -1179.63858967 
 Solute Internal Energy (H0)                 =   -1179.62968177 
 Total Free Energy (H0 + V/2 + non-elec)     =   -1179.63858967 hartree
                                             = -740234.38737675 kcal/mol
***********************************************************

 SCF   energy in the final basis set =    -1179.6385896728
 Total energy in the final basis set =    -1179.6385896728


 --------------------------------------------------------------
  Generalized many-body perturbation theory program
  by Joonho Lee, Fazle Rob, Xintian Feng, Evgeny Epifanovsky

 No regularization used 
 (reg. param. = 0.0000e+00)
  (P|Q)^-1/2 Time:  CPU 24.58 s  wall 0.39 s

 In RI-MP2 calculation: 
 # of frozen core orbitals: 20

 Components of the RIMP2 correlation energy:
        aaaa    correlation energy =        -0.2551022504 a.u.
        abab    correlation energy =        -1.4822926495 a.u.
        bbbb    correlation energy =        -0.2551022504 a.u.
        non-Brillouin singles      =        -0.0000000000 a.u.
        total same-spin energy     =        -0.5102045007 a.u.
        total opposite-spin energy =        -1.4822926495 a.u.

 Total  RIMP2   correlation energy =        -1.9924971503 a.u.
        RIMP2         total energy =     -1181.6310868231 a.u.

 RI-MP2 Energy Time:  CPU 198.53 s  wall 3.71 s
 
 --------------------------------------------------------------
 
                    Orbital Energies (a.u.)
 --------------------------------------------------------------
 
 Alpha MOs
 -- Occupied --
-91.9835 -91.9767 -11.2820 -11.2730 -11.2651 -11.2591 -11.2574 -11.2522
-11.2451 -11.2386 -11.2312 -11.2257  -8.9836  -8.9767  -6.6644  -6.6637
 -6.6633  -6.6576  -6.6570  -6.6565  -1.1849  -1.1465  -1.0429  -1.0183
 -0.9984  -0.9527  -0.9130  -0.8901  -0.7948  -0.7501  -0.7379  -0.6950
 -0.6565  -0.6193  -0.5845  -0.5818  -0.5718  -0.5676  -0.5489  -0.5334
 -0.5252  -0.5229  -0.5120  -0.4884  -0.4697  -0.4644  -0.4517  -0.3483
 -0.3381  -0.3194  -0.2966
 -- Virtual --
  0.0665   0.1059   0.1347   0.1563   0.1649   0.1735   0.1805   0.1834
  0.1925   0.1948   0.1978   0.2192   0.2337   0.2390   0.2422   0.2464
  0.2542   0.2622   0.2894   0.2967   0.3280   0.3468   0.3524   0.3719
  0.3808   0.3824   0.3908   0.4015   0.4055   0.4131   0.4341   0.4377
  0.4405   0.4468   0.4554   0.4704   0.4794   0.4938   0.4956   0.5050
  0.5102   0.5159   0.5203   0.5357   0.5403   0.5540   0.5630   0.5637
  0.5807   0.5888   0.5923   0.5961   0.6081   0.6102   0.6122   0.6193
  0.6292   0.6347   0.6473   0.6502   0.6550   0.6569   0.6603   0.6687
  0.6825   0.6863   0.7010   0.7215   0.7248   0.7323   0.7412   0.7515
  0.7710   0.7840   0.7936   0.8041   0.8167   0.8348   0.8372   0.8472
  0.8505   0.8640   0.8846   0.8902   0.9028   0.9197   0.9316   0.9422
  0.9568   0.9752   0.9885   0.9978   1.0129   1.0164   1.0296   1.0443
  1.0535   1.0704   1.0716   1.0795   1.0804   1.0886   1.0915   1.1097
  1.1138   1.1267   1.1419   1.1546   1.1720   1.1838   1.1999   1.2027
  1.2093   1.2165   1.2343   1.2389   1.2568   1.2711   1.2733   1.2783
  1.2821   1.2978   1.3133   1.3226   1.3387   1.3444   1.3537   1.3779
  1.3892   1.3991   1.4203   1.4223   1.4341   1.4464   1.4531   1.4773
  1.4847   1.4919   1.5036   1.5164   1.5246   1.5321   1.5414   1.5540
  1.5609   1.5714   1.5798   1.5841   1.5972   1.6026   1.6111   1.6259
  1.6438   1.6736   1.6857   1.6934   1.7013   1.7095   1.7148   1.7268
  1.7414   1.7644   1.7805   1.7957   1.7999   1.8315   1.8375   1.8691
  1.8837   1.8980   1.9035   1.9309   1.9345   1.9624   1.9765   1.9951
  2.0029   2.0555   2.0589   2.0841   2.1059   2.1351   2.1446   2.1651
  2.1863   2.1907   2.1947   2.2273   2.2397   2.2604   2.2691   2.2792
  2.2992   2.3233   2.3376   2.3603   2.3946   2.4285   2.4328   2.4576
  2.4768   2.4913   2.5070   2.5256   2.5399   2.5887   2.6061   2.6290
  2.6429   2.6553   2.6693   2.6783   2.6844   2.6985   2.7086   2.7314
  2.7368   2.7414   2.7624   2.7697   2.7782   2.7911   2.8059   2.8150
  2.8362   2.8440   2.8537   2.8666   2.8902   2.9006   2.9163   2.9395
  2.9689   2.9789   2.9880   2.9920   2.9952   3.0124   3.0260   3.0395
  3.0451   3.0801   3.0925   3.1077   3.1162   3.1190   3.1361   3.1529
  3.1595   3.1649   3.1766   3.1824   3.1874   3.2140   3.2290   3.2421
  3.2471   3.2608   3.2643   3.2772   3.2921   3.3025   3.3102   3.3196
  3.3237   3.3332   3.3451   3.3490   3.3542   3.3659   3.3735   3.3805
  3.3932   3.4015   3.4040   3.4128   3.4177   3.4315   3.4425   3.4508
  3.4630   3.4665   3.4806   3.4866   3.5049   3.5084   3.5192   3.5249
  3.5372   3.5403   3.5554   3.5754   3.5827   3.5907   3.6022   3.6094
  3.6127   3.6183   3.6328   3.6440   3.6544   3.6585   3.6644   3.6815
  3.6911   3.7079   3.7116   3.7186   3.7270   3.7396   3.7448   3.7535
  3.7712   3.7832   3.7886   3.8013   3.8092   3.8373   3.8439   3.8596
  3.8705   3.8882   3.8968   3.9087   3.9303   3.9446   3.9577   3.9730
  3.9832   3.9961   4.0220   4.0234   4.0322   4.0364   4.0517   4.0588
  4.0728   4.0888   4.1060   4.1128   4.1314   4.1466   4.1573   4.1666
  4.1891   4.1943   4.2067   4.2114   4.2194   4.2254   4.2360   4.2490
  4.2668   4.2736   4.2774   4.2959   4.3084   4.3270   4.3306   4.3432
  4.3531   4.3588   4.3682   4.3980   4.4009   4.4100   4.4194   4.4346
  4.4425   4.4642   4.4803   4.4854   4.4999   4.5324   4.5467   4.5795
  4.5892   4.6087   4.6187   4.6315   4.6459   4.6539   4.6680   4.6771
  4.6941   4.7119   4.7274   4.7524   4.7771   4.8004   4.8177   4.8493
  4.8863   4.8995   4.9083   4.9324   4.9552   4.9787   5.0248   5.0620
  5.0765   5.1115   5.1147   5.1238   5.1647   5.1700   5.1983   5.2000
  5.2766   5.2877   5.3018   5.3066   5.3193   5.3672   5.3874   5.4014
  5.4176   5.4579   5.4688   5.4803   5.5181   5.5375   5.5479   5.5608
  5.5726   5.5888   5.6228   5.6289   5.6497   5.6817   5.7025   5.7280
  5.7905   5.8095   5.9407   5.9919   5.9973   6.0332   6.1001   6.2231
  6.2418   6.2553   6.2790   6.2998   6.3769   6.3885   6.5149   8.8633
  9.7566  11.6607  12.4364  12.8433  13.1177  13.7725  13.8799  14.2305
 14.3886
 --------------------------------------------------------------
 
          Ground-State Mulliken Net Atomic Charges

     Atom                 Charge (a.u.)
  ----------------------------------------
      1 C                    -0.218457
      2 C                    -0.257601
      3 C                     0.057956
      4 H                     0.183780
      5 C                    -0.015010
      6 S                     0.005869
      7 C                    -0.313338
      8 H                     0.118501
      9 H                     0.111830
     10 H                     0.115316
     11 H                     0.200406
     12 C                    -0.106717
     13 C                    -0.192895
     14 C                     0.032824
     15 H                     0.191989
     16 C                    -0.208749
     17 S                     0.037863
     18 C                    -0.269531
     19 H                     0.104283
     20 H                     0.113654
     21 H                     0.106325
     22 H                     0.201702
  ----------------------------------------
  Sum of atomic charges =     0.000000

 -----------------------------------------------------------------
                    Cartesian Multipole Moments
 -----------------------------------------------------------------
    Charge (ESU x 10^10)
                -0.0000
    Dipole Moment (Debye)
         X       3.7321      Y       0.7642      Z       1.9125
       Tot       4.2627
    Quadrupole Moments (Debye-Ang)
        XX     -79.7596     XY       3.6080     YY     -77.3040
        XZ       1.6709     YZ       0.2887     ZZ     -85.9928
    Octopole Moments (Debye-Ang^2)
       XXX    -151.2485    XXY      71.1681    XYY     -45.1934
       YYY     155.8576    XXZ      -4.7295    XYZ      -5.5327
       YYZ      -4.8615    XZZ     -50.5715    YZZ      81.8500
       ZZZ      -0.5530
    Hexadecapole Moments (Debye-Ang^3)
      XXXX   -1208.7281   XXXY    -214.5140   XXYY    -534.2729
      XYYY    -190.3654   YYYY   -2150.4914   XXXZ    -131.3660
      XXYZ     -30.9388   XYYZ     -31.9360   YYYZ     -63.4388
      XXZZ    -294.6733   XYZZ     -67.6995   YYZZ    -535.8592
      XZZZ    -127.6246   YZZZ     -64.6029   ZZZZ    -549.5441
 -----------------------------------------------------------------
 Total job time:  54.88s(wall), 1872.50s(cpu) 
 Wed Dec 13 16:00:59 2023

        *************************************************************
        *                                                           *
        *  Thank you very much for using Q-Chem.  Have a nice day.  *
        *                                                           *
        *************************************************************


0 sent ACK to 0 
now end server 0 ... 
cleanup process ... done
remove work dirs ./qchem1334774.0 -- ./qchem1334774.0
rm -rf ./qchem1334774.0
rm -rf ./qchem1334774
