You are running Q-Chem version: 5.4.0

#
# job setting
#
local host:  exp-1-44
current dir: /home/rramji/project-csd799/aromodel/p3ht-qchem/rotation-run
input file:  Methylthiophene_Phi_15_Theta_20_Methylthiophene.qcin
output file: 
nprocs     : 1
nthreads   : 64
#
# qchem installation setting
#
QC:          /cm/shared/apps/spack/cpu/opt/spack/linux-centos8-zen2/gcc-10.2.0/qchem-5.4-akfmr7b3t57bfs6qan3padb2wnb2i7cl
QCAUX:       /cm/shared/apps/spack/cpu/opt/spack/linux-centos8-zen2/gcc-10.2.0/qchem-5.4-akfmr7b3t57bfs6qan3padb2wnb2i7cl/qcaux
QCPROG:      /cm/shared/apps/spack/cpu/opt/spack/linux-centos8-zen2/gcc-10.2.0/qchem-5.4-akfmr7b3t57bfs6qan3padb2wnb2i7cl/exe/qcprog.exe
QCPROG_S:    /cm/shared/apps/spack/cpu/opt/spack/linux-centos8-zen2/gcc-10.2.0/qchem-5.4-akfmr7b3t57bfs6qan3padb2wnb2i7cl/exe/qcprog.exe_s
PARALLEL:    -DPARALLEL
QCMPI:       mpich
#
# qchem directory setting
#
qcrun:       qchem2785303
QCSCRATCH:   .
QCLOCALSCR:  
QCTMPDIR:    .
QCFILEPREF:  ./qchem2785303
QCSAVEDIR:   
workdirs:    ./qchem2785303
workdir0:    ./qchem2785303
partmpdirs =  
#
# parallel setting
#
QCRSH:           ssh
QCMPI:           mpich
QCMPIRUN:        /cm/shared/apps/spack/cpu/opt/spack/linux-centos8-zen2/gcc-10.2.0/qchem-5.4-akfmr7b3t57bfs6qan3padb2wnb2i7cl/bin/mpi/mpirun_qchem
QCMACHINEFILE:   ./qchem2785303/hostfile
exp-1-44

#
# env setting
#
exported envs:   QC QCAUX QCSCRATCH QCRUNNAME QCFILEPREF QCPROG QCPROG_S GUIFILE

Running Job 1 of 1 Methylthiophene_Phi_15_Theta_20_Methylthiophene.qcin
qchem Methylthiophene_Phi_15_Theta_20_Methylthiophene.qcin_2785303.0 ./qchem2785303/ 1
/cm/shared/apps/spack/cpu/opt/spack/linux-centos8-zen2/gcc-10.2.0/qchem-5.4-akfmr7b3t57bfs6qan3padb2wnb2i7cl/bin/mpi/mpirun_qchem -machinefile ./qchem2785303/hostfile -np 1 /cm/shared/apps/spack/cpu/opt/spack/linux-centos8-zen2/gcc-10.2.0/qchem-5.4-akfmr7b3t57bfs6qan3padb2wnb2i7cl/exe/qcprog.exe Methylthiophene_Phi_15_Theta_20_Methylthiophene.qcin_2785303.0 ./qchem2785303/

Process 0 of 1 is on exp-1-44 - thread support 0
initial socket setup ...start
initial socket setup ...done 
now start server 0 ... 
                  Welcome to Q-Chem
     A Quantum Leap Into The Future Of Chemistry


 Q-Chem 5.4, Q-Chem, Inc., Pleasanton, CA (2021)

 License issued to: University of California, San Diego (site)

 E. Epifanovsky,  A. T. B. Gilbert,  Xintian Feng,  Joonho Lee,  Yuezhi Mao,  
 N. Mardirossian,  P. Pokhilko,  A. White,  M. Wormit,  M. P. Coons,  
 A. L. Dempwolff,  Zhengting Gan,  D. Hait,  P. R. Horn,  L. D. Jacobson,  
 I. Kaliman,  J. Kussmann,  A. W. Lange,  Ka Un Lao,  D. S. Levine,  Jie Liu,  
 S. C. McKenzie,  A. F. Morrison,  K. Nanda,  F. Plasser,  D. R. Rehn,  
 M. L. Vidal,  Zhi-Qiang You,  Ying Zhu,  B. Alam,  B. Albrecht,  
 A. Aldossary,  E. Alguire,  J. H. Andersen,  D. Barton,  K. Begam,  A. Behn,  
 Y. A. Bernard,  E. J. Berquist,  H. Burton,  A. Carreras,  K. Carter-Fenk,  
 R. Chakraborty,  A. D. Chien,  K. D. Closser,  V. Cofer-Shabica,  
 S. Dasgupta,  Jia Deng,  M. de Wergifosse,  M. Diedenhofen,  Hainam Do,  
 S. Ehlert,  Po-Tung Fang,  S. Fatehi,  Qingguo Feng,  J. Gayvert,  
 Qinghui Ge,  G. Gidofalvi,  M. Goldey,  J. Gomes,  C. Gonzalez-Espinoza,  
 S. Gulania,  A. Gunina,  M. W. D. Hanson-Heine,  P. H. P. Harbach,  
 A. W. Hauser,  M. F. Herbst,  M. Hernandez Vera,  M. Hodecker,  
 Z. C. Holden,  S. Houck,  Xunkun Huang,  Kerwin Hui,  B. C. Huynh,  
 M. Ivanov,  Hyunjun Ji,  Hanjie Jiang,  B. Kaduk,  S. Kaehler,  
 K. Khistyaev,  Jaehoon Kim,  P. Klunzinger,  Z. Koczor-Benda,  
 Joong Hoon Koh,  D. Kosenkov,  L. Koulias,  T. Kowalczyk,  C. M. Krauter,  
 K. Kue,  A. Kunitsa,  T. Kus,  A. Landau,  K. V. Lawler,  D. Lefrancois,  
 S. Lehtola,  Rain Li,  Yi-Pei Li,  Jiashu Liang,  M. Liebenthal,  
 Hung-Hsuan Lin,  You-Sheng Lin,  Fenglai Liu,  Kuan-Yu Liu,  
 M. Loipersberger,  A. Luenser,  A. Manjanath,  P. Manohar,  E. Mansoor,  
 S. F. Manzer,  Shan-Ping Mao,  A. V. Marenich,  T. Markovich,  S. Mason,  
 S. A. Maurer,  P. F. McLaughlin,  M. F. S. J. Menger,  J.-M. Mewes,  
 S. A. Mewes,  P. Morgante,  J. W. Mullinax,  T. S. Nguyen-Beck,  
 K. J. Oosterbaan,  G. Paran,  Alexander C. Paul,  Suranjan K. Paul,  
 F. Pavosevic,  Zheng Pei,  S. Prager,  E. I. Proynov,  E. Ramos,  B. Rana,  
 A. E. Rask,  A. Rettig,  R. M. Richard,  F. Rob,  E. Rossomme,  T. Scheele,  
 M. Scheurer,  M. Schneider,  N. Sergueev,  S. M. Sharada,  W. Skomorowski,  
 D. W. Small,  C. J. Stein,  Yu-Chuan Su,  E. J. Sundstrom,  Zhen Tao,  
 J. Thirman,  T. Tsuchimochi,  N. M. Tubman,  S. P. Veccham,  O. Vydrov,  
 J. Wenzel,  J. Witte,  A. Yamada,  Kun Yao,  S. Yeganeh,  S. R. Yost,  
 A. Zech,  Igor Ying Zhang,  Xing Zhang,  Yu Zhang,  D. Zuev,  
 A. Aspuru-Guzik,  A. T. Bell,  N. A. Besley,  K. B. Bravaya,  B. R. Brooks,  
 D. Casanova,  Jeng-Da Chai,  S. Coriani,  C. J. Cramer,  
 A. E. DePrince, III,  R. A. DiStasio Jr.,  A. Dreuw,  B. D. Dunietz,  
 T. R. Furlani,  W. A. Goddard III,  S. Grimme,  S. Hammes-Schiffer,  
 T. Head-Gordon,  W. J. Hehre,  Chao-Ping Hsu,  T.-C. Jagau,  Yousung Jung,  
 A. Klamt,  Jing Kong,  D. S. Lambrecht,  WanZhen Liang,  N. J. Mayhall,  
 C. W. McCurdy,  J. B. Neaton,  C. Ochsenfeld,  J. A. Parkhill,  R. Peverati,  
 V. A. Rassolov,  Yihan Shao,  L. V. Slipchenko,  T. Stauch,  R. P. Steele,  
 J. E. Subotnik,  A. J. W. Thom,  A. Tkatchenko,  D. G. Truhlar,  
 T. Van Voorhis,  T. A. Wesolowski,  K. B. Whaley,  H. L. Woodcock III,  
 P. M. Zimmerman,  S. Faraji,  P. M. W. Gill,  M. Head-Gordon,  
 J. M. Herbert,  A. I. Krylov

 Contributors to earlier versions of Q-Chem not listed above: 
 R. D. Adamson,  B. Austin,  R. Baer,  J. Baker,  G. J. O. Beran,  
 K. Brandhorst,  S. T. Brown,  E. F. C. Byrd,  A. K. Chakraborty,  
 G. K. L. Chan,  Chun-Min Chang,  Yunqing Chen,  C.-L. Cheng,  
 Siu Hung Chien,  D. M. Chipman,  D. L. Crittenden,  H. Dachsel,  
 R. J. Doerksen,  A. D. Dutoi,  R. G. Edgar,  J. Fosso-Tande,  
 L. Fusti-Molnar,  D. Ghosh,  A. Ghysels,  A. Golubeva-Zadorozhnaya,  
 J. Gonthier,  M. S. Gordon,  S. R. Gwaltney,  G. Hawkins,  J. E. Herr,  
 A. Heyden,  S. Hirata,  E. G. Hohenstein,  G. Kedziora,  F. J. Keil,  
 C. Kelley,  Jihan Kim,  R. A. King,  R. Z. Khaliullin,  P. P. Korambath,  
 W. Kurlancheek,  A. Laurent,  A. M. Lee,  M. S. Lee,  S. V. Levchenko,  
 Ching Yeh Lin,  D. Liotard,  E. Livshits,  R. C. Lochan,  I. Lotan,  
 L. A. Martinez-Martinez,  P. E. Maslen,  N. Nair,  D. P. O'Neill,  
 D. Neuhauser,  E. Neuscamman,  C. M. Oana,  R. Olivares-Amaya,  R. Olson,  
 T. M. Perrine,  B. Peters,  P. A. Pieniazek,  A. Prociuk,  Y. M. Rhee,  
 J. Ritchie,  M. A. Rohrdanz,  E. Rosta,  N. J. Russ,  H. F. Schaefer III,  
 M. W. Schmidt,  N. E. Schultz,  S. Sharma,  N. Shenvi,  C. D. Sherrill,  
 A. C. Simmonett,  A. Sodt,  T. Stein,  D. Stuck,  K. S. Thanthiriwatte,  
 V. Vanovschi,  L. Vogt,  Tao Wang,  A. Warshel,  M. A. Watson,  
 C. F. Williams,  Q. Wu,  X. Xu,  Jun Yang,  W. Zhang,  Yan Zhao

 Please cite Q-Chem as follows:
 Y. Shao et al., Mol. Phys. 113, 184-215 (2015)
 DOI: 10.1080/00268976.2014.952696

 Q-Chem 5.4.0 for Intel X86 EM64T Linux

 Parts of Q-Chem use Armadillo 9.800.1 (Horizon Scraper).
 http://arma.sourceforge.net/

 Q-Chem begins on Wed Dec 13 15:51:39 2023  

 Host: 
0

     Scratch files written to ./qchem2785303//
 May1621 |scratch|qcdevops|jenkins|workspace|build_RNUM    
 Parallel job on  1  processors
 Processing $rem in /cm/shared/apps/spack/cpu/opt/spack/linux-centos8-zen2/gcc-10.2.0/qchem-5.4-akfmr7b3t57bfs6qan3padb2wnb2i7cl/config/preferences:
 Processing $rem in /home/rramji/.qchemrc:
 Symmetry turned off for PCM/SM12/SMD calculation
 Core orbitals will be frozen

 Checking the input file for inconsistencies... 	...done.

 Q-Chem warning in module forms1/BasisType.C, line 2236:

 You are not using the predefined 5D/6D in this basis set.


--------------------------------------------------------------
User input:
--------------------------------------------------------------
$molecule
0 1
C	-0.248806	-3.887800	0.680396
C	0.225147	-3.701456	-0.621614
C	0.370780	-2.345170	-1.019896
H	0.466300	-4.545233	-1.285337
C	-0.000000	-1.450135	-0.000000
S	-0.522786	-2.321334	1.435271
C	0.865597	-1.934439	-2.378891
H	1.092567	-2.819799	-3.003720
H	1.791940	-1.326210	-2.313975
H	0.114772	-1.325374	-2.924390
H	-0.448750	-4.815326	1.228514
C	0.000000	0.000000	0.000000
C	0.215623	0.816623	1.113020
C	0.571102	2.161411	0.820578
H	0.116470	0.441406	2.142881
C	0.634696	2.401276	-0.563588
S	0.247646	0.938489	-1.464748
C	0.843182	3.190669	1.882380
H	0.728628	2.757614	2.894974
H	0.148095	4.052998	1.808137
H	1.873652	3.596752	1.808230
H	0.879464	3.327513	-1.097114
$end

$rem
JOBTYPE		SP
EXCHANGE	HF
CORRELATION	pRIMP2
BASIS		cc-pvtz
METHOD		rimp2
AUX_BASIS	rimp2-cc-pvtz
SOLVENT_METHOD	PCM
PURECART	11111
SYMMETRY	false
MEM_TOTAL	110000
SCF_CONVERGENCE = 6
THRESH=10
GUI = 2
$end



$solvent
dielectric 4.90
$end
--------------------------------------------------------------
 ----------------------------------------------------------------
             Standard Nuclear Orientation (Angstroms)
    I     Atom           X                Y                Z
 ----------------------------------------------------------------
    1      C      -0.2488060000    -3.8878000000     0.6803960000
    2      C       0.2251470000    -3.7014560000    -0.6216140000
    3      C       0.3707800000    -2.3451700000    -1.0198960000
    4      H       0.4663000000    -4.5452330000    -1.2853370000
    5      C       0.0000000000    -1.4501350000     0.0000000000
    6      S      -0.5227860000    -2.3213340000     1.4352710000
    7      C       0.8655970000    -1.9344390000    -2.3788910000
    8      H       1.0925670000    -2.8197990000    -3.0037200000
    9      H       1.7919400000    -1.3262100000    -2.3139750000
   10      H       0.1147720000    -1.3253740000    -2.9243900000
   11      H      -0.4487500000    -4.8153260000     1.2285140000
   12      C       0.0000000000     0.0000000000     0.0000000000
   13      C       0.2156230000     0.8166230000     1.1130200000
   14      C       0.5711020000     2.1614110000     0.8205780000
   15      H       0.1164700000     0.4414060000     2.1428810000
   16      C       0.6346960000     2.4012760000    -0.5635880000
   17      S       0.2476460000     0.9384890000    -1.4647480000
   18      C       0.8431820000     3.1906690000     1.8823800000
   19      H       0.7286280000     2.7576140000     2.8949740000
   20      H       0.1480950000     4.0529980000     1.8081370000
   21      H       1.8736520000     3.5967520000     1.8082300000
   22      H       0.8794640000     3.3275130000    -1.0971140000
 ----------------------------------------------------------------
 Nuclear Repulsion Energy =         838.28164201 hartrees
 There are       51 alpha and       51 beta electrons
 Requested basis set is cc-pVTZ
 There are 184 shells and 508 basis functions

 Total QAlloc Memory Limit 110000 MB
 Mega-Array Size       188 MB
 MEM_STATIC part       192 MB
 Discretize the solute cavity surface with Lebedev spheres
	Using 110 Lebedev grid points for each H atom
	Using 194 Lebedev grid points for other atoms
	Atomic van der Waals radii will be scaled by 1.20
 Remove points where switching function is < 1.0e-08
 Keep 1522 surface tesserae and discard 1906 interior tesserae
 Molecular Surface Area = 228.849 Angst**2
 Requested basis set is rimp2-cc-pVTZ
 There are 394 shells and 1354 basis functions
 A cutoff of  1.0D-10 yielded  12232 shell pairs
 There are     90848 function pairs (    117263 Cartesian)
 Smallest overlap matrix eigenvalue = 5.35E-05

 Scale SEOQF with 1.000000e-01/1.000000e-01/1.000000e-01

 Standard Electronic Orientation quadrupole field applied
 Nucleus-field energy     =     0.0000000212 hartrees
 Guess from superposition of atomic densities
 Warning:  Energy on first SCF cycle will be non-variational
 SAD guess density has 102.000000 electrons

 -----------------------------------------------------------------------
  General SCF calculation program by
  Eric Jon Sundstrom, Paul Horn, Yuezhi Mao, Dmitri Zuev, Alec White,
  David Stuck, Shaama M.S., Shane Yost, Joonho Lee, David Small,
  Daniel Levine, Susi Lehtola, Hugh Burton, Evgeny Epifanovsky,
  Bang C. Huynh
 -----------------------------------------------------------------------
 Hartree-Fock
 using 64 threads for integral computing
 -------------------------------------------------------
 OpenMP Integral computing Module                
 Release: version 1.0, May 2013, Q-Chem Inc. Pittsburgh 
 -------------------------------------------------------
 A restricted SCF calculation will be
 performed using DIIS
 SCF converges when DIIS error is below 1.0e-06
 ---------------------------------------
  Cycle       Energy         DIIS error
 ---------------------------------------
    1   -1184.2374232299      2.38e-02  
    2   -1179.5401886472      1.61e-03  
    3   -1179.6616763710      6.17e-04  
    4   -1179.6754971451      3.33e-04  
    5   -1179.6801778572      6.44e-05  
    6   -1179.6804532647      3.01e-05  
    7   -1179.6805379409      1.23e-05  
    8   -1179.6805648927      5.12e-06  
    9   -1179.6805696587      1.63e-06  
   10   -1179.6805700815      5.07e-07  Convergence criterion met
 ---------------------------------------
 SCF time:   CPU 1487.55s  wall 45.00s 

************** Final PCM Free Energy Summary **************
 G_electrostatic  =      -0.00769612 hartree =      -4.82938605 kcal/mol
 G_cavitation     =       0.00000000 hartree =       0.00000000 kcal/mol
 G_dispersion     =       0.00000000 hartree =       0.00000000 kcal/mol
 G_repulsion      =       0.00000000 hartree =       0.00000000 kcal/mol
 --------------------------------------------------
 Non-electrostatic Free Energy =       0.00000000 hartree =       0.00000000 kcal/mol
 Total                         =      -0.00769612 hartree =      -4.82938605 kcal/mol
 --------------------------------------------------
 SCF Energy (H0 + V/2)                       =   -1179.68057008 
 Solute Internal Energy (H0)                 =   -1179.67287396 
 Total Free Energy (H0 + V/2 + non-elec)     =   -1179.68057008 hartree
                                             = -740260.73048079 kcal/mol
***********************************************************

 SCF   energy in the final basis set =    -1179.6805700815
 Total energy in the final basis set =    -1179.6805700815


 --------------------------------------------------------------
  Generalized many-body perturbation theory program
  by Joonho Lee, Fazle Rob, Xintian Feng, Evgeny Epifanovsky

 No regularization used 
 (reg. param. = 0.0000e+00)
  (P|Q)^-1/2 Time:  CPU 32.48 s  wall 0.52 s

 In RI-MP2 calculation: 
 # of frozen core orbitals: 20

 Components of the RIMP2 correlation energy:
        aaaa    correlation energy =        -0.2532247841 a.u.
        abab    correlation energy =        -1.4751261694 a.u.
        bbbb    correlation energy =        -0.2532247841 a.u.
        non-Brillouin singles      =        -0.0000000000 a.u.
        total same-spin energy     =        -0.5064495682 a.u.
        total opposite-spin energy =        -1.4751261694 a.u.

 Total  RIMP2   correlation energy =        -1.9815757376 a.u.
        RIMP2         total energy =     -1181.6621458190 a.u.

 RI-MP2 Energy Time:  CPU 166.03 s  wall 3.14 s
 
 --------------------------------------------------------------
 
                    Orbital Energies (a.u.)
 --------------------------------------------------------------
 
 Alpha MOs
 -- Occupied --
-91.9851 -91.9849 -11.2829 -11.2789 -11.2721 -11.2637 -11.2522 -11.2519
-11.2434 -11.2406 -11.2290 -11.2289  -8.9849  -8.9847  -6.6658  -6.6655
 -6.6653  -6.6650  -6.6646  -6.6644  -1.1808  -1.1498  -1.0415  -1.0246
 -0.9983  -0.9527  -0.9139  -0.8953  -0.7988  -0.7641  -0.7204  -0.6958
 -0.6622  -0.6161  -0.5837  -0.5805  -0.5774  -0.5696  -0.5522  -0.5330
 -0.5245  -0.5201  -0.5111  -0.4969  -0.4879  -0.4671  -0.4516  -0.3680
 -0.3431  -0.3390  -0.2702
 -- Virtual --
  0.0649   0.1340   0.1438   0.1539   0.1617   0.1741   0.1800   0.1892
  0.1936   0.1993   0.2039   0.2117   0.2345   0.2383   0.2427   0.2486
  0.2671   0.2734   0.2992   0.3165   0.3440   0.3521   0.3686   0.3779
  0.3834   0.3855   0.4001   0.4077   0.4143   0.4268   0.4402   0.4498
  0.4567   0.4603   0.4690   0.4769   0.4790   0.4935   0.4974   0.5057
  0.5126   0.5276   0.5313   0.5378   0.5447   0.5462   0.5504   0.5767
  0.5783   0.5880   0.5920   0.5956   0.6092   0.6113   0.6202   0.6245
  0.6295   0.6309   0.6379   0.6429   0.6493   0.6517   0.6597   0.6682
  0.6823   0.6858   0.6948   0.7083   0.7156   0.7405   0.7514   0.7711
  0.7721   0.7844   0.7972   0.8043   0.8195   0.8386   0.8473   0.8506
  0.8568   0.8654   0.8702   0.8903   0.8978   0.9137   0.9305   0.9436
  0.9551   0.9698   0.9779   0.9975   1.0014   1.0148   1.0179   1.0305
  1.0464   1.0543   1.0650   1.0758   1.0802   1.0850   1.0964   1.1017
  1.1112   1.1264   1.1370   1.1510   1.1598   1.1683   1.1753   1.1810
  1.1995   1.2190   1.2290   1.2450   1.2468   1.2536   1.2625   1.2706
  1.2814   1.2834   1.2944   1.3243   1.3281   1.3347   1.3609   1.3726
  1.3756   1.3911   1.4082   1.4191   1.4225   1.4300   1.4461   1.4538
  1.4807   1.4903   1.4991   1.5121   1.5194   1.5357   1.5373   1.5524
  1.5554   1.5587   1.5644   1.5703   1.5806   1.5935   1.6176   1.6227
  1.6548   1.6655   1.6756   1.6886   1.6970   1.7001   1.7166   1.7195
  1.7511   1.7767   1.7858   1.7950   1.8089   1.8209   1.8460   1.8545
  1.8882   1.8956   1.9103   1.9168   1.9321   1.9665   1.9741   1.9921
  2.0249   2.0465   2.0677   2.0790   2.1172   2.1384   2.1475   2.1776
  2.1846   2.2054   2.2102   2.2410   2.2551   2.2575   2.2812   2.2864
  2.3058   2.3122   2.3554   2.3670   2.4056   2.4131   2.4356   2.4484
  2.4607   2.4941   2.5124   2.5343   2.5431   2.5737   2.5955   2.6068
  2.6173   2.6306   2.6582   2.6821   2.6901   2.6971   2.7174   2.7291
  2.7342   2.7464   2.7532   2.7571   2.7684   2.7778   2.7868   2.8114
  2.8213   2.8296   2.8451   2.8486   2.8859   2.8973   2.9129   2.9441
  2.9530   2.9681   2.9865   2.9974   3.0123   3.0200   3.0288   3.0446
  3.0560   3.0654   3.0776   3.1016   3.1136   3.1192   3.1394   3.1450
  3.1467   3.1557   3.1599   3.1713   3.1908   3.2053   3.2156   3.2190
  3.2329   3.2365   3.2543   3.2730   3.2790   3.2881   3.2993   3.3086
  3.3159   3.3301   3.3379   3.3500   3.3531   3.3643   3.3667   3.3735
  3.3839   3.3884   3.4077   3.4162   3.4250   3.4317   3.4329   3.4463
  3.4554   3.4603   3.4721   3.4818   3.4898   3.5096   3.5177   3.5218
  3.5282   3.5349   3.5402   3.5457   3.5501   3.5664   3.5733   3.5905
  3.5966   3.6083   3.6233   3.6316   3.6329   3.6419   3.6513   3.6610
  3.6768   3.6853   3.7014   3.7191   3.7301   3.7326   3.7380   3.7487
  3.7569   3.7641   3.7818   3.7932   3.8079   3.8130   3.8296   3.8446
  3.8564   3.8702   3.8920   3.9034   3.9220   3.9355   3.9476   3.9578
  3.9678   3.9859   3.9962   4.0080   4.0138   4.0198   4.0360   4.0413
  4.0597   4.0846   4.0934   4.0948   4.1025   4.1315   4.1435   4.1549
  4.1627   4.1757   4.1907   4.1957   4.2025   4.2113   4.2197   4.2336
  4.2477   4.2681   4.2866   4.2919   4.2961   4.3167   4.3273   4.3375
  4.3456   4.3550   4.3669   4.3825   4.3885   4.4017   4.4158   4.4304
  4.4410   4.4527   4.4647   4.4819   4.4965   4.5299   4.5411   4.5731
  4.5964   4.6123   4.6204   4.6252   4.6273   4.6479   4.6619   4.6872
  4.7061   4.7182   4.7318   4.7486   4.7756   4.7870   4.8096   4.8484
  4.8626   4.8667   4.8970   4.9197   4.9407   4.9706   5.0159   5.0544
  5.0818   5.0990   5.1137   5.1540   5.1772   5.1966   5.2043   5.2554
  5.2780   5.2855   5.2957   5.3082   5.3276   5.3653   5.3949   5.4017
  5.4221   5.4378   5.4609   5.4782   5.5249   5.5273   5.5485   5.5584
  5.5692   5.5933   5.6177   5.6230   5.6300   5.6883   5.7090   5.7132
  5.7944   5.8362   5.9442   5.9764   6.0512   6.1152   6.1612   6.2267
  6.2400   6.2442   6.2941   6.3000   6.3458   6.4326   6.5296   8.7423
  9.8500  11.5154  12.0031  12.9344  13.2148  13.7259  13.9800  14.2219
 14.4442
 --------------------------------------------------------------
 
          Ground-State Mulliken Net Atomic Charges

     Atom                 Charge (a.u.)
  ----------------------------------------
      1 C                    -0.213636
      2 C                    -0.251655
      3 C                     0.048510
      4 H                     0.185816
      5 C                    -0.034470
      6 S                     0.012038
      7 C                    -0.314453
      8 H                     0.114064
      9 H                     0.121062
     10 H                     0.110444
     11 H                     0.205983
     12 C                     0.036599
     13 C                    -0.243399
     14 C                     0.022623
     15 H                     0.178387
     16 C                    -0.244861
     17 S                     0.018080
     18 C                    -0.270162
     19 H                     0.102930
     20 H                     0.108464
     21 H                     0.108173
     22 H                     0.199461
  ----------------------------------------
  Sum of atomic charges =     0.000000

 -----------------------------------------------------------------
                    Cartesian Multipole Moments
 -----------------------------------------------------------------
    Charge (ESU x 10^10)
                -0.0000
    Dipole Moment (Debye)
         X       1.0439      Y       0.1785      Z      -0.0747
       Tot       1.0617
    Quadrupole Moments (Debye-Ang)
        XX     -91.2401     XY       1.8806     YY     -69.7480
        XZ      -1.9516     YZ       3.2631     ZZ     -80.6144
    Octopole Moments (Debye-Ang^2)
       XXX     -58.0856    XXY      51.0686    XYY     -10.3756
       YYY      98.0250    XXZ      -0.3487    XYZ       7.4948
       YYZ       0.9380    XZZ     -15.6534    YZZ      40.0395
       ZZZ       4.9302
    Hexadecapole Moments (Debye-Ang^3)
      XXXX    -260.6576   XXXY    -124.2556   XXYY    -561.5454
      XYYY     -81.2596   YYYY   -2533.6618   XXXZ      66.3971
      XXYZ     -31.5986   XYYZ     -15.3202   YYYZ    -142.7267
      XXZZ    -220.4579   XYZZ     -37.0537   YYZZ    -598.0779
      XZZZ      57.7449   YZZZ     -91.3876   ZZZZ   -1020.1428
 -----------------------------------------------------------------
 Total job time:  53.25s(wall), 1775.94s(cpu) 
 Wed Dec 13 15:52:33 2023

        *************************************************************
        *                                                           *
        *  Thank you very much for using Q-Chem.  Have a nice day.  *
        *                                                           *
        *************************************************************


0 sent ACK to 0 
now end server 0 ... 
cleanup process ... done
remove work dirs ./qchem2785303.0 -- ./qchem2785303.0
rm -rf ./qchem2785303.0
rm -rf ./qchem2785303
