You are running Q-Chem version: 5.4.0

#
# job setting
#
local host:  exp-2-02
current dir: /home/rramji/project-csd799/aromodel/p3ht-qchem/rotation-run
input file:  Methylthiophene_Phi_20_Theta_200_Methylthiophene.qcin
output file: 
nprocs     : 1
nthreads   : 64
#
# qchem installation setting
#
QC:          /cm/shared/apps/spack/cpu/opt/spack/linux-centos8-zen2/gcc-10.2.0/qchem-5.4-akfmr7b3t57bfs6qan3padb2wnb2i7cl
QCAUX:       /cm/shared/apps/spack/cpu/opt/spack/linux-centos8-zen2/gcc-10.2.0/qchem-5.4-akfmr7b3t57bfs6qan3padb2wnb2i7cl/qcaux
QCPROG:      /cm/shared/apps/spack/cpu/opt/spack/linux-centos8-zen2/gcc-10.2.0/qchem-5.4-akfmr7b3t57bfs6qan3padb2wnb2i7cl/exe/qcprog.exe
QCPROG_S:    /cm/shared/apps/spack/cpu/opt/spack/linux-centos8-zen2/gcc-10.2.0/qchem-5.4-akfmr7b3t57bfs6qan3padb2wnb2i7cl/exe/qcprog.exe_s
PARALLEL:    -DPARALLEL
QCMPI:       mpich
#
# qchem directory setting
#
qcrun:       qchem1720478
QCSCRATCH:   .
QCLOCALSCR:  
QCTMPDIR:    .
QCFILEPREF:  ./qchem1720478
QCSAVEDIR:   
workdirs:    ./qchem1720478
workdir0:    ./qchem1720478
partmpdirs =  
#
# parallel setting
#
QCRSH:           ssh
QCMPI:           mpich
QCMPIRUN:        /cm/shared/apps/spack/cpu/opt/spack/linux-centos8-zen2/gcc-10.2.0/qchem-5.4-akfmr7b3t57bfs6qan3padb2wnb2i7cl/bin/mpi/mpirun_qchem
QCMACHINEFILE:   ./qchem1720478/hostfile
exp-2-02

#
# env setting
#
exported envs:   QC QCAUX QCSCRATCH QCRUNNAME QCFILEPREF QCPROG QCPROG_S GUIFILE

Running Job 1 of 1 Methylthiophene_Phi_20_Theta_200_Methylthiophene.qcin
qchem Methylthiophene_Phi_20_Theta_200_Methylthiophene.qcin_1720478.0 ./qchem1720478/ 1
/cm/shared/apps/spack/cpu/opt/spack/linux-centos8-zen2/gcc-10.2.0/qchem-5.4-akfmr7b3t57bfs6qan3padb2wnb2i7cl/bin/mpi/mpirun_qchem -machinefile ./qchem1720478/hostfile -np 1 /cm/shared/apps/spack/cpu/opt/spack/linux-centos8-zen2/gcc-10.2.0/qchem-5.4-akfmr7b3t57bfs6qan3padb2wnb2i7cl/exe/qcprog.exe Methylthiophene_Phi_20_Theta_200_Methylthiophene.qcin_1720478.0 ./qchem1720478/

Process 0 of 1 is on exp-2-02 - thread support 0
initial socket setup ...start
initial socket setup ...done 
now start server 0 ... 
                  Welcome to Q-Chem
     A Quantum Leap Into The Future Of Chemistry


 Q-Chem 5.4, Q-Chem, Inc., Pleasanton, CA (2021)

 License issued to: University of California, San Diego (site)

 E. Epifanovsky,  A. T. B. Gilbert,  Xintian Feng,  Joonho Lee,  Yuezhi Mao,  
 N. Mardirossian,  P. Pokhilko,  A. White,  M. Wormit,  M. P. Coons,  
 A. L. Dempwolff,  Zhengting Gan,  D. Hait,  P. R. Horn,  L. D. Jacobson,  
 I. Kaliman,  J. Kussmann,  A. W. Lange,  Ka Un Lao,  D. S. Levine,  Jie Liu,  
 S. C. McKenzie,  A. F. Morrison,  K. Nanda,  F. Plasser,  D. R. Rehn,  
 M. L. Vidal,  Zhi-Qiang You,  Ying Zhu,  B. Alam,  B. Albrecht,  
 A. Aldossary,  E. Alguire,  J. H. Andersen,  D. Barton,  K. Begam,  A. Behn,  
 Y. A. Bernard,  E. J. Berquist,  H. Burton,  A. Carreras,  K. Carter-Fenk,  
 R. Chakraborty,  A. D. Chien,  K. D. Closser,  V. Cofer-Shabica,  
 S. Dasgupta,  Jia Deng,  M. de Wergifosse,  M. Diedenhofen,  Hainam Do,  
 S. Ehlert,  Po-Tung Fang,  S. Fatehi,  Qingguo Feng,  J. Gayvert,  
 Qinghui Ge,  G. Gidofalvi,  M. Goldey,  J. Gomes,  C. Gonzalez-Espinoza,  
 S. Gulania,  A. Gunina,  M. W. D. Hanson-Heine,  P. H. P. Harbach,  
 A. W. Hauser,  M. F. Herbst,  M. Hernandez Vera,  M. Hodecker,  
 Z. C. Holden,  S. Houck,  Xunkun Huang,  Kerwin Hui,  B. C. Huynh,  
 M. Ivanov,  Hyunjun Ji,  Hanjie Jiang,  B. Kaduk,  S. Kaehler,  
 K. Khistyaev,  Jaehoon Kim,  P. Klunzinger,  Z. Koczor-Benda,  
 Joong Hoon Koh,  D. Kosenkov,  L. Koulias,  T. Kowalczyk,  C. M. Krauter,  
 K. Kue,  A. Kunitsa,  T. Kus,  A. Landau,  K. V. Lawler,  D. Lefrancois,  
 S. Lehtola,  Rain Li,  Yi-Pei Li,  Jiashu Liang,  M. Liebenthal,  
 Hung-Hsuan Lin,  You-Sheng Lin,  Fenglai Liu,  Kuan-Yu Liu,  
 M. Loipersberger,  A. Luenser,  A. Manjanath,  P. Manohar,  E. Mansoor,  
 S. F. Manzer,  Shan-Ping Mao,  A. V. Marenich,  T. Markovich,  S. Mason,  
 S. A. Maurer,  P. F. McLaughlin,  M. F. S. J. Menger,  J.-M. Mewes,  
 S. A. Mewes,  P. Morgante,  J. W. Mullinax,  T. S. Nguyen-Beck,  
 K. J. Oosterbaan,  G. Paran,  Alexander C. Paul,  Suranjan K. Paul,  
 F. Pavosevic,  Zheng Pei,  S. Prager,  E. I. Proynov,  E. Ramos,  B. Rana,  
 A. E. Rask,  A. Rettig,  R. M. Richard,  F. Rob,  E. Rossomme,  T. Scheele,  
 M. Scheurer,  M. Schneider,  N. Sergueev,  S. M. Sharada,  W. Skomorowski,  
 D. W. Small,  C. J. Stein,  Yu-Chuan Su,  E. J. Sundstrom,  Zhen Tao,  
 J. Thirman,  T. Tsuchimochi,  N. M. Tubman,  S. P. Veccham,  O. Vydrov,  
 J. Wenzel,  J. Witte,  A. Yamada,  Kun Yao,  S. Yeganeh,  S. R. Yost,  
 A. Zech,  Igor Ying Zhang,  Xing Zhang,  Yu Zhang,  D. Zuev,  
 A. Aspuru-Guzik,  A. T. Bell,  N. A. Besley,  K. B. Bravaya,  B. R. Brooks,  
 D. Casanova,  Jeng-Da Chai,  S. Coriani,  C. J. Cramer,  
 A. E. DePrince, III,  R. A. DiStasio Jr.,  A. Dreuw,  B. D. Dunietz,  
 T. R. Furlani,  W. A. Goddard III,  S. Grimme,  S. Hammes-Schiffer,  
 T. Head-Gordon,  W. J. Hehre,  Chao-Ping Hsu,  T.-C. Jagau,  Yousung Jung,  
 A. Klamt,  Jing Kong,  D. S. Lambrecht,  WanZhen Liang,  N. J. Mayhall,  
 C. W. McCurdy,  J. B. Neaton,  C. Ochsenfeld,  J. A. Parkhill,  R. Peverati,  
 V. A. Rassolov,  Yihan Shao,  L. V. Slipchenko,  T. Stauch,  R. P. Steele,  
 J. E. Subotnik,  A. J. W. Thom,  A. Tkatchenko,  D. G. Truhlar,  
 T. Van Voorhis,  T. A. Wesolowski,  K. B. Whaley,  H. L. Woodcock III,  
 P. M. Zimmerman,  S. Faraji,  P. M. W. Gill,  M. Head-Gordon,  
 J. M. Herbert,  A. I. Krylov

 Contributors to earlier versions of Q-Chem not listed above: 
 R. D. Adamson,  B. Austin,  R. Baer,  J. Baker,  G. J. O. Beran,  
 K. Brandhorst,  S. T. Brown,  E. F. C. Byrd,  A. K. Chakraborty,  
 G. K. L. Chan,  Chun-Min Chang,  Yunqing Chen,  C.-L. Cheng,  
 Siu Hung Chien,  D. M. Chipman,  D. L. Crittenden,  H. Dachsel,  
 R. J. Doerksen,  A. D. Dutoi,  R. G. Edgar,  J. Fosso-Tande,  
 L. Fusti-Molnar,  D. Ghosh,  A. Ghysels,  A. Golubeva-Zadorozhnaya,  
 J. Gonthier,  M. S. Gordon,  S. R. Gwaltney,  G. Hawkins,  J. E. Herr,  
 A. Heyden,  S. Hirata,  E. G. Hohenstein,  G. Kedziora,  F. J. Keil,  
 C. Kelley,  Jihan Kim,  R. A. King,  R. Z. Khaliullin,  P. P. Korambath,  
 W. Kurlancheek,  A. Laurent,  A. M. Lee,  M. S. Lee,  S. V. Levchenko,  
 Ching Yeh Lin,  D. Liotard,  E. Livshits,  R. C. Lochan,  I. Lotan,  
 L. A. Martinez-Martinez,  P. E. Maslen,  N. Nair,  D. P. O'Neill,  
 D. Neuhauser,  E. Neuscamman,  C. M. Oana,  R. Olivares-Amaya,  R. Olson,  
 T. M. Perrine,  B. Peters,  P. A. Pieniazek,  A. Prociuk,  Y. M. Rhee,  
 J. Ritchie,  M. A. Rohrdanz,  E. Rosta,  N. J. Russ,  H. F. Schaefer III,  
 M. W. Schmidt,  N. E. Schultz,  S. Sharma,  N. Shenvi,  C. D. Sherrill,  
 A. C. Simmonett,  A. Sodt,  T. Stein,  D. Stuck,  K. S. Thanthiriwatte,  
 V. Vanovschi,  L. Vogt,  Tao Wang,  A. Warshel,  M. A. Watson,  
 C. F. Williams,  Q. Wu,  X. Xu,  Jun Yang,  W. Zhang,  Yan Zhao

 Please cite Q-Chem as follows:
 Y. Shao et al., Mol. Phys. 113, 184-215 (2015)
 DOI: 10.1080/00268976.2014.952696

 Q-Chem 5.4.0 for Intel X86 EM64T Linux

 Parts of Q-Chem use Armadillo 9.800.1 (Horizon Scraper).
 http://arma.sourceforge.net/

 Q-Chem begins on Wed Dec 13 16:09:06 2023  

 Host: 
0

     Scratch files written to ./qchem1720478//
 May1621 |scratch|qcdevops|jenkins|workspace|build_RNUM    
 Parallel job on  1  processors
 Processing $rem in /cm/shared/apps/spack/cpu/opt/spack/linux-centos8-zen2/gcc-10.2.0/qchem-5.4-akfmr7b3t57bfs6qan3padb2wnb2i7cl/config/preferences:
 Processing $rem in /home/rramji/.qchemrc:
 Symmetry turned off for PCM/SM12/SMD calculation
 Core orbitals will be frozen

 Checking the input file for inconsistencies... 	...done.

 Q-Chem warning in module forms1/BasisType.C, line 2236:

 You are not using the predefined 5D/6D in this basis set.


--------------------------------------------------------------
User input:
--------------------------------------------------------------
$molecule
0 1
C	0.248806	-3.887800	-0.680396
C	-0.225147	-3.701456	0.621614
C	-0.370780	-2.345170	1.019896
H	-0.466300	-4.545233	1.285337
C	0.000000	-1.450135	0.000000
S	0.522786	-2.321334	-1.435271
C	-0.865597	-1.934439	2.378891
H	-1.092567	-2.819799	3.003720
H	-1.791940	-1.326210	2.313975
H	-0.114772	-1.325374	2.924390
H	0.448750	-4.815326	-1.228514
C	0.000000	0.000000	0.000000
C	0.285976	0.794723	1.113020
C	0.757308	2.103412	0.820578
H	0.154498	0.429575	2.142881
C	0.841565	2.336821	-0.563588
S	0.328498	0.913334	-1.464748
C	1.118059	3.105040	1.882380
H	0.966197	2.683616	2.894974
H	0.500773	4.024668	1.808137
H	2.180000	3.419766	1.808230
H	1.166129	3.238200	-1.097114
$end

$rem
JOBTYPE		SP
EXCHANGE	HF
CORRELATION	pRIMP2
BASIS		cc-pvtz
METHOD		rimp2
AUX_BASIS	rimp2-cc-pvtz
SOLVENT_METHOD	PCM
PURECART	11111
SYMMETRY	false
MEM_TOTAL	110000
SCF_CONVERGENCE = 6
THRESH=10
GUI = 2
$end



$solvent
dielectric 4.90
$end
--------------------------------------------------------------
 ----------------------------------------------------------------
             Standard Nuclear Orientation (Angstroms)
    I     Atom           X                Y                Z
 ----------------------------------------------------------------
    1      C       0.2488060000    -3.8878000000    -0.6803960000
    2      C      -0.2251470000    -3.7014560000     0.6216140000
    3      C      -0.3707800000    -2.3451700000     1.0198960000
    4      H      -0.4663000000    -4.5452330000     1.2853370000
    5      C       0.0000000000    -1.4501350000     0.0000000000
    6      S       0.5227860000    -2.3213340000    -1.4352710000
    7      C      -0.8655970000    -1.9344390000     2.3788910000
    8      H      -1.0925670000    -2.8197990000     3.0037200000
    9      H      -1.7919400000    -1.3262100000     2.3139750000
   10      H      -0.1147720000    -1.3253740000     2.9243900000
   11      H       0.4487500000    -4.8153260000    -1.2285140000
   12      C       0.0000000000     0.0000000000     0.0000000000
   13      C       0.2859760000     0.7947230000     1.1130200000
   14      C       0.7573080000     2.1034120000     0.8205780000
   15      H       0.1544980000     0.4295750000     2.1428810000
   16      C       0.8415650000     2.3368210000    -0.5635880000
   17      S       0.3284980000     0.9133340000    -1.4647480000
   18      C       1.1180590000     3.1050400000     1.8823800000
   19      H       0.9661970000     2.6836160000     2.8949740000
   20      H       0.5007730000     4.0246680000     1.8081370000
   21      H       2.1800000000     3.4197660000     1.8082300000
   22      H       1.1661290000     3.2382000000    -1.0971140000
 ----------------------------------------------------------------
 Nuclear Repulsion Energy =         838.66465880 hartrees
 There are       51 alpha and       51 beta electrons
 Requested basis set is cc-pVTZ
 There are 184 shells and 508 basis functions

 Total QAlloc Memory Limit 110000 MB
 Mega-Array Size       188 MB
 MEM_STATIC part       192 MB
 Discretize the solute cavity surface with Lebedev spheres
	Using 110 Lebedev grid points for each H atom
	Using 194 Lebedev grid points for other atoms
	Atomic van der Waals radii will be scaled by 1.20
 Remove points where switching function is < 1.0e-08
 Keep 1529 surface tesserae and discard 1899 interior tesserae
 Molecular Surface Area = 229.862 Angst**2
 Requested basis set is rimp2-cc-pVTZ
 There are 394 shells and 1354 basis functions
 A cutoff of  1.0D-10 yielded  12376 shell pairs
 There are     91804 function pairs (    118395 Cartesian)
 Smallest overlap matrix eigenvalue = 6.82E-05

 Scale SEOQF with 1.000000e-01/1.000000e-01/1.000000e-01

 Standard Electronic Orientation quadrupole field applied
 Nucleus-field energy     =     0.0000000208 hartrees
 Guess from superposition of atomic densities
 Warning:  Energy on first SCF cycle will be non-variational
 SAD guess density has 102.000000 electrons

 -----------------------------------------------------------------------
  General SCF calculation program by
  Eric Jon Sundstrom, Paul Horn, Yuezhi Mao, Dmitri Zuev, Alec White,
  David Stuck, Shaama M.S., Shane Yost, Joonho Lee, David Small,
  Daniel Levine, Susi Lehtola, Hugh Burton, Evgeny Epifanovsky,
  Bang C. Huynh
 -----------------------------------------------------------------------
 Hartree-Fock
 using 64 threads for integral computing
 -------------------------------------------------------
 OpenMP Integral computing Module                
 Release: version 1.0, May 2013, Q-Chem Inc. Pittsburgh 
 -------------------------------------------------------
 A restricted SCF calculation will be
 performed using DIIS
 SCF converges when DIIS error is below 1.0e-06
 ---------------------------------------
  Cycle       Energy         DIIS error
 ---------------------------------------
    1   -1184.2426170676      2.38e-02  
    2   -1179.5365869872      1.61e-03  
    3   -1179.6581701030      6.28e-04  
    4   -1179.6722607509      3.42e-04  
    5   -1179.6771893918      6.36e-05  
    6   -1179.6774553955      2.96e-05  
    7   -1179.6775350474      1.20e-05  
    8   -1179.6775597231      5.14e-06  
    9   -1179.6775640312      1.59e-06  
   10   -1179.6775644432      4.78e-07  Convergence criterion met
 ---------------------------------------
 SCF time:   CPU 1541.51s  wall 46.00s 

************** Final PCM Free Energy Summary **************
 G_electrostatic  =      -0.00862782 hartree =      -5.41404010 kcal/mol
 G_cavitation     =       0.00000000 hartree =       0.00000000 kcal/mol
 G_dispersion     =       0.00000000 hartree =       0.00000000 kcal/mol
 G_repulsion      =       0.00000000 hartree =       0.00000000 kcal/mol
 --------------------------------------------------
 Non-electrostatic Free Energy =       0.00000000 hartree =       0.00000000 kcal/mol
 Total                         =      -0.00862782 hartree =      -5.41404010 kcal/mol
 --------------------------------------------------
 SCF Energy (H0 + V/2)                       =   -1179.67756444 
 Solute Internal Energy (H0)                 =   -1179.66893662 
 Total Free Energy (H0 + V/2 + non-elec)     =   -1179.67756444 hartree
                                             = -740258.84441435 kcal/mol
***********************************************************

 SCF   energy in the final basis set =    -1179.6775644432
 Total energy in the final basis set =    -1179.6775644432


 --------------------------------------------------------------
  Generalized many-body perturbation theory program
  by Joonho Lee, Fazle Rob, Xintian Feng, Evgeny Epifanovsky

 No regularization used 
 (reg. param. = 0.0000e+00)
  (P|Q)^-1/2 Time:  CPU 39.87 s  wall 0.71 s

 In RI-MP2 calculation: 
 # of frozen core orbitals: 20

 Components of the RIMP2 correlation energy:
        aaaa    correlation energy =        -0.2532281939 a.u.
        abab    correlation energy =        -1.4753073157 a.u.
        bbbb    correlation energy =        -0.2532281939 a.u.
        non-Brillouin singles      =        -0.0000000000 a.u.
        total same-spin energy     =        -0.5064563879 a.u.
        total opposite-spin energy =        -1.4753073157 a.u.

 Total  RIMP2   correlation energy =        -1.9817637036 a.u.
        RIMP2         total energy =     -1181.6593281468 a.u.

 RI-MP2 Energy Time:  CPU 171.14 s  wall 3.41 s
 
 --------------------------------------------------------------
 
                    Orbital Energies (a.u.)
 --------------------------------------------------------------
 
 Alpha MOs
 -- Occupied --
-91.9865 -91.9853 -11.2821 -11.2792 -11.2701 -11.2674 -11.2531 -11.2503
-11.2433 -11.2426 -11.2307 -11.2299  -8.9862  -8.9850  -6.6672  -6.6666
 -6.6660  -6.6660  -6.6654  -6.6648  -1.1816  -1.1502  -1.0418  -1.0263
 -0.9959  -0.9562  -0.9137  -0.8949  -0.8020  -0.7553  -0.7284  -0.7004
 -0.6610  -0.6151  -0.5915  -0.5820  -0.5705  -0.5625  -0.5514  -0.5398
 -0.5306  -0.5219  -0.5046  -0.4913  -0.4862  -0.4766  -0.4521  -0.3681
 -0.3462  -0.3377  -0.2701
 -- Virtual --
  0.0616   0.1334   0.1412   0.1529   0.1610   0.1730   0.1791   0.1842
  0.1991   0.2029   0.2075   0.2203   0.2332   0.2367   0.2401   0.2587
  0.2767   0.2796   0.3034   0.3160   0.3202   0.3598   0.3634   0.3734
  0.3810   0.3838   0.3923   0.4010   0.4053   0.4206   0.4300   0.4425
  0.4505   0.4680   0.4722   0.4762   0.4804   0.4882   0.4971   0.5111
  0.5156   0.5252   0.5281   0.5376   0.5409   0.5539   0.5571   0.5713
  0.5817   0.5867   0.5913   0.5974   0.6077   0.6108   0.6167   0.6172
  0.6283   0.6323   0.6379   0.6422   0.6447   0.6606   0.6691   0.6763
  0.6806   0.6882   0.6989   0.7207   0.7235   0.7342   0.7410   0.7571
  0.7691   0.7768   0.7847   0.7989   0.8028   0.8305   0.8327   0.8515
  0.8555   0.8679   0.8851   0.8975   0.9140   0.9259   0.9282   0.9435
  0.9551   0.9647   0.9777   0.9934   1.0041   1.0092   1.0224   1.0344
  1.0513   1.0577   1.0588   1.0635   1.0731   1.0764   1.0857   1.1010
  1.1060   1.1127   1.1313   1.1383   1.1614   1.1669   1.1801   1.1845
  1.1999   1.2226   1.2270   1.2288   1.2462   1.2547   1.2603   1.2675
  1.2715   1.2837   1.2920   1.3180   1.3260   1.3413   1.3470   1.3608
  1.3769   1.3860   1.3972   1.4158   1.4199   1.4356   1.4479   1.4520
  1.4851   1.4856   1.5094   1.5231   1.5309   1.5327   1.5408   1.5550
  1.5597   1.5670   1.5725   1.5825   1.5898   1.6006   1.6178   1.6377
  1.6486   1.6706   1.6737   1.6818   1.6918   1.7106   1.7198   1.7335
  1.7491   1.7620   1.7871   1.7961   1.8090   1.8250   1.8505   1.8670
  1.8777   1.8873   1.9133   1.9220   1.9309   1.9548   1.9716   1.9987
  2.0061   2.0361   2.0706   2.1125   2.1259   2.1381   2.1509   2.1676
  2.1811   2.1988   2.2184   2.2216   2.2400   2.2534   2.2680   2.2768
  2.2824   2.2894   2.2977   2.3862   2.4151   2.4382   2.4462   2.4531
  2.4692   2.4920   2.5051   2.5261   2.5500   2.5682   2.5815   2.5978
  2.6193   2.6395   2.6625   2.6774   2.6875   2.6970   2.7096   2.7348
  2.7376   2.7427   2.7531   2.7600   2.7786   2.7871   2.7921   2.7986
  2.8279   2.8366   2.8414   2.8645   2.8762   2.8883   2.9280   2.9388
  2.9537   2.9738   2.9907   2.9928   3.0146   3.0219   3.0347   3.0397
  3.0486   3.0766   3.0868   3.1046   3.1136   3.1229   3.1320   3.1395
  3.1513   3.1546   3.1619   3.1802   3.1902   3.2004   3.2056   3.2188
  3.2296   3.2520   3.2619   3.2731   3.2861   3.2886   3.3032   3.3082
  3.3166   3.3289   3.3318   3.3486   3.3525   3.3661   3.3724   3.3830
  3.3893   3.3926   3.4014   3.4052   3.4187   3.4269   3.4361   3.4383
  3.4554   3.4605   3.4714   3.4853   3.4924   3.5013   3.5167   3.5240
  3.5283   3.5344   3.5364   3.5472   3.5602   3.5761   3.5908   3.5961
  3.5968   3.6115   3.6202   3.6282   3.6353   3.6378   3.6503   3.6669
  3.6779   3.6851   3.6950   3.7041   3.7200   3.7420   3.7454   3.7565
  3.7637   3.7727   3.7824   3.7936   3.8022   3.8151   3.8236   3.8416
  3.8565   3.8714   3.8888   3.9133   3.9172   3.9344   3.9450   3.9521
  3.9767   3.9798   4.0065   4.0124   4.0185   4.0395   4.0486   4.0522
  4.0610   4.0687   4.0888   4.1074   4.1135   4.1295   4.1479   4.1547
  4.1671   4.1853   4.1980   4.2010   4.2112   4.2166   4.2334   4.2370
  4.2553   4.2687   4.2757   4.2899   4.2999   4.3331   4.3413   4.3464
  4.3548   4.3614   4.3679   4.3920   4.4005   4.4064   4.4191   4.4353
  4.4461   4.4552   4.4666   4.4818   4.5006   4.5339   4.5588   4.5687
  4.5946   4.5985   4.6173   4.6259   4.6409   4.6519   4.6619   4.6821
  4.6963   4.7444   4.7525   4.7553   4.7901   4.7958   4.8275   4.8603
  4.8829   4.8921   4.9002   4.9471   4.9858   4.9927   4.9983   5.0556
  5.0865   5.1044   5.1149   5.1468   5.1754   5.1971   5.2011   5.2664
  5.2791   5.2926   5.2976   5.3122   5.3294   5.3654   5.3962   5.4003
  5.4100   5.4518   5.4653   5.4933   5.5191   5.5287   5.5489   5.5608
  5.5709   5.6116   5.6233   5.6317   5.6406   5.6918   5.7029   5.7487
  5.7803   5.8310   5.9071   5.9633   6.0588   6.1235   6.1976   6.2261
  6.2366   6.2688   6.2824   6.3200   6.3557   6.4529   6.5310   8.7828
  9.9336  11.5501  12.0582  12.8866  13.0946  13.7611  14.1031  14.2457
 14.4158
 --------------------------------------------------------------
 
          Ground-State Mulliken Net Atomic Charges

     Atom                 Charge (a.u.)
  ----------------------------------------
      1 C                    -0.221041
      2 C                    -0.248617
      3 C                     0.053364
      4 H                     0.184836
      5 C                    -0.037934
      6 S                     0.011661
      7 C                    -0.312458
      8 H                     0.116367
      9 H                     0.116989
     10 H                     0.103191
     11 H                     0.205683
     12 C                     0.015807
     13 C                    -0.219297
     14 C                     0.016467
     15 H                     0.194210
     16 C                    -0.234327
     17 S                     0.005988
     18 C                    -0.270827
     19 H                     0.101515
     20 H                     0.108839
     21 H                     0.108798
     22 H                     0.200786
  ----------------------------------------
  Sum of atomic charges =     0.000000

 -----------------------------------------------------------------
                    Cartesian Multipole Moments
 -----------------------------------------------------------------
    Charge (ESU x 10^10)
                -0.0000
    Dipole Moment (Debye)
         X       0.1887      Y       0.4097      Z       2.8771
       Tot       2.9122
    Quadrupole Moments (Debye-Ang)
        XX     -90.6823     XY       4.3776     YY     -70.1842
        XZ      -1.7297     YZ      -1.1204     ZZ     -80.8365
    Octopole Moments (Debye-Ang^2)
       XXX     -69.1578    XXY      55.2944    XYY      -9.6009
       YYY     103.8157    XXZ      -5.5041    XYZ       7.2681
       YYZ      -9.6661    XZZ     -20.8233    YZZ      42.0652
       ZZZ      -7.1323
    Hexadecapole Moments (Debye-Ang^3)
      XXXX    -309.8660   XXXY    -156.7452   XXYY    -555.2089
      XYYY    -132.9943   YYYY   -2499.4950   XXXZ      58.4591
      XXYZ     -33.1821   XYYZ     -19.4587   YYYZ     -75.0087
      XXZZ    -227.6144   XYZZ     -40.7588   YYZZ    -590.2904
      XZZZ      50.1052   YZZZ    -102.5075   ZZZZ   -1022.9514
 -----------------------------------------------------------------
 Total job time:  51.23s(wall), 1774.22s(cpu) 
 Wed Dec 13 16:09:57 2023

        *************************************************************
        *                                                           *
        *  Thank you very much for using Q-Chem.  Have a nice day.  *
        *                                                           *
        *************************************************************


0 sent ACK to 0 
now end server 0 ... 
cleanup process ... done
remove work dirs ./qchem1720478.0 -- ./qchem1720478.0
rm -rf ./qchem1720478.0
rm -rf ./qchem1720478
