You are running Q-Chem version: 5.4.0

#
# job setting
#
local host:  exp-1-13
current dir: /home/rramji/project-csd799/aromodel/p3ht-qchem/rotation-run
input file:  Methylthiophene_Phi_5_Theta_110_Methylthiophene.qcin
output file: 
nprocs     : 1
nthreads   : 64
#
# qchem installation setting
#
QC:          /cm/shared/apps/spack/cpu/opt/spack/linux-centos8-zen2/gcc-10.2.0/qchem-5.4-akfmr7b3t57bfs6qan3padb2wnb2i7cl
QCAUX:       /cm/shared/apps/spack/cpu/opt/spack/linux-centos8-zen2/gcc-10.2.0/qchem-5.4-akfmr7b3t57bfs6qan3padb2wnb2i7cl/qcaux
QCPROG:      /cm/shared/apps/spack/cpu/opt/spack/linux-centos8-zen2/gcc-10.2.0/qchem-5.4-akfmr7b3t57bfs6qan3padb2wnb2i7cl/exe/qcprog.exe
QCPROG_S:    /cm/shared/apps/spack/cpu/opt/spack/linux-centos8-zen2/gcc-10.2.0/qchem-5.4-akfmr7b3t57bfs6qan3padb2wnb2i7cl/exe/qcprog.exe_s
PARALLEL:    -DPARALLEL
QCMPI:       mpich
#
# qchem directory setting
#
qcrun:       qchem3423959
QCSCRATCH:   .
QCLOCALSCR:  
QCTMPDIR:    .
QCFILEPREF:  ./qchem3423959
QCSAVEDIR:   
workdirs:    ./qchem3423959
workdir0:    ./qchem3423959
partmpdirs =  
#
# parallel setting
#
QCRSH:           ssh
QCMPI:           mpich
QCMPIRUN:        /cm/shared/apps/spack/cpu/opt/spack/linux-centos8-zen2/gcc-10.2.0/qchem-5.4-akfmr7b3t57bfs6qan3padb2wnb2i7cl/bin/mpi/mpirun_qchem
QCMACHINEFILE:   ./qchem3423959/hostfile
exp-1-13

#
# env setting
#
exported envs:   QC QCAUX QCSCRATCH QCRUNNAME QCFILEPREF QCPROG QCPROG_S GUIFILE

Running Job 1 of 1 Methylthiophene_Phi_5_Theta_110_Methylthiophene.qcin
qchem Methylthiophene_Phi_5_Theta_110_Methylthiophene.qcin_3423959.0 ./qchem3423959/ 1
/cm/shared/apps/spack/cpu/opt/spack/linux-centos8-zen2/gcc-10.2.0/qchem-5.4-akfmr7b3t57bfs6qan3padb2wnb2i7cl/bin/mpi/mpirun_qchem -machinefile ./qchem3423959/hostfile -np 1 /cm/shared/apps/spack/cpu/opt/spack/linux-centos8-zen2/gcc-10.2.0/qchem-5.4-akfmr7b3t57bfs6qan3padb2wnb2i7cl/exe/qcprog.exe Methylthiophene_Phi_5_Theta_110_Methylthiophene.qcin_3423959.0 ./qchem3423959/

Process 0 of 1 is on exp-1-13 - thread support 0
initial socket setup ...start
initial socket setup ...done 
now start server 0 ... 
                  Welcome to Q-Chem
     A Quantum Leap Into The Future Of Chemistry


 Q-Chem 5.4, Q-Chem, Inc., Pleasanton, CA (2021)

 License issued to: University of California, San Diego (site)

 E. Epifanovsky,  A. T. B. Gilbert,  Xintian Feng,  Joonho Lee,  Yuezhi Mao,  
 N. Mardirossian,  P. Pokhilko,  A. White,  M. Wormit,  M. P. Coons,  
 A. L. Dempwolff,  Zhengting Gan,  D. Hait,  P. R. Horn,  L. D. Jacobson,  
 I. Kaliman,  J. Kussmann,  A. W. Lange,  Ka Un Lao,  D. S. Levine,  Jie Liu,  
 S. C. McKenzie,  A. F. Morrison,  K. Nanda,  F. Plasser,  D. R. Rehn,  
 M. L. Vidal,  Zhi-Qiang You,  Ying Zhu,  B. Alam,  B. Albrecht,  
 A. Aldossary,  E. Alguire,  J. H. Andersen,  D. Barton,  K. Begam,  A. Behn,  
 Y. A. Bernard,  E. J. Berquist,  H. Burton,  A. Carreras,  K. Carter-Fenk,  
 R. Chakraborty,  A. D. Chien,  K. D. Closser,  V. Cofer-Shabica,  
 S. Dasgupta,  Jia Deng,  M. de Wergifosse,  M. Diedenhofen,  Hainam Do,  
 S. Ehlert,  Po-Tung Fang,  S. Fatehi,  Qingguo Feng,  J. Gayvert,  
 Qinghui Ge,  G. Gidofalvi,  M. Goldey,  J. Gomes,  C. Gonzalez-Espinoza,  
 S. Gulania,  A. Gunina,  M. W. D. Hanson-Heine,  P. H. P. Harbach,  
 A. W. Hauser,  M. F. Herbst,  M. Hernandez Vera,  M. Hodecker,  
 Z. C. Holden,  S. Houck,  Xunkun Huang,  Kerwin Hui,  B. C. Huynh,  
 M. Ivanov,  Hyunjun Ji,  Hanjie Jiang,  B. Kaduk,  S. Kaehler,  
 K. Khistyaev,  Jaehoon Kim,  P. Klunzinger,  Z. Koczor-Benda,  
 Joong Hoon Koh,  D. Kosenkov,  L. Koulias,  T. Kowalczyk,  C. M. Krauter,  
 K. Kue,  A. Kunitsa,  T. Kus,  A. Landau,  K. V. Lawler,  D. Lefrancois,  
 S. Lehtola,  Rain Li,  Yi-Pei Li,  Jiashu Liang,  M. Liebenthal,  
 Hung-Hsuan Lin,  You-Sheng Lin,  Fenglai Liu,  Kuan-Yu Liu,  
 M. Loipersberger,  A. Luenser,  A. Manjanath,  P. Manohar,  E. Mansoor,  
 S. F. Manzer,  Shan-Ping Mao,  A. V. Marenich,  T. Markovich,  S. Mason,  
 S. A. Maurer,  P. F. McLaughlin,  M. F. S. J. Menger,  J.-M. Mewes,  
 S. A. Mewes,  P. Morgante,  J. W. Mullinax,  T. S. Nguyen-Beck,  
 K. J. Oosterbaan,  G. Paran,  Alexander C. Paul,  Suranjan K. Paul,  
 F. Pavosevic,  Zheng Pei,  S. Prager,  E. I. Proynov,  E. Ramos,  B. Rana,  
 A. E. Rask,  A. Rettig,  R. M. Richard,  F. Rob,  E. Rossomme,  T. Scheele,  
 M. Scheurer,  M. Schneider,  N. Sergueev,  S. M. Sharada,  W. Skomorowski,  
 D. W. Small,  C. J. Stein,  Yu-Chuan Su,  E. J. Sundstrom,  Zhen Tao,  
 J. Thirman,  T. Tsuchimochi,  N. M. Tubman,  S. P. Veccham,  O. Vydrov,  
 J. Wenzel,  J. Witte,  A. Yamada,  Kun Yao,  S. Yeganeh,  S. R. Yost,  
 A. Zech,  Igor Ying Zhang,  Xing Zhang,  Yu Zhang,  D. Zuev,  
 A. Aspuru-Guzik,  A. T. Bell,  N. A. Besley,  K. B. Bravaya,  B. R. Brooks,  
 D. Casanova,  Jeng-Da Chai,  S. Coriani,  C. J. Cramer,  
 A. E. DePrince, III,  R. A. DiStasio Jr.,  A. Dreuw,  B. D. Dunietz,  
 T. R. Furlani,  W. A. Goddard III,  S. Grimme,  S. Hammes-Schiffer,  
 T. Head-Gordon,  W. J. Hehre,  Chao-Ping Hsu,  T.-C. Jagau,  Yousung Jung,  
 A. Klamt,  Jing Kong,  D. S. Lambrecht,  WanZhen Liang,  N. J. Mayhall,  
 C. W. McCurdy,  J. B. Neaton,  C. Ochsenfeld,  J. A. Parkhill,  R. Peverati,  
 V. A. Rassolov,  Yihan Shao,  L. V. Slipchenko,  T. Stauch,  R. P. Steele,  
 J. E. Subotnik,  A. J. W. Thom,  A. Tkatchenko,  D. G. Truhlar,  
 T. Van Voorhis,  T. A. Wesolowski,  K. B. Whaley,  H. L. Woodcock III,  
 P. M. Zimmerman,  S. Faraji,  P. M. W. Gill,  M. Head-Gordon,  
 J. M. Herbert,  A. I. Krylov

 Contributors to earlier versions of Q-Chem not listed above: 
 R. D. Adamson,  B. Austin,  R. Baer,  J. Baker,  G. J. O. Beran,  
 K. Brandhorst,  S. T. Brown,  E. F. C. Byrd,  A. K. Chakraborty,  
 G. K. L. Chan,  Chun-Min Chang,  Yunqing Chen,  C.-L. Cheng,  
 Siu Hung Chien,  D. M. Chipman,  D. L. Crittenden,  H. Dachsel,  
 R. J. Doerksen,  A. D. Dutoi,  R. G. Edgar,  J. Fosso-Tande,  
 L. Fusti-Molnar,  D. Ghosh,  A. Ghysels,  A. Golubeva-Zadorozhnaya,  
 J. Gonthier,  M. S. Gordon,  S. R. Gwaltney,  G. Hawkins,  J. E. Herr,  
 A. Heyden,  S. Hirata,  E. G. Hohenstein,  G. Kedziora,  F. J. Keil,  
 C. Kelley,  Jihan Kim,  R. A. King,  R. Z. Khaliullin,  P. P. Korambath,  
 W. Kurlancheek,  A. Laurent,  A. M. Lee,  M. S. Lee,  S. V. Levchenko,  
 Ching Yeh Lin,  D. Liotard,  E. Livshits,  R. C. Lochan,  I. Lotan,  
 L. A. Martinez-Martinez,  P. E. Maslen,  N. Nair,  D. P. O'Neill,  
 D. Neuhauser,  E. Neuscamman,  C. M. Oana,  R. Olivares-Amaya,  R. Olson,  
 T. M. Perrine,  B. Peters,  P. A. Pieniazek,  A. Prociuk,  Y. M. Rhee,  
 J. Ritchie,  M. A. Rohrdanz,  E. Rosta,  N. J. Russ,  H. F. Schaefer III,  
 M. W. Schmidt,  N. E. Schultz,  S. Sharma,  N. Shenvi,  C. D. Sherrill,  
 A. C. Simmonett,  A. Sodt,  T. Stein,  D. Stuck,  K. S. Thanthiriwatte,  
 V. Vanovschi,  L. Vogt,  Tao Wang,  A. Warshel,  M. A. Watson,  
 C. F. Williams,  Q. Wu,  X. Xu,  Jun Yang,  W. Zhang,  Yan Zhao

 Please cite Q-Chem as follows:
 Y. Shao et al., Mol. Phys. 113, 184-215 (2015)
 DOI: 10.1080/00268976.2014.952696

 Q-Chem 5.4.0 for Intel X86 EM64T Linux

 Parts of Q-Chem use Armadillo 9.800.1 (Horizon Scraper).
 http://arma.sourceforge.net/

 Q-Chem begins on Wed Dec 13 15:59:58 2023  

 Host: 
0

     Scratch files written to ./qchem3423959//
 May1621 |scratch|qcdevops|jenkins|workspace|build_RNUM    
 Parallel job on  1  processors
 Processing $rem in /cm/shared/apps/spack/cpu/opt/spack/linux-centos8-zen2/gcc-10.2.0/qchem-5.4-akfmr7b3t57bfs6qan3padb2wnb2i7cl/config/preferences:
 Processing $rem in /home/rramji/.qchemrc:
 Symmetry turned off for PCM/SM12/SMD calculation
 Core orbitals will be frozen

 Checking the input file for inconsistencies... 	...done.

 Q-Chem warning in module forms1/BasisType.C, line 2236:

 You are not using the predefined 5D/6D in this basis set.


--------------------------------------------------------------
User input:
--------------------------------------------------------------
$molecule
0 1
C	-0.680396	-3.887800	-0.248806
C	0.621614	-3.701456	0.225147
C	1.019896	-2.345170	0.370780
H	1.285337	-4.545233	0.466300
C	-0.000000	-1.450135	-0.000000
S	-1.435271	-2.321334	-0.522786
C	2.378891	-1.934439	0.865597
H	3.003720	-2.819799	1.092567
H	2.313975	-1.326210	1.791940
H	2.924390	-1.325374	0.114772
H	-1.228514	-4.815326	-0.448750
C	0.000000	0.000000	0.000000
C	0.070542	0.841660	1.113020
C	0.187101	2.227746	0.820578
H	0.038051	0.454925	2.142881
C	0.208076	2.475009	-0.563588
S	0.080917	0.967235	-1.464748
C	0.276318	3.288613	1.882380
H	0.238704	2.842244	2.894974
H	-0.557951	4.017140	1.808137
H	1.220618	3.867466	1.808230
H	0.288286	3.429678	-1.097114
$end

$rem
JOBTYPE		SP
EXCHANGE	HF
CORRELATION	pRIMP2
BASIS		cc-pvtz
METHOD		rimp2
AUX_BASIS	rimp2-cc-pvtz
SOLVENT_METHOD	PCM
PURECART	11111
SYMMETRY	false
MEM_TOTAL	110000
SCF_CONVERGENCE = 6
THRESH=10
GUI = 2
$end



$solvent
dielectric 4.90
$end
--------------------------------------------------------------
 ----------------------------------------------------------------
             Standard Nuclear Orientation (Angstroms)
    I     Atom           X                Y                Z
 ----------------------------------------------------------------
    1      C      -0.6803960000    -3.8878000000    -0.2488060000
    2      C       0.6216140000    -3.7014560000     0.2251470000
    3      C       1.0198960000    -2.3451700000     0.3707800000
    4      H       1.2853370000    -4.5452330000     0.4663000000
    5      C       0.0000000000    -1.4501350000     0.0000000000
    6      S      -1.4352710000    -2.3213340000    -0.5227860000
    7      C       2.3788910000    -1.9344390000     0.8655970000
    8      H       3.0037200000    -2.8197990000     1.0925670000
    9      H       2.3139750000    -1.3262100000     1.7919400000
   10      H       2.9243900000    -1.3253740000     0.1147720000
   11      H      -1.2285140000    -4.8153260000    -0.4487500000
   12      C       0.0000000000     0.0000000000     0.0000000000
   13      C       0.0705420000     0.8416600000     1.1130200000
   14      C       0.1871010000     2.2277460000     0.8205780000
   15      H       0.0380510000     0.4549250000     2.1428810000
   16      C       0.2080760000     2.4750090000    -0.5635880000
   17      S       0.0809170000     0.9672350000    -1.4647480000
   18      C       0.2763180000     3.2886130000     1.8823800000
   19      H       0.2387040000     2.8422440000     2.8949740000
   20      H      -0.5579510000     4.0171400000     1.8081370000
   21      H       1.2206180000     3.8674660000     1.8082300000
   22      H       0.2882860000     3.4296780000    -1.0971140000
 ----------------------------------------------------------------
 Nuclear Repulsion Energy =         832.52772670 hartrees
 There are       51 alpha and       51 beta electrons
 Requested basis set is cc-pVTZ
 There are 184 shells and 508 basis functions

 Total QAlloc Memory Limit 110000 MB
 Mega-Array Size       188 MB
 MEM_STATIC part       192 MB
 Discretize the solute cavity surface with Lebedev spheres
	Using 110 Lebedev grid points for each H atom
	Using 194 Lebedev grid points for other atoms
	Atomic van der Waals radii will be scaled by 1.20
 Remove points where switching function is < 1.0e-08
 Keep 1568 surface tesserae and discard 1860 interior tesserae
 Molecular Surface Area = 237.533 Angst**2
 Requested basis set is rimp2-cc-pVTZ
 There are 394 shells and 1354 basis functions
 A cutoff of  1.0D-10 yielded  12284 shell pairs
 There are     91300 function pairs (    117923 Cartesian)
 Smallest overlap matrix eigenvalue = 6.45E-05

 Scale SEOQF with 1.000000e-01/1.000000e-01/1.000000e-01

 Standard Electronic Orientation quadrupole field applied
 Nucleus-field energy     =     0.0000000343 hartrees
 Guess from superposition of atomic densities
 Warning:  Energy on first SCF cycle will be non-variational
 SAD guess density has 102.000000 electrons

 -----------------------------------------------------------------------
  General SCF calculation program by
  Eric Jon Sundstrom, Paul Horn, Yuezhi Mao, Dmitri Zuev, Alec White,
  David Stuck, Shaama M.S., Shane Yost, Joonho Lee, David Small,
  Daniel Levine, Susi Lehtola, Hugh Burton, Evgeny Epifanovsky,
  Bang C. Huynh
 -----------------------------------------------------------------------
 Hartree-Fock
 using 64 threads for integral computing
 -------------------------------------------------------
 OpenMP Integral computing Module                
 Release: version 1.0, May 2013, Q-Chem Inc. Pittsburgh 
 -------------------------------------------------------
 A restricted SCF calculation will be
 performed using DIIS
 SCF converges when DIIS error is below 1.0e-06
 ---------------------------------------
  Cycle       Energy         DIIS error
 ---------------------------------------
    1   -1184.1833373439      2.38e-02  
    2   -1179.5474614768      1.60e-03  
    3   -1179.6669840881      6.18e-04  
    4   -1179.6805531861      3.43e-04  
    5   -1179.6854504497      6.73e-05  
    6   -1179.6857302187      3.04e-05  
    7   -1179.6858156216      1.26e-05  
    8   -1179.6858426861      5.32e-06  
    9   -1179.6858475035      1.66e-06  
   10   -1179.6858479457      5.20e-07  Convergence criterion met
 ---------------------------------------
 SCF time:   CPU 1513.42s  wall 47.00s 

************** Final PCM Free Energy Summary **************
 G_electrostatic  =      -0.00795887 hartree =      -4.99426894 kcal/mol
 G_cavitation     =       0.00000000 hartree =       0.00000000 kcal/mol
 G_dispersion     =       0.00000000 hartree =       0.00000000 kcal/mol
 G_repulsion      =       0.00000000 hartree =       0.00000000 kcal/mol
 --------------------------------------------------
 Non-electrostatic Free Energy =       0.00000000 hartree =       0.00000000 kcal/mol
 Total                         =      -0.00795887 hartree =      -4.99426894 kcal/mol
 --------------------------------------------------
 SCF Energy (H0 + V/2)                       =   -1179.68584795 
 Solute Internal Energy (H0)                 =   -1179.67788907 
 Total Free Energy (H0 + V/2 + non-elec)     =   -1179.68584795 hartree
                                             = -740264.04239058 kcal/mol
***********************************************************

 SCF   energy in the final basis set =    -1179.6858479457
 Total energy in the final basis set =    -1179.6858479457


 --------------------------------------------------------------
  Generalized many-body perturbation theory program
  by Joonho Lee, Fazle Rob, Xintian Feng, Evgeny Epifanovsky

 No regularization used 
 (reg. param. = 0.0000e+00)
  (P|Q)^-1/2 Time:  CPU 37.45 s  wall 0.66 s

 In RI-MP2 calculation: 
 # of frozen core orbitals: 20

 Components of the RIMP2 correlation energy:
        aaaa    correlation energy =        -0.2521935483 a.u.
        abab    correlation energy =        -1.4735243554 a.u.
        bbbb    correlation energy =        -0.2521935483 a.u.
        non-Brillouin singles      =        -0.0000000000 a.u.
        total same-spin energy     =        -0.5043870966 a.u.
        total opposite-spin energy =        -1.4735243554 a.u.

 Total  RIMP2   correlation energy =        -1.9779114519 a.u.
        RIMP2         total energy =     -1181.6637593976 a.u.

 RI-MP2 Energy Time:  CPU 247.87 s  wall 4.58 s
 
 --------------------------------------------------------------
 
                    Orbital Energies (a.u.)
 --------------------------------------------------------------
 
 Alpha MOs
 -- Occupied --
-91.9858 -91.9850 -11.2793 -11.2741 -11.2730 -11.2650 -11.2541 -11.2511
-11.2424 -11.2414 -11.2292 -11.2292  -8.9852  -8.9847  -6.6661  -6.6656
 -6.6655  -6.6650  -6.6649  -6.6644  -1.1780  -1.1497  -1.0393  -1.0232
 -0.9963  -0.9546  -0.9129  -0.8927  -0.8002  -0.7525  -0.7308  -0.6957
 -0.6620  -0.6163  -0.5830  -0.5797  -0.5704  -0.5675  -0.5516  -0.5317
 -0.5294  -0.5202  -0.5073  -0.4920  -0.4884  -0.4659  -0.4616  -0.3462
 -0.3389  -0.3293  -0.2967
 -- Virtual --
  0.0850   0.1090   0.1405   0.1493   0.1624   0.1764   0.1771   0.1884
  0.1912   0.1950   0.2000   0.2173   0.2325   0.2337   0.2430   0.2462
  0.2517   0.2733   0.2882   0.3067   0.3385   0.3474   0.3624   0.3652
  0.3758   0.3835   0.3932   0.3963   0.4041   0.4117   0.4189   0.4343
  0.4438   0.4549   0.4653   0.4708   0.4742   0.4842   0.4929   0.5002
  0.5101   0.5122   0.5257   0.5384   0.5439   0.5527   0.5638   0.5662
  0.5710   0.5850   0.5934   0.5965   0.6033   0.6055   0.6117   0.6197
  0.6251   0.6309   0.6353   0.6445   0.6505   0.6551   0.6564   0.6607
  0.6687   0.6791   0.6922   0.7064   0.7163   0.7321   0.7412   0.7542
  0.7678   0.7742   0.7893   0.7971   0.8139   0.8329   0.8384   0.8403
  0.8473   0.8533   0.8725   0.8908   0.9013   0.9246   0.9368   0.9424
  0.9435   0.9579   0.9769   0.9893   1.0043   1.0166   1.0227   1.0317
  1.0426   1.0478   1.0590   1.0667   1.0726   1.0845   1.0903   1.1002
  1.1059   1.1186   1.1261   1.1493   1.1546   1.1743   1.1815   1.1992
  1.2024   1.2162   1.2197   1.2288   1.2479   1.2530   1.2590   1.2652
  1.2817   1.2857   1.3020   1.3215   1.3318   1.3462   1.3514   1.3708
  1.3780   1.3898   1.4053   1.4122   1.4174   1.4321   1.4500   1.4741
  1.4808   1.4821   1.4986   1.5056   1.5183   1.5321   1.5401   1.5479
  1.5569   1.5656   1.5693   1.5843   1.5853   1.6055   1.6076   1.6285
  1.6489   1.6529   1.6700   1.6909   1.6932   1.7051   1.7224   1.7299
  1.7488   1.7591   1.7671   1.7874   1.8002   1.8169   1.8232   1.8592
  1.8782   1.8933   1.9061   1.9185   1.9356   1.9445   1.9566   1.9811
  2.0239   2.0458   2.0505   2.0975   2.1223   2.1274   2.1532   2.1778
  2.1882   2.1980   2.2046   2.2118   2.2289   2.2458   2.2626   2.2836
  2.2932   2.3105   2.3296   2.3981   2.4037   2.4089   2.4383   2.4517
  2.4750   2.4922   2.5158   2.5265   2.5499   2.5586   2.5862   2.6065
  2.6116   2.6318   2.6443   2.6593   2.6721   2.6846   2.7131   2.7274
  2.7326   2.7420   2.7496   2.7544   2.7645   2.7736   2.7946   2.8048
  2.8254   2.8433   2.8523   2.8654   2.8769   2.8832   2.9054   2.9197
  2.9328   2.9661   2.9773   2.9868   2.9922   3.0133   3.0262   3.0364
  3.0451   3.0701   3.0968   3.1101   3.1159   3.1271   3.1310   3.1394
  3.1532   3.1601   3.1620   3.1790   3.1878   3.2018   3.2163   3.2257
  3.2296   3.2455   3.2570   3.2691   3.2820   3.2946   3.2996   3.3041
  3.3257   3.3344   3.3420   3.3458   3.3502   3.3588   3.3638   3.3801
  3.3840   3.3859   3.3986   3.4040   3.4238   3.4249   3.4349   3.4396
  3.4493   3.4608   3.4697   3.4772   3.4926   3.5061   3.5149   3.5219
  3.5295   3.5308   3.5458   3.5546   3.5585   3.5693   3.5826   3.5910
  3.6061   3.6170   3.6250   3.6284   3.6383   3.6432   3.6529   3.6639
  3.6695   3.6829   3.6983   3.7022   3.7190   3.7233   3.7381   3.7533
  3.7643   3.7764   3.7835   3.7953   3.8022   3.8171   3.8335   3.8436
  3.8589   3.8737   3.8826   3.9045   3.9076   3.9267   3.9420   3.9662
  3.9687   3.9855   4.0008   4.0043   4.0125   4.0197   4.0345   4.0538
  4.0754   4.0834   4.0908   4.1010   4.1154   4.1325   4.1429   4.1483
  4.1579   4.1780   4.1933   4.1964   4.2008   4.2047   4.2162   4.2391
  4.2421   4.2602   4.2675   4.2851   4.2931   4.3119   4.3240   4.3304
  4.3476   4.3643   4.3763   4.3875   4.4002   4.4046   4.4088   4.4263
  4.4352   4.4406   4.4574   4.4790   4.4868   4.4982   4.5311   4.5643
  4.5866   4.5989   4.6055   4.6161   4.6352   4.6413   4.6571   4.6674
  4.6968   4.7240   4.7417   4.7520   4.7687   4.7828   4.8105   4.8264
  4.8743   4.8869   4.9092   4.9148   4.9571   4.9731   5.0027   5.0554
  5.0974   5.1086   5.1128   5.1335   5.1661   5.1842   5.2015   5.2559
  5.2679   5.2797   5.2861   5.3025   5.3230   5.3672   5.3881   5.3963
  5.4120   5.4452   5.4674   5.4914   5.5176   5.5288   5.5456   5.5542
  5.5702   5.6087   5.6193   5.6230   5.6309   5.6767   5.6971   5.7147
  5.7730   5.8254   5.9127   5.9586   6.0034   6.0653   6.1359   6.2251
  6.2352   6.2486   6.2742   6.3047   6.3206   6.4376   6.5281   8.8365
  9.8879  11.6674  11.9619  12.9055  13.0488  13.7504  13.9895  14.2305
 14.3069
 --------------------------------------------------------------
 
          Ground-State Mulliken Net Atomic Charges

     Atom                 Charge (a.u.)
  ----------------------------------------
      1 C                    -0.213430
      2 C                    -0.248808
      3 C                     0.049559
      4 H                     0.185419
      5 C                    -0.043264
      6 S                     0.025491
      7 C                    -0.282016
      8 H                     0.109447
      9 H                     0.109035
     10 H                     0.112600
     11 H                     0.204286
     12 C                    -0.017346
     13 C                    -0.228289
     14 C                     0.017187
     15 H                     0.188219
     16 C                    -0.239182
     17 S                     0.025010
     18 C                    -0.271412
     19 H                     0.102639
     20 H                     0.108514
     21 H                     0.107869
     22 H                     0.198470
  ----------------------------------------
  Sum of atomic charges =     0.000000

 -----------------------------------------------------------------
                    Cartesian Multipole Moments
 -----------------------------------------------------------------
    Charge (ESU x 10^10)
                -0.0000
    Dipole Moment (Debye)
         X       1.5960      Y       0.2325      Z       2.0039
       Tot       2.5723
    Quadrupole Moments (Debye-Ang)
        XX     -86.8514     XY      -1.1848     YY     -68.7695
        XZ       2.2183     YZ       0.3591     ZZ     -85.9857
    Octopole Moments (Debye-Ang^2)
       XXX     -24.5872    XXY      27.7692    XYY      -8.0536
       YYY      94.7058    XXZ      -2.6324    XYZ      -8.0111
       YYZ      -6.7455    XZZ      -7.8656    YZZ      56.9463
       ZZZ      -3.1999
    Hexadecapole Moments (Debye-Ang^3)
      XXXX    -624.7163   XXXY     -49.4924   XXYY    -562.5614
      XYYY       3.3687   YYYY   -2574.0678   XXXZ     -93.5126
      XXYZ     -35.3525   XYYZ      -1.8646   YYYZ    -102.5566
      XXZZ    -213.3581   XYZZ     -12.0903   YYZZ    -612.3700
      XZZZ    -100.8303   YZZZ    -102.1260   ZZZZ    -602.4154
 -----------------------------------------------------------------
 Total job time:  53.01s(wall), 1819.10s(cpu) 
 Wed Dec 13 16:00:51 2023

        *************************************************************
        *                                                           *
        *  Thank you very much for using Q-Chem.  Have a nice day.  *
        *                                                           *
        *************************************************************


0 sent ACK to 0 
now end server 0 ... 
cleanup process ... done
remove work dirs ./qchem3423959.0 -- ./qchem3423959.0
rm -rf ./qchem3423959.0
rm -rf ./qchem3423959
