You are running Q-Chem version: 5.4.0

#
# job setting
#
local host:  exp-3-44
current dir: /home/rramji/project-csd799/aromodel/p3ht-qchem/rotation-run
input file:  Methylthiophene_Phi_30_Theta_320_Methylthiophene.qcin
output file: 
nprocs     : 1
nthreads   : 64
#
# qchem installation setting
#
QC:          /cm/shared/apps/spack/cpu/opt/spack/linux-centos8-zen2/gcc-10.2.0/qchem-5.4-akfmr7b3t57bfs6qan3padb2wnb2i7cl
QCAUX:       /cm/shared/apps/spack/cpu/opt/spack/linux-centos8-zen2/gcc-10.2.0/qchem-5.4-akfmr7b3t57bfs6qan3padb2wnb2i7cl/qcaux
QCPROG:      /cm/shared/apps/spack/cpu/opt/spack/linux-centos8-zen2/gcc-10.2.0/qchem-5.4-akfmr7b3t57bfs6qan3padb2wnb2i7cl/exe/qcprog.exe
QCPROG_S:    /cm/shared/apps/spack/cpu/opt/spack/linux-centos8-zen2/gcc-10.2.0/qchem-5.4-akfmr7b3t57bfs6qan3padb2wnb2i7cl/exe/qcprog.exe_s
PARALLEL:    -DPARALLEL
QCMPI:       mpich
#
# qchem directory setting
#
qcrun:       qchem2236648
QCSCRATCH:   .
QCLOCALSCR:  
QCTMPDIR:    .
QCFILEPREF:  ./qchem2236648
QCSAVEDIR:   
workdirs:    ./qchem2236648
workdir0:    ./qchem2236648
partmpdirs =  
#
# parallel setting
#
QCRSH:           ssh
QCMPI:           mpich
QCMPIRUN:        /cm/shared/apps/spack/cpu/opt/spack/linux-centos8-zen2/gcc-10.2.0/qchem-5.4-akfmr7b3t57bfs6qan3padb2wnb2i7cl/bin/mpi/mpirun_qchem
QCMACHINEFILE:   ./qchem2236648/hostfile
exp-3-44

#
# env setting
#
exported envs:   QC QCAUX QCSCRATCH QCRUNNAME QCFILEPREF QCPROG QCPROG_S GUIFILE

Running Job 1 of 1 Methylthiophene_Phi_30_Theta_320_Methylthiophene.qcin
qchem Methylthiophene_Phi_30_Theta_320_Methylthiophene.qcin_2236648.0 ./qchem2236648/ 1
/cm/shared/apps/spack/cpu/opt/spack/linux-centos8-zen2/gcc-10.2.0/qchem-5.4-akfmr7b3t57bfs6qan3padb2wnb2i7cl/bin/mpi/mpirun_qchem -machinefile ./qchem2236648/hostfile -np 1 /cm/shared/apps/spack/cpu/opt/spack/linux-centos8-zen2/gcc-10.2.0/qchem-5.4-akfmr7b3t57bfs6qan3padb2wnb2i7cl/exe/qcprog.exe Methylthiophene_Phi_30_Theta_320_Methylthiophene.qcin_2236648.0 ./qchem2236648/

Process 0 of 1 is on exp-3-44 - thread support 0
initial socket setup ...start
initial socket setup ...done 
now start server 0 ... 
                  Welcome to Q-Chem
     A Quantum Leap Into The Future Of Chemistry


 Q-Chem 5.4, Q-Chem, Inc., Pleasanton, CA (2021)

 License issued to: University of California, San Diego (site)

 E. Epifanovsky,  A. T. B. Gilbert,  Xintian Feng,  Joonho Lee,  Yuezhi Mao,  
 N. Mardirossian,  P. Pokhilko,  A. White,  M. Wormit,  M. P. Coons,  
 A. L. Dempwolff,  Zhengting Gan,  D. Hait,  P. R. Horn,  L. D. Jacobson,  
 I. Kaliman,  J. Kussmann,  A. W. Lange,  Ka Un Lao,  D. S. Levine,  Jie Liu,  
 S. C. McKenzie,  A. F. Morrison,  K. Nanda,  F. Plasser,  D. R. Rehn,  
 M. L. Vidal,  Zhi-Qiang You,  Ying Zhu,  B. Alam,  B. Albrecht,  
 A. Aldossary,  E. Alguire,  J. H. Andersen,  D. Barton,  K. Begam,  A. Behn,  
 Y. A. Bernard,  E. J. Berquist,  H. Burton,  A. Carreras,  K. Carter-Fenk,  
 R. Chakraborty,  A. D. Chien,  K. D. Closser,  V. Cofer-Shabica,  
 S. Dasgupta,  Jia Deng,  M. de Wergifosse,  M. Diedenhofen,  Hainam Do,  
 S. Ehlert,  Po-Tung Fang,  S. Fatehi,  Qingguo Feng,  J. Gayvert,  
 Qinghui Ge,  G. Gidofalvi,  M. Goldey,  J. Gomes,  C. Gonzalez-Espinoza,  
 S. Gulania,  A. Gunina,  M. W. D. Hanson-Heine,  P. H. P. Harbach,  
 A. W. Hauser,  M. F. Herbst,  M. Hernandez Vera,  M. Hodecker,  
 Z. C. Holden,  S. Houck,  Xunkun Huang,  Kerwin Hui,  B. C. Huynh,  
 M. Ivanov,  Hyunjun Ji,  Hanjie Jiang,  B. Kaduk,  S. Kaehler,  
 K. Khistyaev,  Jaehoon Kim,  P. Klunzinger,  Z. Koczor-Benda,  
 Joong Hoon Koh,  D. Kosenkov,  L. Koulias,  T. Kowalczyk,  C. M. Krauter,  
 K. Kue,  A. Kunitsa,  T. Kus,  A. Landau,  K. V. Lawler,  D. Lefrancois,  
 S. Lehtola,  Rain Li,  Yi-Pei Li,  Jiashu Liang,  M. Liebenthal,  
 Hung-Hsuan Lin,  You-Sheng Lin,  Fenglai Liu,  Kuan-Yu Liu,  
 M. Loipersberger,  A. Luenser,  A. Manjanath,  P. Manohar,  E. Mansoor,  
 S. F. Manzer,  Shan-Ping Mao,  A. V. Marenich,  T. Markovich,  S. Mason,  
 S. A. Maurer,  P. F. McLaughlin,  M. F. S. J. Menger,  J.-M. Mewes,  
 S. A. Mewes,  P. Morgante,  J. W. Mullinax,  T. S. Nguyen-Beck,  
 K. J. Oosterbaan,  G. Paran,  Alexander C. Paul,  Suranjan K. Paul,  
 F. Pavosevic,  Zheng Pei,  S. Prager,  E. I. Proynov,  E. Ramos,  B. Rana,  
 A. E. Rask,  A. Rettig,  R. M. Richard,  F. Rob,  E. Rossomme,  T. Scheele,  
 M. Scheurer,  M. Schneider,  N. Sergueev,  S. M. Sharada,  W. Skomorowski,  
 D. W. Small,  C. J. Stein,  Yu-Chuan Su,  E. J. Sundstrom,  Zhen Tao,  
 J. Thirman,  T. Tsuchimochi,  N. M. Tubman,  S. P. Veccham,  O. Vydrov,  
 J. Wenzel,  J. Witte,  A. Yamada,  Kun Yao,  S. Yeganeh,  S. R. Yost,  
 A. Zech,  Igor Ying Zhang,  Xing Zhang,  Yu Zhang,  D. Zuev,  
 A. Aspuru-Guzik,  A. T. Bell,  N. A. Besley,  K. B. Bravaya,  B. R. Brooks,  
 D. Casanova,  Jeng-Da Chai,  S. Coriani,  C. J. Cramer,  
 A. E. DePrince, III,  R. A. DiStasio Jr.,  A. Dreuw,  B. D. Dunietz,  
 T. R. Furlani,  W. A. Goddard III,  S. Grimme,  S. Hammes-Schiffer,  
 T. Head-Gordon,  W. J. Hehre,  Chao-Ping Hsu,  T.-C. Jagau,  Yousung Jung,  
 A. Klamt,  Jing Kong,  D. S. Lambrecht,  WanZhen Liang,  N. J. Mayhall,  
 C. W. McCurdy,  J. B. Neaton,  C. Ochsenfeld,  J. A. Parkhill,  R. Peverati,  
 V. A. Rassolov,  Yihan Shao,  L. V. Slipchenko,  T. Stauch,  R. P. Steele,  
 J. E. Subotnik,  A. J. W. Thom,  A. Tkatchenko,  D. G. Truhlar,  
 T. Van Voorhis,  T. A. Wesolowski,  K. B. Whaley,  H. L. Woodcock III,  
 P. M. Zimmerman,  S. Faraji,  P. M. W. Gill,  M. Head-Gordon,  
 J. M. Herbert,  A. I. Krylov

 Contributors to earlier versions of Q-Chem not listed above: 
 R. D. Adamson,  B. Austin,  R. Baer,  J. Baker,  G. J. O. Beran,  
 K. Brandhorst,  S. T. Brown,  E. F. C. Byrd,  A. K. Chakraborty,  
 G. K. L. Chan,  Chun-Min Chang,  Yunqing Chen,  C.-L. Cheng,  
 Siu Hung Chien,  D. M. Chipman,  D. L. Crittenden,  H. Dachsel,  
 R. J. Doerksen,  A. D. Dutoi,  R. G. Edgar,  J. Fosso-Tande,  
 L. Fusti-Molnar,  D. Ghosh,  A. Ghysels,  A. Golubeva-Zadorozhnaya,  
 J. Gonthier,  M. S. Gordon,  S. R. Gwaltney,  G. Hawkins,  J. E. Herr,  
 A. Heyden,  S. Hirata,  E. G. Hohenstein,  G. Kedziora,  F. J. Keil,  
 C. Kelley,  Jihan Kim,  R. A. King,  R. Z. Khaliullin,  P. P. Korambath,  
 W. Kurlancheek,  A. Laurent,  A. M. Lee,  M. S. Lee,  S. V. Levchenko,  
 Ching Yeh Lin,  D. Liotard,  E. Livshits,  R. C. Lochan,  I. Lotan,  
 L. A. Martinez-Martinez,  P. E. Maslen,  N. Nair,  D. P. O'Neill,  
 D. Neuhauser,  E. Neuscamman,  C. M. Oana,  R. Olivares-Amaya,  R. Olson,  
 T. M. Perrine,  B. Peters,  P. A. Pieniazek,  A. Prociuk,  Y. M. Rhee,  
 J. Ritchie,  M. A. Rohrdanz,  E. Rosta,  N. J. Russ,  H. F. Schaefer III,  
 M. W. Schmidt,  N. E. Schultz,  S. Sharma,  N. Shenvi,  C. D. Sherrill,  
 A. C. Simmonett,  A. Sodt,  T. Stein,  D. Stuck,  K. S. Thanthiriwatte,  
 V. Vanovschi,  L. Vogt,  Tao Wang,  A. Warshel,  M. A. Watson,  
 C. F. Williams,  Q. Wu,  X. Xu,  Jun Yang,  W. Zhang,  Yan Zhao

 Please cite Q-Chem as follows:
 Y. Shao et al., Mol. Phys. 113, 184-215 (2015)
 DOI: 10.1080/00268976.2014.952696

 Q-Chem 5.4.0 for Intel X86 EM64T Linux

 Parts of Q-Chem use Armadillo 9.800.1 (Horizon Scraper).
 http://arma.sourceforge.net/

 Q-Chem begins on Wed Dec 13 16:18:28 2023  

 Host: 
0

     Scratch files written to ./qchem2236648//
 May1621 |scratch|qcdevops|jenkins|workspace|build_RNUM    
 Parallel job on  1  processors
 Processing $rem in /cm/shared/apps/spack/cpu/opt/spack/linux-centos8-zen2/gcc-10.2.0/qchem-5.4-akfmr7b3t57bfs6qan3padb2wnb2i7cl/config/preferences:
 Processing $rem in /home/rramji/.qchemrc:
 Symmetry turned off for PCM/SM12/SMD calculation
 Core orbitals will be frozen

 Checking the input file for inconsistencies... 	...done.

 Q-Chem warning in module forms1/BasisType.C, line 2236:

 You are not using the predefined 5D/6D in this basis set.


--------------------------------------------------------------
User input:
--------------------------------------------------------------
$molecule
0 1
C	0.464838	-3.887800	0.555670
C	-0.425760	-3.701456	-0.505790
C	-0.697866	-2.345170	-0.831053
H	-0.879984	-4.545233	-1.046496
C	0.000000	-1.450135	0.000000
S	0.981588	-2.321334	1.170382
C	-1.627381	-1.934439	-1.939074
H	-2.055015	-2.819799	-2.448051
H	-1.107991	-1.326210	-2.708853
H	-2.475210	-1.325374	-1.561590
H	0.839549	-4.815326	1.002886
C	0.000000	0.000000	0.000000
C	0.419634	0.732990	1.113020
C	1.111057	1.939951	0.820578
H	0.226746	0.396221	2.142881
C	1.234565	2.155183	-0.563588
S	0.482106	0.842416	-1.464748
C	1.640257	2.863718	1.882380
H	1.417524	2.475067	2.894974
H	1.192042	3.876565	1.808137
H	2.740717	2.989259	1.808230
H	1.710720	2.986508	-1.097114
$end

$rem
JOBTYPE		SP
EXCHANGE	HF
CORRELATION	pRIMP2
BASIS		cc-pvtz
METHOD		rimp2
AUX_BASIS	rimp2-cc-pvtz
SOLVENT_METHOD	PCM
PURECART	11111
SYMMETRY	false
MEM_TOTAL	110000
SCF_CONVERGENCE = 6
THRESH=10
GUI = 2
$end



$solvent
dielectric 4.90
$end
--------------------------------------------------------------
 ----------------------------------------------------------------
             Standard Nuclear Orientation (Angstroms)
    I     Atom           X                Y                Z
 ----------------------------------------------------------------
    1      C       0.4648380000    -3.8878000000     0.5556700000
    2      C      -0.4257600000    -3.7014560000    -0.5057900000
    3      C      -0.6978660000    -2.3451700000    -0.8310530000
    4      H      -0.8799840000    -4.5452330000    -1.0464960000
    5      C       0.0000000000    -1.4501350000     0.0000000000
    6      S       0.9815880000    -2.3213340000     1.1703820000
    7      C      -1.6273810000    -1.9344390000    -1.9390740000
    8      H      -2.0550150000    -2.8197990000    -2.4480510000
    9      H      -1.1079910000    -1.3262100000    -2.7088530000
   10      H      -2.4752100000    -1.3253740000    -1.5615900000
   11      H       0.8395490000    -4.8153260000     1.0028860000
   12      C       0.0000000000     0.0000000000     0.0000000000
   13      C       0.4196340000     0.7329900000     1.1130200000
   14      C       1.1110570000     1.9399510000     0.8205780000
   15      H       0.2267460000     0.3962210000     2.1428810000
   16      C       1.2345650000     2.1551830000    -0.5635880000
   17      S       0.4821060000     0.8424160000    -1.4647480000
   18      C       1.6402570000     2.8637180000     1.8823800000
   19      H       1.4175240000     2.4750670000     2.8949740000
   20      H       1.1920420000     3.8765650000     1.8081370000
   21      H       2.7407170000     2.9892590000     1.8082300000
   22      H       1.7107200000     2.9865080000    -1.0971140000
 ----------------------------------------------------------------
 Nuclear Repulsion Energy =         840.56011273 hartrees
 There are       51 alpha and       51 beta electrons
 Requested basis set is cc-pVTZ
 There are 184 shells and 508 basis functions

 Total QAlloc Memory Limit 110000 MB
 Mega-Array Size       188 MB
 MEM_STATIC part       192 MB
 Discretize the solute cavity surface with Lebedev spheres
	Using 110 Lebedev grid points for each H atom
	Using 194 Lebedev grid points for other atoms
	Atomic van der Waals radii will be scaled by 1.20
 Remove points where switching function is < 1.0e-08
 Keep 1519 surface tesserae and discard 1909 interior tesserae
 Molecular Surface Area = 232.284 Angst**2
 Requested basis set is rimp2-cc-pVTZ
 There are 394 shells and 1354 basis functions
 A cutoff of  1.0D-10 yielded  12259 shell pairs
 There are     91113 function pairs (    117656 Cartesian)
 Smallest overlap matrix eigenvalue = 7.00E-05

 Scale SEOQF with 1.000000e-01/1.000000e-01/1.000000e-01

 Standard Electronic Orientation quadrupole field applied
 Nucleus-field energy     =     0.0000000248 hartrees
 Guess from superposition of atomic densities
 Warning:  Energy on first SCF cycle will be non-variational
 SAD guess density has 102.000000 electrons

 -----------------------------------------------------------------------
  General SCF calculation program by
  Eric Jon Sundstrom, Paul Horn, Yuezhi Mao, Dmitri Zuev, Alec White,
  David Stuck, Shaama M.S., Shane Yost, Joonho Lee, David Small,
  Daniel Levine, Susi Lehtola, Hugh Burton, Evgeny Epifanovsky,
  Bang C. Huynh
 -----------------------------------------------------------------------
 Hartree-Fock
 using 64 threads for integral computing
 -------------------------------------------------------
 OpenMP Integral computing Module                
 Release: version 1.0, May 2013, Q-Chem Inc. Pittsburgh 
 -------------------------------------------------------
 A restricted SCF calculation will be
 performed using DIIS
 SCF converges when DIIS error is below 1.0e-06
 ---------------------------------------
  Cycle       Energy         DIIS error
 ---------------------------------------
    1   -1184.2238085082      2.38e-02  
    2   -1179.5332821152      1.59e-03  
    3   -1179.6536263397      6.00e-04  
    4   -1179.6669836621      3.24e-04  
    5   -1179.6714206180      6.35e-05  
    6   -1179.6716913081      3.05e-05  
    7   -1179.6717772144      1.28e-05  
    8   -1179.6718059973      5.18e-06  
    9   -1179.6718110949      1.72e-06  
   10   -1179.6718115704      5.19e-07  Convergence criterion met
 ---------------------------------------
 SCF time:   CPU 1475.24s  wall 41.00s 

************** Final PCM Free Energy Summary **************
 G_electrostatic  =      -0.00796206 hartree =      -4.99626573 kcal/mol
 G_cavitation     =       0.00000000 hartree =       0.00000000 kcal/mol
 G_dispersion     =       0.00000000 hartree =       0.00000000 kcal/mol
 G_repulsion      =       0.00000000 hartree =       0.00000000 kcal/mol
 --------------------------------------------------
 Non-electrostatic Free Energy =       0.00000000 hartree =       0.00000000 kcal/mol
 Total                         =      -0.00796206 hartree =      -4.99626573 kcal/mol
 --------------------------------------------------
 SCF Energy (H0 + V/2)                       =   -1179.67181157 
 Solute Internal Energy (H0)                 =   -1179.66384951 
 Total Free Energy (H0 + V/2 + non-elec)     =   -1179.67181157 hartree
                                             = -740255.23443215 kcal/mol
***********************************************************

 SCF   energy in the final basis set =    -1179.6718115704
 Total energy in the final basis set =    -1179.6718115704


 --------------------------------------------------------------
  Generalized many-body perturbation theory program
  by Joonho Lee, Fazle Rob, Xintian Feng, Evgeny Epifanovsky

 No regularization used 
 (reg. param. = 0.0000e+00)
  (P|Q)^-1/2 Time:  CPU 18.14 s  wall 0.29 s

 In RI-MP2 calculation: 
 # of frozen core orbitals: 20

 Components of the RIMP2 correlation energy:
        aaaa    correlation energy =        -0.2532586358 a.u.
        abab    correlation energy =        -1.4761616759 a.u.
        bbbb    correlation energy =        -0.2532586358 a.u.
        non-Brillouin singles      =        -0.0000000000 a.u.
        total same-spin energy     =        -0.5065172716 a.u.
        total opposite-spin energy =        -1.4761616759 a.u.

 Total  RIMP2   correlation energy =        -1.9826789475 a.u.
        RIMP2         total energy =     -1181.6544905179 a.u.

 RI-MP2 Energy Time:  CPU 146.14 s  wall 2.80 s
 
 --------------------------------------------------------------
 
                    Orbital Energies (a.u.)
 --------------------------------------------------------------
 
 Alpha MOs
 -- Occupied --
-91.9851 -91.9847 -11.2762 -11.2748 -11.2706 -11.2694 -11.2528 -11.2481
-11.2452 -11.2414 -11.2297 -11.2290  -8.9849  -8.9843  -6.6658  -6.6652
 -6.6651  -6.6646  -6.6646  -6.6640  -1.1812  -1.1492  -1.0413  -1.0228
 -0.9990  -0.9513  -0.9145  -0.8930  -0.7984  -0.7615  -0.7241  -0.6925
 -0.6611  -0.6172  -0.5832  -0.5795  -0.5755  -0.5699  -0.5512  -0.5337
 -0.5258  -0.5183  -0.5084  -0.4958  -0.4830  -0.4679  -0.4568  -0.3533
 -0.3428  -0.3413  -0.2767
 -- Virtual --
  0.0644   0.1212   0.1422   0.1509   0.1618   0.1736   0.1802   0.1869
  0.1910   0.1968   0.2069   0.2252   0.2281   0.2370   0.2407   0.2462
  0.2608   0.2756   0.2965   0.3138   0.3326   0.3494   0.3599   0.3678
  0.3783   0.3850   0.3934   0.4091   0.4171   0.4227   0.4258   0.4400
  0.4460   0.4609   0.4614   0.4749   0.4797   0.4856   0.4944   0.5037
  0.5131   0.5187   0.5268   0.5364   0.5483   0.5512   0.5527   0.5629
  0.5688   0.5788   0.5922   0.6065   0.6091   0.6102   0.6164   0.6209
  0.6236   0.6320   0.6396   0.6432   0.6468   0.6521   0.6556   0.6613
  0.6795   0.6897   0.6956   0.7107   0.7184   0.7313   0.7363   0.7548
  0.7737   0.7830   0.7935   0.8093   0.8118   0.8146   0.8372   0.8455
  0.8548   0.8640   0.8734   0.8844   0.9053   0.9129   0.9327   0.9406
  0.9442   0.9634   0.9739   0.9973   1.0015   1.0171   1.0309   1.0359
  1.0472   1.0541   1.0615   1.0732   1.0743   1.0856   1.0904   1.0947
  1.1038   1.1192   1.1274   1.1492   1.1529   1.1608   1.1816   1.1962
  1.2038   1.2174   1.2254   1.2346   1.2414   1.2564   1.2646   1.2708
  1.2856   1.2909   1.2973   1.3017   1.3338   1.3423   1.3549   1.3662
  1.3701   1.3872   1.4098   1.4147   1.4317   1.4335   1.4471   1.4646
  1.4744   1.4913   1.4960   1.5061   1.5114   1.5166   1.5355   1.5414
  1.5524   1.5564   1.5689   1.5792   1.5795   1.6020   1.6073   1.6256
  1.6480   1.6566   1.6725   1.6763   1.6843   1.7155   1.7216   1.7346
  1.7477   1.7540   1.7730   1.7831   1.7962   1.8111   1.8300   1.8400
  1.8719   1.8977   1.9145   1.9299   1.9520   1.9633   1.9737   1.9863
  2.0073   2.0460   2.0541   2.0802   2.1248   2.1370   2.1397   2.1728
  2.1777   2.1871   2.2073   2.2275   2.2413   2.2624   2.2634   2.2725
  2.2830   2.2950   2.3145   2.3666   2.3975   2.4080   2.4280   2.4464
  2.4771   2.4897   2.5097   2.5279   2.5411   2.5683   2.5852   2.6157
  2.6199   2.6317   2.6467   2.6574   2.6752   2.6983   2.7152   2.7217
  2.7329   2.7502   2.7562   2.7583   2.7731   2.7783   2.7856   2.7970
  2.8173   2.8353   2.8381   2.8618   2.8734   2.8919   2.9058   2.9455
  2.9497   2.9708   2.9774   2.9897   2.9932   3.0116   3.0306   3.0402
  3.0449   3.0798   3.0952   3.1082   3.1133   3.1222   3.1227   3.1336
  3.1409   3.1549   3.1678   3.1697   3.1856   3.1970   3.2028   3.2160
  3.2441   3.2540   3.2663   3.2690   3.2768   3.2849   3.2902   3.3078
  3.3157   3.3191   3.3248   3.3443   3.3481   3.3642   3.3722   3.3737
  3.3841   3.3928   3.3985   3.4114   3.4162   3.4247   3.4381   3.4448
  3.4505   3.4523   3.4716   3.4843   3.4894   3.5111   3.5166   3.5179
  3.5271   3.5369   3.5478   3.5523   3.5562   3.5623   3.5837   3.5985
  3.6061   3.6221   3.6291   3.6364   3.6488   3.6529   3.6685   3.6777
  3.6863   3.6980   3.7020   3.7174   3.7263   3.7382   3.7456   3.7597
  3.7650   3.7789   3.7856   3.7903   3.8046   3.8091   3.8161   3.8453
  3.8554   3.8625   3.8912   3.8998   3.9188   3.9251   3.9402   3.9526
  3.9650   3.9763   3.9873   3.9992   4.0130   4.0190   4.0353   4.0450
  4.0561   4.0762   4.0829   4.0980   4.1204   4.1299   4.1482   4.1490
  4.1735   4.1779   4.1930   4.1946   4.2010   4.2179   4.2205   4.2444
  4.2500   4.2700   4.2813   4.2886   4.3003   4.3052   4.3177   4.3332
  4.3546   4.3581   4.3598   4.3656   4.4011   4.4071   4.4121   4.4218
  4.4342   4.4373   4.4663   4.4786   4.4921   4.5120   4.5385   4.5514
  4.5927   4.6017   4.6224   4.6317   4.6377   4.6472   4.6618   4.6916
  4.7064   4.7226   4.7318   4.7512   4.7624   4.7830   4.8006   4.8386
  4.8687   4.8802   4.8976   4.9195   4.9255   4.9413   4.9635   5.0565
  5.0770   5.0989   5.1083   5.1556   5.1654   5.1709   5.1962   5.2186
  5.2693   5.2828   5.2877   5.3092   5.3173   5.3663   5.3949   5.4037
  5.4078   5.4489   5.4630   5.4661   5.5196   5.5302   5.5442   5.5582
  5.5674   5.5847   5.6188   5.6237   5.6292   5.6915   5.7051   5.7160
  5.7822   5.8242   5.8857   5.9803   6.0175   6.0498   6.1205   6.2273
  6.2289   6.2338   6.2718   6.2925   6.3296   6.4297   6.5097   8.8302
  9.7711  11.5331  12.0624  12.8652  13.0294  13.7638  13.8619  14.2117
 14.4108
 --------------------------------------------------------------
 
          Ground-State Mulliken Net Atomic Charges

     Atom                 Charge (a.u.)
  ----------------------------------------
      1 C                    -0.219927
      2 C                    -0.247062
      3 C                     0.031406
      4 H                     0.184275
      5 C                    -0.014318
      6 S                     0.020435
      7 C                    -0.299482
      8 H                     0.110679
      9 H                     0.110731
     10 H                     0.113130
     11 H                     0.204025
     12 C                     0.018915
     13 C                    -0.308011
     14 C                     0.058363
     15 H                     0.189358
     16 C                    -0.241328
     17 S                     0.037720
     18 C                    -0.267900
     19 H                     0.103385
     20 H                     0.108226
     21 H                     0.108844
     22 H                     0.198535
  ----------------------------------------
  Sum of atomic charges =     0.000000

 -----------------------------------------------------------------
                    Cartesian Multipole Moments
 -----------------------------------------------------------------
    Charge (ESU x 10^10)
                -0.0000
    Dipole Moment (Debye)
         X       0.1340      Y       0.4595      Z       0.3616
       Tot       0.5999
    Quadrupole Moments (Debye-Ang)
        XX     -87.1801     XY       6.4491     YY     -71.8993
        XZ       3.8017     YZ       2.7313     ZZ     -82.6796
    Octopole Moments (Debye-Ang^2)
       XXX     -97.4538    XXY      58.4312    XYY     -16.0228
       YYY     114.2907    XXZ      -1.7128    XYZ     -13.0902
       YYZ      -0.2832    XZZ     -30.1222    YZZ      53.9507
       ZZZ       5.8798
    Hexadecapole Moments (Debye-Ang^3)
      XXXX    -604.2096   XXXY    -201.5457   XXYY    -540.3102
      XYYY    -194.7008   YYYY   -2403.9727   XXXZ    -187.6309
      XXYZ     -29.1982   XYYZ     -19.0878   YYYZ    -122.1838
      XXZZ    -241.7854   XYZZ     -55.3680   YYZZ    -575.8822
      XZZZ    -185.3602   YZZZ     -83.8572   ZZZZ    -863.2259
 -----------------------------------------------------------------
 Total job time:  47.28s(wall), 1698.79s(cpu) 
 Wed Dec 13 16:19:15 2023

        *************************************************************
        *                                                           *
        *  Thank you very much for using Q-Chem.  Have a nice day.  *
        *                                                           *
        *************************************************************


0 sent ACK to 0 
now end server 0 ... 
cleanup process ... done
remove work dirs ./qchem2236648.0 -- ./qchem2236648.0
rm -rf ./qchem2236648.0
rm -rf ./qchem2236648
