You are running Q-Chem version: 5.4.0

#
# job setting
#
local host:  exp-1-10
current dir: /home/rramji/project-csd799/aromodel/p3ht-qchem/rotation-run
input file:  Methylthiophene_Phi_0_Theta_340_Methylthiophene.qcin
output file: 
nprocs     : 1
nthreads   : 64
#
# qchem installation setting
#
QC:          /cm/shared/apps/spack/cpu/opt/spack/linux-centos8-zen2/gcc-10.2.0/qchem-5.4-akfmr7b3t57bfs6qan3padb2wnb2i7cl
QCAUX:       /cm/shared/apps/spack/cpu/opt/spack/linux-centos8-zen2/gcc-10.2.0/qchem-5.4-akfmr7b3t57bfs6qan3padb2wnb2i7cl/qcaux
QCPROG:      /cm/shared/apps/spack/cpu/opt/spack/linux-centos8-zen2/gcc-10.2.0/qchem-5.4-akfmr7b3t57bfs6qan3padb2wnb2i7cl/exe/qcprog.exe
QCPROG_S:    /cm/shared/apps/spack/cpu/opt/spack/linux-centos8-zen2/gcc-10.2.0/qchem-5.4-akfmr7b3t57bfs6qan3padb2wnb2i7cl/exe/qcprog.exe_s
PARALLEL:    -DPARALLEL
QCMPI:       mpich
#
# qchem directory setting
#
qcrun:       qchem1480639
QCSCRATCH:   .
QCLOCALSCR:  
QCTMPDIR:    .
QCFILEPREF:  ./qchem1480639
QCSAVEDIR:   
workdirs:    ./qchem1480639
workdir0:    ./qchem1480639
partmpdirs =  
#
# parallel setting
#
QCRSH:           ssh
QCMPI:           mpich
QCMPIRUN:        /cm/shared/apps/spack/cpu/opt/spack/linux-centos8-zen2/gcc-10.2.0/qchem-5.4-akfmr7b3t57bfs6qan3padb2wnb2i7cl/bin/mpi/mpirun_qchem
QCMACHINEFILE:   ./qchem1480639/hostfile
exp-1-10

#
# env setting
#
exported envs:   QC QCAUX QCSCRATCH QCRUNNAME QCFILEPREF QCPROG QCPROG_S GUIFILE

Running Job 1 of 1 Methylthiophene_Phi_0_Theta_340_Methylthiophene.qcin
qchem Methylthiophene_Phi_0_Theta_340_Methylthiophene.qcin_1480639.0 ./qchem1480639/ 1
/cm/shared/apps/spack/cpu/opt/spack/linux-centos8-zen2/gcc-10.2.0/qchem-5.4-akfmr7b3t57bfs6qan3padb2wnb2i7cl/bin/mpi/mpirun_qchem -machinefile ./qchem1480639/hostfile -np 1 /cm/shared/apps/spack/cpu/opt/spack/linux-centos8-zen2/gcc-10.2.0/qchem-5.4-akfmr7b3t57bfs6qan3padb2wnb2i7cl/exe/qcprog.exe Methylthiophene_Phi_0_Theta_340_Methylthiophene.qcin_1480639.0 ./qchem1480639/

Process 0 of 1 is on exp-1-10 - thread support 0
initial socket setup ...start
initial socket setup ...done 
now start server 0 ... 
                  Welcome to Q-Chem
     A Quantum Leap Into The Future Of Chemistry


 Q-Chem 5.4, Q-Chem, Inc., Pleasanton, CA (2021)

 License issued to: University of California, San Diego (site)

 E. Epifanovsky,  A. T. B. Gilbert,  Xintian Feng,  Joonho Lee,  Yuezhi Mao,  
 N. Mardirossian,  P. Pokhilko,  A. White,  M. Wormit,  M. P. Coons,  
 A. L. Dempwolff,  Zhengting Gan,  D. Hait,  P. R. Horn,  L. D. Jacobson,  
 I. Kaliman,  J. Kussmann,  A. W. Lange,  Ka Un Lao,  D. S. Levine,  Jie Liu,  
 S. C. McKenzie,  A. F. Morrison,  K. Nanda,  F. Plasser,  D. R. Rehn,  
 M. L. Vidal,  Zhi-Qiang You,  Ying Zhu,  B. Alam,  B. Albrecht,  
 A. Aldossary,  E. Alguire,  J. H. Andersen,  D. Barton,  K. Begam,  A. Behn,  
 Y. A. Bernard,  E. J. Berquist,  H. Burton,  A. Carreras,  K. Carter-Fenk,  
 R. Chakraborty,  A. D. Chien,  K. D. Closser,  V. Cofer-Shabica,  
 S. Dasgupta,  Jia Deng,  M. de Wergifosse,  M. Diedenhofen,  Hainam Do,  
 S. Ehlert,  Po-Tung Fang,  S. Fatehi,  Qingguo Feng,  J. Gayvert,  
 Qinghui Ge,  G. Gidofalvi,  M. Goldey,  J. Gomes,  C. Gonzalez-Espinoza,  
 S. Gulania,  A. Gunina,  M. W. D. Hanson-Heine,  P. H. P. Harbach,  
 A. W. Hauser,  M. F. Herbst,  M. Hernandez Vera,  M. Hodecker,  
 Z. C. Holden,  S. Houck,  Xunkun Huang,  Kerwin Hui,  B. C. Huynh,  
 M. Ivanov,  Hyunjun Ji,  Hanjie Jiang,  B. Kaduk,  S. Kaehler,  
 K. Khistyaev,  Jaehoon Kim,  P. Klunzinger,  Z. Koczor-Benda,  
 Joong Hoon Koh,  D. Kosenkov,  L. Koulias,  T. Kowalczyk,  C. M. Krauter,  
 K. Kue,  A. Kunitsa,  T. Kus,  A. Landau,  K. V. Lawler,  D. Lefrancois,  
 S. Lehtola,  Rain Li,  Yi-Pei Li,  Jiashu Liang,  M. Liebenthal,  
 Hung-Hsuan Lin,  You-Sheng Lin,  Fenglai Liu,  Kuan-Yu Liu,  
 M. Loipersberger,  A. Luenser,  A. Manjanath,  P. Manohar,  E. Mansoor,  
 S. F. Manzer,  Shan-Ping Mao,  A. V. Marenich,  T. Markovich,  S. Mason,  
 S. A. Maurer,  P. F. McLaughlin,  M. F. S. J. Menger,  J.-M. Mewes,  
 S. A. Mewes,  P. Morgante,  J. W. Mullinax,  T. S. Nguyen-Beck,  
 K. J. Oosterbaan,  G. Paran,  Alexander C. Paul,  Suranjan K. Paul,  
 F. Pavosevic,  Zheng Pei,  S. Prager,  E. I. Proynov,  E. Ramos,  B. Rana,  
 A. E. Rask,  A. Rettig,  R. M. Richard,  F. Rob,  E. Rossomme,  T. Scheele,  
 M. Scheurer,  M. Schneider,  N. Sergueev,  S. M. Sharada,  W. Skomorowski,  
 D. W. Small,  C. J. Stein,  Yu-Chuan Su,  E. J. Sundstrom,  Zhen Tao,  
 J. Thirman,  T. Tsuchimochi,  N. M. Tubman,  S. P. Veccham,  O. Vydrov,  
 J. Wenzel,  J. Witte,  A. Yamada,  Kun Yao,  S. Yeganeh,  S. R. Yost,  
 A. Zech,  Igor Ying Zhang,  Xing Zhang,  Yu Zhang,  D. Zuev,  
 A. Aspuru-Guzik,  A. T. Bell,  N. A. Besley,  K. B. Bravaya,  B. R. Brooks,  
 D. Casanova,  Jeng-Da Chai,  S. Coriani,  C. J. Cramer,  
 A. E. DePrince, III,  R. A. DiStasio Jr.,  A. Dreuw,  B. D. Dunietz,  
 T. R. Furlani,  W. A. Goddard III,  S. Grimme,  S. Hammes-Schiffer,  
 T. Head-Gordon,  W. J. Hehre,  Chao-Ping Hsu,  T.-C. Jagau,  Yousung Jung,  
 A. Klamt,  Jing Kong,  D. S. Lambrecht,  WanZhen Liang,  N. J. Mayhall,  
 C. W. McCurdy,  J. B. Neaton,  C. Ochsenfeld,  J. A. Parkhill,  R. Peverati,  
 V. A. Rassolov,  Yihan Shao,  L. V. Slipchenko,  T. Stauch,  R. P. Steele,  
 J. E. Subotnik,  A. J. W. Thom,  A. Tkatchenko,  D. G. Truhlar,  
 T. Van Voorhis,  T. A. Wesolowski,  K. B. Whaley,  H. L. Woodcock III,  
 P. M. Zimmerman,  S. Faraji,  P. M. W. Gill,  M. Head-Gordon,  
 J. M. Herbert,  A. I. Krylov

 Contributors to earlier versions of Q-Chem not listed above: 
 R. D. Adamson,  B. Austin,  R. Baer,  J. Baker,  G. J. O. Beran,  
 K. Brandhorst,  S. T. Brown,  E. F. C. Byrd,  A. K. Chakraborty,  
 G. K. L. Chan,  Chun-Min Chang,  Yunqing Chen,  C.-L. Cheng,  
 Siu Hung Chien,  D. M. Chipman,  D. L. Crittenden,  H. Dachsel,  
 R. J. Doerksen,  A. D. Dutoi,  R. G. Edgar,  J. Fosso-Tande,  
 L. Fusti-Molnar,  D. Ghosh,  A. Ghysels,  A. Golubeva-Zadorozhnaya,  
 J. Gonthier,  M. S. Gordon,  S. R. Gwaltney,  G. Hawkins,  J. E. Herr,  
 A. Heyden,  S. Hirata,  E. G. Hohenstein,  G. Kedziora,  F. J. Keil,  
 C. Kelley,  Jihan Kim,  R. A. King,  R. Z. Khaliullin,  P. P. Korambath,  
 W. Kurlancheek,  A. Laurent,  A. M. Lee,  M. S. Lee,  S. V. Levchenko,  
 Ching Yeh Lin,  D. Liotard,  E. Livshits,  R. C. Lochan,  I. Lotan,  
 L. A. Martinez-Martinez,  P. E. Maslen,  N. Nair,  D. P. O'Neill,  
 D. Neuhauser,  E. Neuscamman,  C. M. Oana,  R. Olivares-Amaya,  R. Olson,  
 T. M. Perrine,  B. Peters,  P. A. Pieniazek,  A. Prociuk,  Y. M. Rhee,  
 J. Ritchie,  M. A. Rohrdanz,  E. Rosta,  N. J. Russ,  H. F. Schaefer III,  
 M. W. Schmidt,  N. E. Schultz,  S. Sharma,  N. Shenvi,  C. D. Sherrill,  
 A. C. Simmonett,  A. Sodt,  T. Stein,  D. Stuck,  K. S. Thanthiriwatte,  
 V. Vanovschi,  L. Vogt,  Tao Wang,  A. Warshel,  M. A. Watson,  
 C. F. Williams,  Q. Wu,  X. Xu,  Jun Yang,  W. Zhang,  Yan Zhao

 Please cite Q-Chem as follows:
 Y. Shao et al., Mol. Phys. 113, 184-215 (2015)
 DOI: 10.1080/00268976.2014.952696

 Q-Chem 5.4.0 for Intel X86 EM64T Linux

 Parts of Q-Chem use Armadillo 9.800.1 (Horizon Scraper).
 http://arma.sourceforge.net/

 Q-Chem begins on Wed Dec 13 16:23:26 2023  

 Host: 
0

     Scratch files written to ./qchem1480639//
 May1621 |scratch|qcdevops|jenkins|workspace|build_RNUM    
 Parallel job on  1  processors
 Processing $rem in /cm/shared/apps/spack/cpu/opt/spack/linux-centos8-zen2/gcc-10.2.0/qchem-5.4-akfmr7b3t57bfs6qan3padb2wnb2i7cl/config/preferences:
 Processing $rem in /home/rramji/.qchemrc:
 Symmetry turned off for PCM/SM12/SMD calculation
 Core orbitals will be frozen

 Checking the input file for inconsistencies... 	...done.

 Q-Chem warning in module forms1/BasisType.C, line 2236:

 You are not using the predefined 5D/6D in this basis set.


--------------------------------------------------------------
User input:
--------------------------------------------------------------
$molecule
0 1
C	0.246754	-3.887800	0.681143
C	-0.227093	-3.701456	-0.620906
C	-0.371543	-2.345170	-1.019618
H	-0.468992	-4.545233	-1.284357
C	0.000000	-1.450135	0.000000
S	0.522097	-2.321334	1.435522
C	-0.866035	-1.934439	-2.378731
H	-1.093799	-2.819799	-3.003272
H	-0.114688	-1.326210	-2.924444
H	-1.791841	-1.325374	-2.313987
H	0.445911	-4.815326	1.229547
C	0.000000	0.000000	0.000000
C	-0.003081	0.844605	1.113020
C	-0.007772	2.235575	0.820578
H	-0.001743	0.456510	2.142881
C	-0.008427	2.483726	-0.563588
S	-0.003691	0.970607	-1.464748
C	-0.011355	3.300181	1.882380
H	-0.009922	2.852233	2.894974
H	-0.905944	3.953225	1.808137
H	0.878901	3.959133	1.808230
H	-0.011727	3.441752	-1.097114
$end

$rem
JOBTYPE		SP
EXCHANGE	HF
CORRELATION	pRIMP2
BASIS		cc-pvtz
METHOD		rimp2
AUX_BASIS	rimp2-cc-pvtz
SOLVENT_METHOD	PCM
PURECART	11111
SYMMETRY	false
MEM_TOTAL	110000
SCF_CONVERGENCE = 6
THRESH=10
GUI = 2
$end



$solvent
dielectric 4.90
$end
--------------------------------------------------------------
 ----------------------------------------------------------------
             Standard Nuclear Orientation (Angstroms)
    I     Atom           X                Y                Z
 ----------------------------------------------------------------
    1      C       0.2467540000    -3.8878000000     0.6811430000
    2      C      -0.2270930000    -3.7014560000    -0.6209060000
    3      C      -0.3715430000    -2.3451700000    -1.0196180000
    4      H      -0.4689920000    -4.5452330000    -1.2843570000
    5      C       0.0000000000    -1.4501350000     0.0000000000
    6      S       0.5220970000    -2.3213340000     1.4355220000
    7      C      -0.8660350000    -1.9344390000    -2.3787310000
    8      H      -1.0937990000    -2.8197990000    -3.0032720000
    9      H      -0.1146880000    -1.3262100000    -2.9244440000
   10      H      -1.7918410000    -1.3253740000    -2.3139870000
   11      H       0.4459110000    -4.8153260000     1.2295470000
   12      C       0.0000000000     0.0000000000     0.0000000000
   13      C      -0.0030810000     0.8446050000     1.1130200000
   14      C      -0.0077720000     2.2355750000     0.8205780000
   15      H      -0.0017430000     0.4565100000     2.1428810000
   16      C      -0.0084270000     2.4837260000    -0.5635880000
   17      S      -0.0036910000     0.9706070000    -1.4647480000
   18      C      -0.0113550000     3.3001810000     1.8823800000
   19      H      -0.0099220000     2.8522330000     2.8949740000
   20      H      -0.9059440000     3.9532250000     1.8081370000
   21      H       0.8789010000     3.9591330000     1.8082300000
   22      H      -0.0117270000     3.4417520000    -1.0971140000
 ----------------------------------------------------------------
 Nuclear Repulsion Energy =         836.30194900 hartrees
 There are       51 alpha and       51 beta electrons
 Requested basis set is cc-pVTZ
 There are 184 shells and 508 basis functions

 Total QAlloc Memory Limit 110000 MB
 Mega-Array Size       188 MB
 MEM_STATIC part       192 MB
 Discretize the solute cavity surface with Lebedev spheres
	Using 110 Lebedev grid points for each H atom
	Using 194 Lebedev grid points for other atoms
	Atomic van der Waals radii will be scaled by 1.20
 Remove points where switching function is < 1.0e-08
 Keep 1530 surface tesserae and discard 1898 interior tesserae
 Molecular Surface Area = 230.579 Angst**2
 Requested basis set is rimp2-cc-pVTZ
 There are 394 shells and 1354 basis functions
 A cutoff of  1.0D-10 yielded  12148 shell pairs
 There are     90190 function pairs (    116403 Cartesian)
 Smallest overlap matrix eigenvalue = 4.81E-05

 Scale SEOQF with 1.000000e-01/1.000000e-01/1.000000e-01

 Standard Electronic Orientation quadrupole field applied
 Nucleus-field energy     =     0.0000000216 hartrees
 Guess from superposition of atomic densities
 Warning:  Energy on first SCF cycle will be non-variational
 SAD guess density has 102.000000 electrons

 -----------------------------------------------------------------------
  General SCF calculation program by
  Eric Jon Sundstrom, Paul Horn, Yuezhi Mao, Dmitri Zuev, Alec White,
  David Stuck, Shaama M.S., Shane Yost, Joonho Lee, David Small,
  Daniel Levine, Susi Lehtola, Hugh Burton, Evgeny Epifanovsky,
  Bang C. Huynh
 -----------------------------------------------------------------------
 Hartree-Fock
 using 64 threads for integral computing
 -------------------------------------------------------
 OpenMP Integral computing Module                
 Release: version 1.0, May 2013, Q-Chem Inc. Pittsburgh 
 -------------------------------------------------------
 A restricted SCF calculation will be
 performed using DIIS
 SCF converges when DIIS error is below 1.0e-06
 ---------------------------------------
  Cycle       Energy         DIIS error
 ---------------------------------------
    1   -1184.2249891923      2.38e-02  
    2   -1179.5464154175      1.61e-03  
    3   -1179.6678191489      6.19e-04  
    4   -1179.6816678737      3.33e-04  
    5   -1179.6863594807      6.41e-05  
    6   -1179.6866333086      3.00e-05  
    7   -1179.6867178036      1.23e-05  
    8   -1179.6867447830      5.16e-06  
    9   -1179.6867495628      1.61e-06  
   10   -1179.6867499926      5.41e-07  Convergence criterion met
 ---------------------------------------
 SCF time:   CPU 1522.66s  wall 46.00s 

************** Final PCM Free Energy Summary **************
 G_electrostatic  =      -0.00779034 hartree =      -4.88850955 kcal/mol
 G_cavitation     =       0.00000000 hartree =       0.00000000 kcal/mol
 G_dispersion     =       0.00000000 hartree =       0.00000000 kcal/mol
 G_repulsion      =       0.00000000 hartree =       0.00000000 kcal/mol
 --------------------------------------------------
 Non-electrostatic Free Energy =       0.00000000 hartree =       0.00000000 kcal/mol
 Total                         =      -0.00779034 hartree =      -4.88850955 kcal/mol
 --------------------------------------------------
 SCF Energy (H0 + V/2)                       =   -1179.68674999 
 Solute Internal Energy (H0)                 =   -1179.67895966 
 Total Free Energy (H0 + V/2 + non-elec)     =   -1179.68674999 hartree
                                             = -740264.60843354 kcal/mol
***********************************************************

 SCF   energy in the final basis set =    -1179.6867499926
 Total energy in the final basis set =    -1179.6867499926


 --------------------------------------------------------------
  Generalized many-body perturbation theory program
  by Joonho Lee, Fazle Rob, Xintian Feng, Evgeny Epifanovsky

 No regularization used 
 (reg. param. = 0.0000e+00)
  (P|Q)^-1/2 Time:  CPU 34.13 s  wall 0.57 s

 In RI-MP2 calculation: 
 # of frozen core orbitals: 20

 Components of the RIMP2 correlation energy:
        aaaa    correlation energy =        -0.2528727643 a.u.
        abab    correlation energy =        -1.4739913026 a.u.
        bbbb    correlation energy =        -0.2528727643 a.u.
        non-Brillouin singles      =        -0.0000000000 a.u.
        total same-spin energy     =        -0.5057455286 a.u.
        total opposite-spin energy =        -1.4739913026 a.u.

 Total  RIMP2   correlation energy =        -1.9797368312 a.u.
        RIMP2         total energy =     -1181.6664868238 a.u.

 RI-MP2 Energy Time:  CPU 257.43 s  wall 4.62 s
 
 --------------------------------------------------------------
 
                    Orbital Energies (a.u.)
 --------------------------------------------------------------
 
 Alpha MOs
 -- Occupied --
-91.9862 -91.9855 -11.2843 -11.2785 -11.2734 -11.2624 -11.2537 -11.2520
-11.2439 -11.2391 -11.2301 -11.2289  -8.9859  -8.9851  -6.6668  -6.6663
 -6.6660  -6.6657  -6.6655  -6.6648  -1.1805  -1.1502  -1.0411  -1.0253
 -0.9985  -0.9527  -0.9147  -0.8951  -0.7997  -0.7643  -0.7200  -0.6956
 -0.6632  -0.6161  -0.5839  -0.5805  -0.5772  -0.5697  -0.5526  -0.5335
 -0.5242  -0.5202  -0.5103  -0.4972  -0.4906  -0.4681  -0.4526  -0.3672
 -0.3435  -0.3401  -0.2712
 -- Virtual --
  0.0646   0.1347   0.1437   0.1530   0.1615   0.1750   0.1804   0.1893
  0.1920   0.1985   0.2062   0.2174   0.2359   0.2374   0.2431   0.2492
  0.2640   0.2716   0.3010   0.3147   0.3424   0.3514   0.3666   0.3789
  0.3843   0.3874   0.3984   0.4086   0.4125   0.4303   0.4356   0.4487
  0.4566   0.4624   0.4681   0.4789   0.4859   0.4925   0.4993   0.5055
  0.5111   0.5279   0.5344   0.5385   0.5467   0.5492   0.5532   0.5717
  0.5833   0.5855   0.5905   0.6009   0.6076   0.6117   0.6160   0.6215
  0.6275   0.6312   0.6388   0.6434   0.6481   0.6546   0.6598   0.6638
  0.6782   0.6915   0.6992   0.7099   0.7145   0.7383   0.7482   0.7593
  0.7790   0.7934   0.7976   0.8093   0.8192   0.8386   0.8496   0.8551
  0.8652   0.8662   0.8699   0.8930   0.9058   0.9183   0.9330   0.9395
  0.9565   0.9613   0.9755   0.9949   1.0111   1.0153   1.0238   1.0271
  1.0501   1.0656   1.0677   1.0708   1.0786   1.0908   1.0966   1.0998
  1.1065   1.1177   1.1401   1.1452   1.1547   1.1630   1.1736   1.1818
  1.2027   1.2217   1.2330   1.2400   1.2484   1.2536   1.2578   1.2693
  1.2805   1.2932   1.3007   1.3259   1.3316   1.3470   1.3559   1.3657
  1.3748   1.3921   1.4101   1.4158   1.4229   1.4292   1.4431   1.4626
  1.4838   1.4862   1.5022   1.5140   1.5182   1.5346   1.5391   1.5483
  1.5563   1.5615   1.5650   1.5732   1.5811   1.5984   1.6178   1.6185
  1.6567   1.6650   1.6745   1.6866   1.6959   1.7035   1.7183   1.7295
  1.7501   1.7826   1.7853   1.7960   1.8098   1.8251   1.8486   1.8554
  1.8795   1.9050   1.9121   1.9170   1.9296   1.9565   1.9797   1.9885
  2.0020   2.0409   2.0616   2.0678   2.1210   2.1487   2.1537   2.1753
  2.1880   2.2004   2.2094   2.2511   2.2542   2.2614   2.2798   2.2938
  2.3086   2.3124   2.3382   2.3689   2.4085   2.4118   2.4336   2.4512
  2.4684   2.4871   2.5217   2.5232   2.5513   2.5717   2.5998   2.6142
  2.6194   2.6496   2.6623   2.6817   2.6862   2.7053   2.7142   2.7180
  2.7338   2.7379   2.7419   2.7533   2.7663   2.7728   2.7859   2.8109
  2.8202   2.8300   2.8507   2.8561   2.8747   2.8967   2.9210   2.9300
  2.9424   2.9633   2.9808   2.9896   3.0031   3.0163   3.0266   3.0395
  3.0522   3.0616   3.0812   3.0925   3.1121   3.1200   3.1402   3.1429
  3.1473   3.1510   3.1545   3.1697   3.1971   3.2009   3.2099   3.2283
  3.2319   3.2391   3.2597   3.2684   3.2754   3.2829   3.3032   3.3104
  3.3147   3.3306   3.3348   3.3423   3.3547   3.3601   3.3647   3.3739
  3.3839   3.3862   3.4059   3.4098   3.4202   3.4298   3.4328   3.4458
  3.4473   3.4568   3.4744   3.4769   3.4817   3.4951   3.5169   3.5227
  3.5234   3.5303   3.5369   3.5440   3.5521   3.5624   3.5737   3.5913
  3.5933   3.6112   3.6227   3.6288   3.6314   3.6522   3.6552   3.6612
  3.6776   3.6901   3.6981   3.7141   3.7283   3.7323   3.7400   3.7533
  3.7587   3.7635   3.7848   3.7952   3.8087   3.8095   3.8219   3.8378
  3.8541   3.8854   3.8931   3.9171   3.9209   3.9305   3.9366   3.9509
  3.9672   3.9918   3.9983   4.0053   4.0121   4.0219   4.0253   4.0461
  4.0614   4.0811   4.0897   4.0991   4.1118   4.1415   4.1465   4.1500
  4.1596   4.1742   4.1924   4.1948   4.1994   4.2138   4.2181   4.2295
  4.2439   4.2635   4.2837   4.2892   4.2962   4.3226   4.3307   4.3327
  4.3513   4.3576   4.3735   4.3796   4.3921   4.4011   4.4109   4.4329
  4.4364   4.4520   4.4665   4.4797   4.4985   4.5381   4.5477   4.5650
  4.5999   4.6113   4.6221   4.6296   4.6353   4.6392   4.6656   4.6852
  4.7072   4.7261   4.7408   4.7491   4.7667   4.7762   4.8195   4.8459
  4.8585   4.8703   4.8891   4.9270   4.9509   4.9597   5.0312   5.0534
  5.0829   5.1004   5.1131   5.1547   5.1800   5.1993   5.2092   5.2579
  5.2791   5.2844   5.3054   5.3134   5.3328   5.3725   5.3936   5.4041
  5.4135   5.4361   5.4641   5.4710   5.5257   5.5386   5.5483   5.5585
  5.5685   5.5749   5.6190   5.6221   5.6297   5.6970   5.7105   5.7194
  5.7981   5.8401   5.9298   5.9953   6.0523   6.1420   6.1769   6.2259
  6.2383   6.2546   6.2960   6.3153   6.3438   6.4665   6.5310   8.8558
  9.9448  11.5026  11.9986  12.9720  13.2184  13.7385  14.0252  14.2281
 14.4479
 --------------------------------------------------------------
 
          Ground-State Mulliken Net Atomic Charges

     Atom                 Charge (a.u.)
  ----------------------------------------
      1 C                    -0.211769
      2 C                    -0.253892
      3 C                     0.046888
      4 H                     0.185810
      5 C                    -0.027533
      6 S                     0.013510
      7 C                    -0.316992
      8 H                     0.115398
      9 H                     0.111822
     10 H                     0.120753
     11 H                     0.206579
     12 C                     0.052700
     13 C                    -0.266443
     14 C                     0.028974
     15 H                     0.178441
     16 C                    -0.252946
     17 S                     0.021023
     18 C                    -0.271549
     19 H                     0.103045
     20 H                     0.108294
     21 H                     0.108662
     22 H                     0.199227
  ----------------------------------------
  Sum of atomic charges =     0.000000

 -----------------------------------------------------------------
                    Cartesian Multipole Moments
 -----------------------------------------------------------------
    Charge (ESU x 10^10)
                -0.0000
    Dipole Moment (Debye)
         X      -0.5529      Y       0.0481      Z      -0.0569
       Tot       0.5579
    Quadrupole Moments (Debye-Ang)
        XX     -91.9927     XY       0.7779     YY     -68.5419
        XZ       2.2382     YZ       3.3500     ZZ     -80.6026
    Octopole Moments (Debye-Ang^2)
       XXX       3.8422    XXY      45.7026    XYY       2.1202
       YYY      92.3267    XXZ      -0.1556    XYZ      -8.0571
       YYZ       1.0056    XZZ       0.0655    YZZ      37.4483
       ZZZ       4.8188
    Hexadecapole Moments (Debye-Ang^3)
      XXXX    -194.8185   XXXY       1.7160   XXYY    -569.7025
      XYYY     -11.0500   YYYY   -2573.1526   XXXZ     -91.2757
      XXYZ     -31.4082   XYYZ       3.4026   YYYZ    -147.4643
      XXZZ    -211.6402   XYZZ       3.6935   YYZZ    -605.2234
      XZZZ     -83.7810   YZZZ     -93.8379   ZZZZ   -1019.5526
 -----------------------------------------------------------------
 Total job time:  55.28s(wall), 1998.84s(cpu) 
 Wed Dec 13 16:24:22 2023

        *************************************************************
        *                                                           *
        *  Thank you very much for using Q-Chem.  Have a nice day.  *
        *                                                           *
        *************************************************************


0 sent ACK to 0 
now end server 0 ... 
cleanup process ... done
remove work dirs ./qchem1480639.0 -- ./qchem1480639.0
rm -rf ./qchem1480639.0
rm -rf ./qchem1480639
