You are running Q-Chem version: 5.4.0

#
# job setting
#
local host:  exp-1-10
current dir: /home/rramji/project-csd799/aromodel/p3ht-qchem/rotation-run
input file:  Methylthiophene_Phi_0_Theta_30_Methylthiophene.qcin
output file: 
nprocs     : 1
nthreads   : 64
#
# qchem installation setting
#
QC:          /cm/shared/apps/spack/cpu/opt/spack/linux-centos8-zen2/gcc-10.2.0/qchem-5.4-akfmr7b3t57bfs6qan3padb2wnb2i7cl
QCAUX:       /cm/shared/apps/spack/cpu/opt/spack/linux-centos8-zen2/gcc-10.2.0/qchem-5.4-akfmr7b3t57bfs6qan3padb2wnb2i7cl/qcaux
QCPROG:      /cm/shared/apps/spack/cpu/opt/spack/linux-centos8-zen2/gcc-10.2.0/qchem-5.4-akfmr7b3t57bfs6qan3padb2wnb2i7cl/exe/qcprog.exe
QCPROG_S:    /cm/shared/apps/spack/cpu/opt/spack/linux-centos8-zen2/gcc-10.2.0/qchem-5.4-akfmr7b3t57bfs6qan3padb2wnb2i7cl/exe/qcprog.exe_s
PARALLEL:    -DPARALLEL
QCMPI:       mpich
#
# qchem directory setting
#
qcrun:       qchem1455246
QCSCRATCH:   .
QCLOCALSCR:  
QCTMPDIR:    .
QCFILEPREF:  ./qchem1455246
QCSAVEDIR:   
workdirs:    ./qchem1455246
workdir0:    ./qchem1455246
partmpdirs =  
#
# parallel setting
#
QCRSH:           ssh
QCMPI:           mpich
QCMPIRUN:        /cm/shared/apps/spack/cpu/opt/spack/linux-centos8-zen2/gcc-10.2.0/qchem-5.4-akfmr7b3t57bfs6qan3padb2wnb2i7cl/bin/mpi/mpirun_qchem
QCMACHINEFILE:   ./qchem1455246/hostfile
exp-1-10

#
# env setting
#
exported envs:   QC QCAUX QCSCRATCH QCRUNNAME QCFILEPREF QCPROG QCPROG_S GUIFILE

Running Job 1 of 1 Methylthiophene_Phi_0_Theta_30_Methylthiophene.qcin
qchem Methylthiophene_Phi_0_Theta_30_Methylthiophene.qcin_1455246.0 ./qchem1455246/ 1
/cm/shared/apps/spack/cpu/opt/spack/linux-centos8-zen2/gcc-10.2.0/qchem-5.4-akfmr7b3t57bfs6qan3padb2wnb2i7cl/bin/mpi/mpirun_qchem -machinefile ./qchem1455246/hostfile -np 1 /cm/shared/apps/spack/cpu/opt/spack/linux-centos8-zen2/gcc-10.2.0/qchem-5.4-akfmr7b3t57bfs6qan3padb2wnb2i7cl/exe/qcprog.exe Methylthiophene_Phi_0_Theta_30_Methylthiophene.qcin_1455246.0 ./qchem1455246/

Process 0 of 1 is on exp-1-10 - thread support 0
initial socket setup ...start
initial socket setup ...done 
now start server 0 ... 
                  Welcome to Q-Chem
     A Quantum Leap Into The Future Of Chemistry


 Q-Chem 5.4, Q-Chem, Inc., Pleasanton, CA (2021)

 License issued to: University of California, San Diego (site)

 E. Epifanovsky,  A. T. B. Gilbert,  Xintian Feng,  Joonho Lee,  Yuezhi Mao,  
 N. Mardirossian,  P. Pokhilko,  A. White,  M. Wormit,  M. P. Coons,  
 A. L. Dempwolff,  Zhengting Gan,  D. Hait,  P. R. Horn,  L. D. Jacobson,  
 I. Kaliman,  J. Kussmann,  A. W. Lange,  Ka Un Lao,  D. S. Levine,  Jie Liu,  
 S. C. McKenzie,  A. F. Morrison,  K. Nanda,  F. Plasser,  D. R. Rehn,  
 M. L. Vidal,  Zhi-Qiang You,  Ying Zhu,  B. Alam,  B. Albrecht,  
 A. Aldossary,  E. Alguire,  J. H. Andersen,  D. Barton,  K. Begam,  A. Behn,  
 Y. A. Bernard,  E. J. Berquist,  H. Burton,  A. Carreras,  K. Carter-Fenk,  
 R. Chakraborty,  A. D. Chien,  K. D. Closser,  V. Cofer-Shabica,  
 S. Dasgupta,  Jia Deng,  M. de Wergifosse,  M. Diedenhofen,  Hainam Do,  
 S. Ehlert,  Po-Tung Fang,  S. Fatehi,  Qingguo Feng,  J. Gayvert,  
 Qinghui Ge,  G. Gidofalvi,  M. Goldey,  J. Gomes,  C. Gonzalez-Espinoza,  
 S. Gulania,  A. Gunina,  M. W. D. Hanson-Heine,  P. H. P. Harbach,  
 A. W. Hauser,  M. F. Herbst,  M. Hernandez Vera,  M. Hodecker,  
 Z. C. Holden,  S. Houck,  Xunkun Huang,  Kerwin Hui,  B. C. Huynh,  
 M. Ivanov,  Hyunjun Ji,  Hanjie Jiang,  B. Kaduk,  S. Kaehler,  
 K. Khistyaev,  Jaehoon Kim,  P. Klunzinger,  Z. Koczor-Benda,  
 Joong Hoon Koh,  D. Kosenkov,  L. Koulias,  T. Kowalczyk,  C. M. Krauter,  
 K. Kue,  A. Kunitsa,  T. Kus,  A. Landau,  K. V. Lawler,  D. Lefrancois,  
 S. Lehtola,  Rain Li,  Yi-Pei Li,  Jiashu Liang,  M. Liebenthal,  
 Hung-Hsuan Lin,  You-Sheng Lin,  Fenglai Liu,  Kuan-Yu Liu,  
 M. Loipersberger,  A. Luenser,  A. Manjanath,  P. Manohar,  E. Mansoor,  
 S. F. Manzer,  Shan-Ping Mao,  A. V. Marenich,  T. Markovich,  S. Mason,  
 S. A. Maurer,  P. F. McLaughlin,  M. F. S. J. Menger,  J.-M. Mewes,  
 S. A. Mewes,  P. Morgante,  J. W. Mullinax,  T. S. Nguyen-Beck,  
 K. J. Oosterbaan,  G. Paran,  Alexander C. Paul,  Suranjan K. Paul,  
 F. Pavosevic,  Zheng Pei,  S. Prager,  E. I. Proynov,  E. Ramos,  B. Rana,  
 A. E. Rask,  A. Rettig,  R. M. Richard,  F. Rob,  E. Rossomme,  T. Scheele,  
 M. Scheurer,  M. Schneider,  N. Sergueev,  S. M. Sharada,  W. Skomorowski,  
 D. W. Small,  C. J. Stein,  Yu-Chuan Su,  E. J. Sundstrom,  Zhen Tao,  
 J. Thirman,  T. Tsuchimochi,  N. M. Tubman,  S. P. Veccham,  O. Vydrov,  
 J. Wenzel,  J. Witte,  A. Yamada,  Kun Yao,  S. Yeganeh,  S. R. Yost,  
 A. Zech,  Igor Ying Zhang,  Xing Zhang,  Yu Zhang,  D. Zuev,  
 A. Aspuru-Guzik,  A. T. Bell,  N. A. Besley,  K. B. Bravaya,  B. R. Brooks,  
 D. Casanova,  Jeng-Da Chai,  S. Coriani,  C. J. Cramer,  
 A. E. DePrince, III,  R. A. DiStasio Jr.,  A. Dreuw,  B. D. Dunietz,  
 T. R. Furlani,  W. A. Goddard III,  S. Grimme,  S. Hammes-Schiffer,  
 T. Head-Gordon,  W. J. Hehre,  Chao-Ping Hsu,  T.-C. Jagau,  Yousung Jung,  
 A. Klamt,  Jing Kong,  D. S. Lambrecht,  WanZhen Liang,  N. J. Mayhall,  
 C. W. McCurdy,  J. B. Neaton,  C. Ochsenfeld,  J. A. Parkhill,  R. Peverati,  
 V. A. Rassolov,  Yihan Shao,  L. V. Slipchenko,  T. Stauch,  R. P. Steele,  
 J. E. Subotnik,  A. J. W. Thom,  A. Tkatchenko,  D. G. Truhlar,  
 T. Van Voorhis,  T. A. Wesolowski,  K. B. Whaley,  H. L. Woodcock III,  
 P. M. Zimmerman,  S. Faraji,  P. M. W. Gill,  M. Head-Gordon,  
 J. M. Herbert,  A. I. Krylov

 Contributors to earlier versions of Q-Chem not listed above: 
 R. D. Adamson,  B. Austin,  R. Baer,  J. Baker,  G. J. O. Beran,  
 K. Brandhorst,  S. T. Brown,  E. F. C. Byrd,  A. K. Chakraborty,  
 G. K. L. Chan,  Chun-Min Chang,  Yunqing Chen,  C.-L. Cheng,  
 Siu Hung Chien,  D. M. Chipman,  D. L. Crittenden,  H. Dachsel,  
 R. J. Doerksen,  A. D. Dutoi,  R. G. Edgar,  J. Fosso-Tande,  
 L. Fusti-Molnar,  D. Ghosh,  A. Ghysels,  A. Golubeva-Zadorozhnaya,  
 J. Gonthier,  M. S. Gordon,  S. R. Gwaltney,  G. Hawkins,  J. E. Herr,  
 A. Heyden,  S. Hirata,  E. G. Hohenstein,  G. Kedziora,  F. J. Keil,  
 C. Kelley,  Jihan Kim,  R. A. King,  R. Z. Khaliullin,  P. P. Korambath,  
 W. Kurlancheek,  A. Laurent,  A. M. Lee,  M. S. Lee,  S. V. Levchenko,  
 Ching Yeh Lin,  D. Liotard,  E. Livshits,  R. C. Lochan,  I. Lotan,  
 L. A. Martinez-Martinez,  P. E. Maslen,  N. Nair,  D. P. O'Neill,  
 D. Neuhauser,  E. Neuscamman,  C. M. Oana,  R. Olivares-Amaya,  R. Olson,  
 T. M. Perrine,  B. Peters,  P. A. Pieniazek,  A. Prociuk,  Y. M. Rhee,  
 J. Ritchie,  M. A. Rohrdanz,  E. Rosta,  N. J. Russ,  H. F. Schaefer III,  
 M. W. Schmidt,  N. E. Schultz,  S. Sharma,  N. Shenvi,  C. D. Sherrill,  
 A. C. Simmonett,  A. Sodt,  T. Stein,  D. Stuck,  K. S. Thanthiriwatte,  
 V. Vanovschi,  L. Vogt,  Tao Wang,  A. Warshel,  M. A. Watson,  
 C. F. Williams,  Q. Wu,  X. Xu,  Jun Yang,  W. Zhang,  Yan Zhao

 Please cite Q-Chem as follows:
 Y. Shao et al., Mol. Phys. 113, 184-215 (2015)
 DOI: 10.1080/00268976.2014.952696

 Q-Chem 5.4.0 for Intel X86 EM64T Linux

 Parts of Q-Chem use Armadillo 9.800.1 (Horizon Scraper).
 http://arma.sourceforge.net/

 Q-Chem begins on Wed Dec 13 15:52:08 2023  

 Host: 
0

     Scratch files written to ./qchem1455246//
 May1621 |scratch|qcdevops|jenkins|workspace|build_RNUM    
 Parallel job on  1  processors
 Processing $rem in /cm/shared/apps/spack/cpu/opt/spack/linux-centos8-zen2/gcc-10.2.0/qchem-5.4-akfmr7b3t57bfs6qan3padb2wnb2i7cl/config/preferences:
 Processing $rem in /home/rramji/.qchemrc:
 Symmetry turned off for PCM/SM12/SMD calculation
 Core orbitals will be frozen

 Checking the input file for inconsistencies... 	...done.

 Q-Chem warning in module forms1/BasisType.C, line 2236:

 You are not using the predefined 5D/6D in this basis set.


--------------------------------------------------------------
User input:
--------------------------------------------------------------
$molecule
0 1
C	-0.363176	-3.887800	0.626855
C	0.329669	-3.701456	-0.573074
C	0.542250	-2.345170	-0.940016
H	0.682412	-4.545233	-1.184837
C	0.000000	-1.450135	0.000000
S	-0.764076	-2.321334	1.322686
C	1.265537	-1.934439	-2.192440
H	1.597559	-2.819799	-2.768365
H	2.166534	-1.326210	-1.967653
H	0.620843	-1.325374	-2.860032
H	-0.655262	-4.815326	1.131925
C	0.000000	0.000000	0.000000
C	-0.003081	0.844605	1.113020
C	-0.007772	2.235575	0.820578
H	-0.001743	0.456510	2.142881
C	-0.008427	2.483726	-0.563588
S	-0.003691	0.970607	-1.464748
C	-0.011355	3.300181	1.882380
H	-0.009922	2.852233	2.894974
H	-0.905944	3.953225	1.808137
H	0.878901	3.959133	1.808230
H	-0.011727	3.441752	-1.097114
$end

$rem
JOBTYPE		SP
EXCHANGE	HF
CORRELATION	pRIMP2
BASIS		cc-pvtz
METHOD		rimp2
AUX_BASIS	rimp2-cc-pvtz
SOLVENT_METHOD	PCM
PURECART	11111
SYMMETRY	false
MEM_TOTAL	110000
SCF_CONVERGENCE = 6
THRESH=10
GUI = 2
$end



$solvent
dielectric 4.90
$end
--------------------------------------------------------------
 ----------------------------------------------------------------
             Standard Nuclear Orientation (Angstroms)
    I     Atom           X                Y                Z
 ----------------------------------------------------------------
    1      C      -0.3631760000    -3.8878000000     0.6268550000
    2      C       0.3296690000    -3.7014560000    -0.5730740000
    3      C       0.5422500000    -2.3451700000    -0.9400160000
    4      H       0.6824120000    -4.5452330000    -1.1848370000
    5      C       0.0000000000    -1.4501350000     0.0000000000
    6      S      -0.7640760000    -2.3213340000     1.3226860000
    7      C       1.2655370000    -1.9344390000    -2.1924400000
    8      H       1.5975590000    -2.8197990000    -2.7683650000
    9      H       2.1665340000    -1.3262100000    -1.9676530000
   10      H       0.6208430000    -1.3253740000    -2.8600320000
   11      H      -0.6552620000    -4.8153260000     1.1319250000
   12      C       0.0000000000     0.0000000000     0.0000000000
   13      C      -0.0030810000     0.8446050000     1.1130200000
   14      C      -0.0077720000     2.2355750000     0.8205780000
   15      H      -0.0017430000     0.4565100000     2.1428810000
   16      C      -0.0084270000     2.4837260000    -0.5635880000
   17      S      -0.0036910000     0.9706070000    -1.4647480000
   18      C      -0.0113550000     3.3001810000     1.8823800000
   19      H      -0.0099220000     2.8522330000     2.8949740000
   20      H      -0.9059440000     3.9532250000     1.8081370000
   21      H       0.8789010000     3.9591330000     1.8082300000
   22      H      -0.0117270000     3.4417520000    -1.0971140000
 ----------------------------------------------------------------
 Nuclear Repulsion Energy =         835.55291239 hartrees
 There are       51 alpha and       51 beta electrons
 Requested basis set is cc-pVTZ
 There are 184 shells and 508 basis functions

 Total QAlloc Memory Limit 110000 MB
 Mega-Array Size       188 MB
 MEM_STATIC part       192 MB
 Discretize the solute cavity surface with Lebedev spheres
	Using 110 Lebedev grid points for each H atom
	Using 194 Lebedev grid points for other atoms
	Atomic van der Waals radii will be scaled by 1.20
 Remove points where switching function is < 1.0e-08
 Keep 1526 surface tesserae and discard 1902 interior tesserae
 Molecular Surface Area = 232.142 Angst**2
 Requested basis set is rimp2-cc-pVTZ
 There are 394 shells and 1354 basis functions
 A cutoff of  1.0D-10 yielded  12149 shell pairs
 There are     90229 function pairs (    116456 Cartesian)
 Smallest overlap matrix eigenvalue = 5.35E-05

 Scale SEOQF with 1.000000e-01/1.000000e-01/1.000000e-01

 Standard Electronic Orientation quadrupole field applied
 Nucleus-field energy     =     0.0000000239 hartrees
 Guess from superposition of atomic densities
 Warning:  Energy on first SCF cycle will be non-variational
 SAD guess density has 102.000000 electrons

 -----------------------------------------------------------------------
  General SCF calculation program by
  Eric Jon Sundstrom, Paul Horn, Yuezhi Mao, Dmitri Zuev, Alec White,
  David Stuck, Shaama M.S., Shane Yost, Joonho Lee, David Small,
  Daniel Levine, Susi Lehtola, Hugh Burton, Evgeny Epifanovsky,
  Bang C. Huynh
 -----------------------------------------------------------------------
 Hartree-Fock
 using 64 threads for integral computing
 -------------------------------------------------------
 OpenMP Integral computing Module                
 Release: version 1.0, May 2013, Q-Chem Inc. Pittsburgh 
 -------------------------------------------------------
 A restricted SCF calculation will be
 performed using DIIS
 SCF converges when DIIS error is below 1.0e-06
 ---------------------------------------
  Cycle       Energy         DIIS error
 ---------------------------------------
    1   -1184.2152766246      2.38e-02  
    2   -1179.5469494649      1.60e-03  
    3   -1179.6679814513      6.18e-04  
    4   -1179.6817696508      3.34e-04  
    5   -1179.6864737493      6.46e-05  
    6   -1179.6867492981      3.02e-05  
    7   -1179.6868346263      1.23e-05  
    8   -1179.6868619505      5.19e-06  
    9   -1179.6868667797      1.61e-06  
   10   -1179.6868672132      5.35e-07  Convergence criterion met
 ---------------------------------------
 SCF time:   CPU 1499.28s  wall 45.00s 

************** Final PCM Free Energy Summary **************
 G_electrostatic  =      -0.00774641 hartree =      -4.86094705 kcal/mol
 G_cavitation     =       0.00000000 hartree =       0.00000000 kcal/mol
 G_dispersion     =       0.00000000 hartree =       0.00000000 kcal/mol
 G_repulsion      =       0.00000000 hartree =       0.00000000 kcal/mol
 --------------------------------------------------
 Non-electrostatic Free Energy =       0.00000000 hartree =       0.00000000 kcal/mol
 Total                         =      -0.00774641 hartree =      -4.86094705 kcal/mol
 --------------------------------------------------
 SCF Energy (H0 + V/2)                       =   -1179.68686721 
 Solute Internal Energy (H0)                 =   -1179.67912080 
 Total Free Energy (H0 + V/2 + non-elec)     =   -1179.68686721 hartree
                                             = -740264.68199062 kcal/mol
***********************************************************

 SCF   energy in the final basis set =    -1179.6868672132
 Total energy in the final basis set =    -1179.6868672132


 --------------------------------------------------------------
  Generalized many-body perturbation theory program
  by Joonho Lee, Fazle Rob, Xintian Feng, Evgeny Epifanovsky

 No regularization used 
 (reg. param. = 0.0000e+00)
  (P|Q)^-1/2 Time:  CPU 34.62 s  wall 0.64 s

 In RI-MP2 calculation: 
 # of frozen core orbitals: 20

 Components of the RIMP2 correlation energy:
        aaaa    correlation energy =        -0.2527243105 a.u.
        abab    correlation energy =        -1.4738427425 a.u.
        bbbb    correlation energy =        -0.2527243105 a.u.
        non-Brillouin singles      =        -0.0000000000 a.u.
        total same-spin energy     =        -0.5054486210 a.u.
        total opposite-spin energy =        -1.4738427425 a.u.

 Total  RIMP2   correlation energy =        -1.9792913635 a.u.
        RIMP2         total energy =     -1181.6661585768 a.u.

 RI-MP2 Energy Time:  CPU 169.60 s  wall 3.52 s
 
 --------------------------------------------------------------
 
                    Orbital Energies (a.u.)
 --------------------------------------------------------------
 
 Alpha MOs
 -- Occupied --
-91.9864 -91.9854 -11.2835 -11.2777 -11.2730 -11.2632 -11.2532 -11.2518
-11.2436 -11.2397 -11.2296 -11.2290  -8.9860  -8.9851  -6.6669  -6.6664
 -6.6660  -6.6657  -6.6655  -6.6648  -1.1800  -1.1501  -1.0408  -1.0246
 -0.9984  -0.9528  -0.9145  -0.8945  -0.7997  -0.7631  -0.7212  -0.6952
 -0.6629  -0.6162  -0.5836  -0.5787  -0.5772  -0.5697  -0.5523  -0.5333
 -0.5250  -0.5198  -0.5096  -0.4967  -0.4898  -0.4680  -0.4545  -0.3629
 -0.3431  -0.3399  -0.2740
 -- Virtual --
  0.0666   0.1325   0.1437   0.1523   0.1613   0.1749   0.1795   0.1888
  0.1913   0.1985   0.2040   0.2185   0.2331   0.2380   0.2432   0.2463
  0.2641   0.2706   0.3036   0.3149   0.3403   0.3515   0.3625   0.3768
  0.3838   0.3855   0.3974   0.4070   0.4094   0.4273   0.4311   0.4459
  0.4543   0.4647   0.4682   0.4758   0.4807   0.4923   0.5002   0.5062
  0.5085   0.5292   0.5316   0.5385   0.5410   0.5476   0.5522   0.5691
  0.5786   0.5834   0.5869   0.5997   0.6032   0.6129   0.6170   0.6229
  0.6261   0.6315   0.6382   0.6424   0.6479   0.6536   0.6587   0.6664
  0.6810   0.6954   0.6980   0.7097   0.7147   0.7318   0.7443   0.7499
  0.7799   0.7907   0.7985   0.8094   0.8137   0.8344   0.8474   0.8533
  0.8606   0.8662   0.8737   0.8883   0.9013   0.9159   0.9316   0.9390
  0.9610   0.9653   0.9713   0.9883   1.0132   1.0173   1.0195   1.0268
  1.0442   1.0617   1.0671   1.0694   1.0757   1.0909   1.0940   1.0991
  1.1075   1.1171   1.1399   1.1476   1.1501   1.1624   1.1733   1.1830
  1.2048   1.2188   1.2329   1.2387   1.2480   1.2526   1.2597   1.2680
  1.2821   1.2878   1.3072   1.3266   1.3367   1.3423   1.3528   1.3661
  1.3706   1.3875   1.4054   1.4187   1.4236   1.4286   1.4515   1.4664
  1.4806   1.4896   1.5016   1.5088   1.5149   1.5332   1.5401   1.5476
  1.5578   1.5586   1.5638   1.5759   1.5771   1.5921   1.6159   1.6215
  1.6570   1.6616   1.6657   1.6867   1.6962   1.7013   1.7135   1.7320
  1.7466   1.7763   1.7884   1.7951   1.8036   1.8180   1.8377   1.8509
  1.8802   1.9004   1.9116   1.9264   1.9308   1.9602   1.9813   1.9862
  2.0023   2.0382   2.0550   2.0645   2.1209   2.1429   2.1527   2.1760
  2.1880   2.2011   2.2134   2.2382   2.2525   2.2600   2.2784   2.2873
  2.3039   2.3100   2.3267   2.3703   2.4062   2.4143   2.4301   2.4549
  2.4677   2.4915   2.5128   2.5271   2.5447   2.5733   2.6029   2.6138
  2.6237   2.6470   2.6552   2.6777   2.6817   2.7017   2.7112   2.7165
  2.7350   2.7389   2.7439   2.7546   2.7659   2.7693   2.7797   2.8064
  2.8222   2.8289   2.8510   2.8542   2.8746   2.9000   2.9140   2.9331
  2.9445   2.9616   2.9723   2.9868   2.9964   3.0141   3.0203   3.0367
  3.0488   3.0676   3.0777   3.0968   3.1122   3.1213   3.1371   3.1426
  3.1464   3.1483   3.1526   3.1682   3.1952   3.1992   3.2108   3.2264
  3.2370   3.2453   3.2595   3.2690   3.2773   3.2829   3.3059   3.3132
  3.3171   3.3289   3.3297   3.3385   3.3537   3.3571   3.3679   3.3744
  3.3840   3.3907   3.4019   3.4071   3.4119   3.4275   3.4330   3.4461
  3.4492   3.4560   3.4680   3.4788   3.4847   3.4929   3.5143   3.5211
  3.5228   3.5314   3.5359   3.5403   3.5564   3.5615   3.5700   3.5888
  3.5930   3.6139   3.6220   3.6316   3.6384   3.6527   3.6566   3.6588
  3.6712   3.6915   3.6996   3.7119   3.7285   3.7384   3.7410   3.7539
  3.7628   3.7691   3.7878   3.7947   3.7996   3.8108   3.8168   3.8360
  3.8594   3.8836   3.8874   3.9106   3.9231   3.9317   3.9348   3.9498
  3.9672   3.9905   3.9954   4.0041   4.0134   4.0194   4.0241   4.0506
  4.0619   4.0751   4.0885   4.1024   4.1109   4.1439   4.1496   4.1537
  4.1549   4.1778   4.1923   4.1945   4.1999   4.2137   4.2148   4.2340
  4.2411   4.2609   4.2863   4.2869   4.2955   4.3149   4.3291   4.3316
  4.3524   4.3578   4.3699   4.3761   4.3906   4.4008   4.4113   4.4282
  4.4329   4.4556   4.4662   4.4770   4.4955   4.5317   4.5454   4.5652
  4.5951   4.6143   4.6197   4.6229   4.6319   4.6339   4.6592   4.6810
  4.7068   4.7260   4.7409   4.7461   4.7655   4.7832   4.8221   4.8453
  4.8624   4.8644   4.8909   4.9251   4.9440   4.9588   5.0148   5.0540
  5.0789   5.0982   5.1133   5.1546   5.1842   5.1989   5.2032   5.2542
  5.2779   5.2818   5.3058   5.3062   5.3234   5.3726   5.3944   5.4025
  5.4115   5.4378   5.4640   5.4721   5.5226   5.5364   5.5488   5.5601
  5.5695   5.5739   5.6166   5.6228   5.6294   5.6953   5.7088   5.7172
  5.7937   5.8377   5.9193   5.9963   6.0343   6.1265   6.1638   6.2262
  6.2372   6.2528   6.2886   6.3124   6.3357   6.4600   6.5232   8.8521
  9.9250  11.5055  11.9712  12.9564  13.1732  13.7367  13.9964  14.2125
 14.4180
 --------------------------------------------------------------
 
          Ground-State Mulliken Net Atomic Charges

     Atom                 Charge (a.u.)
  ----------------------------------------
      1 C                    -0.213265
      2 C                    -0.250913
      3 C                     0.038064
      4 H                     0.185636
      5 C                    -0.027473
      6 S                     0.017639
      7 C                    -0.309671
      8 H                     0.112708
      9 H                     0.119688
     10 H                     0.112184
     11 H                     0.205717
     12 C                     0.042885
     13 C                    -0.261261
     14 C                     0.025880
     15 H                     0.181669
     16 C                    -0.248376
     17 S                     0.021664
     18 C                    -0.271676
     19 H                     0.103120
     20 H                     0.108608
     21 H                     0.108193
     22 H                     0.198981
  ----------------------------------------
  Sum of atomic charges =     0.000000

 -----------------------------------------------------------------
                    Cartesian Multipole Moments
 -----------------------------------------------------------------
    Charge (ESU x 10^10)
                -0.0000
    Dipole Moment (Debye)
         X       0.7743      Y       0.1162      Z       0.0826
       Tot       0.7873
    Quadrupole Moments (Debye-Ang)
        XX     -91.0966     XY      -1.1796     YY     -68.6257
        XZ      -2.9861     YZ       3.1255     ZZ     -81.5628
    Octopole Moments (Debye-Ang^2)
       XXX      -3.3978    XXY      42.4802    XYY      -2.8900
       YYY      93.1591    XXZ      -0.6889    XYZ      10.7840
       YYZ       0.5295    XZZ       0.1232    YZZ      40.9670
       ZZZ       5.0987
    Hexadecapole Moments (Debye-Ang^3)
      XXXX    -270.3985   XXXY       0.7885   XXYY    -568.4855
      XYYY      19.2333   YYYY   -2575.5651   XXXZ     122.2066
      XXYZ     -30.5093   XYYZ      -3.9420   YYYZ    -145.2051
      XXZZ    -209.3097   XYZZ      -3.3985   YYZZ    -607.0287
      XZZZ     115.7642   YZZZ     -96.3088   ZZZZ    -950.0746
 -----------------------------------------------------------------
 Total job time:  51.14s(wall), 1727.07s(cpu) 
 Wed Dec 13 15:53:00 2023

        *************************************************************
        *                                                           *
        *  Thank you very much for using Q-Chem.  Have a nice day.  *
        *                                                           *
        *************************************************************


0 sent ACK to 0 
now end server 0 ... 
cleanup process ... done
remove work dirs ./qchem1455246.0 -- ./qchem1455246.0
rm -rf ./qchem1455246.0
rm -rf ./qchem1455246
