You are running Q-Chem version: 5.4.0

#
# job setting
#
local host:  exp-1-10
current dir: /home/rramji/project-csd799/aromodel/p3ht-qchem/rotation-run
input file:  Methylthiophene_Phi_0_Theta_210_Methylthiophene.qcin
output file: 
nprocs     : 1
nthreads   : 64
#
# qchem installation setting
#
QC:          /cm/shared/apps/spack/cpu/opt/spack/linux-centos8-zen2/gcc-10.2.0/qchem-5.4-akfmr7b3t57bfs6qan3padb2wnb2i7cl
QCAUX:       /cm/shared/apps/spack/cpu/opt/spack/linux-centos8-zen2/gcc-10.2.0/qchem-5.4-akfmr7b3t57bfs6qan3padb2wnb2i7cl/qcaux
QCPROG:      /cm/shared/apps/spack/cpu/opt/spack/linux-centos8-zen2/gcc-10.2.0/qchem-5.4-akfmr7b3t57bfs6qan3padb2wnb2i7cl/exe/qcprog.exe
QCPROG_S:    /cm/shared/apps/spack/cpu/opt/spack/linux-centos8-zen2/gcc-10.2.0/qchem-5.4-akfmr7b3t57bfs6qan3padb2wnb2i7cl/exe/qcprog.exe_s
PARALLEL:    -DPARALLEL
QCMPI:       mpich
#
# qchem directory setting
#
qcrun:       qchem1468845
QCSCRATCH:   .
QCLOCALSCR:  
QCTMPDIR:    .
QCFILEPREF:  ./qchem1468845
QCSAVEDIR:   
workdirs:    ./qchem1468845
workdir0:    ./qchem1468845
partmpdirs =  
#
# parallel setting
#
QCRSH:           ssh
QCMPI:           mpich
QCMPIRUN:        /cm/shared/apps/spack/cpu/opt/spack/linux-centos8-zen2/gcc-10.2.0/qchem-5.4-akfmr7b3t57bfs6qan3padb2wnb2i7cl/bin/mpi/mpirun_qchem
QCMACHINEFILE:   ./qchem1468845/hostfile
exp-1-10

#
# env setting
#
exported envs:   QC QCAUX QCSCRATCH QCRUNNAME QCFILEPREF QCPROG QCPROG_S GUIFILE

Running Job 1 of 1 Methylthiophene_Phi_0_Theta_210_Methylthiophene.qcin
qchem Methylthiophene_Phi_0_Theta_210_Methylthiophene.qcin_1468845.0 ./qchem1468845/ 1
/cm/shared/apps/spack/cpu/opt/spack/linux-centos8-zen2/gcc-10.2.0/qchem-5.4-akfmr7b3t57bfs6qan3padb2wnb2i7cl/bin/mpi/mpirun_qchem -machinefile ./qchem1468845/hostfile -np 1 /cm/shared/apps/spack/cpu/opt/spack/linux-centos8-zen2/gcc-10.2.0/qchem-5.4-akfmr7b3t57bfs6qan3padb2wnb2i7cl/exe/qcprog.exe Methylthiophene_Phi_0_Theta_210_Methylthiophene.qcin_1468845.0 ./qchem1468845/

Process 0 of 1 is on exp-1-10 - thread support 0
initial socket setup ...start
initial socket setup ...done 
now start server 0 ... 
                  Welcome to Q-Chem
     A Quantum Leap Into The Future Of Chemistry


 Q-Chem 5.4, Q-Chem, Inc., Pleasanton, CA (2021)

 License issued to: University of California, San Diego (site)

 E. Epifanovsky,  A. T. B. Gilbert,  Xintian Feng,  Joonho Lee,  Yuezhi Mao,  
 N. Mardirossian,  P. Pokhilko,  A. White,  M. Wormit,  M. P. Coons,  
 A. L. Dempwolff,  Zhengting Gan,  D. Hait,  P. R. Horn,  L. D. Jacobson,  
 I. Kaliman,  J. Kussmann,  A. W. Lange,  Ka Un Lao,  D. S. Levine,  Jie Liu,  
 S. C. McKenzie,  A. F. Morrison,  K. Nanda,  F. Plasser,  D. R. Rehn,  
 M. L. Vidal,  Zhi-Qiang You,  Ying Zhu,  B. Alam,  B. Albrecht,  
 A. Aldossary,  E. Alguire,  J. H. Andersen,  D. Barton,  K. Begam,  A. Behn,  
 Y. A. Bernard,  E. J. Berquist,  H. Burton,  A. Carreras,  K. Carter-Fenk,  
 R. Chakraborty,  A. D. Chien,  K. D. Closser,  V. Cofer-Shabica,  
 S. Dasgupta,  Jia Deng,  M. de Wergifosse,  M. Diedenhofen,  Hainam Do,  
 S. Ehlert,  Po-Tung Fang,  S. Fatehi,  Qingguo Feng,  J. Gayvert,  
 Qinghui Ge,  G. Gidofalvi,  M. Goldey,  J. Gomes,  C. Gonzalez-Espinoza,  
 S. Gulania,  A. Gunina,  M. W. D. Hanson-Heine,  P. H. P. Harbach,  
 A. W. Hauser,  M. F. Herbst,  M. Hernandez Vera,  M. Hodecker,  
 Z. C. Holden,  S. Houck,  Xunkun Huang,  Kerwin Hui,  B. C. Huynh,  
 M. Ivanov,  Hyunjun Ji,  Hanjie Jiang,  B. Kaduk,  S. Kaehler,  
 K. Khistyaev,  Jaehoon Kim,  P. Klunzinger,  Z. Koczor-Benda,  
 Joong Hoon Koh,  D. Kosenkov,  L. Koulias,  T. Kowalczyk,  C. M. Krauter,  
 K. Kue,  A. Kunitsa,  T. Kus,  A. Landau,  K. V. Lawler,  D. Lefrancois,  
 S. Lehtola,  Rain Li,  Yi-Pei Li,  Jiashu Liang,  M. Liebenthal,  
 Hung-Hsuan Lin,  You-Sheng Lin,  Fenglai Liu,  Kuan-Yu Liu,  
 M. Loipersberger,  A. Luenser,  A. Manjanath,  P. Manohar,  E. Mansoor,  
 S. F. Manzer,  Shan-Ping Mao,  A. V. Marenich,  T. Markovich,  S. Mason,  
 S. A. Maurer,  P. F. McLaughlin,  M. F. S. J. Menger,  J.-M. Mewes,  
 S. A. Mewes,  P. Morgante,  J. W. Mullinax,  T. S. Nguyen-Beck,  
 K. J. Oosterbaan,  G. Paran,  Alexander C. Paul,  Suranjan K. Paul,  
 F. Pavosevic,  Zheng Pei,  S. Prager,  E. I. Proynov,  E. Ramos,  B. Rana,  
 A. E. Rask,  A. Rettig,  R. M. Richard,  F. Rob,  E. Rossomme,  T. Scheele,  
 M. Scheurer,  M. Schneider,  N. Sergueev,  S. M. Sharada,  W. Skomorowski,  
 D. W. Small,  C. J. Stein,  Yu-Chuan Su,  E. J. Sundstrom,  Zhen Tao,  
 J. Thirman,  T. Tsuchimochi,  N. M. Tubman,  S. P. Veccham,  O. Vydrov,  
 J. Wenzel,  J. Witte,  A. Yamada,  Kun Yao,  S. Yeganeh,  S. R. Yost,  
 A. Zech,  Igor Ying Zhang,  Xing Zhang,  Yu Zhang,  D. Zuev,  
 A. Aspuru-Guzik,  A. T. Bell,  N. A. Besley,  K. B. Bravaya,  B. R. Brooks,  
 D. Casanova,  Jeng-Da Chai,  S. Coriani,  C. J. Cramer,  
 A. E. DePrince, III,  R. A. DiStasio Jr.,  A. Dreuw,  B. D. Dunietz,  
 T. R. Furlani,  W. A. Goddard III,  S. Grimme,  S. Hammes-Schiffer,  
 T. Head-Gordon,  W. J. Hehre,  Chao-Ping Hsu,  T.-C. Jagau,  Yousung Jung,  
 A. Klamt,  Jing Kong,  D. S. Lambrecht,  WanZhen Liang,  N. J. Mayhall,  
 C. W. McCurdy,  J. B. Neaton,  C. Ochsenfeld,  J. A. Parkhill,  R. Peverati,  
 V. A. Rassolov,  Yihan Shao,  L. V. Slipchenko,  T. Stauch,  R. P. Steele,  
 J. E. Subotnik,  A. J. W. Thom,  A. Tkatchenko,  D. G. Truhlar,  
 T. Van Voorhis,  T. A. Wesolowski,  K. B. Whaley,  H. L. Woodcock III,  
 P. M. Zimmerman,  S. Faraji,  P. M. W. Gill,  M. Head-Gordon,  
 J. M. Herbert,  A. I. Krylov

 Contributors to earlier versions of Q-Chem not listed above: 
 R. D. Adamson,  B. Austin,  R. Baer,  J. Baker,  G. J. O. Beran,  
 K. Brandhorst,  S. T. Brown,  E. F. C. Byrd,  A. K. Chakraborty,  
 G. K. L. Chan,  Chun-Min Chang,  Yunqing Chen,  C.-L. Cheng,  
 Siu Hung Chien,  D. M. Chipman,  D. L. Crittenden,  H. Dachsel,  
 R. J. Doerksen,  A. D. Dutoi,  R. G. Edgar,  J. Fosso-Tande,  
 L. Fusti-Molnar,  D. Ghosh,  A. Ghysels,  A. Golubeva-Zadorozhnaya,  
 J. Gonthier,  M. S. Gordon,  S. R. Gwaltney,  G. Hawkins,  J. E. Herr,  
 A. Heyden,  S. Hirata,  E. G. Hohenstein,  G. Kedziora,  F. J. Keil,  
 C. Kelley,  Jihan Kim,  R. A. King,  R. Z. Khaliullin,  P. P. Korambath,  
 W. Kurlancheek,  A. Laurent,  A. M. Lee,  M. S. Lee,  S. V. Levchenko,  
 Ching Yeh Lin,  D. Liotard,  E. Livshits,  R. C. Lochan,  I. Lotan,  
 L. A. Martinez-Martinez,  P. E. Maslen,  N. Nair,  D. P. O'Neill,  
 D. Neuhauser,  E. Neuscamman,  C. M. Oana,  R. Olivares-Amaya,  R. Olson,  
 T. M. Perrine,  B. Peters,  P. A. Pieniazek,  A. Prociuk,  Y. M. Rhee,  
 J. Ritchie,  M. A. Rohrdanz,  E. Rosta,  N. J. Russ,  H. F. Schaefer III,  
 M. W. Schmidt,  N. E. Schultz,  S. Sharma,  N. Shenvi,  C. D. Sherrill,  
 A. C. Simmonett,  A. Sodt,  T. Stein,  D. Stuck,  K. S. Thanthiriwatte,  
 V. Vanovschi,  L. Vogt,  Tao Wang,  A. Warshel,  M. A. Watson,  
 C. F. Williams,  Q. Wu,  X. Xu,  Jun Yang,  W. Zhang,  Yan Zhao

 Please cite Q-Chem as follows:
 Y. Shao et al., Mol. Phys. 113, 184-215 (2015)
 DOI: 10.1080/00268976.2014.952696

 Q-Chem 5.4.0 for Intel X86 EM64T Linux

 Parts of Q-Chem use Armadillo 9.800.1 (Horizon Scraper).
 http://arma.sourceforge.net/

 Q-Chem begins on Wed Dec 13 16:10:22 2023  

 Host: 
0

     Scratch files written to ./qchem1468845//
 May1621 |scratch|qcdevops|jenkins|workspace|build_RNUM    
 Parallel job on  1  processors
 Processing $rem in /cm/shared/apps/spack/cpu/opt/spack/linux-centos8-zen2/gcc-10.2.0/qchem-5.4-akfmr7b3t57bfs6qan3padb2wnb2i7cl/config/preferences:
 Processing $rem in /home/rramji/.qchemrc:
 Symmetry turned off for PCM/SM12/SMD calculation
 Core orbitals will be frozen

 Checking the input file for inconsistencies... 	...done.

 Q-Chem warning in module forms1/BasisType.C, line 2236:

 You are not using the predefined 5D/6D in this basis set.


--------------------------------------------------------------
User input:
--------------------------------------------------------------
$molecule
0 1
C	0.363176	-3.887800	-0.626855
C	-0.329669	-3.701456	0.573074
C	-0.542250	-2.345170	0.940016
H	-0.682412	-4.545233	1.184837
C	0.000000	-1.450135	0.000000
S	0.764076	-2.321334	-1.322686
C	-1.265537	-1.934439	2.192440
H	-1.597559	-2.819799	2.768365
H	-2.166534	-1.326210	1.967653
H	-0.620843	-1.325374	2.860032
H	0.655262	-4.815326	-1.131925
C	0.000000	0.000000	0.000000
C	-0.003081	0.844605	1.113020
C	-0.007772	2.235575	0.820578
H	-0.001743	0.456510	2.142881
C	-0.008427	2.483726	-0.563588
S	-0.003691	0.970607	-1.464748
C	-0.011355	3.300181	1.882380
H	-0.009922	2.852233	2.894974
H	-0.905944	3.953225	1.808137
H	0.878901	3.959133	1.808230
H	-0.011727	3.441752	-1.097114
$end

$rem
JOBTYPE		SP
EXCHANGE	HF
CORRELATION	pRIMP2
BASIS		cc-pvtz
METHOD		rimp2
AUX_BASIS	rimp2-cc-pvtz
SOLVENT_METHOD	PCM
PURECART	11111
SYMMETRY	false
MEM_TOTAL	110000
SCF_CONVERGENCE = 6
THRESH=10
GUI = 2
$end



$solvent
dielectric 4.90
$end
--------------------------------------------------------------
 ----------------------------------------------------------------
             Standard Nuclear Orientation (Angstroms)
    I     Atom           X                Y                Z
 ----------------------------------------------------------------
    1      C       0.3631760000    -3.8878000000    -0.6268550000
    2      C      -0.3296690000    -3.7014560000     0.5730740000
    3      C      -0.5422500000    -2.3451700000     0.9400160000
    4      H      -0.6824120000    -4.5452330000     1.1848370000
    5      C       0.0000000000    -1.4501350000     0.0000000000
    6      S       0.7640760000    -2.3213340000    -1.3226860000
    7      C      -1.2655370000    -1.9344390000     2.1924400000
    8      H      -1.5975590000    -2.8197990000     2.7683650000
    9      H      -2.1665340000    -1.3262100000     1.9676530000
   10      H      -0.6208430000    -1.3253740000     2.8600320000
   11      H       0.6552620000    -4.8153260000    -1.1319250000
   12      C       0.0000000000     0.0000000000     0.0000000000
   13      C      -0.0030810000     0.8446050000     1.1130200000
   14      C      -0.0077720000     2.2355750000     0.8205780000
   15      H      -0.0017430000     0.4565100000     2.1428810000
   16      C      -0.0084270000     2.4837260000    -0.5635880000
   17      S      -0.0036910000     0.9706070000    -1.4647480000
   18      C      -0.0113550000     3.3001810000     1.8823800000
   19      H      -0.0099220000     2.8522330000     2.8949740000
   20      H      -0.9059440000     3.9532250000     1.8081370000
   21      H       0.8789010000     3.9591330000     1.8082300000
   22      H      -0.0117270000     3.4417520000    -1.0971140000
 ----------------------------------------------------------------
 Nuclear Repulsion Energy =         835.20659788 hartrees
 There are       51 alpha and       51 beta electrons
 Requested basis set is cc-pVTZ
 There are 184 shells and 508 basis functions

 Total QAlloc Memory Limit 110000 MB
 Mega-Array Size       188 MB
 MEM_STATIC part       192 MB
 Discretize the solute cavity surface with Lebedev spheres
	Using 110 Lebedev grid points for each H atom
	Using 194 Lebedev grid points for other atoms
	Atomic van der Waals radii will be scaled by 1.20
 Remove points where switching function is < 1.0e-08
 Keep 1525 surface tesserae and discard 1903 interior tesserae
 Molecular Surface Area = 232.319 Angst**2
 Requested basis set is rimp2-cc-pVTZ
 There are 394 shells and 1354 basis functions
 A cutoff of  1.0D-10 yielded  12333 shell pairs
 There are     91453 function pairs (    117948 Cartesian)
 Smallest overlap matrix eigenvalue = 5.57E-05

 Scale SEOQF with 1.000000e-01/1.000000e-01/1.000000e-01

 Standard Electronic Orientation quadrupole field applied
 Nucleus-field energy     =     0.0000000239 hartrees
 Guess from superposition of atomic densities
 Warning:  Energy on first SCF cycle will be non-variational
 SAD guess density has 102.000000 electrons

 -----------------------------------------------------------------------
  General SCF calculation program by
  Eric Jon Sundstrom, Paul Horn, Yuezhi Mao, Dmitri Zuev, Alec White,
  David Stuck, Shaama M.S., Shane Yost, Joonho Lee, David Small,
  Daniel Levine, Susi Lehtola, Hugh Burton, Evgeny Epifanovsky,
  Bang C. Huynh
 -----------------------------------------------------------------------
 Hartree-Fock
 using 64 threads for integral computing
 -------------------------------------------------------
 OpenMP Integral computing Module                
 Release: version 1.0, May 2013, Q-Chem Inc. Pittsburgh 
 -------------------------------------------------------
 A restricted SCF calculation will be
 performed using DIIS
 SCF converges when DIIS error is below 1.0e-06
 ---------------------------------------
  Cycle       Energy         DIIS error
 ---------------------------------------
    1   -1184.2201967955      2.38e-02  
    2   -1179.5454665407      1.61e-03  
    3   -1179.6666505118      6.29e-04  
    4   -1179.6807296317      3.43e-04  
    5   -1179.6856792194      6.43e-05  
    6   -1179.6859464262      2.95e-05  
    7   -1179.6860264719      1.20e-05  
    8   -1179.6860512549      5.23e-06  
    9   -1179.6860556524      1.59e-06  
   10   -1179.6860560856      5.25e-07  Convergence criterion met
 ---------------------------------------
 SCF time:   CPU 1513.35s  wall 46.00s 

************** Final PCM Free Energy Summary **************
 G_electrostatic  =      -0.00857952 hartree =      -5.38373285 kcal/mol
 G_cavitation     =       0.00000000 hartree =       0.00000000 kcal/mol
 G_dispersion     =       0.00000000 hartree =       0.00000000 kcal/mol
 G_repulsion      =       0.00000000 hartree =       0.00000000 kcal/mol
 --------------------------------------------------
 Non-electrostatic Free Energy =       0.00000000 hartree =       0.00000000 kcal/mol
 Total                         =      -0.00857952 hartree =      -5.38373285 kcal/mol
 --------------------------------------------------
 SCF Energy (H0 + V/2)                       =   -1179.68605609 
 Solute Internal Energy (H0)                 =   -1179.67747656 
 Total Free Energy (H0 + V/2 + non-elec)     =   -1179.68605609 hartree
                                             = -740264.17300032 kcal/mol
***********************************************************

 SCF   energy in the final basis set =    -1179.6860560856
 Total energy in the final basis set =    -1179.6860560856


 --------------------------------------------------------------
  Generalized many-body perturbation theory program
  by Joonho Lee, Fazle Rob, Xintian Feng, Evgeny Epifanovsky

 No regularization used 
 (reg. param. = 0.0000e+00)
  (P|Q)^-1/2 Time:  CPU 50.85 s  wall 0.96 s

 In RI-MP2 calculation: 
 # of frozen core orbitals: 20

 Components of the RIMP2 correlation energy:
        aaaa    correlation energy =        -0.2527160514 a.u.
        abab    correlation energy =        -1.4738261598 a.u.
        bbbb    correlation energy =        -0.2527160514 a.u.
        non-Brillouin singles      =        -0.0000000000 a.u.
        total same-spin energy     =        -0.5054321028 a.u.
        total opposite-spin energy =        -1.4738261598 a.u.

 Total  RIMP2   correlation energy =        -1.9792582626 a.u.
        RIMP2         total energy =     -1181.6653143481 a.u.

 RI-MP2 Energy Time:  CPU 285.42 s  wall 5.60 s
 
 --------------------------------------------------------------
 
                    Orbital Energies (a.u.)
 --------------------------------------------------------------
 
 Alpha MOs
 -- Occupied --
-91.9864 -91.9862 -11.2834 -11.2783 -11.2730 -11.2641 -11.2538 -11.2522
-11.2441 -11.2396 -11.2307 -11.2295  -8.9860  -8.9860  -6.6669  -6.6669
 -6.6664  -6.6663  -6.6657  -6.6657  -1.1803  -1.1504  -1.0407  -1.0264
 -0.9960  -0.9559  -0.9140  -0.8944  -0.8020  -0.7553  -0.7283  -0.6996
 -0.6621  -0.6153  -0.5894  -0.5815  -0.5702  -0.5632  -0.5514  -0.5383
 -0.5299  -0.5221  -0.5047  -0.4919  -0.4891  -0.4740  -0.4552  -0.3629
 -0.3449  -0.3392  -0.2744
 -- Virtual --
  0.0664   0.1318   0.1405   0.1505   0.1615   0.1735   0.1792   0.1871
  0.1983   0.2018   0.2050   0.2212   0.2335   0.2368   0.2418   0.2567
  0.2728   0.2810   0.2964   0.3203   0.3307   0.3530   0.3716   0.3742
  0.3826   0.3864   0.3910   0.3994   0.4067   0.4204   0.4341   0.4389
  0.4557   0.4593   0.4723   0.4753   0.4877   0.4930   0.4998   0.5073
  0.5100   0.5142   0.5325   0.5331   0.5411   0.5551   0.5569   0.5669
  0.5775   0.5839   0.5921   0.5928   0.5974   0.6108   0.6124   0.6174
  0.6254   0.6329   0.6405   0.6427   0.6497   0.6553   0.6740   0.6764
  0.6861   0.6944   0.7004   0.7152   0.7200   0.7363   0.7464   0.7536
  0.7661   0.7734   0.7869   0.8022   0.8067   0.8268   0.8385   0.8510
  0.8614   0.8697   0.8791   0.8993   0.9082   0.9254   0.9381   0.9466
  0.9503   0.9664   0.9753   0.9872   1.0016   1.0210   1.0262   1.0459
  1.0538   1.0589   1.0662   1.0710   1.0781   1.0855   1.0936   1.0977
  1.1025   1.1099   1.1272   1.1490   1.1540   1.1605   1.1950   1.1975
  1.2116   1.2181   1.2248   1.2381   1.2398   1.2573   1.2577   1.2649
  1.2845   1.2877   1.3105   1.3228   1.3372   1.3391   1.3403   1.3667
  1.3763   1.3866   1.3942   1.4162   1.4187   1.4329   1.4475   1.4627
  1.4746   1.4847   1.5030   1.5115   1.5217   1.5328   1.5412   1.5481
  1.5564   1.5625   1.5730   1.5792   1.5881   1.6080   1.6108   1.6382
  1.6511   1.6736   1.6785   1.6855   1.7098   1.7132   1.7206   1.7396
  1.7538   1.7662   1.7797   1.7905   1.8011   1.8218   1.8550   1.8638
  1.8786   1.8954   1.8965   1.9177   1.9360   1.9506   1.9693   1.9866
  2.0040   2.0473   2.0671   2.0850   2.1226   2.1409   2.1520   2.1703
  2.1947   2.2068   2.2204   2.2314   2.2489   2.2518   2.2652   2.2695
  2.2766   2.3013   2.3131   2.3823   2.4126   2.4296   2.4462   2.4631
  2.4810   2.4983   2.5067   2.5155   2.5413   2.5679   2.5936   2.6068
  2.6281   2.6314   2.6540   2.6693   2.6897   2.6980   2.7227   2.7260
  2.7434   2.7467   2.7512   2.7599   2.7670   2.7743   2.8045   2.8133
  2.8175   2.8400   2.8484   2.8593   2.8720   2.8860   2.9101   2.9229
  2.9511   2.9568   2.9781   2.9904   2.9958   3.0197   3.0267   3.0403
  3.0443   3.0641   3.0754   3.1039   3.1111   3.1234   3.1355   3.1414
  3.1476   3.1528   3.1582   3.1798   3.1932   3.2031   3.2104   3.2249
  3.2414   3.2449   3.2564   3.2714   3.2815   3.2916   3.2989   3.3013
  3.3092   3.3253   3.3299   3.3440   3.3522   3.3649   3.3717   3.3750
  3.3878   3.3939   3.4028   3.4086   3.4204   3.4262   3.4312   3.4371
  3.4501   3.4580   3.4686   3.4802   3.4841   3.5024   3.5141   3.5221
  3.5252   3.5298   3.5402   3.5506   3.5594   3.5667   3.5771   3.5852
  3.5968   3.6163   3.6215   3.6299   3.6370   3.6415   3.6581   3.6684
  3.6812   3.6911   3.7029   3.7033   3.7121   3.7180   3.7385   3.7515
  3.7653   3.7753   3.7796   3.7908   3.7968   3.8212   3.8358   3.8439
  3.8669   3.8804   3.8889   3.9035   3.9228   3.9364   3.9422   3.9648
  3.9803   3.9913   4.0015   4.0077   4.0197   4.0251   4.0392   4.0522
  4.0596   4.0802   4.0926   4.1053   4.1228   4.1375   4.1475   4.1483
  4.1559   4.1706   4.1962   4.2001   4.2086   4.2138   4.2183   4.2410
  4.2495   4.2583   4.2738   4.2847   4.3001   4.3109   4.3381   4.3461
  4.3557   4.3650   4.3803   4.4008   4.4023   4.4184   4.4202   4.4276
  4.4330   4.4634   4.4702   4.4791   4.5028   4.5411   4.5636   4.5705
  4.5924   4.6025   4.6179   4.6217   4.6297   4.6390   4.6557   4.6803
  4.6949   4.7262   4.7449   4.7594   4.7800   4.8026   4.8293   4.8526
  4.8824   4.8908   4.9126   4.9374   4.9759   4.9956   5.0018   5.0566
  5.0855   5.1031   5.1128   5.1314   5.1712   5.1916   5.2052   5.2722
  5.2748   5.2958   5.3005   5.3158   5.3467   5.3707   5.3823   5.4006
  5.4102   5.4430   5.4699   5.4919   5.5146   5.5257   5.5486   5.5657
  5.5715   5.6060   5.6187   5.6243   5.6417   5.7006   5.7039   5.7291
  5.7817   5.8337   5.9164   5.9790   6.0434   6.1297   6.1955   6.2265
  6.2523   6.2685   6.2878   6.3224   6.3489   6.4625   6.5806   8.7695
 10.0674  11.5706  11.9910  12.8412  13.1124  13.7362  14.1547  14.2963
 14.4593
 --------------------------------------------------------------
 
          Ground-State Mulliken Net Atomic Charges

     Atom                 Charge (a.u.)
  ----------------------------------------
      1 C                    -0.213564
      2 C                    -0.251393
      3 C                     0.059914
      4 H                     0.185250
      5 C                    -0.043161
      6 S                     0.014129
      7 C                    -0.302878
      8 H                     0.114495
      9 H                     0.117698
     10 H                     0.105768
     11 H                     0.205896
     12 C                     0.018199
     13 C                    -0.238434
     14 C                     0.021262
     15 H                     0.193870
     16 C                    -0.247622
     17 S                     0.013789
     18 C                    -0.272051
     19 H                     0.101882
     20 H                     0.108591
     21 H                     0.108999
     22 H                     0.199361
  ----------------------------------------
  Sum of atomic charges =     0.000000

 -----------------------------------------------------------------
                    Cartesian Multipole Moments
 -----------------------------------------------------------------
    Charge (ESU x 10^10)
                -0.0000
    Dipole Moment (Debye)
         X      -0.7645      Y       0.1525      Z       2.7712
       Tot       2.8788
    Quadrupole Moments (Debye-Ang)
        XX     -91.1053     XY       1.0582     YY     -68.3685
        XZ      -2.9056     YZ      -0.7983     ZZ     -81.7616
    Octopole Moments (Debye-Ang^2)
       XXX       5.0871    XXY      42.4669    XYY       3.0236
       YYY      93.2435    XXZ      -4.6305    XYZ      10.7674
       YYZ      -9.6505    XZZ       0.6057    YZZ      41.2155
       ZZZ      -6.7513
    Hexadecapole Moments (Debye-Ang^3)
      XXXX    -270.4801   XXXY       2.6106   XXYY    -568.2109
      XYYY     -16.6895   YYYY   -2571.9907   XXXZ     122.4374
      XXYZ     -34.1282   XYYZ      -3.9341   YYYZ     -83.6897
      XXZZ    -209.5737   XYZZ       3.8579   YYZZ    -606.7230
      XZZZ     116.5295   YZZZ    -107.2094   ZZZZ    -952.6900
 -----------------------------------------------------------------
 Total job time:  54.02s(wall), 1858.06s(cpu) 
 Wed Dec 13 16:11:16 2023

        *************************************************************
        *                                                           *
        *  Thank you very much for using Q-Chem.  Have a nice day.  *
        *                                                           *
        *************************************************************


0 sent ACK to 0 
now end server 0 ... 
cleanup process ... done
remove work dirs ./qchem1468845.0 -- ./qchem1468845.0
rm -rf ./qchem1468845.0
rm -rf ./qchem1468845
