You are running Q-Chem version: 5.4.0

#
# job setting
#
local host:  exp-3-52
current dir: /home/rramji/project-csd799/aromodel/p3ht-qchem/rotation-run
input file:  Methylthiophene_Phi_40_Theta_10_Methylthiophene.qcin
output file: 
nprocs     : 1
nthreads   : 64
#
# qchem installation setting
#
QC:          /cm/shared/apps/spack/cpu/opt/spack/linux-centos8-zen2/gcc-10.2.0/qchem-5.4-akfmr7b3t57bfs6qan3padb2wnb2i7cl
QCAUX:       /cm/shared/apps/spack/cpu/opt/spack/linux-centos8-zen2/gcc-10.2.0/qchem-5.4-akfmr7b3t57bfs6qan3padb2wnb2i7cl/qcaux
QCPROG:      /cm/shared/apps/spack/cpu/opt/spack/linux-centos8-zen2/gcc-10.2.0/qchem-5.4-akfmr7b3t57bfs6qan3padb2wnb2i7cl/exe/qcprog.exe
QCPROG_S:    /cm/shared/apps/spack/cpu/opt/spack/linux-centos8-zen2/gcc-10.2.0/qchem-5.4-akfmr7b3t57bfs6qan3padb2wnb2i7cl/exe/qcprog.exe_s
PARALLEL:    -DPARALLEL
QCMPI:       mpich
#
# qchem directory setting
#
qcrun:       qchem2593168
QCSCRATCH:   .
QCLOCALSCR:  
QCTMPDIR:    .
QCFILEPREF:  ./qchem2593168
QCSAVEDIR:   
workdirs:    ./qchem2593168
workdir0:    ./qchem2593168
partmpdirs =  
#
# parallel setting
#
QCRSH:           ssh
QCMPI:           mpich
QCMPIRUN:        /cm/shared/apps/spack/cpu/opt/spack/linux-centos8-zen2/gcc-10.2.0/qchem-5.4-akfmr7b3t57bfs6qan3padb2wnb2i7cl/bin/mpi/mpirun_qchem
QCMACHINEFILE:   ./qchem2593168/hostfile
exp-3-52

#
# env setting
#
exported envs:   QC QCAUX QCSCRATCH QCRUNNAME QCFILEPREF QCPROG QCPROG_S GUIFILE

Running Job 1 of 1 Methylthiophene_Phi_40_Theta_10_Methylthiophene.qcin
qchem Methylthiophene_Phi_40_Theta_10_Methylthiophene.qcin_2593168.0 ./qchem2593168/ 1
/cm/shared/apps/spack/cpu/opt/spack/linux-centos8-zen2/gcc-10.2.0/qchem-5.4-akfmr7b3t57bfs6qan3padb2wnb2i7cl/bin/mpi/mpirun_qchem -machinefile ./qchem2593168/hostfile -np 1 /cm/shared/apps/spack/cpu/opt/spack/linux-centos8-zen2/gcc-10.2.0/qchem-5.4-akfmr7b3t57bfs6qan3padb2wnb2i7cl/exe/qcprog.exe Methylthiophene_Phi_40_Theta_10_Methylthiophene.qcin_2593168.0 ./qchem2593168/

Process 0 of 1 is on exp-3-52 - thread support 0
initial socket setup ...start
initial socket setup ...done 
now start server 0 ... 
                  Welcome to Q-Chem
     A Quantum Leap Into The Future Of Chemistry


 Q-Chem 5.4, Q-Chem, Inc., Pleasanton, CA (2021)

 License issued to: University of California, San Diego (site)

 E. Epifanovsky,  A. T. B. Gilbert,  Xintian Feng,  Joonho Lee,  Yuezhi Mao,  
 N. Mardirossian,  P. Pokhilko,  A. White,  M. Wormit,  M. P. Coons,  
 A. L. Dempwolff,  Zhengting Gan,  D. Hait,  P. R. Horn,  L. D. Jacobson,  
 I. Kaliman,  J. Kussmann,  A. W. Lange,  Ka Un Lao,  D. S. Levine,  Jie Liu,  
 S. C. McKenzie,  A. F. Morrison,  K. Nanda,  F. Plasser,  D. R. Rehn,  
 M. L. Vidal,  Zhi-Qiang You,  Ying Zhu,  B. Alam,  B. Albrecht,  
 A. Aldossary,  E. Alguire,  J. H. Andersen,  D. Barton,  K. Begam,  A. Behn,  
 Y. A. Bernard,  E. J. Berquist,  H. Burton,  A. Carreras,  K. Carter-Fenk,  
 R. Chakraborty,  A. D. Chien,  K. D. Closser,  V. Cofer-Shabica,  
 S. Dasgupta,  Jia Deng,  M. de Wergifosse,  M. Diedenhofen,  Hainam Do,  
 S. Ehlert,  Po-Tung Fang,  S. Fatehi,  Qingguo Feng,  J. Gayvert,  
 Qinghui Ge,  G. Gidofalvi,  M. Goldey,  J. Gomes,  C. Gonzalez-Espinoza,  
 S. Gulania,  A. Gunina,  M. W. D. Hanson-Heine,  P. H. P. Harbach,  
 A. W. Hauser,  M. F. Herbst,  M. Hernandez Vera,  M. Hodecker,  
 Z. C. Holden,  S. Houck,  Xunkun Huang,  Kerwin Hui,  B. C. Huynh,  
 M. Ivanov,  Hyunjun Ji,  Hanjie Jiang,  B. Kaduk,  S. Kaehler,  
 K. Khistyaev,  Jaehoon Kim,  P. Klunzinger,  Z. Koczor-Benda,  
 Joong Hoon Koh,  D. Kosenkov,  L. Koulias,  T. Kowalczyk,  C. M. Krauter,  
 K. Kue,  A. Kunitsa,  T. Kus,  A. Landau,  K. V. Lawler,  D. Lefrancois,  
 S. Lehtola,  Rain Li,  Yi-Pei Li,  Jiashu Liang,  M. Liebenthal,  
 Hung-Hsuan Lin,  You-Sheng Lin,  Fenglai Liu,  Kuan-Yu Liu,  
 M. Loipersberger,  A. Luenser,  A. Manjanath,  P. Manohar,  E. Mansoor,  
 S. F. Manzer,  Shan-Ping Mao,  A. V. Marenich,  T. Markovich,  S. Mason,  
 S. A. Maurer,  P. F. McLaughlin,  M. F. S. J. Menger,  J.-M. Mewes,  
 S. A. Mewes,  P. Morgante,  J. W. Mullinax,  T. S. Nguyen-Beck,  
 K. J. Oosterbaan,  G. Paran,  Alexander C. Paul,  Suranjan K. Paul,  
 F. Pavosevic,  Zheng Pei,  S. Prager,  E. I. Proynov,  E. Ramos,  B. Rana,  
 A. E. Rask,  A. Rettig,  R. M. Richard,  F. Rob,  E. Rossomme,  T. Scheele,  
 M. Scheurer,  M. Schneider,  N. Sergueev,  S. M. Sharada,  W. Skomorowski,  
 D. W. Small,  C. J. Stein,  Yu-Chuan Su,  E. J. Sundstrom,  Zhen Tao,  
 J. Thirman,  T. Tsuchimochi,  N. M. Tubman,  S. P. Veccham,  O. Vydrov,  
 J. Wenzel,  J. Witte,  A. Yamada,  Kun Yao,  S. Yeganeh,  S. R. Yost,  
 A. Zech,  Igor Ying Zhang,  Xing Zhang,  Yu Zhang,  D. Zuev,  
 A. Aspuru-Guzik,  A. T. Bell,  N. A. Besley,  K. B. Bravaya,  B. R. Brooks,  
 D. Casanova,  Jeng-Da Chai,  S. Coriani,  C. J. Cramer,  
 A. E. DePrince, III,  R. A. DiStasio Jr.,  A. Dreuw,  B. D. Dunietz,  
 T. R. Furlani,  W. A. Goddard III,  S. Grimme,  S. Hammes-Schiffer,  
 T. Head-Gordon,  W. J. Hehre,  Chao-Ping Hsu,  T.-C. Jagau,  Yousung Jung,  
 A. Klamt,  Jing Kong,  D. S. Lambrecht,  WanZhen Liang,  N. J. Mayhall,  
 C. W. McCurdy,  J. B. Neaton,  C. Ochsenfeld,  J. A. Parkhill,  R. Peverati,  
 V. A. Rassolov,  Yihan Shao,  L. V. Slipchenko,  T. Stauch,  R. P. Steele,  
 J. E. Subotnik,  A. J. W. Thom,  A. Tkatchenko,  D. G. Truhlar,  
 T. Van Voorhis,  T. A. Wesolowski,  K. B. Whaley,  H. L. Woodcock III,  
 P. M. Zimmerman,  S. Faraji,  P. M. W. Gill,  M. Head-Gordon,  
 J. M. Herbert,  A. I. Krylov

 Contributors to earlier versions of Q-Chem not listed above: 
 R. D. Adamson,  B. Austin,  R. Baer,  J. Baker,  G. J. O. Beran,  
 K. Brandhorst,  S. T. Brown,  E. F. C. Byrd,  A. K. Chakraborty,  
 G. K. L. Chan,  Chun-Min Chang,  Yunqing Chen,  C.-L. Cheng,  
 Siu Hung Chien,  D. M. Chipman,  D. L. Crittenden,  H. Dachsel,  
 R. J. Doerksen,  A. D. Dutoi,  R. G. Edgar,  J. Fosso-Tande,  
 L. Fusti-Molnar,  D. Ghosh,  A. Ghysels,  A. Golubeva-Zadorozhnaya,  
 J. Gonthier,  M. S. Gordon,  S. R. Gwaltney,  G. Hawkins,  J. E. Herr,  
 A. Heyden,  S. Hirata,  E. G. Hohenstein,  G. Kedziora,  F. J. Keil,  
 C. Kelley,  Jihan Kim,  R. A. King,  R. Z. Khaliullin,  P. P. Korambath,  
 W. Kurlancheek,  A. Laurent,  A. M. Lee,  M. S. Lee,  S. V. Levchenko,  
 Ching Yeh Lin,  D. Liotard,  E. Livshits,  R. C. Lochan,  I. Lotan,  
 L. A. Martinez-Martinez,  P. E. Maslen,  N. Nair,  D. P. O'Neill,  
 D. Neuhauser,  E. Neuscamman,  C. M. Oana,  R. Olivares-Amaya,  R. Olson,  
 T. M. Perrine,  B. Peters,  P. A. Pieniazek,  A. Prociuk,  Y. M. Rhee,  
 J. Ritchie,  M. A. Rohrdanz,  E. Rosta,  N. J. Russ,  H. F. Schaefer III,  
 M. W. Schmidt,  N. E. Schultz,  S. Sharma,  N. Shenvi,  C. D. Sherrill,  
 A. C. Simmonett,  A. Sodt,  T. Stein,  D. Stuck,  K. S. Thanthiriwatte,  
 V. Vanovschi,  L. Vogt,  Tao Wang,  A. Warshel,  M. A. Watson,  
 C. F. Williams,  Q. Wu,  X. Xu,  Jun Yang,  W. Zhang,  Yan Zhao

 Please cite Q-Chem as follows:
 Y. Shao et al., Mol. Phys. 113, 184-215 (2015)
 DOI: 10.1080/00268976.2014.952696

 Q-Chem 5.4.0 for Intel X86 EM64T Linux

 Parts of Q-Chem use Armadillo 9.800.1 (Horizon Scraper).
 http://arma.sourceforge.net/

 Q-Chem begins on Wed Dec 13 15:51:05 2023  

 Host: 
0

     Scratch files written to ./qchem2593168//
 May1621 |scratch|qcdevops|jenkins|workspace|build_RNUM    
 Parallel job on  1  processors
 Processing $rem in /cm/shared/apps/spack/cpu/opt/spack/linux-centos8-zen2/gcc-10.2.0/qchem-5.4-akfmr7b3t57bfs6qan3padb2wnb2i7cl/config/preferences:
 Processing $rem in /home/rramji/.qchemrc:
 Symmetry turned off for PCM/SM12/SMD calculation
 Core orbitals will be frozen

 Checking the input file for inconsistencies... 	...done.

 Q-Chem warning in module forms1/BasisType.C, line 2236:

 You are not using the predefined 5D/6D in this basis set.


--------------------------------------------------------------
User input:
--------------------------------------------------------------
$molecule
0 1
C	-0.126876	-3.887800	0.713264
C	0.113784	-3.701456	-0.651267
C	0.188043	-2.345170	-1.068787
H	0.236019	-4.545233	-1.346782
C	-0.000000	-1.450135	-0.000000
S	-0.265612	-2.321334	1.504247
C	0.439357	-1.934439	-2.493059
H	0.554378	-2.819799	-3.147809
H	1.362899	-1.326210	-2.589987
H	-0.394786	-1.325374	-2.899892
H	-0.228603	-4.815326	1.287774
C	0.000000	0.000000	0.000000
C	0.540541	0.648986	1.113020
C	1.431046	1.717546	0.820578
H	0.292104	0.350827	2.142881
C	1.590053	1.908061	-0.563588
S	0.621066	0.745901	-1.464748
C	2.112618	2.535384	1.882380
H	1.825779	2.191315	2.894974
H	1.847090	3.610676	1.808137
H	3.218159	2.467925	1.808230
H	2.203332	2.644073	-1.097114
$end

$rem
JOBTYPE		SP
EXCHANGE	HF
CORRELATION	pRIMP2
BASIS		cc-pvtz
METHOD		rimp2
AUX_BASIS	rimp2-cc-pvtz
SOLVENT_METHOD	PCM
PURECART	11111
SYMMETRY	false
MEM_TOTAL	110000
SCF_CONVERGENCE = 6
THRESH=10
GUI = 2
$end



$solvent
dielectric 4.90
$end
--------------------------------------------------------------
 ----------------------------------------------------------------
             Standard Nuclear Orientation (Angstroms)
    I     Atom           X                Y                Z
 ----------------------------------------------------------------
    1      C      -0.1268760000    -3.8878000000     0.7132640000
    2      C       0.1137840000    -3.7014560000    -0.6512670000
    3      C       0.1880430000    -2.3451700000    -1.0687870000
    4      H       0.2360190000    -4.5452330000    -1.3467820000
    5      C       0.0000000000    -1.4501350000     0.0000000000
    6      S      -0.2656120000    -2.3213340000     1.5042470000
    7      C       0.4393570000    -1.9344390000    -2.4930590000
    8      H       0.5543780000    -2.8197990000    -3.1478090000
    9      H       1.3628990000    -1.3262100000    -2.5899870000
   10      H      -0.3947860000    -1.3253740000    -2.8998920000
   11      H      -0.2286030000    -4.8153260000     1.2877740000
   12      C       0.0000000000     0.0000000000     0.0000000000
   13      C       0.5405410000     0.6489860000     1.1130200000
   14      C       1.4310460000     1.7175460000     0.8205780000
   15      H       0.2921040000     0.3508270000     2.1428810000
   16      C       1.5900530000     1.9080610000    -0.5635880000
   17      S       0.6210660000     0.7459010000    -1.4647480000
   18      C       2.1126180000     2.5353840000     1.8823800000
   19      H       1.8257790000     2.1913150000     2.8949740000
   20      H       1.8470900000     3.6106760000     1.8081370000
   21      H       3.2181590000     2.4679250000     1.8082300000
   22      H       2.2033320000     2.6440730000    -1.0971140000
 ----------------------------------------------------------------
 Nuclear Repulsion Energy =         849.26731277 hartrees
 There are       51 alpha and       51 beta electrons
 Requested basis set is cc-pVTZ
 There are 184 shells and 508 basis functions

 Total QAlloc Memory Limit 110000 MB
 Mega-Array Size       188 MB
 MEM_STATIC part       192 MB
 Discretize the solute cavity surface with Lebedev spheres
	Using 110 Lebedev grid points for each H atom
	Using 194 Lebedev grid points for other atoms
	Atomic van der Waals radii will be scaled by 1.20
 Remove points where switching function is < 1.0e-08
 Keep 1503 surface tesserae and discard 1925 interior tesserae
 Molecular Surface Area = 226.095 Angst**2
 Requested basis set is rimp2-cc-pVTZ
 There are 394 shells and 1354 basis functions
 A cutoff of  1.0D-10 yielded  12505 shell pairs
 There are     92833 function pairs (    119782 Cartesian)
 Smallest overlap matrix eigenvalue = 6.35E-05

 Scale SEOQF with 1.000000e-01/1.000000e-01/1.000000e-01

 Standard Electronic Orientation quadrupole field applied
 Nucleus-field energy     =     0.0000000173 hartrees
 Guess from superposition of atomic densities
 Warning:  Energy on first SCF cycle will be non-variational
 SAD guess density has 102.000000 electrons

 -----------------------------------------------------------------------
  General SCF calculation program by
  Eric Jon Sundstrom, Paul Horn, Yuezhi Mao, Dmitri Zuev, Alec White,
  David Stuck, Shaama M.S., Shane Yost, Joonho Lee, David Small,
  Daniel Levine, Susi Lehtola, Hugh Burton, Evgeny Epifanovsky,
  Bang C. Huynh
 -----------------------------------------------------------------------
 Hartree-Fock
 using 64 threads for integral computing
 -------------------------------------------------------
 OpenMP Integral computing Module                
 Release: version 1.0, May 2013, Q-Chem Inc. Pittsburgh 
 -------------------------------------------------------
 A restricted SCF calculation will be
 performed using DIIS
 SCF converges when DIIS error is below 1.0e-06
 ---------------------------------------
  Cycle       Energy         DIIS error
 ---------------------------------------
    1   -1184.3085984881      2.39e-02  
    2   -1179.5068190974      1.60e-03  
    3   -1179.6288242311      6.02e-04  
    4   -1179.6424493707      3.23e-04  
    5   -1179.6469244093      6.42e-05  
    6   -1179.6472077193      3.08e-05  
    7   -1179.6472980676      1.33e-05  
    8   -1179.6473290665      5.39e-06  
    9   -1179.6473351631      2.13e-06  
   10   -1179.6473358792      7.82e-07  Convergence criterion met
 ---------------------------------------
 SCF time:   CPU 1597.28s  wall 47.00s 

************** Final PCM Free Energy Summary **************
 G_electrostatic  =      -0.00798275 hartree =      -5.00924830 kcal/mol
 G_cavitation     =       0.00000000 hartree =       0.00000000 kcal/mol
 G_dispersion     =       0.00000000 hartree =       0.00000000 kcal/mol
 G_repulsion      =       0.00000000 hartree =       0.00000000 kcal/mol
 --------------------------------------------------
 Non-electrostatic Free Energy =       0.00000000 hartree =       0.00000000 kcal/mol
 Total                         =      -0.00798275 hartree =      -5.00924830 kcal/mol
 --------------------------------------------------
 SCF Energy (H0 + V/2)                       =   -1179.64733588 
 Solute Internal Energy (H0)                 =   -1179.63935313 
 Total Free Energy (H0 + V/2 + non-elec)     =   -1179.64733588 hartree
                                             = -740239.87570410 kcal/mol
***********************************************************

 SCF   energy in the final basis set =    -1179.6473358792
 Total energy in the final basis set =    -1179.6473358792


 --------------------------------------------------------------
  Generalized many-body perturbation theory program
  by Joonho Lee, Fazle Rob, Xintian Feng, Evgeny Epifanovsky

 No regularization used 
 (reg. param. = 0.0000e+00)
  (P|Q)^-1/2 Time:  CPU 37.00 s  wall 0.60 s

 In RI-MP2 calculation: 
 # of frozen core orbitals: 20

 Components of the RIMP2 correlation energy:
        aaaa    correlation energy =        -0.2549779063 a.u.
        abab    correlation energy =        -1.4805998254 a.u.
        bbbb    correlation energy =        -0.2549779063 a.u.
        non-Brillouin singles      =        -0.0000000000 a.u.
        total same-spin energy     =        -0.5099558126 a.u.
        total opposite-spin energy =        -1.4805998254 a.u.

 Total  RIMP2   correlation energy =        -1.9905556380 a.u.
        RIMP2         total energy =     -1181.6378915172 a.u.

 RI-MP2 Energy Time:  CPU 181.66 s  wall 3.97 s
 
 --------------------------------------------------------------
 
                    Orbital Energies (a.u.)
 --------------------------------------------------------------
 
 Alpha MOs
 -- Occupied --
-91.9831 -91.9799 -11.2799 -11.2739 -11.2734 -11.2652 -11.2530 -11.2495
-11.2439 -11.2408 -11.2299 -11.2250  -8.9837  -8.9801  -6.6644  -6.6637
 -6.6632  -6.6611  -6.6605  -6.6599  -1.1846  -1.1479  -1.0437  -1.0232
 -0.9982  -0.9513  -0.9120  -0.8959  -0.7956  -0.7652  -0.7217  -0.6948
 -0.6585  -0.6172  -0.5856  -0.5824  -0.5777  -0.5695  -0.5510  -0.5330
 -0.5228  -0.5221  -0.5117  -0.4960  -0.4785  -0.4631  -0.4463  -0.3702
 -0.3408  -0.3377  -0.2649
 -- Virtual --
  0.0602   0.1288   0.1423   0.1560   0.1636   0.1696   0.1800   0.1869
  0.1935   0.1968   0.2046   0.2128   0.2337   0.2384   0.2432   0.2465
  0.2722   0.2785   0.2908   0.3155   0.3416   0.3544   0.3666   0.3697
  0.3781   0.3851   0.4025   0.4083   0.4158   0.4213   0.4454   0.4505
  0.4526   0.4609   0.4654   0.4769   0.4837   0.4851   0.4922   0.5098
  0.5109   0.5206   0.5294   0.5362   0.5489   0.5533   0.5571   0.5717
  0.5811   0.5866   0.5925   0.5950   0.5997   0.6137   0.6227   0.6252
  0.6304   0.6352   0.6403   0.6443   0.6508   0.6552   0.6601   0.6691
  0.6780   0.6919   0.7009   0.7072   0.7257   0.7360   0.7548   0.7595
  0.7651   0.7764   0.7873   0.7991   0.8270   0.8328   0.8407   0.8469
  0.8591   0.8614   0.8686   0.8775   0.8991   0.9189   0.9385   0.9402
  0.9495   0.9700   0.9718   0.9912   1.0040   1.0115   1.0181   1.0344
  1.0522   1.0550   1.0686   1.0714   1.0817   1.0859   1.1001   1.1057
  1.1153   1.1238   1.1441   1.1460   1.1624   1.1660   1.1764   1.1952
  1.2049   1.2202   1.2246   1.2374   1.2461   1.2619   1.2653   1.2712
  1.2875   1.2952   1.3059   1.3107   1.3427   1.3486   1.3590   1.3747
  1.3820   1.3973   1.4095   1.4137   1.4195   1.4282   1.4411   1.4540
  1.4778   1.4889   1.4958   1.5116   1.5142   1.5282   1.5386   1.5483
  1.5540   1.5644   1.5665   1.5717   1.5812   1.5929   1.6115   1.6233
  1.6522   1.6631   1.6822   1.6844   1.6984   1.7053   1.7101   1.7322
  1.7543   1.7730   1.7762   1.7818   1.8076   1.8271   1.8379   1.8676
  1.8779   1.9003   1.9209   1.9252   1.9378   1.9655   1.9818   1.9944
  2.0603   2.0723   2.0930   2.1023   2.1111   2.1214   2.1327   2.1735
  2.1876   2.1915   2.2031   2.2210   2.2508   2.2655   2.2716   2.2832
  2.2971   2.3125   2.3397   2.3714   2.4033   2.4250   2.4356   2.4601
  2.4781   2.5008   2.5097   2.5335   2.5394   2.5487   2.5915   2.6069
  2.6235   2.6302   2.6556   2.6653   2.6829   2.7060   2.7144   2.7278
  2.7370   2.7425   2.7572   2.7605   2.7793   2.7937   2.8047   2.8195
  2.8258   2.8325   2.8511   2.8534   2.8752   2.9174   2.9208   2.9477
  2.9643   2.9798   2.9840   3.0050   3.0159   3.0220   3.0388   3.0496
  3.0589   3.0639   3.0788   3.1096   3.1178   3.1285   3.1421   3.1445
  3.1562   3.1624   3.1764   3.1790   3.1925   3.2054   3.2084   3.2257
  3.2316   3.2444   3.2598   3.2656   3.2852   3.2877   3.2971   3.3099
  3.3156   3.3253   3.3337   3.3460   3.3537   3.3621   3.3648   3.3814
  3.3913   3.3969   3.4049   3.4136   3.4203   3.4302   3.4362   3.4441
  3.4484   3.4721   3.4811   3.4840   3.5011   3.5109   3.5165   3.5261
  3.5350   3.5386   3.5413   3.5501   3.5596   3.5795   3.5913   3.5976
  3.6124   3.6174   3.6297   3.6404   3.6438   3.6584   3.6623   3.6700
  3.6877   3.7075   3.7215   3.7243   3.7313   3.7370   3.7448   3.7555
  3.7611   3.7911   3.7938   3.8088   3.8127   3.8274   3.8347   3.8507
  3.8631   3.8832   3.8883   3.9025   3.9106   3.9369   3.9449   3.9636
  3.9665   3.9837   3.9947   4.0173   4.0205   4.0279   4.0415   4.0455
  4.0713   4.0796   4.0840   4.0912   4.1157   4.1279   4.1393   4.1671
  4.1782   4.1812   4.1981   4.1999   4.2135   4.2220   4.2280   4.2445
  4.2598   4.2690   4.2832   4.2978   4.3033   4.3143   4.3292   4.3373
  4.3448   4.3659   4.3763   4.3866   4.3954   4.4017   4.4167   4.4417
  4.4540   4.4606   4.4883   4.4965   4.5065   4.5242   4.5364   4.5709
  4.5983   4.6102   4.6206   4.6277   4.6436   4.6527   4.6766   4.6912
  4.7050   4.7086   4.7331   4.7522   4.7713   4.8041   4.8072   4.8443
  4.8605   4.8774   4.8991   4.9315   4.9431   4.9567   4.9731   5.0579
  5.0811   5.0915   5.1133   5.1615   5.1672   5.1733   5.1990   5.2083
  5.2781   5.2830   5.2942   5.3126   5.3163   5.3666   5.3961   5.4049
  5.4087   5.4417   5.4658   5.4803   5.5191   5.5319   5.5475   5.5620
  5.5741   5.6078   5.6224   5.6289   5.6387   5.6540   5.6966   5.7247
  5.7901   5.8206   5.9415   5.9656   6.0285   6.0772   6.1220   6.2174
  6.2271   6.2559   6.2690   6.2986   6.3578   6.3696   6.5203   8.6138
  9.6777  11.5435  12.1776  12.8535  13.1471  13.7243  13.8685  14.2091
 14.4564
 --------------------------------------------------------------
 
          Ground-State Mulliken Net Atomic Charges

     Atom                 Charge (a.u.)
  ----------------------------------------
      1 C                    -0.224268
      2 C                    -0.250946
      3 C                     0.044316
      4 H                     0.184652
      5 C                    -0.031414
      6 S                    -0.007708
      7 C                    -0.306946
      8 H                     0.110160
      9 H                     0.118214
     10 H                     0.110229
     11 H                     0.203669
     12 C                    -0.008995
     13 C                    -0.199807
     14 C                     0.018151
     15 H                     0.180401
     16 C                    -0.229425
     17 S                     0.037892
     18 C                    -0.267271
     19 H                     0.103070
     20 H                     0.108379
     21 H                     0.107218
     22 H                     0.200428
  ----------------------------------------
  Sum of atomic charges =     0.000000

 -----------------------------------------------------------------
                    Cartesian Multipole Moments
 -----------------------------------------------------------------
    Charge (ESU x 10^10)
                -0.0000
    Dipole Moment (Debye)
         X       1.9025      Y       0.7660      Z      -0.1318
       Tot       2.0552
    Quadrupole Moments (Debye-Ang)
        XX     -87.6067     XY       5.1902     YY     -75.4819
        XZ      -0.6996     YZ       3.1669     ZZ     -80.0304
    Octopole Moments (Debye-Ang^2)
       XXX    -128.5661    XXY      79.9772    XYY     -30.4854
       YYY     134.8087    XXZ      -1.1433    XYZ       2.8996
       YYZ       0.8054    XZZ     -38.9212    YZZ      52.3975
       ZZZ       5.5940
    Hexadecapole Moments (Debye-Ang^3)
      XXXX    -535.1663   XXXY    -220.8330   XXYY    -537.5196
      XYYY    -202.9462   YYYY   -2298.2322   XXXZ     -19.1653
      XXYZ     -30.8541   XYYZ     -29.4763   YYYZ    -114.9021
      XXZZ    -269.1247   XYZZ     -69.5059   YYZZ    -556.1274
      XZZZ     -22.6719   YZZZ     -70.7493   ZZZZ   -1067.2922
 -----------------------------------------------------------------
 Total job time:  56.40s(wall), 2004.09s(cpu) 
 Wed Dec 13 15:52:02 2023

        *************************************************************
        *                                                           *
        *  Thank you very much for using Q-Chem.  Have a nice day.  *
        *                                                           *
        *************************************************************


0 sent ACK to 0 
now end server 0 ... 
cleanup process ... done
remove work dirs ./qchem2593168.0 -- ./qchem2593168.0
rm -rf ./qchem2593168.0
rm -rf ./qchem2593168
