You are running Q-Chem version: 5.4.0

#
# job setting
#
local host:  exp-1-44
current dir: /home/rramji/project-csd799/aromodel/p3ht-qchem/rotation-run
input file:  Methylthiophene_Phi_15_Theta_250_Methylthiophene.qcin
output file: 
nprocs     : 1
nthreads   : 64
#
# qchem installation setting
#
QC:          /cm/shared/apps/spack/cpu/opt/spack/linux-centos8-zen2/gcc-10.2.0/qchem-5.4-akfmr7b3t57bfs6qan3padb2wnb2i7cl
QCAUX:       /cm/shared/apps/spack/cpu/opt/spack/linux-centos8-zen2/gcc-10.2.0/qchem-5.4-akfmr7b3t57bfs6qan3padb2wnb2i7cl/qcaux
QCPROG:      /cm/shared/apps/spack/cpu/opt/spack/linux-centos8-zen2/gcc-10.2.0/qchem-5.4-akfmr7b3t57bfs6qan3padb2wnb2i7cl/exe/qcprog.exe
QCPROG_S:    /cm/shared/apps/spack/cpu/opt/spack/linux-centos8-zen2/gcc-10.2.0/qchem-5.4-akfmr7b3t57bfs6qan3padb2wnb2i7cl/exe/qcprog.exe_s
PARALLEL:    -DPARALLEL
QCMPI:       mpich
#
# qchem directory setting
#
qcrun:       qchem2794361
QCSCRATCH:   .
QCLOCALSCR:  
QCTMPDIR:    .
QCFILEPREF:  ./qchem2794361
QCSAVEDIR:   
workdirs:    ./qchem2794361
workdir0:    ./qchem2794361
partmpdirs =  
#
# parallel setting
#
QCRSH:           ssh
QCMPI:           mpich
QCMPIRUN:        /cm/shared/apps/spack/cpu/opt/spack/linux-centos8-zen2/gcc-10.2.0/qchem-5.4-akfmr7b3t57bfs6qan3padb2wnb2i7cl/bin/mpi/mpirun_qchem
QCMACHINEFILE:   ./qchem2794361/hostfile
exp-1-44

#
# env setting
#
exported envs:   QC QCAUX QCSCRATCH QCRUNNAME QCFILEPREF QCPROG QCPROG_S GUIFILE

Running Job 1 of 1 Methylthiophene_Phi_15_Theta_250_Methylthiophene.qcin
qchem Methylthiophene_Phi_15_Theta_250_Methylthiophene.qcin_2794361.0 ./qchem2794361/ 1
/cm/shared/apps/spack/cpu/opt/spack/linux-centos8-zen2/gcc-10.2.0/qchem-5.4-akfmr7b3t57bfs6qan3padb2wnb2i7cl/bin/mpi/mpirun_qchem -machinefile ./qchem2794361/hostfile -np 1 /cm/shared/apps/spack/cpu/opt/spack/linux-centos8-zen2/gcc-10.2.0/qchem-5.4-akfmr7b3t57bfs6qan3padb2wnb2i7cl/exe/qcprog.exe Methylthiophene_Phi_15_Theta_250_Methylthiophene.qcin_2794361.0 ./qchem2794361/

Process 0 of 1 is on exp-1-44 - thread support 0
initial socket setup ...start
initial socket setup ...done 
now start server 0 ... 
                  Welcome to Q-Chem
     A Quantum Leap Into The Future Of Chemistry


 Q-Chem 5.4, Q-Chem, Inc., Pleasanton, CA (2021)

 License issued to: University of California, San Diego (site)

 E. Epifanovsky,  A. T. B. Gilbert,  Xintian Feng,  Joonho Lee,  Yuezhi Mao,  
 N. Mardirossian,  P. Pokhilko,  A. White,  M. Wormit,  M. P. Coons,  
 A. L. Dempwolff,  Zhengting Gan,  D. Hait,  P. R. Horn,  L. D. Jacobson,  
 I. Kaliman,  J. Kussmann,  A. W. Lange,  Ka Un Lao,  D. S. Levine,  Jie Liu,  
 S. C. McKenzie,  A. F. Morrison,  K. Nanda,  F. Plasser,  D. R. Rehn,  
 M. L. Vidal,  Zhi-Qiang You,  Ying Zhu,  B. Alam,  B. Albrecht,  
 A. Aldossary,  E. Alguire,  J. H. Andersen,  D. Barton,  K. Begam,  A. Behn,  
 Y. A. Bernard,  E. J. Berquist,  H. Burton,  A. Carreras,  K. Carter-Fenk,  
 R. Chakraborty,  A. D. Chien,  K. D. Closser,  V. Cofer-Shabica,  
 S. Dasgupta,  Jia Deng,  M. de Wergifosse,  M. Diedenhofen,  Hainam Do,  
 S. Ehlert,  Po-Tung Fang,  S. Fatehi,  Qingguo Feng,  J. Gayvert,  
 Qinghui Ge,  G. Gidofalvi,  M. Goldey,  J. Gomes,  C. Gonzalez-Espinoza,  
 S. Gulania,  A. Gunina,  M. W. D. Hanson-Heine,  P. H. P. Harbach,  
 A. W. Hauser,  M. F. Herbst,  M. Hernandez Vera,  M. Hodecker,  
 Z. C. Holden,  S. Houck,  Xunkun Huang,  Kerwin Hui,  B. C. Huynh,  
 M. Ivanov,  Hyunjun Ji,  Hanjie Jiang,  B. Kaduk,  S. Kaehler,  
 K. Khistyaev,  Jaehoon Kim,  P. Klunzinger,  Z. Koczor-Benda,  
 Joong Hoon Koh,  D. Kosenkov,  L. Koulias,  T. Kowalczyk,  C. M. Krauter,  
 K. Kue,  A. Kunitsa,  T. Kus,  A. Landau,  K. V. Lawler,  D. Lefrancois,  
 S. Lehtola,  Rain Li,  Yi-Pei Li,  Jiashu Liang,  M. Liebenthal,  
 Hung-Hsuan Lin,  You-Sheng Lin,  Fenglai Liu,  Kuan-Yu Liu,  
 M. Loipersberger,  A. Luenser,  A. Manjanath,  P. Manohar,  E. Mansoor,  
 S. F. Manzer,  Shan-Ping Mao,  A. V. Marenich,  T. Markovich,  S. Mason,  
 S. A. Maurer,  P. F. McLaughlin,  M. F. S. J. Menger,  J.-M. Mewes,  
 S. A. Mewes,  P. Morgante,  J. W. Mullinax,  T. S. Nguyen-Beck,  
 K. J. Oosterbaan,  G. Paran,  Alexander C. Paul,  Suranjan K. Paul,  
 F. Pavosevic,  Zheng Pei,  S. Prager,  E. I. Proynov,  E. Ramos,  B. Rana,  
 A. E. Rask,  A. Rettig,  R. M. Richard,  F. Rob,  E. Rossomme,  T. Scheele,  
 M. Scheurer,  M. Schneider,  N. Sergueev,  S. M. Sharada,  W. Skomorowski,  
 D. W. Small,  C. J. Stein,  Yu-Chuan Su,  E. J. Sundstrom,  Zhen Tao,  
 J. Thirman,  T. Tsuchimochi,  N. M. Tubman,  S. P. Veccham,  O. Vydrov,  
 J. Wenzel,  J. Witte,  A. Yamada,  Kun Yao,  S. Yeganeh,  S. R. Yost,  
 A. Zech,  Igor Ying Zhang,  Xing Zhang,  Yu Zhang,  D. Zuev,  
 A. Aspuru-Guzik,  A. T. Bell,  N. A. Besley,  K. B. Bravaya,  B. R. Brooks,  
 D. Casanova,  Jeng-Da Chai,  S. Coriani,  C. J. Cramer,  
 A. E. DePrince, III,  R. A. DiStasio Jr.,  A. Dreuw,  B. D. Dunietz,  
 T. R. Furlani,  W. A. Goddard III,  S. Grimme,  S. Hammes-Schiffer,  
 T. Head-Gordon,  W. J. Hehre,  Chao-Ping Hsu,  T.-C. Jagau,  Yousung Jung,  
 A. Klamt,  Jing Kong,  D. S. Lambrecht,  WanZhen Liang,  N. J. Mayhall,  
 C. W. McCurdy,  J. B. Neaton,  C. Ochsenfeld,  J. A. Parkhill,  R. Peverati,  
 V. A. Rassolov,  Yihan Shao,  L. V. Slipchenko,  T. Stauch,  R. P. Steele,  
 J. E. Subotnik,  A. J. W. Thom,  A. Tkatchenko,  D. G. Truhlar,  
 T. Van Voorhis,  T. A. Wesolowski,  K. B. Whaley,  H. L. Woodcock III,  
 P. M. Zimmerman,  S. Faraji,  P. M. W. Gill,  M. Head-Gordon,  
 J. M. Herbert,  A. I. Krylov

 Contributors to earlier versions of Q-Chem not listed above: 
 R. D. Adamson,  B. Austin,  R. Baer,  J. Baker,  G. J. O. Beran,  
 K. Brandhorst,  S. T. Brown,  E. F. C. Byrd,  A. K. Chakraborty,  
 G. K. L. Chan,  Chun-Min Chang,  Yunqing Chen,  C.-L. Cheng,  
 Siu Hung Chien,  D. M. Chipman,  D. L. Crittenden,  H. Dachsel,  
 R. J. Doerksen,  A. D. Dutoi,  R. G. Edgar,  J. Fosso-Tande,  
 L. Fusti-Molnar,  D. Ghosh,  A. Ghysels,  A. Golubeva-Zadorozhnaya,  
 J. Gonthier,  M. S. Gordon,  S. R. Gwaltney,  G. Hawkins,  J. E. Herr,  
 A. Heyden,  S. Hirata,  E. G. Hohenstein,  G. Kedziora,  F. J. Keil,  
 C. Kelley,  Jihan Kim,  R. A. King,  R. Z. Khaliullin,  P. P. Korambath,  
 W. Kurlancheek,  A. Laurent,  A. M. Lee,  M. S. Lee,  S. V. Levchenko,  
 Ching Yeh Lin,  D. Liotard,  E. Livshits,  R. C. Lochan,  I. Lotan,  
 L. A. Martinez-Martinez,  P. E. Maslen,  N. Nair,  D. P. O'Neill,  
 D. Neuhauser,  E. Neuscamman,  C. M. Oana,  R. Olivares-Amaya,  R. Olson,  
 T. M. Perrine,  B. Peters,  P. A. Pieniazek,  A. Prociuk,  Y. M. Rhee,  
 J. Ritchie,  M. A. Rohrdanz,  E. Rosta,  N. J. Russ,  H. F. Schaefer III,  
 M. W. Schmidt,  N. E. Schultz,  S. Sharma,  N. Shenvi,  C. D. Sherrill,  
 A. C. Simmonett,  A. Sodt,  T. Stein,  D. Stuck,  K. S. Thanthiriwatte,  
 V. Vanovschi,  L. Vogt,  Tao Wang,  A. Warshel,  M. A. Watson,  
 C. F. Williams,  Q. Wu,  X. Xu,  Jun Yang,  W. Zhang,  Yan Zhao

 Please cite Q-Chem as follows:
 Y. Shao et al., Mol. Phys. 113, 184-215 (2015)
 DOI: 10.1080/00268976.2014.952696

 Q-Chem 5.4.0 for Intel X86 EM64T Linux

 Parts of Q-Chem use Armadillo 9.800.1 (Horizon Scraper).
 http://arma.sourceforge.net/

 Q-Chem begins on Wed Dec 13 16:15:12 2023  

 Host: 
0

     Scratch files written to ./qchem2794361//
 May1621 |scratch|qcdevops|jenkins|workspace|build_RNUM    
 Parallel job on  1  processors
 Processing $rem in /cm/shared/apps/spack/cpu/opt/spack/linux-centos8-zen2/gcc-10.2.0/qchem-5.4-akfmr7b3t57bfs6qan3padb2wnb2i7cl/config/preferences:
 Processing $rem in /home/rramji/.qchemrc:
 Symmetry turned off for PCM/SM12/SMD calculation
 Core orbitals will be frozen

 Checking the input file for inconsistencies... 	...done.

 Q-Chem warning in module forms1/BasisType.C, line 2236:

 You are not using the predefined 5D/6D in this basis set.


--------------------------------------------------------------
User input:
--------------------------------------------------------------
$molecule
0 1
C	0.681143	-3.887800	-0.246754
C	-0.620906	-3.701456	0.227093
C	-1.019618	-2.345170	0.371543
H	-1.284357	-4.545233	0.468992
C	-0.000000	-1.450135	-0.000000
S	1.435522	-2.321334	-0.522097
C	-2.378731	-1.934439	0.866035
H	-3.003272	-2.819799	1.093799
H	-2.924444	-1.326210	0.114688
H	-2.313987	-1.325374	1.791841
H	1.229547	-4.815326	-0.445911
C	0.000000	0.000000	0.000000
C	0.215623	0.816623	1.113020
C	0.571102	2.161411	0.820578
H	0.116470	0.441406	2.142881
C	0.634696	2.401276	-0.563588
S	0.247646	0.938489	-1.464748
C	0.843182	3.190669	1.882380
H	0.728628	2.757614	2.894974
H	0.148095	4.052998	1.808137
H	1.873652	3.596752	1.808230
H	0.879464	3.327513	-1.097114
$end

$rem
JOBTYPE		SP
EXCHANGE	HF
CORRELATION	pRIMP2
BASIS		cc-pvtz
METHOD		rimp2
AUX_BASIS	rimp2-cc-pvtz
SOLVENT_METHOD	PCM
PURECART	11111
SYMMETRY	false
MEM_TOTAL	110000
SCF_CONVERGENCE = 6
THRESH=10
GUI = 2
$end



$solvent
dielectric 4.90
$end
--------------------------------------------------------------
 ----------------------------------------------------------------
             Standard Nuclear Orientation (Angstroms)
    I     Atom           X                Y                Z
 ----------------------------------------------------------------
    1      C       0.6811430000    -3.8878000000    -0.2467540000
    2      C      -0.6209060000    -3.7014560000     0.2270930000
    3      C      -1.0196180000    -2.3451700000     0.3715430000
    4      H      -1.2843570000    -4.5452330000     0.4689920000
    5      C       0.0000000000    -1.4501350000     0.0000000000
    6      S       1.4355220000    -2.3213340000    -0.5220970000
    7      C      -2.3787310000    -1.9344390000     0.8660350000
    8      H      -3.0032720000    -2.8197990000     1.0937990000
    9      H      -2.9244440000    -1.3262100000     0.1146880000
   10      H      -2.3139870000    -1.3253740000     1.7918410000
   11      H       1.2295470000    -4.8153260000    -0.4459110000
   12      C       0.0000000000     0.0000000000     0.0000000000
   13      C       0.2156230000     0.8166230000     1.1130200000
   14      C       0.5711020000     2.1614110000     0.8205780000
   15      H       0.1164700000     0.4414060000     2.1428810000
   16      C       0.6346960000     2.4012760000    -0.5635880000
   17      S       0.2476460000     0.9384890000    -1.4647480000
   18      C       0.8431820000     3.1906690000     1.8823800000
   19      H       0.7286280000     2.7576140000     2.8949740000
   20      H       0.1480950000     4.0529980000     1.8081370000
   21      H       1.8736520000     3.5967520000     1.8082300000
   22      H       0.8794640000     3.3275130000    -1.0971140000
 ----------------------------------------------------------------
 Nuclear Repulsion Energy =         833.68246997 hartrees
 There are       51 alpha and       51 beta electrons
 Requested basis set is cc-pVTZ
 There are 184 shells and 508 basis functions

 Total QAlloc Memory Limit 110000 MB
 Mega-Array Size       188 MB
 MEM_STATIC part       192 MB
 Discretize the solute cavity surface with Lebedev spheres
	Using 110 Lebedev grid points for each H atom
	Using 194 Lebedev grid points for other atoms
	Atomic van der Waals radii will be scaled by 1.20
 Remove points where switching function is < 1.0e-08
 Keep 1564 surface tesserae and discard 1864 interior tesserae
 Molecular Surface Area = 236.932 Angst**2
 Requested basis set is rimp2-cc-pVTZ
 There are 394 shells and 1354 basis functions
 A cutoff of  1.0D-10 yielded  12209 shell pairs
 There are     90599 function pairs (    116983 Cartesian)
 Smallest overlap matrix eigenvalue = 7.64E-05

 Scale SEOQF with 1.000000e-01/1.000000e-01/1.000000e-01

 Standard Electronic Orientation quadrupole field applied
 Nucleus-field energy     =     0.0000000339 hartrees
 Guess from superposition of atomic densities
 Warning:  Energy on first SCF cycle will be non-variational
 SAD guess density has 102.000000 electrons

 -----------------------------------------------------------------------
  General SCF calculation program by
  Eric Jon Sundstrom, Paul Horn, Yuezhi Mao, Dmitri Zuev, Alec White,
  David Stuck, Shaama M.S., Shane Yost, Joonho Lee, David Small,
  Daniel Levine, Susi Lehtola, Hugh Burton, Evgeny Epifanovsky,
  Bang C. Huynh
 -----------------------------------------------------------------------
 Hartree-Fock
 using 64 threads for integral computing
 -------------------------------------------------------
 OpenMP Integral computing Module                
 Release: version 1.0, May 2013, Q-Chem Inc. Pittsburgh 
 -------------------------------------------------------
 A restricted SCF calculation will be
 performed using DIIS
 SCF converges when DIIS error is below 1.0e-06
 ---------------------------------------
  Cycle       Energy         DIIS error
 ---------------------------------------
    1   -1184.1873582001      2.38e-02  
    2   -1179.5436976168      1.60e-03  
    3   -1179.6632216895      6.18e-04  
    4   -1179.6767874845      3.42e-04  
    5   -1179.6816581939      6.72e-05  
    6   -1179.6819386336      3.07e-05  
    7   -1179.6820253130      1.26e-05  
    8   -1179.6820530382      5.31e-06  
    9   -1179.6820579162      1.66e-06  
   10   -1179.6820583638      5.07e-07  Convergence criterion met
 ---------------------------------------
 SCF time:   CPU 1506.28s  wall 44.00s 

************** Final PCM Free Energy Summary **************
 G_electrostatic  =      -0.00799953 hartree =      -5.01978298 kcal/mol
 G_cavitation     =       0.00000000 hartree =       0.00000000 kcal/mol
 G_dispersion     =       0.00000000 hartree =       0.00000000 kcal/mol
 G_repulsion      =       0.00000000 hartree =       0.00000000 kcal/mol
 --------------------------------------------------
 Non-electrostatic Free Energy =       0.00000000 hartree =       0.00000000 kcal/mol
 Total                         =      -0.00799953 hartree =      -5.01978298 kcal/mol
 --------------------------------------------------
 SCF Energy (H0 + V/2)                       =   -1179.68205836 
 Solute Internal Energy (H0)                 =   -1179.67405883 
 Total Free Energy (H0 + V/2 + non-elec)     =   -1179.68205836 hartree
                                             = -740261.66439208 kcal/mol
***********************************************************

 SCF   energy in the final basis set =    -1179.6820583638
 Total energy in the final basis set =    -1179.6820583638


 --------------------------------------------------------------
  Generalized many-body perturbation theory program
  by Joonho Lee, Fazle Rob, Xintian Feng, Evgeny Epifanovsky

 No regularization used 
 (reg. param. = 0.0000e+00)
  (P|Q)^-1/2 Time:  CPU 22.14 s  wall 0.36 s

 In RI-MP2 calculation: 
 # of frozen core orbitals: 20

 Components of the RIMP2 correlation energy:
        aaaa    correlation energy =        -0.2522570933 a.u.
        abab    correlation energy =        -1.4739351197 a.u.
        bbbb    correlation energy =        -0.2522570933 a.u.
        non-Brillouin singles      =        -0.0000000000 a.u.
        total same-spin energy     =        -0.5045141866 a.u.
        total opposite-spin energy =        -1.4739351197 a.u.

 Total  RIMP2   correlation energy =        -1.9784493062 a.u.
        RIMP2         total energy =     -1181.6605076701 a.u.

 RI-MP2 Energy Time:  CPU 156.28 s  wall 2.81 s
 
 --------------------------------------------------------------
 
                    Orbital Energies (a.u.)
 --------------------------------------------------------------
 
 Alpha MOs
 -- Occupied --
-91.9858 -91.9850 -11.2783 -11.2739 -11.2719 -11.2662 -11.2520 -11.2513
-11.2428 -11.2418 -11.2293 -11.2290  -8.9853  -8.9846  -6.6661  -6.6656
 -6.6654  -6.6650  -6.6649  -6.6643  -1.1784  -1.1495  -1.0396  -1.0229
 -0.9963  -0.9545  -0.9125  -0.8928  -0.8003  -0.7518  -0.7314  -0.6949
 -0.6616  -0.6164  -0.5834  -0.5794  -0.5698  -0.5679  -0.5515  -0.5316
 -0.5300  -0.5195  -0.5073  -0.4917  -0.4866  -0.4670  -0.4614  -0.3496
 -0.3378  -0.3278  -0.2953
 -- Virtual --
  0.0830   0.1080   0.1421   0.1495   0.1626   0.1747   0.1764   0.1870
  0.1906   0.1965   0.2028   0.2193   0.2316   0.2323   0.2380   0.2451
  0.2516   0.2740   0.2907   0.3125   0.3381   0.3471   0.3522   0.3660
  0.3767   0.3840   0.3888   0.3955   0.4064   0.4108   0.4213   0.4327
  0.4365   0.4511   0.4686   0.4735   0.4787   0.4838   0.4890   0.4992
  0.5078   0.5125   0.5209   0.5352   0.5438   0.5523   0.5543   0.5630
  0.5728   0.5858   0.5960   0.5983   0.6024   0.6081   0.6123   0.6233
  0.6280   0.6326   0.6377   0.6429   0.6480   0.6531   0.6570   0.6645
  0.6652   0.6859   0.6910   0.7091   0.7144   0.7247   0.7337   0.7520
  0.7631   0.7824   0.7946   0.8046   0.8171   0.8337   0.8392   0.8405
  0.8446   0.8529   0.8724   0.8881   0.8992   0.9189   0.9348   0.9394
  0.9484   0.9649   0.9721   1.0006   1.0030   1.0131   1.0223   1.0261
  1.0386   1.0479   1.0624   1.0682   1.0727   1.0798   1.0892   1.1011
  1.1048   1.1173   1.1294   1.1363   1.1575   1.1730   1.1826   1.1929
  1.2022   1.2129   1.2243   1.2290   1.2434   1.2452   1.2541   1.2668
  1.2728   1.2863   1.3045   1.3314   1.3338   1.3421   1.3464   1.3697
  1.3768   1.3906   1.4066   1.4134   1.4169   1.4364   1.4545   1.4651
  1.4737   1.4811   1.5016   1.5052   1.5115   1.5244   1.5362   1.5512
  1.5557   1.5623   1.5687   1.5810   1.5885   1.5965   1.5994   1.6310
  1.6524   1.6579   1.6827   1.6875   1.6929   1.7070   1.7165   1.7261
  1.7480   1.7544   1.7660   1.7819   1.7950   1.8032   1.8264   1.8519
  1.8826   1.8955   1.9011   1.9054   1.9386   1.9480   1.9668   1.9817
  2.0081   2.0436   2.0636   2.0964   2.1147   2.1296   2.1523   2.1654
  2.1820   2.1933   2.1984   2.2214   2.2341   2.2455   2.2664   2.2779
  2.2991   2.3074   2.3279   2.3967   2.4045   2.4305   2.4411   2.4498
  2.4679   2.4959   2.5047   2.5296   2.5348   2.5622   2.5755   2.5941
  2.6054   2.6257   2.6326   2.6605   2.6720   2.6856   2.7278   2.7310
  2.7386   2.7432   2.7506   2.7613   2.7662   2.7738   2.8031   2.8121
  2.8336   2.8421   2.8523   2.8602   2.8841   2.8965   2.9168   2.9225
  2.9311   2.9559   2.9689   2.9869   2.9967   3.0163   3.0220   3.0352
  3.0399   3.0876   3.0964   3.1101   3.1143   3.1280   3.1335   3.1399
  3.1429   3.1549   3.1665   3.1769   3.1862   3.2033   3.2127   3.2203
  3.2471   3.2486   3.2587   3.2713   3.2787   3.2816   3.3027   3.3151
  3.3198   3.3246   3.3386   3.3451   3.3533   3.3600   3.3681   3.3713
  3.3825   3.3960   3.4019   3.4094   3.4124   3.4198   3.4271   3.4380
  3.4476   3.4575   3.4725   3.4841   3.4869   3.5042   3.5141   3.5222
  3.5305   3.5319   3.5368   3.5471   3.5605   3.5725   3.5898   3.6008
  3.6088   3.6185   3.6280   3.6313   3.6369   3.6395   3.6533   3.6656
  3.6725   3.6807   3.6973   3.7012   3.7196   3.7266   3.7402   3.7465
  3.7562   3.7770   3.7811   3.8004   3.8048   3.8140   3.8257   3.8470
  3.8552   3.8675   3.8753   3.8860   3.9082   3.9229   3.9475   3.9610
  3.9812   3.9901   3.9949   3.9982   4.0168   4.0356   4.0398   4.0451
  4.0729   4.0854   4.0893   4.1123   4.1137   4.1299   4.1339   4.1513
  4.1545   4.1768   4.1861   4.1960   4.2012   4.2038   4.2202   4.2276
  4.2457   4.2578   4.2647   4.2901   4.2909   4.3138   4.3200   4.3293
  4.3454   4.3560   4.3768   4.3894   4.3935   4.4002   4.4098   4.4210
  4.4274   4.4471   4.4624   4.4798   4.4867   4.5007   4.5296   4.5630
  4.5833   4.5912   4.6106   4.6223   4.6315   4.6423   4.6542   4.6716
  4.7003   4.7264   4.7318   4.7473   4.7629   4.7717   4.8245   4.8286
  4.8617   4.8900   4.8992   4.9185   4.9608   4.9802   5.0097   5.0542
  5.0988   5.1085   5.1143   5.1325   5.1677   5.1750   5.1987   5.2281
  5.2646   5.2784   5.2909   5.3002   5.3255   5.3672   5.3947   5.3985
  5.4273   5.4480   5.4655   5.4845   5.5185   5.5274   5.5469   5.5528
  5.5641   5.6050   5.6242   5.6247   5.6369   5.6641   5.6985   5.7135
  5.7735   5.8236   5.9045   5.9481   6.0118   6.0539   6.1287   6.2252
  6.2296   6.2425   6.2742   6.2947   6.3187   6.4261   6.5020   8.8537
  9.8783  11.7032  11.9933  12.9172  12.9698  13.7518  13.9351  14.2151
 14.3030
 --------------------------------------------------------------
 
          Ground-State Mulliken Net Atomic Charges

     Atom                 Charge (a.u.)
  ----------------------------------------
      1 C                    -0.208447
      2 C                    -0.251516
      3 C                     0.052749
      4 H                     0.184620
      5 C                    -0.056676
      6 S                     0.025231
      7 C                    -0.283740
      8 H                     0.107436
      9 H                     0.111021
     10 H                     0.108248
     11 H                     0.204196
     12 C                    -0.011613
     13 C                    -0.219940
     14 C                     0.017538
     15 H                     0.186539
     16 C                    -0.233990
     17 S                     0.022506
     18 C                    -0.271248
     19 H                     0.102634
     20 H                     0.107879
     21 H                     0.108331
     22 H                     0.198241
  ----------------------------------------
  Sum of atomic charges =     0.000000

 -----------------------------------------------------------------
                    Cartesian Multipole Moments
 -----------------------------------------------------------------
    Charge (ESU x 10^10)
                -0.0000
    Dipole Moment (Debye)
         X      -0.8993      Y       0.3288      Z       2.0077
       Tot       2.2244
    Quadrupole Moments (Debye-Ang)
        XX     -86.2266     XY       4.7911     YY     -69.6359
        XZ      -1.7958     YZ       0.2946     ZZ     -85.9167
    Octopole Moments (Debye-Ang^2)
       XXX     -48.6873    XXY      32.5648    XYY      -2.6540
       YYY      99.5285    XXZ      -2.8521    XYZ       7.2575
       YYZ      -6.7292    XZZ     -13.3166    YZZ      58.9860
       ZZZ      -3.3497
    Hexadecapole Moments (Debye-Ang^3)
      XXXX    -683.8311   XXXY    -116.7670   XXYY    -554.9376
      XYYY    -127.5987   YYYY   -2536.5164   XXXZ      60.3270
      XXYZ     -35.2066   XYYZ     -15.0916   YYYZ     -98.2681
      XXZZ    -221.3398   XYZZ     -33.2437   YYZZ    -604.6107
      XZZZ      65.9943   YZZZ     -98.5990   ZZZZ    -601.9043
 -----------------------------------------------------------------
 Total job time:  52.76s(wall), 1946.49s(cpu) 
 Wed Dec 13 16:16:04 2023

        *************************************************************
        *                                                           *
        *  Thank you very much for using Q-Chem.  Have a nice day.  *
        *                                                           *
        *************************************************************


0 sent ACK to 0 
now end server 0 ... 
cleanup process ... done
remove work dirs ./qchem2794361.0 -- ./qchem2794361.0
rm -rf ./qchem2794361.0
rm -rf ./qchem2794361
