You are running Q-Chem version: 5.4.0

#
# job setting
#
local host:  exp-1-36
current dir: /home/rramji/project-csd799/aromodel/p3ht-qchem/rotation-run
input file:  Methylthiophene_Phi_10_Theta_280_Methylthiophene.qcin
output file: 
nprocs     : 1
nthreads   : 64
#
# qchem installation setting
#
QC:          /cm/shared/apps/spack/cpu/opt/spack/linux-centos8-zen2/gcc-10.2.0/qchem-5.4-akfmr7b3t57bfs6qan3padb2wnb2i7cl
QCAUX:       /cm/shared/apps/spack/cpu/opt/spack/linux-centos8-zen2/gcc-10.2.0/qchem-5.4-akfmr7b3t57bfs6qan3padb2wnb2i7cl/qcaux
QCPROG:      /cm/shared/apps/spack/cpu/opt/spack/linux-centos8-zen2/gcc-10.2.0/qchem-5.4-akfmr7b3t57bfs6qan3padb2wnb2i7cl/exe/qcprog.exe
QCPROG_S:    /cm/shared/apps/spack/cpu/opt/spack/linux-centos8-zen2/gcc-10.2.0/qchem-5.4-akfmr7b3t57bfs6qan3padb2wnb2i7cl/exe/qcprog.exe_s
PARALLEL:    -DPARALLEL
QCMPI:       mpich
#
# qchem directory setting
#
qcrun:       qchem2941213
QCSCRATCH:   .
QCLOCALSCR:  
QCTMPDIR:    .
QCFILEPREF:  ./qchem2941213
QCSAVEDIR:   
workdirs:    ./qchem2941213
workdir0:    ./qchem2941213
partmpdirs =  
#
# parallel setting
#
QCRSH:           ssh
QCMPI:           mpich
QCMPIRUN:        /cm/shared/apps/spack/cpu/opt/spack/linux-centos8-zen2/gcc-10.2.0/qchem-5.4-akfmr7b3t57bfs6qan3padb2wnb2i7cl/bin/mpi/mpirun_qchem
QCMACHINEFILE:   ./qchem2941213/hostfile
exp-1-36

#
# env setting
#
exported envs:   QC QCAUX QCSCRATCH QCRUNNAME QCFILEPREF QCPROG QCPROG_S GUIFILE

Running Job 1 of 1 Methylthiophene_Phi_10_Theta_280_Methylthiophene.qcin
qchem Methylthiophene_Phi_10_Theta_280_Methylthiophene.qcin_2941213.0 ./qchem2941213/ 1
/cm/shared/apps/spack/cpu/opt/spack/linux-centos8-zen2/gcc-10.2.0/qchem-5.4-akfmr7b3t57bfs6qan3padb2wnb2i7cl/bin/mpi/mpirun_qchem -machinefile ./qchem2941213/hostfile -np 1 /cm/shared/apps/spack/cpu/opt/spack/linux-centos8-zen2/gcc-10.2.0/qchem-5.4-akfmr7b3t57bfs6qan3padb2wnb2i7cl/exe/qcprog.exe Methylthiophene_Phi_10_Theta_280_Methylthiophene.qcin_2941213.0 ./qchem2941213/

Process 0 of 1 is on exp-1-36 - thread support 0
initial socket setup ...start
initial socket setup ...done 
now start server 0 ... 
                  Welcome to Q-Chem
     A Quantum Leap Into The Future Of Chemistry


 Q-Chem 5.4, Q-Chem, Inc., Pleasanton, CA (2021)

 License issued to: University of California, San Diego (site)

 E. Epifanovsky,  A. T. B. Gilbert,  Xintian Feng,  Joonho Lee,  Yuezhi Mao,  
 N. Mardirossian,  P. Pokhilko,  A. White,  M. Wormit,  M. P. Coons,  
 A. L. Dempwolff,  Zhengting Gan,  D. Hait,  P. R. Horn,  L. D. Jacobson,  
 I. Kaliman,  J. Kussmann,  A. W. Lange,  Ka Un Lao,  D. S. Levine,  Jie Liu,  
 S. C. McKenzie,  A. F. Morrison,  K. Nanda,  F. Plasser,  D. R. Rehn,  
 M. L. Vidal,  Zhi-Qiang You,  Ying Zhu,  B. Alam,  B. Albrecht,  
 A. Aldossary,  E. Alguire,  J. H. Andersen,  D. Barton,  K. Begam,  A. Behn,  
 Y. A. Bernard,  E. J. Berquist,  H. Burton,  A. Carreras,  K. Carter-Fenk,  
 R. Chakraborty,  A. D. Chien,  K. D. Closser,  V. Cofer-Shabica,  
 S. Dasgupta,  Jia Deng,  M. de Wergifosse,  M. Diedenhofen,  Hainam Do,  
 S. Ehlert,  Po-Tung Fang,  S. Fatehi,  Qingguo Feng,  J. Gayvert,  
 Qinghui Ge,  G. Gidofalvi,  M. Goldey,  J. Gomes,  C. Gonzalez-Espinoza,  
 S. Gulania,  A. Gunina,  M. W. D. Hanson-Heine,  P. H. P. Harbach,  
 A. W. Hauser,  M. F. Herbst,  M. Hernandez Vera,  M. Hodecker,  
 Z. C. Holden,  S. Houck,  Xunkun Huang,  Kerwin Hui,  B. C. Huynh,  
 M. Ivanov,  Hyunjun Ji,  Hanjie Jiang,  B. Kaduk,  S. Kaehler,  
 K. Khistyaev,  Jaehoon Kim,  P. Klunzinger,  Z. Koczor-Benda,  
 Joong Hoon Koh,  D. Kosenkov,  L. Koulias,  T. Kowalczyk,  C. M. Krauter,  
 K. Kue,  A. Kunitsa,  T. Kus,  A. Landau,  K. V. Lawler,  D. Lefrancois,  
 S. Lehtola,  Rain Li,  Yi-Pei Li,  Jiashu Liang,  M. Liebenthal,  
 Hung-Hsuan Lin,  You-Sheng Lin,  Fenglai Liu,  Kuan-Yu Liu,  
 M. Loipersberger,  A. Luenser,  A. Manjanath,  P. Manohar,  E. Mansoor,  
 S. F. Manzer,  Shan-Ping Mao,  A. V. Marenich,  T. Markovich,  S. Mason,  
 S. A. Maurer,  P. F. McLaughlin,  M. F. S. J. Menger,  J.-M. Mewes,  
 S. A. Mewes,  P. Morgante,  J. W. Mullinax,  T. S. Nguyen-Beck,  
 K. J. Oosterbaan,  G. Paran,  Alexander C. Paul,  Suranjan K. Paul,  
 F. Pavosevic,  Zheng Pei,  S. Prager,  E. I. Proynov,  E. Ramos,  B. Rana,  
 A. E. Rask,  A. Rettig,  R. M. Richard,  F. Rob,  E. Rossomme,  T. Scheele,  
 M. Scheurer,  M. Schneider,  N. Sergueev,  S. M. Sharada,  W. Skomorowski,  
 D. W. Small,  C. J. Stein,  Yu-Chuan Su,  E. J. Sundstrom,  Zhen Tao,  
 J. Thirman,  T. Tsuchimochi,  N. M. Tubman,  S. P. Veccham,  O. Vydrov,  
 J. Wenzel,  J. Witte,  A. Yamada,  Kun Yao,  S. Yeganeh,  S. R. Yost,  
 A. Zech,  Igor Ying Zhang,  Xing Zhang,  Yu Zhang,  D. Zuev,  
 A. Aspuru-Guzik,  A. T. Bell,  N. A. Besley,  K. B. Bravaya,  B. R. Brooks,  
 D. Casanova,  Jeng-Da Chai,  S. Coriani,  C. J. Cramer,  
 A. E. DePrince, III,  R. A. DiStasio Jr.,  A. Dreuw,  B. D. Dunietz,  
 T. R. Furlani,  W. A. Goddard III,  S. Grimme,  S. Hammes-Schiffer,  
 T. Head-Gordon,  W. J. Hehre,  Chao-Ping Hsu,  T.-C. Jagau,  Yousung Jung,  
 A. Klamt,  Jing Kong,  D. S. Lambrecht,  WanZhen Liang,  N. J. Mayhall,  
 C. W. McCurdy,  J. B. Neaton,  C. Ochsenfeld,  J. A. Parkhill,  R. Peverati,  
 V. A. Rassolov,  Yihan Shao,  L. V. Slipchenko,  T. Stauch,  R. P. Steele,  
 J. E. Subotnik,  A. J. W. Thom,  A. Tkatchenko,  D. G. Truhlar,  
 T. Van Voorhis,  T. A. Wesolowski,  K. B. Whaley,  H. L. Woodcock III,  
 P. M. Zimmerman,  S. Faraji,  P. M. W. Gill,  M. Head-Gordon,  
 J. M. Herbert,  A. I. Krylov

 Contributors to earlier versions of Q-Chem not listed above: 
 R. D. Adamson,  B. Austin,  R. Baer,  J. Baker,  G. J. O. Beran,  
 K. Brandhorst,  S. T. Brown,  E. F. C. Byrd,  A. K. Chakraborty,  
 G. K. L. Chan,  Chun-Min Chang,  Yunqing Chen,  C.-L. Cheng,  
 Siu Hung Chien,  D. M. Chipman,  D. L. Crittenden,  H. Dachsel,  
 R. J. Doerksen,  A. D. Dutoi,  R. G. Edgar,  J. Fosso-Tande,  
 L. Fusti-Molnar,  D. Ghosh,  A. Ghysels,  A. Golubeva-Zadorozhnaya,  
 J. Gonthier,  M. S. Gordon,  S. R. Gwaltney,  G. Hawkins,  J. E. Herr,  
 A. Heyden,  S. Hirata,  E. G. Hohenstein,  G. Kedziora,  F. J. Keil,  
 C. Kelley,  Jihan Kim,  R. A. King,  R. Z. Khaliullin,  P. P. Korambath,  
 W. Kurlancheek,  A. Laurent,  A. M. Lee,  M. S. Lee,  S. V. Levchenko,  
 Ching Yeh Lin,  D. Liotard,  E. Livshits,  R. C. Lochan,  I. Lotan,  
 L. A. Martinez-Martinez,  P. E. Maslen,  N. Nair,  D. P. O'Neill,  
 D. Neuhauser,  E. Neuscamman,  C. M. Oana,  R. Olivares-Amaya,  R. Olson,  
 T. M. Perrine,  B. Peters,  P. A. Pieniazek,  A. Prociuk,  Y. M. Rhee,  
 J. Ritchie,  M. A. Rohrdanz,  E. Rosta,  N. J. Russ,  H. F. Schaefer III,  
 M. W. Schmidt,  N. E. Schultz,  S. Sharma,  N. Shenvi,  C. D. Sherrill,  
 A. C. Simmonett,  A. Sodt,  T. Stein,  D. Stuck,  K. S. Thanthiriwatte,  
 V. Vanovschi,  L. Vogt,  Tao Wang,  A. Warshel,  M. A. Watson,  
 C. F. Williams,  Q. Wu,  X. Xu,  Jun Yang,  W. Zhang,  Yan Zhao

 Please cite Q-Chem as follows:
 Y. Shao et al., Mol. Phys. 113, 184-215 (2015)
 DOI: 10.1080/00268976.2014.952696

 Q-Chem 5.4.0 for Intel X86 EM64T Linux

 Parts of Q-Chem use Armadillo 9.800.1 (Horizon Scraper).
 http://arma.sourceforge.net/

 Q-Chem begins on Wed Dec 13 16:18:28 2023  

 Host: 
0

     Scratch files written to ./qchem2941213//
 May1621 |scratch|qcdevops|jenkins|workspace|build_RNUM    
 Parallel job on  1  processors
 Processing $rem in /cm/shared/apps/spack/cpu/opt/spack/linux-centos8-zen2/gcc-10.2.0/qchem-5.4-akfmr7b3t57bfs6qan3padb2wnb2i7cl/config/preferences:
 Processing $rem in /home/rramji/.qchemrc:
 Symmetry turned off for PCM/SM12/SMD calculation
 Core orbitals will be frozen

 Checking the input file for inconsistencies... 	...done.

 Q-Chem warning in module forms1/BasisType.C, line 2236:

 You are not using the predefined 5D/6D in this basis set.


--------------------------------------------------------------
User input:
--------------------------------------------------------------
$molecule
0 1
C	0.713264	-3.887800	0.126876
C	-0.651267	-3.701456	-0.113784
C	-1.068787	-2.345170	-0.188043
H	-1.346782	-4.545233	-0.236019
C	0.000000	-1.450135	0.000000
S	1.504247	-2.321334	0.265612
C	-2.493059	-1.934439	-0.439357
H	-3.147809	-2.819799	-0.554378
H	-2.589987	-1.326210	-1.362899
H	-2.899892	-1.325374	0.394786
H	1.287774	-4.815326	0.228603
C	0.000000	0.000000	0.000000
C	0.143630	0.832309	1.113020
C	0.380550	2.202961	0.820578
H	0.077556	0.449877	2.142881
C	0.422995	2.447456	-0.563588
S	0.164909	0.956502	-1.464748
C	0.561888	3.252016	1.882380
H	0.485513	2.810624	2.894974
H	-0.205711	4.050482	1.808137
H	1.553045	3.746365	1.808230
H	0.586105	3.391501	-1.097114
$end

$rem
JOBTYPE		SP
EXCHANGE	HF
CORRELATION	pRIMP2
BASIS		cc-pvtz
METHOD		rimp2
AUX_BASIS	rimp2-cc-pvtz
SOLVENT_METHOD	PCM
PURECART	11111
SYMMETRY	false
MEM_TOTAL	110000
SCF_CONVERGENCE = 6
THRESH=10
GUI = 2
$end



$solvent
dielectric 4.90
$end
--------------------------------------------------------------
 ----------------------------------------------------------------
             Standard Nuclear Orientation (Angstroms)
    I     Atom           X                Y                Z
 ----------------------------------------------------------------
    1      C       0.7132640000    -3.8878000000     0.1268760000
    2      C      -0.6512670000    -3.7014560000    -0.1137840000
    3      C      -1.0687870000    -2.3451700000    -0.1880430000
    4      H      -1.3467820000    -4.5452330000    -0.2360190000
    5      C       0.0000000000    -1.4501350000     0.0000000000
    6      S       1.5042470000    -2.3213340000     0.2656120000
    7      C      -2.4930590000    -1.9344390000    -0.4393570000
    8      H      -3.1478090000    -2.8197990000    -0.5543780000
    9      H      -2.5899870000    -1.3262100000    -1.3628990000
   10      H      -2.8998920000    -1.3253740000     0.3947860000
   11      H       1.2877740000    -4.8153260000     0.2286030000
   12      C       0.0000000000     0.0000000000     0.0000000000
   13      C       0.1436300000     0.8323090000     1.1130200000
   14      C       0.3805500000     2.2029610000     0.8205780000
   15      H       0.0775560000     0.4498770000     2.1428810000
   16      C       0.4229950000     2.4474560000    -0.5635880000
   17      S       0.1649090000     0.9565020000    -1.4647480000
   18      C       0.5618880000     3.2520160000     1.8823800000
   19      H       0.4855130000     2.8106240000     2.8949740000
   20      H      -0.2057110000     4.0504820000     1.8081370000
   21      H       1.5530450000     3.7463650000     1.8082300000
   22      H       0.5861050000     3.3915010000    -1.0971140000
 ----------------------------------------------------------------
 Nuclear Repulsion Energy =         832.36858712 hartrees
 There are       51 alpha and       51 beta electrons
 Requested basis set is cc-pVTZ
 There are 184 shells and 508 basis functions

 Total QAlloc Memory Limit 110000 MB
 Mega-Array Size       188 MB
 MEM_STATIC part       192 MB
 Discretize the solute cavity surface with Lebedev spheres
	Using 110 Lebedev grid points for each H atom
	Using 194 Lebedev grid points for other atoms
	Atomic van der Waals radii will be scaled by 1.20
 Remove points where switching function is < 1.0e-08
 Keep 1578 surface tesserae and discard 1850 interior tesserae
 Molecular Surface Area = 238.360 Angst**2
 Requested basis set is rimp2-cc-pVTZ
 There are 394 shells and 1354 basis functions
 A cutoff of  1.0D-10 yielded  12138 shell pairs
 There are     90066 function pairs (    116310 Cartesian)
 Smallest overlap matrix eigenvalue = 7.65E-05

 Scale SEOQF with 1.000000e-01/1.000000e-01/1.000000e-01

 Standard Electronic Orientation quadrupole field applied
 Nucleus-field energy     =     0.0000000356 hartrees
 Guess from superposition of atomic densities
 Warning:  Energy on first SCF cycle will be non-variational
 SAD guess density has 102.000000 electrons

 -----------------------------------------------------------------------
  General SCF calculation program by
  Eric Jon Sundstrom, Paul Horn, Yuezhi Mao, Dmitri Zuev, Alec White,
  David Stuck, Shaama M.S., Shane Yost, Joonho Lee, David Small,
  Daniel Levine, Susi Lehtola, Hugh Burton, Evgeny Epifanovsky,
  Bang C. Huynh
 -----------------------------------------------------------------------
 Hartree-Fock
 using 64 threads for integral computing
 -------------------------------------------------------
 OpenMP Integral computing Module                
 Release: version 1.0, May 2013, Q-Chem Inc. Pittsburgh 
 -------------------------------------------------------
 A restricted SCF calculation will be
 performed using DIIS
 SCF converges when DIIS error is below 1.0e-06
 ---------------------------------------
  Cycle       Energy         DIIS error
 ---------------------------------------
    1   -1184.1818580355      2.38e-02  
    2   -1179.5465008097      1.59e-03  
    3   -1179.6658769874      6.13e-04  
    4   -1179.6793185115      3.39e-04  
    5   -1179.6841072370      6.72e-05  
    6   -1179.6843893405      3.07e-05  
    7   -1179.6844772107      1.27e-05  
    8   -1179.6845054015      5.28e-06  
    9   -1179.6845102842      1.65e-06  
   10   -1179.6845107069      5.05e-07  Convergence criterion met
 ---------------------------------------
 SCF time:   CPU 1555.35s  wall 48.00s 

************** Final PCM Free Energy Summary **************
 G_electrostatic  =      -0.00773943 hartree =      -4.85656428 kcal/mol
 G_cavitation     =       0.00000000 hartree =       0.00000000 kcal/mol
 G_dispersion     =       0.00000000 hartree =       0.00000000 kcal/mol
 G_repulsion      =       0.00000000 hartree =       0.00000000 kcal/mol
 --------------------------------------------------
 Non-electrostatic Free Energy =       0.00000000 hartree =       0.00000000 kcal/mol
 Total                         =      -0.00773943 hartree =      -4.85656428 kcal/mol
 --------------------------------------------------
 SCF Energy (H0 + V/2)                       =   -1179.68451071 
 Solute Internal Energy (H0)                 =   -1179.67677128 
 Total Free Energy (H0 + V/2 + non-elec)     =   -1179.68451071 hartree
                                             = -740263.20326060 kcal/mol
***********************************************************

 SCF   energy in the final basis set =    -1179.6845107069
 Total energy in the final basis set =    -1179.6845107069


 --------------------------------------------------------------
  Generalized many-body perturbation theory program
  by Joonho Lee, Fazle Rob, Xintian Feng, Evgeny Epifanovsky

 No regularization used 
 (reg. param. = 0.0000e+00)
  (P|Q)^-1/2 Time:  CPU 32.91 s  wall 0.53 s

 In RI-MP2 calculation: 
 # of frozen core orbitals: 20

 Components of the RIMP2 correlation energy:
        aaaa    correlation energy =        -0.2520934242 a.u.
        abab    correlation energy =        -1.4734779477 a.u.
        bbbb    correlation energy =        -0.2520934242 a.u.
        non-Brillouin singles      =        -0.0000000000 a.u.
        total same-spin energy     =        -0.5041868484 a.u.
        total opposite-spin energy =        -1.4734779477 a.u.

 Total  RIMP2   correlation energy =        -1.9776647961 a.u.
        RIMP2         total energy =     -1181.6621755030 a.u.

 RI-MP2 Energy Time:  CPU 181.98 s  wall 3.73 s
 
 --------------------------------------------------------------
 
                    Orbital Energies (a.u.)
 --------------------------------------------------------------
 
 Alpha MOs
 -- Occupied --
-91.9854 -91.9853 -11.2784 -11.2729 -11.2728 -11.2655 -11.2531 -11.2509
-11.2420 -11.2419 -11.2291 -11.2290  -8.9849  -8.9847  -6.6658  -6.6656
 -6.6653  -6.6651  -6.6646  -6.6645  -1.1778  -1.1495  -1.0391  -1.0227
 -0.9970  -0.9534  -0.9134  -0.8923  -0.7997  -0.7547  -0.7288  -0.6940
 -0.6621  -0.6166  -0.5824  -0.5789  -0.5710  -0.5692  -0.5514  -0.5316
 -0.5282  -0.5192  -0.5070  -0.4928  -0.4880  -0.4648  -0.4625  -0.3463
 -0.3380  -0.3209  -0.3043
 -- Virtual --
  0.0896   0.1026   0.1433   0.1477   0.1620   0.1735   0.1773   0.1854
  0.1887   0.1949   0.2040   0.2176   0.2307   0.2340   0.2403   0.2491
  0.2532   0.2642   0.2929   0.3014   0.3376   0.3446   0.3548   0.3624
  0.3762   0.3815   0.3930   0.3991   0.4076   0.4135   0.4210   0.4411
  0.4448   0.4573   0.4655   0.4696   0.4735   0.4796   0.4862   0.4955
  0.5138   0.5146   0.5311   0.5336   0.5452   0.5501   0.5559   0.5592
  0.5771   0.5822   0.5894   0.5957   0.6003   0.6100   0.6157   0.6212
  0.6246   0.6350   0.6360   0.6411   0.6448   0.6478   0.6539   0.6660
  0.6735   0.6821   0.6884   0.7103   0.7163   0.7273   0.7401   0.7530
  0.7624   0.7802   0.7978   0.8148   0.8189   0.8241   0.8285   0.8398
  0.8417   0.8552   0.8673   0.8815   0.8987   0.9218   0.9309   0.9408
  0.9525   0.9700   0.9769   0.9928   1.0007   1.0171   1.0202   1.0298
  1.0404   1.0554   1.0643   1.0684   1.0752   1.0855   1.0909   1.0968
  1.1140   1.1163   1.1339   1.1377   1.1620   1.1678   1.1744   1.1815
  1.1993   1.2138   1.2199   1.2317   1.2506   1.2563   1.2587   1.2771
  1.2847   1.2915   1.2993   1.3136   1.3239   1.3398   1.3458   1.3600
  1.3678   1.3828   1.3997   1.4171   1.4239   1.4464   1.4540   1.4628
  1.4704   1.4856   1.5019   1.5038   1.5085   1.5281   1.5343   1.5533
  1.5575   1.5661   1.5709   1.5735   1.5893   1.5920   1.6069   1.6409
  1.6484   1.6594   1.6784   1.6820   1.7007   1.7057   1.7155   1.7174
  1.7497   1.7573   1.7672   1.7715   1.7952   1.8112   1.8189   1.8495
  1.8802   1.8878   1.9030   1.9102   1.9259   1.9498   1.9578   1.9919
  2.0282   2.0420   2.0533   2.1043   2.1207   2.1327   2.1488   2.1721
  2.1849   2.1917   2.2019   2.2192   2.2430   2.2442   2.2675   2.2811
  2.3009   2.3084   2.3343   2.3970   2.4021   2.4150   2.4235   2.4518
  2.4704   2.4852   2.5083   2.5245   2.5414   2.5696   2.5809   2.5943
  2.6052   2.6268   2.6406   2.6585   2.6763   2.6865   2.7190   2.7273
  2.7329   2.7432   2.7573   2.7579   2.7597   2.7678   2.7940   2.7968
  2.8281   2.8452   2.8511   2.8618   2.8817   2.8915   2.9055   2.9129
  2.9320   2.9685   2.9708   2.9869   3.0027   3.0143   3.0274   3.0369
  3.0523   3.0864   3.0924   3.1014   3.1122   3.1193   3.1264   3.1420
  3.1447   3.1523   3.1613   3.1652   3.1855   3.2046   3.2102   3.2308
  3.2375   3.2452   3.2558   3.2801   3.2909   3.2964   3.3012   3.3048
  3.3222   3.3281   3.3318   3.3395   3.3524   3.3551   3.3594   3.3767
  3.3823   3.3936   3.3974   3.4087   3.4209   3.4225   3.4334   3.4473
  3.4516   3.4573   3.4672   3.4925   3.5029   3.5071   3.5179   3.5241
  3.5311   3.5328   3.5347   3.5472   3.5604   3.5632   3.5766   3.5958
  3.6011   3.6152   3.6180   3.6222   3.6327   3.6414   3.6550   3.6663
  3.6768   3.6882   3.7057   3.7155   3.7159   3.7301   3.7374   3.7467
  3.7543   3.7751   3.7897   3.7958   3.8030   3.8089   3.8286   3.8405
  3.8576   3.8631   3.8812   3.8910   3.9042   3.9209   3.9497   3.9644
  3.9724   3.9791   3.9932   4.0071   4.0127   4.0254   4.0317   4.0391
  4.0698   4.0843   4.0934   4.0985   4.1201   4.1341   4.1396   4.1486
  4.1632   4.1720   4.1839   4.1957   4.2026   4.2068   4.2201   4.2327
  4.2538   4.2702   4.2753   4.2806   4.2934   4.3118   4.3236   4.3311
  4.3505   4.3566   4.3697   4.3802   4.3887   4.3971   4.4032   4.4207
  4.4233   4.4437   4.4590   4.4747   4.4855   4.5066   4.5309   4.5666
  4.5796   4.5942   4.6091   4.6167   4.6299   4.6448   4.6665   4.6772
  4.7106   4.7256   4.7320   4.7416   4.7700   4.7878   4.8164   4.8366
  4.8762   4.8796   4.9025   4.9136   4.9495   4.9772   4.9887   5.0546
  5.0846   5.0985   5.1111   5.1476   5.1731   5.1822   5.1981   5.2167
  5.2676   5.2784   5.2914   5.3003   5.3311   5.3673   5.3928   5.3993
  5.4259   5.4488   5.4649   5.4751   5.5160   5.5261   5.5446   5.5583
  5.5726   5.5961   5.6154   5.6241   5.6271   5.6815   5.7026   5.7143
  5.7778   5.8246   5.8986   5.9491   6.0057   6.0441   6.1327   6.2263
  6.2284   6.2443   6.2710   6.2952   6.3227   6.4416   6.4997   8.9253
  9.8407  11.6647  11.9417  12.9104  12.9711  13.7424  13.9325  14.2061
 14.3081
 --------------------------------------------------------------
 
          Ground-State Mulliken Net Atomic Charges

     Atom                 Charge (a.u.)
  ----------------------------------------
      1 C                    -0.208065
      2 C                    -0.251257
      3 C                     0.049327
      4 H                     0.184846
      5 C                    -0.054388
      6 S                     0.025848
      7 C                    -0.283039
      8 H                     0.106725
      9 H                     0.109855
     10 H                     0.110298
     11 H                     0.204202
     12 C                    -0.000455
     13 C                    -0.236363
     14 C                     0.023131
     15 H                     0.185723
     16 C                    -0.238208
     17 S                     0.025380
     18 C                    -0.270877
     19 H                     0.102841
     20 H                     0.107809
     21 H                     0.108322
     22 H                     0.198343
  ----------------------------------------
  Sum of atomic charges =     0.000000

 -----------------------------------------------------------------
                    Cartesian Multipole Moments
 -----------------------------------------------------------------
    Charge (ESU x 10^10)
                -0.0000
    Dipole Moment (Debye)
         X      -1.1561      Y       0.2439      Z       1.2088
       Tot       1.6904
    Quadrupole Moments (Debye-Ang)
        XX     -85.9928     XY       4.0386     YY     -69.0509
        XZ       1.3591     YZ       1.5081     ZZ     -86.5321
    Octopole Moments (Debye-Ang^2)
       XXX     -30.8234    XXY      27.3812    XYY       0.6644
       YYY      96.2310    XXZ      -2.6921    XYZ      -4.5786
       YYZ      -3.7300    XZZ      -7.6228    YZZ      59.7284
       ZZZ       1.4697
    Hexadecapole Moments (Debye-Ang^3)
      XXXX    -692.5676   XXXY     -76.3713   XXYY    -558.6299
      XYYY     -98.8772   YYYY   -2559.8875   XXXZ     -61.4473
      XXYZ     -30.7322   XYYZ      -7.1112   YYYZ    -119.6970
      XXZZ    -218.2647   XYZZ     -23.1188   YYZZ    -610.0171
      XZZZ     -66.8891   YZZZ    -100.5166   ZZZZ    -552.3494
 -----------------------------------------------------------------
 Total job time:  55.23s(wall), 1893.66s(cpu) 
 Wed Dec 13 16:19:24 2023

        *************************************************************
        *                                                           *
        *  Thank you very much for using Q-Chem.  Have a nice day.  *
        *                                                           *
        *************************************************************


0 sent ACK to 0 
now end server 0 ... 
cleanup process ... done
remove work dirs ./qchem2941213.0 -- ./qchem2941213.0
rm -rf ./qchem2941213.0
rm -rf ./qchem2941213
