You are running Q-Chem version: 5.4.0

#
# job setting
#
local host:  exp-2-02
current dir: /home/rramji/project-csd799/aromodel/p3ht-qchem/rotation-run
input file:  Methylthiophene_Phi_20_Theta_30_Methylthiophene.qcin
output file: 
nprocs     : 1
nthreads   : 64
#
# qchem installation setting
#
QC:          /cm/shared/apps/spack/cpu/opt/spack/linux-centos8-zen2/gcc-10.2.0/qchem-5.4-akfmr7b3t57bfs6qan3padb2wnb2i7cl
QCAUX:       /cm/shared/apps/spack/cpu/opt/spack/linux-centos8-zen2/gcc-10.2.0/qchem-5.4-akfmr7b3t57bfs6qan3padb2wnb2i7cl/qcaux
QCPROG:      /cm/shared/apps/spack/cpu/opt/spack/linux-centos8-zen2/gcc-10.2.0/qchem-5.4-akfmr7b3t57bfs6qan3padb2wnb2i7cl/exe/qcprog.exe
QCPROG_S:    /cm/shared/apps/spack/cpu/opt/spack/linux-centos8-zen2/gcc-10.2.0/qchem-5.4-akfmr7b3t57bfs6qan3padb2wnb2i7cl/exe/qcprog.exe_s
PARALLEL:    -DPARALLEL
QCMPI:       mpich
#
# qchem directory setting
#
qcrun:       qchem1714870
QCSCRATCH:   .
QCLOCALSCR:  
QCTMPDIR:    .
QCFILEPREF:  ./qchem1714870
QCSAVEDIR:   
workdirs:    ./qchem1714870
workdir0:    ./qchem1714870
partmpdirs =  
#
# parallel setting
#
QCRSH:           ssh
QCMPI:           mpich
QCMPIRUN:        /cm/shared/apps/spack/cpu/opt/spack/linux-centos8-zen2/gcc-10.2.0/qchem-5.4-akfmr7b3t57bfs6qan3padb2wnb2i7cl/bin/mpi/mpirun_qchem
QCMACHINEFILE:   ./qchem1714870/hostfile
exp-2-02

#
# env setting
#
exported envs:   QC QCAUX QCSCRATCH QCRUNNAME QCFILEPREF QCPROG QCPROG_S GUIFILE

Running Job 1 of 1 Methylthiophene_Phi_20_Theta_30_Methylthiophene.qcin
qchem Methylthiophene_Phi_20_Theta_30_Methylthiophene.qcin_1714870.0 ./qchem1714870/ 1
/cm/shared/apps/spack/cpu/opt/spack/linux-centos8-zen2/gcc-10.2.0/qchem-5.4-akfmr7b3t57bfs6qan3padb2wnb2i7cl/bin/mpi/mpirun_qchem -machinefile ./qchem1714870/hostfile -np 1 /cm/shared/apps/spack/cpu/opt/spack/linux-centos8-zen2/gcc-10.2.0/qchem-5.4-akfmr7b3t57bfs6qan3padb2wnb2i7cl/exe/qcprog.exe Methylthiophene_Phi_20_Theta_30_Methylthiophene.qcin_1714870.0 ./qchem1714870/

Process 0 of 1 is on exp-2-02 - thread support 0
initial socket setup ...start
initial socket setup ...done 
now start server 0 ... 
                  Welcome to Q-Chem
     A Quantum Leap Into The Future Of Chemistry


 Q-Chem 5.4, Q-Chem, Inc., Pleasanton, CA (2021)

 License issued to: University of California, San Diego (site)

 E. Epifanovsky,  A. T. B. Gilbert,  Xintian Feng,  Joonho Lee,  Yuezhi Mao,  
 N. Mardirossian,  P. Pokhilko,  A. White,  M. Wormit,  M. P. Coons,  
 A. L. Dempwolff,  Zhengting Gan,  D. Hait,  P. R. Horn,  L. D. Jacobson,  
 I. Kaliman,  J. Kussmann,  A. W. Lange,  Ka Un Lao,  D. S. Levine,  Jie Liu,  
 S. C. McKenzie,  A. F. Morrison,  K. Nanda,  F. Plasser,  D. R. Rehn,  
 M. L. Vidal,  Zhi-Qiang You,  Ying Zhu,  B. Alam,  B. Albrecht,  
 A. Aldossary,  E. Alguire,  J. H. Andersen,  D. Barton,  K. Begam,  A. Behn,  
 Y. A. Bernard,  E. J. Berquist,  H. Burton,  A. Carreras,  K. Carter-Fenk,  
 R. Chakraborty,  A. D. Chien,  K. D. Closser,  V. Cofer-Shabica,  
 S. Dasgupta,  Jia Deng,  M. de Wergifosse,  M. Diedenhofen,  Hainam Do,  
 S. Ehlert,  Po-Tung Fang,  S. Fatehi,  Qingguo Feng,  J. Gayvert,  
 Qinghui Ge,  G. Gidofalvi,  M. Goldey,  J. Gomes,  C. Gonzalez-Espinoza,  
 S. Gulania,  A. Gunina,  M. W. D. Hanson-Heine,  P. H. P. Harbach,  
 A. W. Hauser,  M. F. Herbst,  M. Hernandez Vera,  M. Hodecker,  
 Z. C. Holden,  S. Houck,  Xunkun Huang,  Kerwin Hui,  B. C. Huynh,  
 M. Ivanov,  Hyunjun Ji,  Hanjie Jiang,  B. Kaduk,  S. Kaehler,  
 K. Khistyaev,  Jaehoon Kim,  P. Klunzinger,  Z. Koczor-Benda,  
 Joong Hoon Koh,  D. Kosenkov,  L. Koulias,  T. Kowalczyk,  C. M. Krauter,  
 K. Kue,  A. Kunitsa,  T. Kus,  A. Landau,  K. V. Lawler,  D. Lefrancois,  
 S. Lehtola,  Rain Li,  Yi-Pei Li,  Jiashu Liang,  M. Liebenthal,  
 Hung-Hsuan Lin,  You-Sheng Lin,  Fenglai Liu,  Kuan-Yu Liu,  
 M. Loipersberger,  A. Luenser,  A. Manjanath,  P. Manohar,  E. Mansoor,  
 S. F. Manzer,  Shan-Ping Mao,  A. V. Marenich,  T. Markovich,  S. Mason,  
 S. A. Maurer,  P. F. McLaughlin,  M. F. S. J. Menger,  J.-M. Mewes,  
 S. A. Mewes,  P. Morgante,  J. W. Mullinax,  T. S. Nguyen-Beck,  
 K. J. Oosterbaan,  G. Paran,  Alexander C. Paul,  Suranjan K. Paul,  
 F. Pavosevic,  Zheng Pei,  S. Prager,  E. I. Proynov,  E. Ramos,  B. Rana,  
 A. E. Rask,  A. Rettig,  R. M. Richard,  F. Rob,  E. Rossomme,  T. Scheele,  
 M. Scheurer,  M. Schneider,  N. Sergueev,  S. M. Sharada,  W. Skomorowski,  
 D. W. Small,  C. J. Stein,  Yu-Chuan Su,  E. J. Sundstrom,  Zhen Tao,  
 J. Thirman,  T. Tsuchimochi,  N. M. Tubman,  S. P. Veccham,  O. Vydrov,  
 J. Wenzel,  J. Witte,  A. Yamada,  Kun Yao,  S. Yeganeh,  S. R. Yost,  
 A. Zech,  Igor Ying Zhang,  Xing Zhang,  Yu Zhang,  D. Zuev,  
 A. Aspuru-Guzik,  A. T. Bell,  N. A. Besley,  K. B. Bravaya,  B. R. Brooks,  
 D. Casanova,  Jeng-Da Chai,  S. Coriani,  C. J. Cramer,  
 A. E. DePrince, III,  R. A. DiStasio Jr.,  A. Dreuw,  B. D. Dunietz,  
 T. R. Furlani,  W. A. Goddard III,  S. Grimme,  S. Hammes-Schiffer,  
 T. Head-Gordon,  W. J. Hehre,  Chao-Ping Hsu,  T.-C. Jagau,  Yousung Jung,  
 A. Klamt,  Jing Kong,  D. S. Lambrecht,  WanZhen Liang,  N. J. Mayhall,  
 C. W. McCurdy,  J. B. Neaton,  C. Ochsenfeld,  J. A. Parkhill,  R. Peverati,  
 V. A. Rassolov,  Yihan Shao,  L. V. Slipchenko,  T. Stauch,  R. P. Steele,  
 J. E. Subotnik,  A. J. W. Thom,  A. Tkatchenko,  D. G. Truhlar,  
 T. Van Voorhis,  T. A. Wesolowski,  K. B. Whaley,  H. L. Woodcock III,  
 P. M. Zimmerman,  S. Faraji,  P. M. W. Gill,  M. Head-Gordon,  
 J. M. Herbert,  A. I. Krylov

 Contributors to earlier versions of Q-Chem not listed above: 
 R. D. Adamson,  B. Austin,  R. Baer,  J. Baker,  G. J. O. Beran,  
 K. Brandhorst,  S. T. Brown,  E. F. C. Byrd,  A. K. Chakraborty,  
 G. K. L. Chan,  Chun-Min Chang,  Yunqing Chen,  C.-L. Cheng,  
 Siu Hung Chien,  D. M. Chipman,  D. L. Crittenden,  H. Dachsel,  
 R. J. Doerksen,  A. D. Dutoi,  R. G. Edgar,  J. Fosso-Tande,  
 L. Fusti-Molnar,  D. Ghosh,  A. Ghysels,  A. Golubeva-Zadorozhnaya,  
 J. Gonthier,  M. S. Gordon,  S. R. Gwaltney,  G. Hawkins,  J. E. Herr,  
 A. Heyden,  S. Hirata,  E. G. Hohenstein,  G. Kedziora,  F. J. Keil,  
 C. Kelley,  Jihan Kim,  R. A. King,  R. Z. Khaliullin,  P. P. Korambath,  
 W. Kurlancheek,  A. Laurent,  A. M. Lee,  M. S. Lee,  S. V. Levchenko,  
 Ching Yeh Lin,  D. Liotard,  E. Livshits,  R. C. Lochan,  I. Lotan,  
 L. A. Martinez-Martinez,  P. E. Maslen,  N. Nair,  D. P. O'Neill,  
 D. Neuhauser,  E. Neuscamman,  C. M. Oana,  R. Olivares-Amaya,  R. Olson,  
 T. M. Perrine,  B. Peters,  P. A. Pieniazek,  A. Prociuk,  Y. M. Rhee,  
 J. Ritchie,  M. A. Rohrdanz,  E. Rosta,  N. J. Russ,  H. F. Schaefer III,  
 M. W. Schmidt,  N. E. Schultz,  S. Sharma,  N. Shenvi,  C. D. Sherrill,  
 A. C. Simmonett,  A. Sodt,  T. Stein,  D. Stuck,  K. S. Thanthiriwatte,  
 V. Vanovschi,  L. Vogt,  Tao Wang,  A. Warshel,  M. A. Watson,  
 C. F. Williams,  Q. Wu,  X. Xu,  Jun Yang,  W. Zhang,  Yan Zhao

 Please cite Q-Chem as follows:
 Y. Shao et al., Mol. Phys. 113, 184-215 (2015)
 DOI: 10.1080/00268976.2014.952696

 Q-Chem 5.4.0 for Intel X86 EM64T Linux

 Parts of Q-Chem use Armadillo 9.800.1 (Horizon Scraper).
 http://arma.sourceforge.net/

 Q-Chem begins on Wed Dec 13 15:53:15 2023  

 Host: 
0

     Scratch files written to ./qchem1714870//
 May1621 |scratch|qcdevops|jenkins|workspace|build_RNUM    
 Parallel job on  1  processors
 Processing $rem in /cm/shared/apps/spack/cpu/opt/spack/linux-centos8-zen2/gcc-10.2.0/qchem-5.4-akfmr7b3t57bfs6qan3padb2wnb2i7cl/config/preferences:
 Processing $rem in /home/rramji/.qchemrc:
 Symmetry turned off for PCM/SM12/SMD calculation
 Core orbitals will be frozen

 Checking the input file for inconsistencies... 	...done.

 Q-Chem warning in module forms1/BasisType.C, line 2236:

 You are not using the predefined 5D/6D in this basis set.


--------------------------------------------------------------
User input:
--------------------------------------------------------------
$molecule
0 1
C	-0.363176	-3.887800	0.626855
C	0.329669	-3.701456	-0.573074
C	0.542250	-2.345170	-0.940016
H	0.682412	-4.545233	-1.184837
C	0.000000	-1.450135	0.000000
S	-0.764076	-2.321334	1.322686
C	1.265537	-1.934439	-2.192440
H	1.597559	-2.819799	-2.768365
H	2.166534	-1.326210	-1.967653
H	0.620843	-1.325374	-2.860032
H	-0.655262	-4.815326	1.131925
C	0.000000	0.000000	0.000000
C	0.285976	0.794723	1.113020
C	0.757308	2.103412	0.820578
H	0.154498	0.429575	2.142881
C	0.841565	2.336821	-0.563588
S	0.328498	0.913334	-1.464748
C	1.118059	3.105040	1.882380
H	0.966197	2.683616	2.894974
H	0.500773	4.024668	1.808137
H	2.180000	3.419766	1.808230
H	1.166129	3.238200	-1.097114
$end

$rem
JOBTYPE		SP
EXCHANGE	HF
CORRELATION	pRIMP2
BASIS		cc-pvtz
METHOD		rimp2
AUX_BASIS	rimp2-cc-pvtz
SOLVENT_METHOD	PCM
PURECART	11111
SYMMETRY	false
MEM_TOTAL	110000
SCF_CONVERGENCE = 6
THRESH=10
GUI = 2
$end



$solvent
dielectric 4.90
$end
--------------------------------------------------------------
 ----------------------------------------------------------------
             Standard Nuclear Orientation (Angstroms)
    I     Atom           X                Y                Z
 ----------------------------------------------------------------
    1      C      -0.3631760000    -3.8878000000     0.6268550000
    2      C       0.3296690000    -3.7014560000    -0.5730740000
    3      C       0.5422500000    -2.3451700000    -0.9400160000
    4      H       0.6824120000    -4.5452330000    -1.1848370000
    5      C       0.0000000000    -1.4501350000     0.0000000000
    6      S      -0.7640760000    -2.3213340000     1.3226860000
    7      C       1.2655370000    -1.9344390000    -2.1924400000
    8      H       1.5975590000    -2.8197990000    -2.7683650000
    9      H       2.1665340000    -1.3262100000    -1.9676530000
   10      H       0.6208430000    -1.3253740000    -2.8600320000
   11      H      -0.6552620000    -4.8153260000     1.1319250000
   12      C       0.0000000000     0.0000000000     0.0000000000
   13      C       0.2859760000     0.7947230000     1.1130200000
   14      C       0.7573080000     2.1034120000     0.8205780000
   15      H       0.1544980000     0.4295750000     2.1428810000
   16      C       0.8415650000     2.3368210000    -0.5635880000
   17      S       0.3284980000     0.9133340000    -1.4647480000
   18      C       1.1180590000     3.1050400000     1.8823800000
   19      H       0.9661970000     2.6836160000     2.8949740000
   20      H       0.5007730000     4.0246680000     1.8081370000
   21      H       2.1800000000     3.4197660000     1.8082300000
   22      H       1.1661290000     3.2382000000    -1.0971140000
 ----------------------------------------------------------------
 Nuclear Repulsion Energy =         839.18329212 hartrees
 There are       51 alpha and       51 beta electrons
 Requested basis set is cc-pVTZ
 There are 184 shells and 508 basis functions

 Total QAlloc Memory Limit 110000 MB
 Mega-Array Size       188 MB
 MEM_STATIC part       192 MB
 Discretize the solute cavity surface with Lebedev spheres
	Using 110 Lebedev grid points for each H atom
	Using 194 Lebedev grid points for other atoms
	Atomic van der Waals radii will be scaled by 1.20
 Remove points where switching function is < 1.0e-08
 Keep 1524 surface tesserae and discard 1904 interior tesserae
 Molecular Surface Area = 229.649 Angst**2
 Requested basis set is rimp2-cc-pVTZ
 There are 394 shells and 1354 basis functions
 A cutoff of  1.0D-10 yielded  12304 shell pairs
 There are     91270 function pairs (    117798 Cartesian)
 Smallest overlap matrix eigenvalue = 5.73E-05

 Scale SEOQF with 1.000000e-01/1.000000e-01/1.000000e-01

 Standard Electronic Orientation quadrupole field applied
 Nucleus-field energy     =     0.0000000230 hartrees
 Guess from superposition of atomic densities
 Warning:  Energy on first SCF cycle will be non-variational
 SAD guess density has 102.000000 electrons

 -----------------------------------------------------------------------
  General SCF calculation program by
  Eric Jon Sundstrom, Paul Horn, Yuezhi Mao, Dmitri Zuev, Alec White,
  David Stuck, Shaama M.S., Shane Yost, Joonho Lee, David Small,
  Daniel Levine, Susi Lehtola, Hugh Burton, Evgeny Epifanovsky,
  Bang C. Huynh
 -----------------------------------------------------------------------
 Hartree-Fock
 using 64 threads for integral computing
 -------------------------------------------------------
 OpenMP Integral computing Module                
 Release: version 1.0, May 2013, Q-Chem Inc. Pittsburgh 
 -------------------------------------------------------
 A restricted SCF calculation will be
 performed using DIIS
 SCF converges when DIIS error is below 1.0e-06
 ---------------------------------------
  Cycle       Energy         DIIS error
 ---------------------------------------
    1   -1184.2374042844      2.38e-02  
    2   -1179.5358158785      1.60e-03  
    3   -1179.6570364462      6.14e-04  
    4   -1179.6707654032      3.32e-04  
    5   -1179.6754351788      6.50e-05  
    6   -1179.6757138897      3.03e-05  
    7   -1179.6757999172      1.25e-05  
    8   -1179.6758274587      5.16e-06  
    9   -1179.6758323425      1.67e-06  
   10   -1179.6758327768      5.05e-07  Convergence criterion met
 ---------------------------------------
 SCF time:   CPU 1475.35s  wall 43.00s 

************** Final PCM Free Energy Summary **************
 G_electrostatic  =      -0.00763146 hartree =      -4.78881110 kcal/mol
 G_cavitation     =       0.00000000 hartree =       0.00000000 kcal/mol
 G_dispersion     =       0.00000000 hartree =       0.00000000 kcal/mol
 G_repulsion      =       0.00000000 hartree =       0.00000000 kcal/mol
 --------------------------------------------------
 Non-electrostatic Free Energy =       0.00000000 hartree =       0.00000000 kcal/mol
 Total                         =      -0.00763146 hartree =      -4.78881110 kcal/mol
 --------------------------------------------------
 SCF Energy (H0 + V/2)                       =   -1179.67583278 
 Solute Internal Energy (H0)                 =   -1179.66820132 
 Total Free Energy (H0 + V/2 + non-elec)     =   -1179.67583278 hartree
                                             = -740257.75777727 kcal/mol
***********************************************************

 SCF   energy in the final basis set =    -1179.6758327768
 Total energy in the final basis set =    -1179.6758327768


 --------------------------------------------------------------
  Generalized many-body perturbation theory program
  by Joonho Lee, Fazle Rob, Xintian Feng, Evgeny Epifanovsky

 No regularization used 
 (reg. param. = 0.0000e+00)
  (P|Q)^-1/2 Time:  CPU 42.19 s  wall 0.71 s

 In RI-MP2 calculation: 
 # of frozen core orbitals: 20

 Components of the RIMP2 correlation energy:
        aaaa    correlation energy =        -0.2533502478 a.u.
        abab    correlation energy =        -1.4758729044 a.u.
        bbbb    correlation energy =        -0.2533502478 a.u.
        non-Brillouin singles      =        -0.0000000000 a.u.
        total same-spin energy     =        -0.5067004957 a.u.
        total opposite-spin energy =        -1.4758729044 a.u.

 Total  RIMP2   correlation energy =        -1.9825734001 a.u.
        RIMP2         total energy =     -1181.6584061769 a.u.

 RI-MP2 Energy Time:  CPU 173.17 s  wall 3.53 s
 
 --------------------------------------------------------------
 
                    Orbital Energies (a.u.)
 --------------------------------------------------------------
 
 Alpha MOs
 -- Occupied --
-91.9844 -91.9843 -11.2809 -11.2784 -11.2706 -11.2657 -11.2517 -11.2505
-11.2427 -11.2424 -11.2292 -11.2275  -8.9843  -8.9841  -6.6651  -6.6651
 -6.6646  -6.6645  -6.6640  -6.6639  -1.1807  -1.1494  -1.0414  -1.0232
 -0.9980  -0.9528  -0.9130  -0.8948  -0.7981  -0.7628  -0.7219  -0.6956
 -0.6612  -0.6163  -0.5832  -0.5788  -0.5775  -0.5696  -0.5515  -0.5326
 -0.5257  -0.5197  -0.5111  -0.4961  -0.4849  -0.4663  -0.4526  -0.3646
 -0.3423  -0.3378  -0.2723
 -- Virtual --
  0.0667   0.1313   0.1436   0.1539   0.1616   0.1739   0.1781   0.1883
  0.1942   0.1979   0.2014   0.2110   0.2321   0.2389   0.2431   0.2468
  0.2646   0.2726   0.3029   0.3161   0.3418   0.3544   0.3646   0.3732
  0.3754   0.3864   0.4014   0.4044   0.4131   0.4239   0.4368   0.4469
  0.4527   0.4608   0.4687   0.4721   0.4786   0.4955   0.4974   0.5065
  0.5123   0.5229   0.5311   0.5351   0.5415   0.5467   0.5498   0.5735
  0.5777   0.5883   0.5897   0.5930   0.6074   0.6121   0.6195   0.6234
  0.6284   0.6328   0.6383   0.6416   0.6489   0.6537   0.6599   0.6703
  0.6824   0.6887   0.6937   0.7066   0.7153   0.7337   0.7499   0.7612
  0.7719   0.7815   0.7931   0.8031   0.8158   0.8260   0.8389   0.8508
  0.8564   0.8627   0.8725   0.8836   0.8995   0.9228   0.9338   0.9437
  0.9569   0.9732   0.9747   0.9939   1.0032   1.0132   1.0176   1.0377
  1.0457   1.0484   1.0608   1.0718   1.0808   1.0826   1.1002   1.1018
  1.1098   1.1280   1.1360   1.1512   1.1602   1.1685   1.1758   1.1850
  1.2014   1.2151   1.2283   1.2424   1.2472   1.2534   1.2609   1.2661
  1.2855   1.2860   1.2961   1.3163   1.3301   1.3394   1.3602   1.3696
  1.3722   1.3892   1.4045   1.4205   1.4245   1.4308   1.4516   1.4651
  1.4791   1.4940   1.4977   1.5104   1.5194   1.5330   1.5391   1.5487
  1.5558   1.5575   1.5662   1.5697   1.5774   1.5857   1.6195   1.6218
  1.6514   1.6628   1.6775   1.6870   1.6949   1.7001   1.7110   1.7258
  1.7525   1.7731   1.7910   1.7948   1.8015   1.8151   1.8370   1.8595
  1.8915   1.8998   1.9033   1.9239   1.9387   1.9642   1.9726   1.9929
  2.0415   2.0446   2.0539   2.0903   2.1130   2.1298   2.1451   2.1789
  2.1882   2.1995   2.2105   2.2318   2.2506   2.2612   2.2742   2.2841
  2.3056   2.3196   2.3473   2.3690   2.4010   2.4168   2.4312   2.4509
  2.4628   2.4982   2.5122   2.5274   2.5417   2.5719   2.5905   2.6022
  2.6213   2.6313   2.6566   2.6788   2.6824   2.7005   2.7226   2.7294
  2.7381   2.7473   2.7536   2.7609   2.7743   2.7813   2.7870   2.8119
  2.8140   2.8302   2.8444   2.8502   2.8877   2.9073   2.9144   2.9476
  2.9499   2.9679   2.9897   2.9982   3.0106   3.0207   3.0295   3.0402
  3.0482   3.0731   3.0771   3.1053   3.1140   3.1211   3.1404   3.1444
  3.1481   3.1575   3.1605   3.1747   3.1870   3.2039   3.2144   3.2226
  3.2293   3.2383   3.2511   3.2763   3.2774   3.2884   3.2990   3.3113
  3.3184   3.3233   3.3342   3.3490   3.3524   3.3670   3.3701   3.3721
  3.3839   3.3921   3.4095   3.4195   3.4252   3.4352   3.4392   3.4453
  3.4574   3.4639   3.4724   3.4809   3.4929   3.5061   3.5135   3.5178
  3.5231   3.5355   3.5381   3.5470   3.5533   3.5676   3.5835   3.5940
  3.6008   3.6066   3.6264   3.6303   3.6330   3.6425   3.6484   3.6675
  3.6723   3.6900   3.7094   3.7145   3.7318   3.7366   3.7396   3.7477
  3.7641   3.7700   3.7826   3.7929   3.8046   3.8166   3.8224   3.8444
  3.8502   3.8776   3.8894   3.9016   3.9210   3.9348   3.9529   3.9547
  3.9625   3.9839   3.9908   4.0120   4.0171   4.0211   4.0438   4.0441
  4.0637   4.0755   4.0923   4.0951   4.1047   4.1238   4.1411   4.1557
  4.1657   4.1773   4.1939   4.1968   4.2038   4.2101   4.2203   4.2331
  4.2508   4.2720   4.2892   4.2923   4.3034   4.3135   4.3254   4.3379
  4.3444   4.3586   4.3673   4.3806   4.3819   4.4014   4.4154   4.4342
  4.4403   4.4553   4.4681   4.4814   4.4914   4.5167   4.5328   4.5773
  4.5954   4.6005   4.6187   4.6242   4.6302   4.6455   4.6561   4.6805
  4.7027   4.7147   4.7326   4.7486   4.7720   4.7945   4.8020   4.8470
  4.8694   4.8737   4.9017   4.9160   4.9340   4.9783   4.9974   5.0553
  5.0805   5.0983   5.1128   5.1514   5.1738   5.1971   5.1998   5.2441
  5.2753   5.2804   5.2918   5.3091   5.3211   5.3623   5.3965   5.4014
  5.4218   5.4391   5.4606   5.4832   5.5187   5.5290   5.5490   5.5594
  5.5708   5.6057   5.6189   5.6243   5.6309   5.6740   5.7029   5.7149
  5.7893   5.8317   5.9464   5.9718   6.0338   6.1087   6.1536   6.2266
  6.2373   6.2452   6.2861   6.2963   6.3408   6.4104   6.5251   8.6963
  9.7968  11.5349  11.9982  12.9059  13.1889  13.7196  13.9451  14.2114
 14.4148
 --------------------------------------------------------------
 
          Ground-State Mulliken Net Atomic Charges

     Atom                 Charge (a.u.)
  ----------------------------------------
      1 C                    -0.215389
      2 C                    -0.251614
      3 C                     0.047449
      4 H                     0.185559
      5 C                    -0.036352
      6 S                     0.013898
      7 C                    -0.306165
      8 H                     0.110586
      9 H                     0.120937
     10 H                     0.110254
     11 H                     0.204961
     12 C                     0.012780
     13 C                    -0.227739
     14 C                     0.016473
     15 H                     0.182005
     16 C                    -0.234377
     17 S                     0.018062
     18 C                    -0.269812
     19 H                     0.103030
     20 H                     0.108371
     21 H                     0.107789
     22 H                     0.199292
  ----------------------------------------
  Sum of atomic charges =     0.000000

 -----------------------------------------------------------------
                    Cartesian Multipole Moments
 -----------------------------------------------------------------
    Charge (ESU x 10^10)
                -0.0000
    Dipole Moment (Debye)
         X       1.4795      Y       0.3476      Z       0.0557
       Tot       1.5208
    Quadrupole Moments (Debye-Ang)
        XX     -89.8072     XY       2.3809     YY     -70.7487
        XZ      -2.5717     YZ       2.9777     ZZ     -81.5427
    Octopole Moments (Debye-Ang^2)
       XXX     -76.4867    XXY      51.9988    XYY     -14.7009
       YYY     103.5017    XXZ      -1.0092    XYZ       9.7627
       YYZ       0.4541    XZZ     -21.1842    YZZ      45.4847
       ZZZ       5.1288
    Hexadecapole Moments (Debye-Ang^3)
      XXXX    -385.5272   XXXY    -158.2103   XXYY    -555.3136
      XYYY    -104.9607   YYYY   -2505.2534   XXXZ      88.2864
      XXYZ     -30.9353   XYYZ     -19.5542   YYYZ    -136.6626
      XXZZ    -225.0708   XYZZ     -47.0445   YYZZ    -594.1623
      XZZZ      80.8368   YZZZ     -91.3134   ZZZZ    -950.4825
 -----------------------------------------------------------------
 Total job time:  49.09s(wall), 1734.26s(cpu) 
 Wed Dec 13 15:54:04 2023

        *************************************************************
        *                                                           *
        *  Thank you very much for using Q-Chem.  Have a nice day.  *
        *                                                           *
        *************************************************************


0 sent ACK to 0 
now end server 0 ... 
cleanup process ... done
remove work dirs ./qchem1714870.0 -- ./qchem1714870.0
rm -rf ./qchem1714870.0
rm -rf ./qchem1714870
