You are running Q-Chem version: 5.4.0

#
# job setting
#
local host:  exp-1-10
current dir: /home/rramji/project-csd799/aromodel/p3ht-qchem/rotation-run
input file:  Methylthiophene_Phi_0_Theta_0_Methylthiophene.qcin
output file: 
nprocs     : 1
nthreads   : 64
#
# qchem installation setting
#
QC:          /cm/shared/apps/spack/cpu/opt/spack/linux-centos8-zen2/gcc-10.2.0/qchem-5.4-akfmr7b3t57bfs6qan3padb2wnb2i7cl
QCAUX:       /cm/shared/apps/spack/cpu/opt/spack/linux-centos8-zen2/gcc-10.2.0/qchem-5.4-akfmr7b3t57bfs6qan3padb2wnb2i7cl/qcaux
QCPROG:      /cm/shared/apps/spack/cpu/opt/spack/linux-centos8-zen2/gcc-10.2.0/qchem-5.4-akfmr7b3t57bfs6qan3padb2wnb2i7cl/exe/qcprog.exe
QCPROG_S:    /cm/shared/apps/spack/cpu/opt/spack/linux-centos8-zen2/gcc-10.2.0/qchem-5.4-akfmr7b3t57bfs6qan3padb2wnb2i7cl/exe/qcprog.exe_s
PARALLEL:    -DPARALLEL
QCMPI:       mpich
#
# qchem directory setting
#
qcrun:       qchem1454248
QCSCRATCH:   .
QCLOCALSCR:  
QCTMPDIR:    .
QCFILEPREF:  ./qchem1454248
QCSAVEDIR:   
workdirs:    ./qchem1454248
workdir0:    ./qchem1454248
partmpdirs =  
#
# parallel setting
#
QCRSH:           ssh
QCMPI:           mpich
QCMPIRUN:        /cm/shared/apps/spack/cpu/opt/spack/linux-centos8-zen2/gcc-10.2.0/qchem-5.4-akfmr7b3t57bfs6qan3padb2wnb2i7cl/bin/mpi/mpirun_qchem
QCMACHINEFILE:   ./qchem1454248/hostfile
exp-1-10

#
# env setting
#
exported envs:   QC QCAUX QCSCRATCH QCRUNNAME QCFILEPREF QCPROG QCPROG_S GUIFILE

Running Job 1 of 1 Methylthiophene_Phi_0_Theta_0_Methylthiophene.qcin
qchem Methylthiophene_Phi_0_Theta_0_Methylthiophene.qcin_1454248.0 ./qchem1454248/ 1
/cm/shared/apps/spack/cpu/opt/spack/linux-centos8-zen2/gcc-10.2.0/qchem-5.4-akfmr7b3t57bfs6qan3padb2wnb2i7cl/bin/mpi/mpirun_qchem -machinefile ./qchem1454248/hostfile -np 1 /cm/shared/apps/spack/cpu/opt/spack/linux-centos8-zen2/gcc-10.2.0/qchem-5.4-akfmr7b3t57bfs6qan3padb2wnb2i7cl/exe/qcprog.exe Methylthiophene_Phi_0_Theta_0_Methylthiophene.qcin_1454248.0 ./qchem1454248/

Process 0 of 1 is on exp-1-10 - thread support 0
initial socket setup ...start
initial socket setup ...done 
now start server 0 ... 
                  Welcome to Q-Chem
     A Quantum Leap Into The Future Of Chemistry


 Q-Chem 5.4, Q-Chem, Inc., Pleasanton, CA (2021)

 License issued to: University of California, San Diego (site)

 E. Epifanovsky,  A. T. B. Gilbert,  Xintian Feng,  Joonho Lee,  Yuezhi Mao,  
 N. Mardirossian,  P. Pokhilko,  A. White,  M. Wormit,  M. P. Coons,  
 A. L. Dempwolff,  Zhengting Gan,  D. Hait,  P. R. Horn,  L. D. Jacobson,  
 I. Kaliman,  J. Kussmann,  A. W. Lange,  Ka Un Lao,  D. S. Levine,  Jie Liu,  
 S. C. McKenzie,  A. F. Morrison,  K. Nanda,  F. Plasser,  D. R. Rehn,  
 M. L. Vidal,  Zhi-Qiang You,  Ying Zhu,  B. Alam,  B. Albrecht,  
 A. Aldossary,  E. Alguire,  J. H. Andersen,  D. Barton,  K. Begam,  A. Behn,  
 Y. A. Bernard,  E. J. Berquist,  H. Burton,  A. Carreras,  K. Carter-Fenk,  
 R. Chakraborty,  A. D. Chien,  K. D. Closser,  V. Cofer-Shabica,  
 S. Dasgupta,  Jia Deng,  M. de Wergifosse,  M. Diedenhofen,  Hainam Do,  
 S. Ehlert,  Po-Tung Fang,  S. Fatehi,  Qingguo Feng,  J. Gayvert,  
 Qinghui Ge,  G. Gidofalvi,  M. Goldey,  J. Gomes,  C. Gonzalez-Espinoza,  
 S. Gulania,  A. Gunina,  M. W. D. Hanson-Heine,  P. H. P. Harbach,  
 A. W. Hauser,  M. F. Herbst,  M. Hernandez Vera,  M. Hodecker,  
 Z. C. Holden,  S. Houck,  Xunkun Huang,  Kerwin Hui,  B. C. Huynh,  
 M. Ivanov,  Hyunjun Ji,  Hanjie Jiang,  B. Kaduk,  S. Kaehler,  
 K. Khistyaev,  Jaehoon Kim,  P. Klunzinger,  Z. Koczor-Benda,  
 Joong Hoon Koh,  D. Kosenkov,  L. Koulias,  T. Kowalczyk,  C. M. Krauter,  
 K. Kue,  A. Kunitsa,  T. Kus,  A. Landau,  K. V. Lawler,  D. Lefrancois,  
 S. Lehtola,  Rain Li,  Yi-Pei Li,  Jiashu Liang,  M. Liebenthal,  
 Hung-Hsuan Lin,  You-Sheng Lin,  Fenglai Liu,  Kuan-Yu Liu,  
 M. Loipersberger,  A. Luenser,  A. Manjanath,  P. Manohar,  E. Mansoor,  
 S. F. Manzer,  Shan-Ping Mao,  A. V. Marenich,  T. Markovich,  S. Mason,  
 S. A. Maurer,  P. F. McLaughlin,  M. F. S. J. Menger,  J.-M. Mewes,  
 S. A. Mewes,  P. Morgante,  J. W. Mullinax,  T. S. Nguyen-Beck,  
 K. J. Oosterbaan,  G. Paran,  Alexander C. Paul,  Suranjan K. Paul,  
 F. Pavosevic,  Zheng Pei,  S. Prager,  E. I. Proynov,  E. Ramos,  B. Rana,  
 A. E. Rask,  A. Rettig,  R. M. Richard,  F. Rob,  E. Rossomme,  T. Scheele,  
 M. Scheurer,  M. Schneider,  N. Sergueev,  S. M. Sharada,  W. Skomorowski,  
 D. W. Small,  C. J. Stein,  Yu-Chuan Su,  E. J. Sundstrom,  Zhen Tao,  
 J. Thirman,  T. Tsuchimochi,  N. M. Tubman,  S. P. Veccham,  O. Vydrov,  
 J. Wenzel,  J. Witte,  A. Yamada,  Kun Yao,  S. Yeganeh,  S. R. Yost,  
 A. Zech,  Igor Ying Zhang,  Xing Zhang,  Yu Zhang,  D. Zuev,  
 A. Aspuru-Guzik,  A. T. Bell,  N. A. Besley,  K. B. Bravaya,  B. R. Brooks,  
 D. Casanova,  Jeng-Da Chai,  S. Coriani,  C. J. Cramer,  
 A. E. DePrince, III,  R. A. DiStasio Jr.,  A. Dreuw,  B. D. Dunietz,  
 T. R. Furlani,  W. A. Goddard III,  S. Grimme,  S. Hammes-Schiffer,  
 T. Head-Gordon,  W. J. Hehre,  Chao-Ping Hsu,  T.-C. Jagau,  Yousung Jung,  
 A. Klamt,  Jing Kong,  D. S. Lambrecht,  WanZhen Liang,  N. J. Mayhall,  
 C. W. McCurdy,  J. B. Neaton,  C. Ochsenfeld,  J. A. Parkhill,  R. Peverati,  
 V. A. Rassolov,  Yihan Shao,  L. V. Slipchenko,  T. Stauch,  R. P. Steele,  
 J. E. Subotnik,  A. J. W. Thom,  A. Tkatchenko,  D. G. Truhlar,  
 T. Van Voorhis,  T. A. Wesolowski,  K. B. Whaley,  H. L. Woodcock III,  
 P. M. Zimmerman,  S. Faraji,  P. M. W. Gill,  M. Head-Gordon,  
 J. M. Herbert,  A. I. Krylov

 Contributors to earlier versions of Q-Chem not listed above: 
 R. D. Adamson,  B. Austin,  R. Baer,  J. Baker,  G. J. O. Beran,  
 K. Brandhorst,  S. T. Brown,  E. F. C. Byrd,  A. K. Chakraborty,  
 G. K. L. Chan,  Chun-Min Chang,  Yunqing Chen,  C.-L. Cheng,  
 Siu Hung Chien,  D. M. Chipman,  D. L. Crittenden,  H. Dachsel,  
 R. J. Doerksen,  A. D. Dutoi,  R. G. Edgar,  J. Fosso-Tande,  
 L. Fusti-Molnar,  D. Ghosh,  A. Ghysels,  A. Golubeva-Zadorozhnaya,  
 J. Gonthier,  M. S. Gordon,  S. R. Gwaltney,  G. Hawkins,  J. E. Herr,  
 A. Heyden,  S. Hirata,  E. G. Hohenstein,  G. Kedziora,  F. J. Keil,  
 C. Kelley,  Jihan Kim,  R. A. King,  R. Z. Khaliullin,  P. P. Korambath,  
 W. Kurlancheek,  A. Laurent,  A. M. Lee,  M. S. Lee,  S. V. Levchenko,  
 Ching Yeh Lin,  D. Liotard,  E. Livshits,  R. C. Lochan,  I. Lotan,  
 L. A. Martinez-Martinez,  P. E. Maslen,  N. Nair,  D. P. O'Neill,  
 D. Neuhauser,  E. Neuscamman,  C. M. Oana,  R. Olivares-Amaya,  R. Olson,  
 T. M. Perrine,  B. Peters,  P. A. Pieniazek,  A. Prociuk,  Y. M. Rhee,  
 J. Ritchie,  M. A. Rohrdanz,  E. Rosta,  N. J. Russ,  H. F. Schaefer III,  
 M. W. Schmidt,  N. E. Schultz,  S. Sharma,  N. Shenvi,  C. D. Sherrill,  
 A. C. Simmonett,  A. Sodt,  T. Stein,  D. Stuck,  K. S. Thanthiriwatte,  
 V. Vanovschi,  L. Vogt,  Tao Wang,  A. Warshel,  M. A. Watson,  
 C. F. Williams,  Q. Wu,  X. Xu,  Jun Yang,  W. Zhang,  Yan Zhao

 Please cite Q-Chem as follows:
 Y. Shao et al., Mol. Phys. 113, 184-215 (2015)
 DOI: 10.1080/00268976.2014.952696

 Q-Chem 5.4.0 for Intel X86 EM64T Linux

 Parts of Q-Chem use Armadillo 9.800.1 (Horizon Scraper).
 http://arma.sourceforge.net/

 Q-Chem begins on Wed Dec 13 15:49:17 2023  

 Host: 
0

     Scratch files written to ./qchem1454248//
 May1621 |scratch|qcdevops|jenkins|workspace|build_RNUM    
 Parallel job on  1  processors
 Processing $rem in /cm/shared/apps/spack/cpu/opt/spack/linux-centos8-zen2/gcc-10.2.0/qchem-5.4-akfmr7b3t57bfs6qan3padb2wnb2i7cl/config/preferences:
 Processing $rem in /home/rramji/.qchemrc:
 Symmetry turned off for PCM/SM12/SMD calculation
 Core orbitals will be frozen

 Checking the input file for inconsistencies... 	...done.

 Q-Chem warning in module forms1/BasisType.C, line 2236:

 You are not using the predefined 5D/6D in this basis set.


--------------------------------------------------------------
User input:
--------------------------------------------------------------
$molecule
0 1
C	-3.684787	-1.436027	-0.000188
C	-3.759824	-0.039977	-0.000191
C	-2.506278	0.629331	-0.000375
H	-4.720382	0.496651	-0.000077
C	-1.424751	-0.270142	-0.000479
S	-1.996142	-1.933214	-0.000391
C	-2.372160	2.126803	-0.000421
H	-3.365861	2.615011	-0.000295
H	-1.821944	2.491507	-0.892902
H	-1.821700	2.491541	0.891895
H	-4.487389	-2.182047	-0.000072
C	0.000000	0.000000	0.000000
C	1.036945	-0.936443	0.000292
C	2.349226	-0.390310	0.000454
H	0.847234	-2.020529	0.000188
C	2.335515	1.015857	0.000342
S	0.681144	1.619759	0.000570
C	3.592802	-1.235497	0.000531
H	3.341070	-2.313754	0.000529
H	4.223499	-1.040534	0.892988
H	4.223590	-1.040556	-0.891867
H	3.177555	1.718313	0.000533
$end

$rem
JOBTYPE		SP
EXCHANGE	HF
CORRELATION	pRIMP2
BASIS		cc-pvtz
METHOD		rimp2
AUX_BASIS	rimp2-cc-pvtz
SOLVENT_METHOD	PCM
PURECART	11111
SYMMETRY	false
MEM_TOTAL	110000
SCF_CONVERGENCE = 6
THRESH=10
GUI = 2
$end



$solvent
dielectric 4.90
$end
--------------------------------------------------------------
 ----------------------------------------------------------------
             Standard Nuclear Orientation (Angstroms)
    I     Atom           X                Y                Z
 ----------------------------------------------------------------
    1      C      -3.6847870000    -1.4360270000    -0.0001880000
    2      C      -3.7598240000    -0.0399770000    -0.0001910000
    3      C      -2.5062780000     0.6293310000    -0.0003750000
    4      H      -4.7203820000     0.4966510000    -0.0000770000
    5      C      -1.4247510000    -0.2701420000    -0.0004790000
    6      S      -1.9961420000    -1.9332140000    -0.0003910000
    7      C      -2.3721600000     2.1268030000    -0.0004210000
    8      H      -3.3658610000     2.6150110000    -0.0002950000
    9      H      -1.8219440000     2.4915070000    -0.8929020000
   10      H      -1.8217000000     2.4915410000     0.8918950000
   11      H      -4.4873890000    -2.1820470000    -0.0000720000
   12      C       0.0000000000     0.0000000000     0.0000000000
   13      C       1.0369450000    -0.9364430000     0.0002920000
   14      C       2.3492260000    -0.3903100000     0.0004540000
   15      H       0.8472340000    -2.0205290000     0.0001880000
   16      C       2.3355150000     1.0158570000     0.0003420000
   17      S       0.6811440000     1.6197590000     0.0005700000
   18      C       3.5928020000    -1.2354970000     0.0005310000
   19      H       3.3410700000    -2.3137540000     0.0005290000
   20      H       4.2234990000    -1.0405340000     0.8929880000
   21      H       4.2235900000    -1.0405560000    -0.8918670000
   22      H       3.1775550000     1.7183130000     0.0005330000
 ----------------------------------------------------------------
 Nuclear Repulsion Energy =         836.96012015 hartrees
 There are       51 alpha and       51 beta electrons
 Requested basis set is cc-pVTZ
 There are 184 shells and 508 basis functions

 Total QAlloc Memory Limit 110000 MB
 Mega-Array Size       188 MB
 MEM_STATIC part       192 MB
 Discretize the solute cavity surface with Lebedev spheres
	Using 110 Lebedev grid points for each H atom
	Using 194 Lebedev grid points for other atoms
	Atomic van der Waals radii will be scaled by 1.20
 Remove points where switching function is < 1.0e-08
 Keep 1513 surface tesserae and discard 1915 interior tesserae
 Molecular Surface Area = 228.648 Angst**2
 Requested basis set is rimp2-cc-pVTZ
 There are 394 shells and 1354 basis functions
 A cutoff of  1.0D-10 yielded  12152 shell pairs
 There are     90258 function pairs (    116506 Cartesian)
 Smallest overlap matrix eigenvalue = 4.18E-05

 Scale SEOQF with 1.000000e-01/1.000000e-01/1.000000e+00

 Standard Electronic Orientation quadrupole field applied
 Nucleus-field energy     =     0.0000000322 hartrees
 Guess from superposition of atomic densities
 Warning:  Energy on first SCF cycle will be non-variational
 SAD guess density has 102.000000 electrons

 -----------------------------------------------------------------------
  General SCF calculation program by
  Eric Jon Sundstrom, Paul Horn, Yuezhi Mao, Dmitri Zuev, Alec White,
  David Stuck, Shaama M.S., Shane Yost, Joonho Lee, David Small,
  Daniel Levine, Susi Lehtola, Hugh Burton, Evgeny Epifanovsky,
  Bang C. Huynh
 -----------------------------------------------------------------------
 Hartree-Fock
 using 64 threads for integral computing
 -------------------------------------------------------
 OpenMP Integral computing Module                
 Release: version 1.0, May 2013, Q-Chem Inc. Pittsburgh 
 -------------------------------------------------------
 A restricted SCF calculation will be
 performed using DIIS
 SCF converges when DIIS error is below 1.0e-06
 ---------------------------------------
  Cycle       Energy         DIIS error
 ---------------------------------------
    1   -1184.2341578106      2.38e-02  
    2   -1179.5459997394      1.61e-03  
    3   -1179.6677468528      6.19e-04  
    4   -1179.6816545249      3.33e-04  
    5   -1179.6863372124      6.37e-05  
    6   -1179.6866088300      2.98e-05  
    7   -1179.6866922069      1.22e-05  
    8   -1179.6867187168      5.12e-06  
    9   -1179.6867234226      1.60e-06  
   10   -1179.6867238475      5.46e-07  Convergence criterion met
 ---------------------------------------
 SCF time:   CPU 1540.54s  wall 46.00s 

************** Final PCM Free Energy Summary **************
 G_electrostatic  =      -0.00780994 hartree =      -4.90081335 kcal/mol
 G_cavitation     =       0.00000000 hartree =       0.00000000 kcal/mol
 G_dispersion     =       0.00000000 hartree =       0.00000000 kcal/mol
 G_repulsion      =       0.00000000 hartree =       0.00000000 kcal/mol
 --------------------------------------------------
 Non-electrostatic Free Energy =       0.00000000 hartree =       0.00000000 kcal/mol
 Total                         =      -0.00780994 hartree =      -4.90081335 kcal/mol
 --------------------------------------------------
 SCF Energy (H0 + V/2)                       =   -1179.68672385 
 Solute Internal Energy (H0)                 =   -1179.67891390 
 Total Free Energy (H0 + V/2 + non-elec)     =   -1179.68672385 hartree
                                             = -740264.59202728 kcal/mol
***********************************************************

 SCF   energy in the final basis set =    -1179.6867238475
 Total energy in the final basis set =    -1179.6867238475


 --------------------------------------------------------------
  Generalized many-body perturbation theory program
  by Joonho Lee, Fazle Rob, Xintian Feng, Evgeny Epifanovsky

 No regularization used 
 (reg. param. = 0.0000e+00)
  (P|Q)^-1/2 Time:  CPU 36.37 s  wall 0.73 s

 In RI-MP2 calculation: 
 # of frozen core orbitals: 20

 Components of the RIMP2 correlation energy:
        aaaa    correlation energy =        -0.2530026166 a.u.
        abab    correlation energy =        -1.4740847813 a.u.
        bbbb    correlation energy =        -0.2530026166 a.u.
        non-Brillouin singles      =        -0.0000000000 a.u.
        total same-spin energy     =        -0.5060052333 a.u.
        total opposite-spin energy =        -1.4740847813 a.u.

 Total  RIMP2   correlation energy =        -1.9800900146 a.u.
        RIMP2         total energy =     -1181.6668138621 a.u.

 RI-MP2 Energy Time:  CPU 157.11 s  wall 2.80 s
 
 --------------------------------------------------------------
 
                    Orbital Energies (a.u.)
 --------------------------------------------------------------
 
 Alpha MOs
 -- Occupied --
-91.9860 -91.9856 -11.2850 -11.2792 -11.2739 -11.2614 -11.2543 -11.2522
-11.2442 -11.2385 -11.2304 -11.2288  -8.9858  -8.9852  -6.6667  -6.6662
 -6.6661  -6.6656  -6.6656  -6.6649  -1.1810  -1.1502  -1.0415  -1.0260
 -0.9986  -0.9526  -0.9150  -0.8957  -0.7997  -0.7653  -0.7190  -0.6960
 -0.6635  -0.6160  -0.5840  -0.5826  -0.5771  -0.5696  -0.5530  -0.5337
 -0.5230  -0.5207  -0.5110  -0.4976  -0.4915  -0.4681  -0.4509  -0.3708
 -0.3440  -0.3402  -0.2690
 -- Virtual --
  0.0632   0.1362   0.1435   0.1535   0.1615   0.1745   0.1812   0.1898
  0.1933   0.1983   0.2106   0.2153   0.2362   0.2397   0.2417   0.2554
  0.2630   0.2727   0.2905   0.3164   0.3421   0.3586   0.3737   0.3799
  0.3807   0.3882   0.3995   0.4077   0.4153   0.4283   0.4456   0.4506
  0.4570   0.4620   0.4695   0.4827   0.4874   0.4904   0.5024   0.5110
  0.5126   0.5296   0.5307   0.5408   0.5536   0.5567   0.5597   0.5762
  0.5833   0.5876   0.5991   0.6014   0.6038   0.6125   0.6156   0.6262
  0.6290   0.6296   0.6433   0.6462   0.6462   0.6528   0.6626   0.6628
  0.6715   0.6851   0.6999   0.7085   0.7143   0.7457   0.7495   0.7608
  0.7868   0.7942   0.8003   0.8066   0.8246   0.8403   0.8465   0.8520
  0.8595   0.8750   0.8765   0.8944   0.9043   0.9239   0.9286   0.9512
  0.9550   0.9573   0.9909   0.9935   1.0097   1.0164   1.0414   1.0430
  1.0538   1.0643   1.0685   1.0760   1.0832   1.0954   1.0962   1.1053
  1.1107   1.1127   1.1387   1.1395   1.1484   1.1674   1.1747   1.1750
  1.2134   1.2276   1.2290   1.2370   1.2401   1.2596   1.2613   1.2720
  1.2801   1.2826   1.3001   1.3147   1.3413   1.3438   1.3552   1.3741
  1.3916   1.3993   1.4160   1.4161   1.4218   1.4295   1.4346   1.4654
  1.4751   1.4905   1.5007   1.5174   1.5211   1.5331   1.5382   1.5506
  1.5571   1.5656   1.5688   1.5749   1.5898   1.6025   1.6152   1.6251
  1.6587   1.6609   1.6803   1.6952   1.6977   1.7070   1.7244   1.7362
  1.7465   1.7703   1.7971   1.8063   1.8145   1.8259   1.8514   1.8747
  1.8801   1.8881   1.9176   1.9199   1.9403   1.9448   1.9800   1.9883
  2.0019   2.0472   2.0578   2.0996   2.1165   2.1468   2.1566   2.1743
  2.1920   2.1927   2.2103   2.2478   2.2657   2.2741   2.2858   2.2975
  2.3051   2.3188   2.3616   2.3708   2.3928   2.4172   2.4384   2.4495
  2.4688   2.4765   2.5199   2.5337   2.5607   2.5662   2.5921   2.6145
  2.6177   2.6488   2.6736   2.6828   2.7024   2.7108   2.7214   2.7242
  2.7259   2.7302   2.7414   2.7513   2.7700   2.7781   2.7994   2.8136
  2.8192   2.8373   2.8441   2.8634   2.8851   2.8906   2.9203   2.9352
  2.9462   2.9648   2.9799   2.9935   3.0099   3.0149   3.0319   3.0439
  3.0457   3.0708   3.0809   3.0965   3.1119   3.1164   3.1403   3.1418
  3.1483   3.1538   3.1639   3.1735   3.1871   3.2028   3.2140   3.2284
  3.2299   3.2424   3.2636   3.2660   3.2729   3.2858   3.2987   3.3050
  3.3139   3.3347   3.3357   3.3493   3.3516   3.3537   3.3679   3.3748
  3.3810   3.3977   3.4123   3.4157   3.4291   3.4320   3.4335   3.4384
  3.4498   3.4537   3.4571   3.4794   3.4850   3.5021   3.5184   3.5288
  3.5295   3.5303   3.5422   3.5461   3.5600   3.5617   3.5712   3.5871
  3.6011   3.6047   3.6241   3.6304   3.6343   3.6439   3.6494   3.6564
  3.6834   3.6956   3.7007   3.7024   3.7128   3.7281   3.7488   3.7501
  3.7562   3.7622   3.7823   3.7937   3.8106   3.8239   3.8276   3.8436
  3.8445   3.8908   3.8968   3.9082   3.9187   3.9260   3.9394   3.9551
  3.9751   3.9876   4.0034   4.0092   4.0109   4.0235   4.0252   4.0404
  4.0640   4.0896   4.0918   4.1036   4.1226   4.1332   4.1428   4.1475
  4.1655   4.1710   4.1927   4.1938   4.1989   4.2134   4.2209   4.2212
  4.2506   4.2638   4.2811   4.2851   4.2953   4.3292   4.3308   4.3360
  4.3436   4.3667   4.3780   4.3800   4.3997   4.4011   4.4112   4.4306
  4.4439   4.4452   4.4633   4.4858   4.4970   4.5375   4.5576   4.5761
  4.5981   4.6099   4.6255   4.6344   4.6427   4.6481   4.6721   4.6975
  4.7091   4.7267   4.7411   4.7552   4.7643   4.7742   4.8118   4.8505
  4.8591   4.8846   4.8856   4.9293   4.9545   4.9617   5.0476   5.0524
  5.0942   5.1118   5.1119   5.1548   5.1772   5.1994   5.2165   5.2631
  5.2800   5.2884   5.3053   5.3184   5.3482   5.3718   5.3923   5.4065
  5.4167   5.4358   5.4624   5.4725   5.5317   5.5407   5.5458   5.5564
  5.5685   5.5785   5.6205   5.6223   5.6313   5.6993   5.7148   5.7230
  5.8037   5.8425   5.9395   5.9968   6.0751   6.1506   6.2044   6.2252
  6.2355   6.2567   6.3014   6.3198   6.3605   6.4755   6.5417   8.8744
  9.9706  11.5085  12.0393  12.9983  13.2657  13.7487  14.0570  14.2589
 14.4798
 --------------------------------------------------------------
 
          Ground-State Mulliken Net Atomic Charges

     Atom                 Charge (a.u.)
  ----------------------------------------
      1 C                    -0.210322
      2 C                    -0.258051
      3 C                     0.057295
      4 H                     0.186058
      5 C                    -0.024387
      6 S                     0.007525
      7 C                    -0.324338
      8 H                     0.119475
      9 H                     0.116111
     10 H                     0.116064
     11 H                     0.207802
     12 C                     0.062101
     13 C                    -0.274391
     14 C                     0.035679
     15 H                     0.175381
     16 C                    -0.261777
     17 S                     0.021653
     18 C                    -0.271361
     19 H                     0.102805
     20 H                     0.108580
     21 H                     0.108581
     22 H                     0.199517
  ----------------------------------------
  Sum of atomic charges =     0.000000

 -----------------------------------------------------------------
                    Cartesian Multipole Moments
 -----------------------------------------------------------------
    Charge (ESU x 10^10)
                -0.0000
    Dipole Moment (Debye)
         X      -0.0671      Y       0.1774      Z       0.0006
       Tot       0.1896
    Quadrupole Moments (Debye-Ang)
        XX     -67.5163     XY      -1.2623     YY     -80.6532
        XZ       0.0007     YZ      -0.0004     ZZ     -92.8043
    Octopole Moments (Debye-Ang^2)
       XXX      90.8775    XXY       2.9913    XYY      33.5596
       YYY      14.8126    XXZ       0.0074    XYZ       0.0040
       YYZ       0.0008    XZZ      47.7861    YZZ       8.6256
       ZZZ      -0.0086
    Hexadecapole Moments (Debye-Ang^3)
      XXXX   -2625.3295   XXXY      -5.7806   XXYY    -584.6617
      XYYY     -43.2079   YYYY   -1061.8079   XXXZ      -0.2004
      XXYZ      -0.0118   XYYZ      -0.0587   YYYZ      -0.0296
      XXZZ    -570.4185   XYZZ     -34.8397   YYZZ    -215.1251
      XZZZ      -0.2110   YZZZ      -0.0391   ZZZZ    -127.6691
 -----------------------------------------------------------------
 Total job time:  53.59s(wall), 1779.74s(cpu) 
 Wed Dec 13 15:50:10 2023

        *************************************************************
        *                                                           *
        *  Thank you very much for using Q-Chem.  Have a nice day.  *
        *                                                           *
        *************************************************************


0 sent ACK to 0 
now end server 0 ... 
cleanup process ... done
remove work dirs ./qchem1454248.0 -- ./qchem1454248.0
rm -rf ./qchem1454248.0
rm -rf ./qchem1454248
