You are running Q-Chem version: 5.4.0

#
# job setting
#
local host:  exp-3-52
current dir: /home/rramji/project-csd799/aromodel/p3ht-qchem/rotation-run
input file:  Methylthiophene_Phi_40_Theta_190_Methylthiophene.qcin
output file: 
nprocs     : 1
nthreads   : 64
#
# qchem installation setting
#
QC:          /cm/shared/apps/spack/cpu/opt/spack/linux-centos8-zen2/gcc-10.2.0/qchem-5.4-akfmr7b3t57bfs6qan3padb2wnb2i7cl
QCAUX:       /cm/shared/apps/spack/cpu/opt/spack/linux-centos8-zen2/gcc-10.2.0/qchem-5.4-akfmr7b3t57bfs6qan3padb2wnb2i7cl/qcaux
QCPROG:      /cm/shared/apps/spack/cpu/opt/spack/linux-centos8-zen2/gcc-10.2.0/qchem-5.4-akfmr7b3t57bfs6qan3padb2wnb2i7cl/exe/qcprog.exe
QCPROG_S:    /cm/shared/apps/spack/cpu/opt/spack/linux-centos8-zen2/gcc-10.2.0/qchem-5.4-akfmr7b3t57bfs6qan3padb2wnb2i7cl/exe/qcprog.exe_s
PARALLEL:    -DPARALLEL
QCMPI:       mpich
#
# qchem directory setting
#
qcrun:       qchem2598583
QCSCRATCH:   .
QCLOCALSCR:  
QCTMPDIR:    .
QCFILEPREF:  ./qchem2598583
QCSAVEDIR:   
workdirs:    ./qchem2598583
workdir0:    ./qchem2598583
partmpdirs =  
#
# parallel setting
#
QCRSH:           ssh
QCMPI:           mpich
QCMPIRUN:        /cm/shared/apps/spack/cpu/opt/spack/linux-centos8-zen2/gcc-10.2.0/qchem-5.4-akfmr7b3t57bfs6qan3padb2wnb2i7cl/bin/mpi/mpirun_qchem
QCMACHINEFILE:   ./qchem2598583/hostfile
exp-3-52

#
# env setting
#
exported envs:   QC QCAUX QCSCRATCH QCRUNNAME QCFILEPREF QCPROG QCPROG_S GUIFILE

Running Job 1 of 1 Methylthiophene_Phi_40_Theta_190_Methylthiophene.qcin
qchem Methylthiophene_Phi_40_Theta_190_Methylthiophene.qcin_2598583.0 ./qchem2598583/ 1
/cm/shared/apps/spack/cpu/opt/spack/linux-centos8-zen2/gcc-10.2.0/qchem-5.4-akfmr7b3t57bfs6qan3padb2wnb2i7cl/bin/mpi/mpirun_qchem -machinefile ./qchem2598583/hostfile -np 1 /cm/shared/apps/spack/cpu/opt/spack/linux-centos8-zen2/gcc-10.2.0/qchem-5.4-akfmr7b3t57bfs6qan3padb2wnb2i7cl/exe/qcprog.exe Methylthiophene_Phi_40_Theta_190_Methylthiophene.qcin_2598583.0 ./qchem2598583/

Process 0 of 1 is on exp-3-52 - thread support 0
initial socket setup ...start
initial socket setup ...done 
now start server 0 ... 
                  Welcome to Q-Chem
     A Quantum Leap Into The Future Of Chemistry


 Q-Chem 5.4, Q-Chem, Inc., Pleasanton, CA (2021)

 License issued to: University of California, San Diego (site)

 E. Epifanovsky,  A. T. B. Gilbert,  Xintian Feng,  Joonho Lee,  Yuezhi Mao,  
 N. Mardirossian,  P. Pokhilko,  A. White,  M. Wormit,  M. P. Coons,  
 A. L. Dempwolff,  Zhengting Gan,  D. Hait,  P. R. Horn,  L. D. Jacobson,  
 I. Kaliman,  J. Kussmann,  A. W. Lange,  Ka Un Lao,  D. S. Levine,  Jie Liu,  
 S. C. McKenzie,  A. F. Morrison,  K. Nanda,  F. Plasser,  D. R. Rehn,  
 M. L. Vidal,  Zhi-Qiang You,  Ying Zhu,  B. Alam,  B. Albrecht,  
 A. Aldossary,  E. Alguire,  J. H. Andersen,  D. Barton,  K. Begam,  A. Behn,  
 Y. A. Bernard,  E. J. Berquist,  H. Burton,  A. Carreras,  K. Carter-Fenk,  
 R. Chakraborty,  A. D. Chien,  K. D. Closser,  V. Cofer-Shabica,  
 S. Dasgupta,  Jia Deng,  M. de Wergifosse,  M. Diedenhofen,  Hainam Do,  
 S. Ehlert,  Po-Tung Fang,  S. Fatehi,  Qingguo Feng,  J. Gayvert,  
 Qinghui Ge,  G. Gidofalvi,  M. Goldey,  J. Gomes,  C. Gonzalez-Espinoza,  
 S. Gulania,  A. Gunina,  M. W. D. Hanson-Heine,  P. H. P. Harbach,  
 A. W. Hauser,  M. F. Herbst,  M. Hernandez Vera,  M. Hodecker,  
 Z. C. Holden,  S. Houck,  Xunkun Huang,  Kerwin Hui,  B. C. Huynh,  
 M. Ivanov,  Hyunjun Ji,  Hanjie Jiang,  B. Kaduk,  S. Kaehler,  
 K. Khistyaev,  Jaehoon Kim,  P. Klunzinger,  Z. Koczor-Benda,  
 Joong Hoon Koh,  D. Kosenkov,  L. Koulias,  T. Kowalczyk,  C. M. Krauter,  
 K. Kue,  A. Kunitsa,  T. Kus,  A. Landau,  K. V. Lawler,  D. Lefrancois,  
 S. Lehtola,  Rain Li,  Yi-Pei Li,  Jiashu Liang,  M. Liebenthal,  
 Hung-Hsuan Lin,  You-Sheng Lin,  Fenglai Liu,  Kuan-Yu Liu,  
 M. Loipersberger,  A. Luenser,  A. Manjanath,  P. Manohar,  E. Mansoor,  
 S. F. Manzer,  Shan-Ping Mao,  A. V. Marenich,  T. Markovich,  S. Mason,  
 S. A. Maurer,  P. F. McLaughlin,  M. F. S. J. Menger,  J.-M. Mewes,  
 S. A. Mewes,  P. Morgante,  J. W. Mullinax,  T. S. Nguyen-Beck,  
 K. J. Oosterbaan,  G. Paran,  Alexander C. Paul,  Suranjan K. Paul,  
 F. Pavosevic,  Zheng Pei,  S. Prager,  E. I. Proynov,  E. Ramos,  B. Rana,  
 A. E. Rask,  A. Rettig,  R. M. Richard,  F. Rob,  E. Rossomme,  T. Scheele,  
 M. Scheurer,  M. Schneider,  N. Sergueev,  S. M. Sharada,  W. Skomorowski,  
 D. W. Small,  C. J. Stein,  Yu-Chuan Su,  E. J. Sundstrom,  Zhen Tao,  
 J. Thirman,  T. Tsuchimochi,  N. M. Tubman,  S. P. Veccham,  O. Vydrov,  
 J. Wenzel,  J. Witte,  A. Yamada,  Kun Yao,  S. Yeganeh,  S. R. Yost,  
 A. Zech,  Igor Ying Zhang,  Xing Zhang,  Yu Zhang,  D. Zuev,  
 A. Aspuru-Guzik,  A. T. Bell,  N. A. Besley,  K. B. Bravaya,  B. R. Brooks,  
 D. Casanova,  Jeng-Da Chai,  S. Coriani,  C. J. Cramer,  
 A. E. DePrince, III,  R. A. DiStasio Jr.,  A. Dreuw,  B. D. Dunietz,  
 T. R. Furlani,  W. A. Goddard III,  S. Grimme,  S. Hammes-Schiffer,  
 T. Head-Gordon,  W. J. Hehre,  Chao-Ping Hsu,  T.-C. Jagau,  Yousung Jung,  
 A. Klamt,  Jing Kong,  D. S. Lambrecht,  WanZhen Liang,  N. J. Mayhall,  
 C. W. McCurdy,  J. B. Neaton,  C. Ochsenfeld,  J. A. Parkhill,  R. Peverati,  
 V. A. Rassolov,  Yihan Shao,  L. V. Slipchenko,  T. Stauch,  R. P. Steele,  
 J. E. Subotnik,  A. J. W. Thom,  A. Tkatchenko,  D. G. Truhlar,  
 T. Van Voorhis,  T. A. Wesolowski,  K. B. Whaley,  H. L. Woodcock III,  
 P. M. Zimmerman,  S. Faraji,  P. M. W. Gill,  M. Head-Gordon,  
 J. M. Herbert,  A. I. Krylov

 Contributors to earlier versions of Q-Chem not listed above: 
 R. D. Adamson,  B. Austin,  R. Baer,  J. Baker,  G. J. O. Beran,  
 K. Brandhorst,  S. T. Brown,  E. F. C. Byrd,  A. K. Chakraborty,  
 G. K. L. Chan,  Chun-Min Chang,  Yunqing Chen,  C.-L. Cheng,  
 Siu Hung Chien,  D. M. Chipman,  D. L. Crittenden,  H. Dachsel,  
 R. J. Doerksen,  A. D. Dutoi,  R. G. Edgar,  J. Fosso-Tande,  
 L. Fusti-Molnar,  D. Ghosh,  A. Ghysels,  A. Golubeva-Zadorozhnaya,  
 J. Gonthier,  M. S. Gordon,  S. R. Gwaltney,  G. Hawkins,  J. E. Herr,  
 A. Heyden,  S. Hirata,  E. G. Hohenstein,  G. Kedziora,  F. J. Keil,  
 C. Kelley,  Jihan Kim,  R. A. King,  R. Z. Khaliullin,  P. P. Korambath,  
 W. Kurlancheek,  A. Laurent,  A. M. Lee,  M. S. Lee,  S. V. Levchenko,  
 Ching Yeh Lin,  D. Liotard,  E. Livshits,  R. C. Lochan,  I. Lotan,  
 L. A. Martinez-Martinez,  P. E. Maslen,  N. Nair,  D. P. O'Neill,  
 D. Neuhauser,  E. Neuscamman,  C. M. Oana,  R. Olivares-Amaya,  R. Olson,  
 T. M. Perrine,  B. Peters,  P. A. Pieniazek,  A. Prociuk,  Y. M. Rhee,  
 J. Ritchie,  M. A. Rohrdanz,  E. Rosta,  N. J. Russ,  H. F. Schaefer III,  
 M. W. Schmidt,  N. E. Schultz,  S. Sharma,  N. Shenvi,  C. D. Sherrill,  
 A. C. Simmonett,  A. Sodt,  T. Stein,  D. Stuck,  K. S. Thanthiriwatte,  
 V. Vanovschi,  L. Vogt,  Tao Wang,  A. Warshel,  M. A. Watson,  
 C. F. Williams,  Q. Wu,  X. Xu,  Jun Yang,  W. Zhang,  Yan Zhao

 Please cite Q-Chem as follows:
 Y. Shao et al., Mol. Phys. 113, 184-215 (2015)
 DOI: 10.1080/00268976.2014.952696

 Q-Chem 5.4.0 for Intel X86 EM64T Linux

 Parts of Q-Chem use Armadillo 9.800.1 (Horizon Scraper).
 http://arma.sourceforge.net/

 Q-Chem begins on Wed Dec 13 16:08:25 2023  

 Host: 
0

     Scratch files written to ./qchem2598583//
 May1621 |scratch|qcdevops|jenkins|workspace|build_RNUM    
 Parallel job on  1  processors
 Processing $rem in /cm/shared/apps/spack/cpu/opt/spack/linux-centos8-zen2/gcc-10.2.0/qchem-5.4-akfmr7b3t57bfs6qan3padb2wnb2i7cl/config/preferences:
 Processing $rem in /home/rramji/.qchemrc:
 Symmetry turned off for PCM/SM12/SMD calculation
 Core orbitals will be frozen

 Checking the input file for inconsistencies... 	...done.

 Q-Chem warning in module forms1/BasisType.C, line 2236:

 You are not using the predefined 5D/6D in this basis set.


--------------------------------------------------------------
User input:
--------------------------------------------------------------
$molecule
0 1
C	0.126876	-3.887800	-0.713264
C	-0.113784	-3.701456	0.651267
C	-0.188043	-2.345170	1.068787
H	-0.236019	-4.545233	1.346782
C	-0.000000	-1.450135	-0.000000
S	0.265612	-2.321334	-1.504247
C	-0.439357	-1.934439	2.493059
H	-0.554378	-2.819799	3.147809
H	-1.362899	-1.326210	2.589987
H	0.394786	-1.325374	2.899892
H	0.228603	-4.815326	-1.287774
C	0.000000	0.000000	0.000000
C	0.540541	0.648986	1.113020
C	1.431046	1.717546	0.820578
H	0.292104	0.350827	2.142881
C	1.590053	1.908061	-0.563588
S	0.621066	0.745901	-1.464748
C	2.112618	2.535384	1.882380
H	1.825779	2.191315	2.894974
H	1.847090	3.610676	1.808137
H	3.218159	2.467925	1.808230
H	2.203332	2.644073	-1.097114
$end

$rem
JOBTYPE		SP
EXCHANGE	HF
CORRELATION	pRIMP2
BASIS		cc-pvtz
METHOD		rimp2
AUX_BASIS	rimp2-cc-pvtz
SOLVENT_METHOD	PCM
PURECART	11111
SYMMETRY	false
MEM_TOTAL	110000
SCF_CONVERGENCE = 6
THRESH=10
GUI = 2
$end



$solvent
dielectric 4.90
$end
--------------------------------------------------------------
 ----------------------------------------------------------------
             Standard Nuclear Orientation (Angstroms)
    I     Atom           X                Y                Z
 ----------------------------------------------------------------
    1      C       0.1268760000    -3.8878000000    -0.7132640000
    2      C      -0.1137840000    -3.7014560000     0.6512670000
    3      C      -0.1880430000    -2.3451700000     1.0687870000
    4      H      -0.2360190000    -4.5452330000     1.3467820000
    5      C       0.0000000000    -1.4501350000     0.0000000000
    6      S       0.2656120000    -2.3213340000    -1.5042470000
    7      C      -0.4393570000    -1.9344390000     2.4930590000
    8      H      -0.5543780000    -2.8197990000     3.1478090000
    9      H      -1.3628990000    -1.3262100000     2.5899870000
   10      H       0.3947860000    -1.3253740000     2.8998920000
   11      H       0.2286030000    -4.8153260000    -1.2877740000
   12      C       0.0000000000     0.0000000000     0.0000000000
   13      C       0.5405410000     0.6489860000     1.1130200000
   14      C       1.4310460000     1.7175460000     0.8205780000
   15      H       0.2921040000     0.3508270000     2.1428810000
   16      C       1.5900530000     1.9080610000    -0.5635880000
   17      S       0.6210660000     0.7459010000    -1.4647480000
   18      C       2.1126180000     2.5353840000     1.8823800000
   19      H       1.8257790000     2.1913150000     2.8949740000
   20      H       1.8470900000     3.6106760000     1.8081370000
   21      H       3.2181590000     2.4679250000     1.8082300000
   22      H       2.2033320000     2.6440730000    -1.0971140000
 ----------------------------------------------------------------
 Nuclear Repulsion Energy =         848.15997373 hartrees
 There are       51 alpha and       51 beta electrons
 Requested basis set is cc-pVTZ
 There are 184 shells and 508 basis functions

 Total QAlloc Memory Limit 110000 MB
 Mega-Array Size       188 MB
 MEM_STATIC part       192 MB
 Discretize the solute cavity surface with Lebedev spheres
	Using 110 Lebedev grid points for each H atom
	Using 194 Lebedev grid points for other atoms
	Atomic van der Waals radii will be scaled by 1.20
 Remove points where switching function is < 1.0e-08
 Keep 1506 surface tesserae and discard 1922 interior tesserae
 Molecular Surface Area = 227.465 Angst**2
 Requested basis set is rimp2-cc-pVTZ
 There are 394 shells and 1354 basis functions
 A cutoff of  1.0D-10 yielded  12601 shell pairs
 There are     93435 function pairs (    120476 Cartesian)
 Smallest overlap matrix eigenvalue = 6.98E-05

 Scale SEOQF with 1.000000e-01/1.000000e-01/1.000000e-01

 Standard Electronic Orientation quadrupole field applied
 Nucleus-field energy     =     0.0000000173 hartrees
 Guess from superposition of atomic densities
 Warning:  Energy on first SCF cycle will be non-variational
 SAD guess density has 102.000000 electrons

 -----------------------------------------------------------------------
  General SCF calculation program by
  Eric Jon Sundstrom, Paul Horn, Yuezhi Mao, Dmitri Zuev, Alec White,
  David Stuck, Shaama M.S., Shane Yost, Joonho Lee, David Small,
  Daniel Levine, Susi Lehtola, Hugh Burton, Evgeny Epifanovsky,
  Bang C. Huynh
 -----------------------------------------------------------------------
 Hartree-Fock
 using 64 threads for integral computing
 -------------------------------------------------------
 OpenMP Integral computing Module                
 Release: version 1.0, May 2013, Q-Chem Inc. Pittsburgh 
 -------------------------------------------------------
 A restricted SCF calculation will be
 performed using DIIS
 SCF converges when DIIS error is below 1.0e-06
 ---------------------------------------
  Cycle       Energy         DIIS error
 ---------------------------------------
    1   -1184.2999170830      2.39e-02  
    2   -1179.5096872419      1.60e-03  
    3   -1179.6317549656      6.18e-04  
    4   -1179.6457183345      3.36e-04  
    5   -1179.6505324168      6.28e-05  
    6   -1179.6508047323      3.01e-05  
    7   -1179.6508888885      1.29e-05  
    8   -1179.6509168390      5.29e-06  
    9   -1179.6509220429      2.00e-06  
   10   -1179.6509226807      7.67e-07  Convergence criterion met
 ---------------------------------------
 SCF time:   CPU 1603.28s  wall 48.00s 

************** Final PCM Free Energy Summary **************
 G_electrostatic  =      -0.00909575 hartree =      -5.70766744 kcal/mol
 G_cavitation     =       0.00000000 hartree =       0.00000000 kcal/mol
 G_dispersion     =       0.00000000 hartree =       0.00000000 kcal/mol
 G_repulsion      =       0.00000000 hartree =       0.00000000 kcal/mol
 --------------------------------------------------
 Non-electrostatic Free Energy =       0.00000000 hartree =       0.00000000 kcal/mol
 Total                         =      -0.00909575 hartree =      -5.70766744 kcal/mol
 --------------------------------------------------
 SCF Energy (H0 + V/2)                       =   -1179.65092268 
 Solute Internal Energy (H0)                 =   -1179.64182693 
 Total Free Energy (H0 + V/2 + non-elec)     =   -1179.65092268 hartree
                                             = -740242.12645602 kcal/mol
***********************************************************

 SCF   energy in the final basis set =    -1179.6509226807
 Total energy in the final basis set =    -1179.6509226807


 --------------------------------------------------------------
  Generalized many-body perturbation theory program
  by Joonho Lee, Fazle Rob, Xintian Feng, Evgeny Epifanovsky

 No regularization used 
 (reg. param. = 0.0000e+00)
  (P|Q)^-1/2 Time:  CPU 36.56 s  wall 0.58 s

 In RI-MP2 calculation: 
 # of frozen core orbitals: 20

 Components of the RIMP2 correlation energy:
        aaaa    correlation energy =        -0.2545318812 a.u.
        abab    correlation energy =        -1.4794360528 a.u.
        bbbb    correlation energy =        -0.2545318812 a.u.
        non-Brillouin singles      =        -0.0000000000 a.u.
        total same-spin energy     =        -0.5090637624 a.u.
        total opposite-spin energy =        -1.4794360528 a.u.

 Total  RIMP2   correlation energy =        -1.9884998152 a.u.
        RIMP2         total energy =     -1181.6394224959 a.u.

 RI-MP2 Energy Time:  CPU 173.27 s  wall 3.36 s
 
 --------------------------------------------------------------
 
                    Orbital Energies (a.u.)
 --------------------------------------------------------------
 
 Alpha MOs
 -- Occupied --
-91.9855 -91.9808 -11.2797 -11.2774 -11.2739 -11.2631 -11.2545 -11.2511
-11.2424 -11.2405 -11.2311 -11.2291  -8.9857  -8.9808  -6.6666  -6.6660
 -6.6654  -6.6617  -6.6612  -6.6605  -1.1852  -1.1483  -1.0440  -1.0250
 -0.9959  -0.9555  -0.9126  -0.8949  -0.8005  -0.7552  -0.7293  -0.7014
 -0.6573  -0.6157  -0.5953  -0.5826  -0.5709  -0.5604  -0.5503  -0.5416
 -0.5316  -0.5208  -0.5042  -0.4895  -0.4823  -0.4729  -0.4475  -0.3706
 -0.3480  -0.3338  -0.2653
 -- Virtual --
  0.0555   0.1326   0.1369   0.1518   0.1619   0.1723   0.1786   0.1821
  0.1964   0.2063   0.2082   0.2188   0.2321   0.2380   0.2413   0.2609
  0.2695   0.2768   0.3105   0.3134   0.3165   0.3444   0.3629   0.3691
  0.3798   0.3863   0.3934   0.4020   0.4134   0.4210   0.4312   0.4426
  0.4455   0.4566   0.4712   0.4753   0.4781   0.4850   0.4991   0.5093
  0.5168   0.5193   0.5275   0.5411   0.5486   0.5507   0.5588   0.5687
  0.5783   0.5816   0.5991   0.6016   0.6088   0.6104   0.6160   0.6224
  0.6299   0.6350   0.6372   0.6426   0.6434   0.6607   0.6687   0.6771
  0.6821   0.6849   0.7058   0.7166   0.7231   0.7337   0.7446   0.7506
  0.7564   0.7823   0.7922   0.7993   0.8090   0.8181   0.8332   0.8400
  0.8566   0.8725   0.8830   0.8977   0.9093   0.9212   0.9285   0.9415
  0.9497   0.9631   0.9653   0.9796   1.0051   1.0067   1.0286   1.0416
  1.0548   1.0584   1.0658   1.0693   1.0744   1.0789   1.0860   1.1014
  1.1054   1.1154   1.1389   1.1518   1.1582   1.1708   1.1801   1.1993
  1.2055   1.2161   1.2207   1.2403   1.2464   1.2588   1.2618   1.2687
  1.2768   1.2819   1.2965   1.3213   1.3325   1.3454   1.3603   1.3659
  1.3811   1.3868   1.3985   1.4138   1.4212   1.4275   1.4439   1.4627
  1.4795   1.4873   1.5070   1.5211   1.5334   1.5427   1.5474   1.5544
  1.5665   1.5684   1.5736   1.5763   1.5810   1.6081   1.6279   1.6340
  1.6445   1.6698   1.6725   1.6817   1.6992   1.7063   1.7157   1.7401
  1.7518   1.7621   1.7903   1.7942   1.8067   1.8202   1.8345   1.8646
  1.8819   1.8889   1.9255   1.9308   1.9393   1.9694   1.9793   2.0033
  2.0125   2.0304   2.0542   2.1026   2.1256   2.1448   2.1628   2.1766
  2.1786   2.2032   2.2166   2.2299   2.2336   2.2650   2.2673   2.2756
  2.2833   2.2973   2.3160   2.3762   2.4103   2.4227   2.4345   2.4495
  2.4616   2.4909   2.5050   2.5256   2.5439   2.5683   2.5854   2.6171
  2.6206   2.6366   2.6450   2.6654   2.6835   2.6971   2.7064   2.7302
  2.7370   2.7449   2.7597   2.7626   2.7672   2.7806   2.7847   2.8158
  2.8311   2.8367   2.8475   2.8620   2.8673   2.9194   2.9362   2.9427
  2.9624   2.9687   2.9803   3.0021   3.0165   3.0265   3.0363   3.0449
  3.0504   3.0636   3.0986   3.1090   3.1209   3.1338   3.1389   3.1418
  3.1473   3.1562   3.1648   3.1786   3.1978   3.2019   3.2123   3.2287
  3.2395   3.2499   3.2592   3.2724   3.2814   3.2875   3.3015   3.3085
  3.3200   3.3221   3.3359   3.3481   3.3552   3.3618   3.3664   3.3726
  3.3793   3.3932   3.4014   3.4150   3.4211   3.4268   3.4369   3.4447
  3.4537   3.4641   3.4707   3.4884   3.5016   3.5055   3.5115   3.5204
  3.5355   3.5393   3.5430   3.5475   3.5615   3.5786   3.5859   3.5900
  3.5996   3.6023   3.6313   3.6330   3.6503   3.6585   3.6620   3.6734
  3.6832   3.6940   3.7055   3.7191   3.7268   3.7372   3.7542   3.7695
  3.7727   3.7821   3.7870   3.7984   3.8047   3.8243   3.8300   3.8586
  3.8678   3.8875   3.8955   3.9145   3.9185   3.9451   3.9488   3.9693
  3.9767   3.9928   4.0108   4.0202   4.0218   4.0416   4.0482   4.0555
  4.0680   4.0793   4.1016   4.1048   4.1197   4.1339   4.1427   4.1564
  4.1822   4.1898   4.1994   4.2051   4.2176   4.2234   4.2355   4.2401
  4.2590   4.2693   4.2817   4.2963   4.3163   4.3243   4.3444   4.3552
  4.3605   4.3676   4.3715   4.3914   4.4008   4.4011   4.4211   4.4485
  4.4540   4.4598   4.4738   4.4867   4.5037   4.5463   4.5533   4.5687
  4.6061   4.6080   4.6140   4.6235   4.6447   4.6569   4.6817   4.6928
  4.7063   4.7374   4.7574   4.7742   4.7832   4.7882   4.8495   4.8649
  4.8766   4.8904   4.9145   4.9514   4.9633   4.9824   4.9928   5.0599
  5.0865   5.1033   5.1113   5.1443   5.1606   5.2052   5.2140   5.2310
  5.2733   5.2849   5.3019   5.3163   5.3211   5.3760   5.3986   5.4053
  5.4176   5.4525   5.4723   5.4882   5.5144   5.5410   5.5478   5.5600
  5.5800   5.6112   5.6224   5.6345   5.6410   5.6848   5.6986   5.7376
  5.7851   5.8196   5.9112   5.9615   6.0419   6.0939   6.1376   6.2206
  6.2269   6.2553   6.2803   6.3071   6.3602   6.3966   6.5246   8.7000
  9.7482  11.5284  12.1815  12.8606  13.1819  13.7879  13.8996  14.2183
 14.4294
 --------------------------------------------------------------
 
          Ground-State Mulliken Net Atomic Charges

     Atom                 Charge (a.u.)
  ----------------------------------------
      1 C                    -0.238483
      2 C                    -0.243992
      3 C                     0.038435
      4 H                     0.183520
      5 C                    -0.021167
      6 S                     0.005957
      7 C                    -0.308606
      8 H                     0.115568
      9 H                     0.111946
     10 H                     0.098420
     11 H                     0.203425
     12 C                    -0.024276
     13 C                    -0.187552
     14 C                     0.009021
     15 H                     0.197014
     16 C                    -0.210376
     17 S                     0.017336
     18 C                    -0.268275
     19 H                     0.101926
     20 H                     0.109191
     21 H                     0.108233
     22 H                     0.202735
  ----------------------------------------
  Sum of atomic charges =     0.000000

 -----------------------------------------------------------------
                    Cartesian Multipole Moments
 -----------------------------------------------------------------
    Charge (ESU x 10^10)
                -0.0000
    Dipole Moment (Debye)
         X       1.4268      Y       1.0025      Z       2.9990
       Tot       3.4691
    Quadrupole Moments (Debye-Ang)
        XX     -87.4946     XY       6.3559     YY     -75.2821
        XZ      -0.4341     YZ      -1.5667     ZZ     -80.2791
    Octopole Moments (Debye-Ang^2)
       XXX    -124.9746    XXY      80.7368    XYY     -28.2178
       YYY     137.1646    XXZ      -6.9048    XYZ       2.6151
       YYZ      -8.8583    XZZ     -39.1838    YZZ      52.3304
       ZZZ      -7.3885
    Hexadecapole Moments (Debye-Ang^3)
      XXXX    -533.8800   XXXY    -218.6210   XXYY    -536.2851
      XYYY    -211.2588   YYYY   -2301.7212   XXXZ     -18.2038
      XXYZ     -31.4026   XYYZ     -29.6840   YYYZ     -55.6247
      XXZZ    -269.7399   XYZZ     -65.6144   YYZZ    -553.3998
      XZZZ     -20.3611   YZZZ     -84.1535   ZZZZ   -1069.7481
 -----------------------------------------------------------------
 Total job time:  55.24s(wall), 1931.55s(cpu) 
 Wed Dec 13 16:09:21 2023

        *************************************************************
        *                                                           *
        *  Thank you very much for using Q-Chem.  Have a nice day.  *
        *                                                           *
        *************************************************************


0 sent ACK to 0 
now end server 0 ... 
cleanup process ... done
remove work dirs ./qchem2598583.0 -- ./qchem2598583.0
rm -rf ./qchem2598583.0
rm -rf ./qchem2598583
