You are running Q-Chem version: 5.4.0

#
# job setting
#
local host:  exp-1-10
current dir: /home/rramji/project-csd799/aromodel/p3ht-qchem/rotation-run
input file:  Methylthiophene_Phi_0_Theta_10_Methylthiophene.qcin
output file: 
nprocs     : 1
nthreads   : 64
#
# qchem installation setting
#
QC:          /cm/shared/apps/spack/cpu/opt/spack/linux-centos8-zen2/gcc-10.2.0/qchem-5.4-akfmr7b3t57bfs6qan3padb2wnb2i7cl
QCAUX:       /cm/shared/apps/spack/cpu/opt/spack/linux-centos8-zen2/gcc-10.2.0/qchem-5.4-akfmr7b3t57bfs6qan3padb2wnb2i7cl/qcaux
QCPROG:      /cm/shared/apps/spack/cpu/opt/spack/linux-centos8-zen2/gcc-10.2.0/qchem-5.4-akfmr7b3t57bfs6qan3padb2wnb2i7cl/exe/qcprog.exe
QCPROG_S:    /cm/shared/apps/spack/cpu/opt/spack/linux-centos8-zen2/gcc-10.2.0/qchem-5.4-akfmr7b3t57bfs6qan3padb2wnb2i7cl/exe/qcprog.exe_s
PARALLEL:    -DPARALLEL
QCMPI:       mpich
#
# qchem directory setting
#
qcrun:       qchem1454653
QCSCRATCH:   .
QCLOCALSCR:  
QCTMPDIR:    .
QCFILEPREF:  ./qchem1454653
QCSAVEDIR:   
workdirs:    ./qchem1454653
workdir0:    ./qchem1454653
partmpdirs =  
#
# parallel setting
#
QCRSH:           ssh
QCMPI:           mpich
QCMPIRUN:        /cm/shared/apps/spack/cpu/opt/spack/linux-centos8-zen2/gcc-10.2.0/qchem-5.4-akfmr7b3t57bfs6qan3padb2wnb2i7cl/bin/mpi/mpirun_qchem
QCMACHINEFILE:   ./qchem1454653/hostfile
exp-1-10

#
# env setting
#
exported envs:   QC QCAUX QCSCRATCH QCRUNNAME QCFILEPREF QCPROG QCPROG_S GUIFILE

Running Job 1 of 1 Methylthiophene_Phi_0_Theta_10_Methylthiophene.qcin
qchem Methylthiophene_Phi_0_Theta_10_Methylthiophene.qcin_1454653.0 ./qchem1454653/ 1
/cm/shared/apps/spack/cpu/opt/spack/linux-centos8-zen2/gcc-10.2.0/qchem-5.4-akfmr7b3t57bfs6qan3padb2wnb2i7cl/bin/mpi/mpirun_qchem -machinefile ./qchem1454653/hostfile -np 1 /cm/shared/apps/spack/cpu/opt/spack/linux-centos8-zen2/gcc-10.2.0/qchem-5.4-akfmr7b3t57bfs6qan3padb2wnb2i7cl/exe/qcprog.exe Methylthiophene_Phi_0_Theta_10_Methylthiophene.qcin_1454653.0 ./qchem1454653/

Process 0 of 1 is on exp-1-10 - thread support 0
initial socket setup ...start
initial socket setup ...done 
now start server 0 ... 
                  Welcome to Q-Chem
     A Quantum Leap Into The Future Of Chemistry


 Q-Chem 5.4, Q-Chem, Inc., Pleasanton, CA (2021)

 License issued to: University of California, San Diego (site)

 E. Epifanovsky,  A. T. B. Gilbert,  Xintian Feng,  Joonho Lee,  Yuezhi Mao,  
 N. Mardirossian,  P. Pokhilko,  A. White,  M. Wormit,  M. P. Coons,  
 A. L. Dempwolff,  Zhengting Gan,  D. Hait,  P. R. Horn,  L. D. Jacobson,  
 I. Kaliman,  J. Kussmann,  A. W. Lange,  Ka Un Lao,  D. S. Levine,  Jie Liu,  
 S. C. McKenzie,  A. F. Morrison,  K. Nanda,  F. Plasser,  D. R. Rehn,  
 M. L. Vidal,  Zhi-Qiang You,  Ying Zhu,  B. Alam,  B. Albrecht,  
 A. Aldossary,  E. Alguire,  J. H. Andersen,  D. Barton,  K. Begam,  A. Behn,  
 Y. A. Bernard,  E. J. Berquist,  H. Burton,  A. Carreras,  K. Carter-Fenk,  
 R. Chakraborty,  A. D. Chien,  K. D. Closser,  V. Cofer-Shabica,  
 S. Dasgupta,  Jia Deng,  M. de Wergifosse,  M. Diedenhofen,  Hainam Do,  
 S. Ehlert,  Po-Tung Fang,  S. Fatehi,  Qingguo Feng,  J. Gayvert,  
 Qinghui Ge,  G. Gidofalvi,  M. Goldey,  J. Gomes,  C. Gonzalez-Espinoza,  
 S. Gulania,  A. Gunina,  M. W. D. Hanson-Heine,  P. H. P. Harbach,  
 A. W. Hauser,  M. F. Herbst,  M. Hernandez Vera,  M. Hodecker,  
 Z. C. Holden,  S. Houck,  Xunkun Huang,  Kerwin Hui,  B. C. Huynh,  
 M. Ivanov,  Hyunjun Ji,  Hanjie Jiang,  B. Kaduk,  S. Kaehler,  
 K. Khistyaev,  Jaehoon Kim,  P. Klunzinger,  Z. Koczor-Benda,  
 Joong Hoon Koh,  D. Kosenkov,  L. Koulias,  T. Kowalczyk,  C. M. Krauter,  
 K. Kue,  A. Kunitsa,  T. Kus,  A. Landau,  K. V. Lawler,  D. Lefrancois,  
 S. Lehtola,  Rain Li,  Yi-Pei Li,  Jiashu Liang,  M. Liebenthal,  
 Hung-Hsuan Lin,  You-Sheng Lin,  Fenglai Liu,  Kuan-Yu Liu,  
 M. Loipersberger,  A. Luenser,  A. Manjanath,  P. Manohar,  E. Mansoor,  
 S. F. Manzer,  Shan-Ping Mao,  A. V. Marenich,  T. Markovich,  S. Mason,  
 S. A. Maurer,  P. F. McLaughlin,  M. F. S. J. Menger,  J.-M. Mewes,  
 S. A. Mewes,  P. Morgante,  J. W. Mullinax,  T. S. Nguyen-Beck,  
 K. J. Oosterbaan,  G. Paran,  Alexander C. Paul,  Suranjan K. Paul,  
 F. Pavosevic,  Zheng Pei,  S. Prager,  E. I. Proynov,  E. Ramos,  B. Rana,  
 A. E. Rask,  A. Rettig,  R. M. Richard,  F. Rob,  E. Rossomme,  T. Scheele,  
 M. Scheurer,  M. Schneider,  N. Sergueev,  S. M. Sharada,  W. Skomorowski,  
 D. W. Small,  C. J. Stein,  Yu-Chuan Su,  E. J. Sundstrom,  Zhen Tao,  
 J. Thirman,  T. Tsuchimochi,  N. M. Tubman,  S. P. Veccham,  O. Vydrov,  
 J. Wenzel,  J. Witte,  A. Yamada,  Kun Yao,  S. Yeganeh,  S. R. Yost,  
 A. Zech,  Igor Ying Zhang,  Xing Zhang,  Yu Zhang,  D. Zuev,  
 A. Aspuru-Guzik,  A. T. Bell,  N. A. Besley,  K. B. Bravaya,  B. R. Brooks,  
 D. Casanova,  Jeng-Da Chai,  S. Coriani,  C. J. Cramer,  
 A. E. DePrince, III,  R. A. DiStasio Jr.,  A. Dreuw,  B. D. Dunietz,  
 T. R. Furlani,  W. A. Goddard III,  S. Grimme,  S. Hammes-Schiffer,  
 T. Head-Gordon,  W. J. Hehre,  Chao-Ping Hsu,  T.-C. Jagau,  Yousung Jung,  
 A. Klamt,  Jing Kong,  D. S. Lambrecht,  WanZhen Liang,  N. J. Mayhall,  
 C. W. McCurdy,  J. B. Neaton,  C. Ochsenfeld,  J. A. Parkhill,  R. Peverati,  
 V. A. Rassolov,  Yihan Shao,  L. V. Slipchenko,  T. Stauch,  R. P. Steele,  
 J. E. Subotnik,  A. J. W. Thom,  A. Tkatchenko,  D. G. Truhlar,  
 T. Van Voorhis,  T. A. Wesolowski,  K. B. Whaley,  H. L. Woodcock III,  
 P. M. Zimmerman,  S. Faraji,  P. M. W. Gill,  M. Head-Gordon,  
 J. M. Herbert,  A. I. Krylov

 Contributors to earlier versions of Q-Chem not listed above: 
 R. D. Adamson,  B. Austin,  R. Baer,  J. Baker,  G. J. O. Beran,  
 K. Brandhorst,  S. T. Brown,  E. F. C. Byrd,  A. K. Chakraborty,  
 G. K. L. Chan,  Chun-Min Chang,  Yunqing Chen,  C.-L. Cheng,  
 Siu Hung Chien,  D. M. Chipman,  D. L. Crittenden,  H. Dachsel,  
 R. J. Doerksen,  A. D. Dutoi,  R. G. Edgar,  J. Fosso-Tande,  
 L. Fusti-Molnar,  D. Ghosh,  A. Ghysels,  A. Golubeva-Zadorozhnaya,  
 J. Gonthier,  M. S. Gordon,  S. R. Gwaltney,  G. Hawkins,  J. E. Herr,  
 A. Heyden,  S. Hirata,  E. G. Hohenstein,  G. Kedziora,  F. J. Keil,  
 C. Kelley,  Jihan Kim,  R. A. King,  R. Z. Khaliullin,  P. P. Korambath,  
 W. Kurlancheek,  A. Laurent,  A. M. Lee,  M. S. Lee,  S. V. Levchenko,  
 Ching Yeh Lin,  D. Liotard,  E. Livshits,  R. C. Lochan,  I. Lotan,  
 L. A. Martinez-Martinez,  P. E. Maslen,  N. Nair,  D. P. O'Neill,  
 D. Neuhauser,  E. Neuscamman,  C. M. Oana,  R. Olivares-Amaya,  R. Olson,  
 T. M. Perrine,  B. Peters,  P. A. Pieniazek,  A. Prociuk,  Y. M. Rhee,  
 J. Ritchie,  M. A. Rohrdanz,  E. Rosta,  N. J. Russ,  H. F. Schaefer III,  
 M. W. Schmidt,  N. E. Schultz,  S. Sharma,  N. Shenvi,  C. D. Sherrill,  
 A. C. Simmonett,  A. Sodt,  T. Stein,  D. Stuck,  K. S. Thanthiriwatte,  
 V. Vanovschi,  L. Vogt,  Tao Wang,  A. Warshel,  M. A. Watson,  
 C. F. Williams,  Q. Wu,  X. Xu,  Jun Yang,  W. Zhang,  Yan Zhao

 Please cite Q-Chem as follows:
 Y. Shao et al., Mol. Phys. 113, 184-215 (2015)
 DOI: 10.1080/00268976.2014.952696

 Q-Chem 5.4.0 for Intel X86 EM64T Linux

 Parts of Q-Chem use Armadillo 9.800.1 (Horizon Scraper).
 http://arma.sourceforge.net/

 Q-Chem begins on Wed Dec 13 15:50:13 2023  

 Host: 
0

     Scratch files written to ./qchem1454653//
 May1621 |scratch|qcdevops|jenkins|workspace|build_RNUM    
 Parallel job on  1  processors
 Processing $rem in /cm/shared/apps/spack/cpu/opt/spack/linux-centos8-zen2/gcc-10.2.0/qchem-5.4-akfmr7b3t57bfs6qan3padb2wnb2i7cl/config/preferences:
 Processing $rem in /home/rramji/.qchemrc:
 Symmetry turned off for PCM/SM12/SMD calculation
 Core orbitals will be frozen

 Checking the input file for inconsistencies... 	...done.

 Q-Chem warning in module forms1/BasisType.C, line 2236:

 You are not using the predefined 5D/6D in this basis set.


--------------------------------------------------------------
User input:
--------------------------------------------------------------
$molecule
0 1
C	-0.139145	-3.872011	0.792466
C	0.102109	-3.714320	-0.575568
C	0.180649	-2.367079	-1.020681
H	0.221685	-4.572499	-1.253706
C	-0.004575	-1.449826	0.029601
S	-0.272941	-2.289295	1.551299
C	0.433263	-1.986302	-2.453023
H	0.545494	-2.885200	-3.089557
H	1.358721	-1.383093	-2.562283
H	-0.398952	-1.383040	-2.872261
H	-0.243800	-4.787291	1.385782
C	0.000000	0.000000	0.000000
C	-0.000422	0.867154	1.095548
C	-0.000723	2.251873	0.774773
H	-0.000313	0.500160	2.133116
C	-0.000589	2.471718	-0.614169
S	-0.000622	0.940512	-1.484255
C	-0.000952	3.337937	1.814623
H	-0.000937	2.910749	2.836150
H	-0.893476	3.992147	1.727003
H	0.891379	3.992426	1.727100
H	-0.000863	3.418660	-1.167140
$end

$rem
JOBTYPE		SP
EXCHANGE	HF
CORRELATION	pRIMP2
BASIS		cc-pvtz
METHOD		rimp2
AUX_BASIS	rimp2-cc-pvtz
SOLVENT_METHOD	PCM
PURECART	11111
SYMMETRY	false
MEM_TOTAL	110000
SCF_CONVERGENCE = 6
THRESH=10
GUI = 2
$end



$solvent
dielectric 4.90
$end
--------------------------------------------------------------
 ----------------------------------------------------------------
             Standard Nuclear Orientation (Angstroms)
    I     Atom           X                Y                Z
 ----------------------------------------------------------------
    1      C      -0.1391450000    -3.8720110000     0.7924660000
    2      C       0.1021090000    -3.7143200000    -0.5755680000
    3      C       0.1806490000    -2.3670790000    -1.0206810000
    4      H       0.2216850000    -4.5724990000    -1.2537060000
    5      C      -0.0045750000    -1.4498260000     0.0296010000
    6      S      -0.2729410000    -2.2892950000     1.5512990000
    7      C       0.4332630000    -1.9863020000    -2.4530230000
    8      H       0.5454940000    -2.8852000000    -3.0895570000
    9      H       1.3587210000    -1.3830930000    -2.5622830000
   10      H      -0.3989520000    -1.3830400000    -2.8722610000
   11      H      -0.2438000000    -4.7872910000     1.3857820000
   12      C       0.0000000000     0.0000000000     0.0000000000
   13      C      -0.0004220000     0.8671540000     1.0955480000
   14      C      -0.0007230000     2.2518730000     0.7747730000
   15      H      -0.0003130000     0.5001600000     2.1331160000
   16      C      -0.0005890000     2.4717180000    -0.6141690000
   17      S      -0.0006220000     0.9405120000    -1.4842550000
   18      C      -0.0009520000     3.3379370000     1.8146230000
   19      H      -0.0009370000     2.9107490000     2.8361500000
   20      H      -0.8934760000     3.9921470000     1.7270030000
   21      H       0.8913790000     3.9924260000     1.7271000000
   22      H      -0.0008630000     3.4186600000    -1.1671400000
 ----------------------------------------------------------------
 Nuclear Repulsion Energy =         836.78780659 hartrees
 There are       51 alpha and       51 beta electrons
 Requested basis set is cc-pVTZ
 There are 184 shells and 508 basis functions

 Total QAlloc Memory Limit 110000 MB
 Mega-Array Size       188 MB
 MEM_STATIC part       192 MB
 Discretize the solute cavity surface with Lebedev spheres
	Using 110 Lebedev grid points for each H atom
	Using 194 Lebedev grid points for other atoms
	Atomic van der Waals radii will be scaled by 1.20
 Remove points where switching function is < 1.0e-08
 Keep 1521 surface tesserae and discard 1907 interior tesserae
 Molecular Surface Area = 229.651 Angst**2
 Requested basis set is rimp2-cc-pVTZ
 There are 394 shells and 1354 basis functions
 A cutoff of  1.0D-10 yielded  12154 shell pairs
 There are     90250 function pairs (    116480 Cartesian)
 Smallest overlap matrix eigenvalue = 4.36E-05

 Scale SEOQF with 1.000000e+00/1.000000e-01/1.000000e-01

 Standard Electronic Orientation quadrupole field applied
 Nucleus-field energy     =     0.0000000227 hartrees
 Guess from superposition of atomic densities
 Warning:  Energy on first SCF cycle will be non-variational
 SAD guess density has 102.000000 electrons

 -----------------------------------------------------------------------
  General SCF calculation program by
  Eric Jon Sundstrom, Paul Horn, Yuezhi Mao, Dmitri Zuev, Alec White,
  David Stuck, Shaama M.S., Shane Yost, Joonho Lee, David Small,
  Daniel Levine, Susi Lehtola, Hugh Burton, Evgeny Epifanovsky,
  Bang C. Huynh
 -----------------------------------------------------------------------
 Hartree-Fock
 using 64 threads for integral computing
 -------------------------------------------------------
 OpenMP Integral computing Module                
 Release: version 1.0, May 2013, Q-Chem Inc. Pittsburgh 
 -------------------------------------------------------
 A restricted SCF calculation will be
 performed using DIIS
 SCF converges when DIIS error is below 1.0e-06
 ---------------------------------------
  Cycle       Energy         DIIS error
 ---------------------------------------
    1   -1184.2316951961      2.38e-02  
    2   -1179.5461239194      1.61e-03  
    3   -1179.6677781775      6.19e-04  
    4   -1179.6816661230      3.33e-04  
    5   -1179.6863497613      6.38e-05  
    6   -1179.6866220625      2.99e-05  
    7   -1179.6867058026      1.22e-05  
    8   -1179.6867324680      5.13e-06  
    9   -1179.6867371989      1.60e-06  
   10   -1179.6867376261      5.45e-07  Convergence criterion met
 ---------------------------------------
 SCF time:   CPU 1533.78s  wall 46.00s 

************** Final PCM Free Energy Summary **************
 G_electrostatic  =      -0.00780987 hartree =      -4.90076450 kcal/mol
 G_cavitation     =       0.00000000 hartree =       0.00000000 kcal/mol
 G_dispersion     =       0.00000000 hartree =       0.00000000 kcal/mol
 G_repulsion      =       0.00000000 hartree =       0.00000000 kcal/mol
 --------------------------------------------------
 Non-electrostatic Free Energy =       0.00000000 hartree =       0.00000000 kcal/mol
 Total                         =      -0.00780987 hartree =      -4.90076450 kcal/mol
 --------------------------------------------------
 SCF Energy (H0 + V/2)                       =   -1179.68673763 
 Solute Internal Energy (H0)                 =   -1179.67892776 
 Total Free Energy (H0 + V/2 + non-elec)     =   -1179.68673763 hartree
                                             = -740264.60067344 kcal/mol
***********************************************************

 SCF   energy in the final basis set =    -1179.6867376261
 Total energy in the final basis set =    -1179.6867376261


 --------------------------------------------------------------
  Generalized many-body perturbation theory program
  by Joonho Lee, Fazle Rob, Xintian Feng, Evgeny Epifanovsky

 No regularization used 
 (reg. param. = 0.0000e+00)
  (P|Q)^-1/2 Time:  CPU 49.79 s  wall 0.89 s

 In RI-MP2 calculation: 
 # of frozen core orbitals: 20

 Components of the RIMP2 correlation energy:
        aaaa    correlation energy =        -0.2529682930 a.u.
        abab    correlation energy =        -1.4740624575 a.u.
        bbbb    correlation energy =        -0.2529682930 a.u.
        non-Brillouin singles      =        -0.0000000000 a.u.
        total same-spin energy     =        -0.5059365859 a.u.
        total opposite-spin energy =        -1.4740624575 a.u.

 Total  RIMP2   correlation energy =        -1.9799990434 a.u.
        RIMP2         total energy =     -1181.6667366695 a.u.

 RI-MP2 Energy Time:  CPU 198.26 s  wall 4.27 s
 
 --------------------------------------------------------------
 
                    Orbital Energies (a.u.)
 --------------------------------------------------------------
 
 Alpha MOs
 -- Occupied --
-91.9860 -91.9855 -11.2848 -11.2790 -11.2738 -11.2617 -11.2541 -11.2521
-11.2441 -11.2386 -11.2303 -11.2289  -8.9858  -8.9852  -6.6668  -6.6662
 -6.6661  -6.6656  -6.6656  -6.6649  -1.1808  -1.1502  -1.0414  -1.0258
 -0.9986  -0.9526  -0.9149  -0.8955  -0.7997  -0.7651  -0.7193  -0.6959
 -0.6634  -0.6160  -0.5840  -0.5820  -0.5772  -0.5696  -0.5529  -0.5336
 -0.5234  -0.5205  -0.5108  -0.4975  -0.4913  -0.4681  -0.4513  -0.3699
 -0.3439  -0.3402  -0.2695
 -- Virtual --
  0.0635   0.1358   0.1436   0.1534   0.1615   0.1747   0.1811   0.1897
  0.1928   0.1983   0.2090   0.2163   0.2364   0.2387   0.2423   0.2535
  0.2629   0.2724   0.2943   0.3159   0.3424   0.3561   0.3707   0.3802
  0.3823   0.3878   0.3993   0.4080   0.4145   0.4290   0.4428   0.4503
  0.4584   0.4607   0.4688   0.4809   0.4882   0.4919   0.5035   0.5057
  0.5125   0.5281   0.5334   0.5401   0.5523   0.5533   0.5571   0.5745
  0.5838   0.5868   0.5956   0.6008   0.6068   0.6132   0.6161   0.6227
  0.6284   0.6308   0.6412   0.6453   0.6472   0.6544   0.6609   0.6627
  0.6740   0.6872   0.6999   0.7090   0.7146   0.7443   0.7480   0.7618
  0.7834   0.7954   0.7978   0.8077   0.8238   0.8427   0.8456   0.8524
  0.8616   0.8727   0.8738   0.8954   0.9062   0.9186   0.9317   0.9507
  0.9531   0.9562   0.9845   0.9980   1.0094   1.0146   1.0325   1.0387
  1.0549   1.0637   1.0698   1.0730   1.0825   1.0912   1.0996   1.1028
  1.1055   1.1160   1.1391   1.1420   1.1530   1.1639   1.1725   1.1804
  1.2073   1.2256   1.2321   1.2359   1.2464   1.2553   1.2604   1.2699
  1.2802   1.2906   1.2984   1.3181   1.3359   1.3481   1.3549   1.3716
  1.3847   1.3970   1.4138   1.4173   1.4216   1.4292   1.4366   1.4630
  1.4785   1.4894   1.5017   1.5169   1.5206   1.5340   1.5385   1.5490
  1.5570   1.5645   1.5672   1.5734   1.5868   1.6052   1.6131   1.6227
  1.6579   1.6631   1.6788   1.6920   1.6973   1.7060   1.7224   1.7324
  1.7524   1.7712   1.7931   1.8005   1.8149   1.8274   1.8492   1.8704
  1.8787   1.8973   1.9126   1.9185   1.9350   1.9507   1.9800   1.9901
  1.9985   2.0446   2.0592   2.0863   2.1211   2.1500   2.1535   2.1747
  2.1897   2.1962   2.2090   2.2498   2.2619   2.2713   2.2820   2.2953
  2.3082   2.3164   2.3579   2.3651   2.3998   2.4158   2.4367   2.4498
  2.4690   2.4805   2.5202   2.5303   2.5577   2.5686   2.5942   2.6148
  2.6178   2.6490   2.6715   2.6825   2.6970   2.7090   2.7151   2.7218
  2.7303   2.7337   2.7414   2.7518   2.7690   2.7761   2.7959   2.8116
  2.8205   2.8335   2.8476   2.8609   2.8802   2.8927   2.9209   2.9359
  2.9416   2.9645   2.9814   2.9923   3.0067   3.0164   3.0305   3.0417
  3.0509   3.0659   3.0821   3.0929   3.1120   3.1181   3.1405   3.1416
  3.1487   3.1532   3.1600   3.1723   3.1912   3.2031   3.2107   3.2263
  3.2337   3.2384   3.2622   3.2667   3.2740   3.2844   3.3001   3.3075
  3.3132   3.3326   3.3358   3.3445   3.3538   3.3597   3.3668   3.3769
  3.3807   3.3903   3.4105   3.4129   3.4275   3.4300   3.4364   3.4396
  3.4455   3.4565   3.4641   3.4806   3.4820   3.5025   3.5189   3.5255
  3.5274   3.5319   3.5349   3.5478   3.5523   3.5617   3.5825   3.5861
  3.5946   3.6070   3.6213   3.6296   3.6314   3.6509   3.6535   3.6574
  3.6833   3.6906   3.6986   3.7083   3.7201   3.7293   3.7437   3.7519
  3.7561   3.7630   3.7830   3.7935   3.8094   3.8221   3.8252   3.8405
  3.8482   3.8884   3.8970   3.9108   3.9231   3.9249   3.9387   3.9534
  3.9716   3.9900   4.0020   4.0073   4.0112   4.0229   4.0259   4.0417
  4.0632   4.0875   4.0914   4.1010   4.1164   4.1380   4.1431   4.1483
  4.1638   4.1720   4.1920   4.1944   4.1990   4.2142   4.2207   4.2234
  4.2484   4.2644   4.2821   4.2869   4.2955   4.3270   4.3315   4.3349
  4.3464   4.3631   4.3766   4.3811   4.3971   4.4011   4.4099   4.4334
  4.4407   4.4488   4.4642   4.4839   4.4970   4.5385   4.5544   4.5704
  4.6002   4.6089   4.6242   4.6331   4.6409   4.6460   4.6710   4.6927
  4.7089   4.7261   4.7405   4.7528   4.7674   4.7722   4.8144   4.8484
  4.8585   4.8790   4.8873   4.9285   4.9545   4.9606   5.0434   5.0528
  5.0902   5.1071   5.1124   5.1548   5.1775   5.1994   5.2144   5.2612
  5.2797   5.2871   5.3052   5.3171   5.3437   5.3721   5.3927   5.4060
  5.4153   5.4355   5.4630   5.4718   5.5296   5.5402   5.5467   5.5571
  5.5683   5.5773   5.6209   5.6217   5.6301   5.6987   5.7131   5.7219
  5.8018   5.8418   5.9366   5.9960   6.0681   6.1488   6.1950   6.2255
  6.2370   6.2560   6.3001   6.3186   6.3548   6.4730   6.5384   8.8692
  9.9623  11.5057  12.0267  12.9899  13.2517  13.7450  14.0480  14.2479
 14.4705
 --------------------------------------------------------------
 
          Ground-State Mulliken Net Atomic Charges

     Atom                 Charge (a.u.)
  ----------------------------------------
      1 C                    -0.210629
      2 C                    -0.256894
      3 C                     0.054489
      4 H                     0.185949
      5 C                    -0.025568
      6 S                     0.009387
      7 C                    -0.322384
      8 H                     0.118156
      9 H                     0.119450
     10 H                     0.112985
     11 H                     0.207432
     12 C                     0.059828
     13 C                    -0.272534
     14 C                     0.033406
     15 H                     0.176254
     16 C                    -0.258815
     17 S                     0.021392
     18 C                    -0.271317
     19 H                     0.102889
     20 H                     0.108671
     21 H                     0.108416
     22 H                     0.199437
  ----------------------------------------
  Sum of atomic charges =     0.000000

 -----------------------------------------------------------------
                    Cartesian Multipole Moments
 -----------------------------------------------------------------
    Charge (ESU x 10^10)
                -0.0000
    Dipole Moment (Debye)
         X       0.2748      Y      -0.0140      Z      -0.1514
       Tot       0.3141
    Quadrupole Moments (Debye-Ang)
        XX     -92.5956     XY      -0.4007     YY     -68.3272
        XZ      -1.1889     YZ       3.2828     ZZ     -80.1010
    Octopole Moments (Debye-Ang^2)
       XXX      -0.2704    XXY      47.8080    XYY      -0.7561
       YYY      91.7023    XXZ      -0.6584    XYZ       4.3543
       YYZ       0.8145    XZZ       0.3504    YZZ      35.1142
       ZZZ       2.3928
    Hexadecapole Moments (Debye-Ang^3)
      XXXX    -145.0656   XXXY      -2.3461   XXYY    -571.6762
      XYYY       4.6653   YYYY   -2582.7930   XXXZ      49.2197
      XXYZ     -25.1557   XYYZ      -2.1044   YYYZ    -133.0977
      XXZZ    -212.6499   XYZZ      -1.7368   YYZZ    -601.6008
      XZZZ      44.4003   YZZZ     -76.9143   ZZZZ   -1057.1170
 -----------------------------------------------------------------
 Total job time:  53.57s(wall), 1816.40s(cpu) 
 Wed Dec 13 15:51:07 2023

        *************************************************************
        *                                                           *
        *  Thank you very much for using Q-Chem.  Have a nice day.  *
        *                                                           *
        *************************************************************


0 sent ACK to 0 
now end server 0 ... 
cleanup process ... done
remove work dirs ./qchem1454653.0 -- ./qchem1454653.0
rm -rf ./qchem1454653.0
rm -rf ./qchem1454653
