You are running Q-Chem version: 5.4.0

#
# job setting
#
local host:  exp-1-36
current dir: /home/rramji/project-csd799/aromodel/p3ht-qchem/rotation-run
input file:  Methylthiophene_Phi_10_Theta_160_Methylthiophene.qcin
output file: 
nprocs     : 1
nthreads   : 64
#
# qchem installation setting
#
QC:          /cm/shared/apps/spack/cpu/opt/spack/linux-centos8-zen2/gcc-10.2.0/qchem-5.4-akfmr7b3t57bfs6qan3padb2wnb2i7cl
QCAUX:       /cm/shared/apps/spack/cpu/opt/spack/linux-centos8-zen2/gcc-10.2.0/qchem-5.4-akfmr7b3t57bfs6qan3padb2wnb2i7cl/qcaux
QCPROG:      /cm/shared/apps/spack/cpu/opt/spack/linux-centos8-zen2/gcc-10.2.0/qchem-5.4-akfmr7b3t57bfs6qan3padb2wnb2i7cl/exe/qcprog.exe
QCPROG_S:    /cm/shared/apps/spack/cpu/opt/spack/linux-centos8-zen2/gcc-10.2.0/qchem-5.4-akfmr7b3t57bfs6qan3padb2wnb2i7cl/exe/qcprog.exe_s
PARALLEL:    -DPARALLEL
QCMPI:       mpich
#
# qchem directory setting
#
qcrun:       qchem2936722
QCSCRATCH:   .
QCLOCALSCR:  
QCTMPDIR:    .
QCFILEPREF:  ./qchem2936722
QCSAVEDIR:   
workdirs:    ./qchem2936722
workdir0:    ./qchem2936722
partmpdirs =  
#
# parallel setting
#
QCRSH:           ssh
QCMPI:           mpich
QCMPIRUN:        /cm/shared/apps/spack/cpu/opt/spack/linux-centos8-zen2/gcc-10.2.0/qchem-5.4-akfmr7b3t57bfs6qan3padb2wnb2i7cl/bin/mpi/mpirun_qchem
QCMACHINEFILE:   ./qchem2936722/hostfile
exp-1-36

#
# env setting
#
exported envs:   QC QCAUX QCSCRATCH QCRUNNAME QCFILEPREF QCPROG QCPROG_S GUIFILE

Running Job 1 of 1 Methylthiophene_Phi_10_Theta_160_Methylthiophene.qcin
qchem Methylthiophene_Phi_10_Theta_160_Methylthiophene.qcin_2936722.0 ./qchem2936722/ 1
/cm/shared/apps/spack/cpu/opt/spack/linux-centos8-zen2/gcc-10.2.0/qchem-5.4-akfmr7b3t57bfs6qan3padb2wnb2i7cl/bin/mpi/mpirun_qchem -machinefile ./qchem2936722/hostfile -np 1 /cm/shared/apps/spack/cpu/opt/spack/linux-centos8-zen2/gcc-10.2.0/qchem-5.4-akfmr7b3t57bfs6qan3padb2wnb2i7cl/exe/qcprog.exe Methylthiophene_Phi_10_Theta_160_Methylthiophene.qcin_2936722.0 ./qchem2936722/

Process 0 of 1 is on exp-1-36 - thread support 0
initial socket setup ...start
initial socket setup ...done 
now start server 0 ... 
                  Welcome to Q-Chem
     A Quantum Leap Into The Future Of Chemistry


 Q-Chem 5.4, Q-Chem, Inc., Pleasanton, CA (2021)

 License issued to: University of California, San Diego (site)

 E. Epifanovsky,  A. T. B. Gilbert,  Xintian Feng,  Joonho Lee,  Yuezhi Mao,  
 N. Mardirossian,  P. Pokhilko,  A. White,  M. Wormit,  M. P. Coons,  
 A. L. Dempwolff,  Zhengting Gan,  D. Hait,  P. R. Horn,  L. D. Jacobson,  
 I. Kaliman,  J. Kussmann,  A. W. Lange,  Ka Un Lao,  D. S. Levine,  Jie Liu,  
 S. C. McKenzie,  A. F. Morrison,  K. Nanda,  F. Plasser,  D. R. Rehn,  
 M. L. Vidal,  Zhi-Qiang You,  Ying Zhu,  B. Alam,  B. Albrecht,  
 A. Aldossary,  E. Alguire,  J. H. Andersen,  D. Barton,  K. Begam,  A. Behn,  
 Y. A. Bernard,  E. J. Berquist,  H. Burton,  A. Carreras,  K. Carter-Fenk,  
 R. Chakraborty,  A. D. Chien,  K. D. Closser,  V. Cofer-Shabica,  
 S. Dasgupta,  Jia Deng,  M. de Wergifosse,  M. Diedenhofen,  Hainam Do,  
 S. Ehlert,  Po-Tung Fang,  S. Fatehi,  Qingguo Feng,  J. Gayvert,  
 Qinghui Ge,  G. Gidofalvi,  M. Goldey,  J. Gomes,  C. Gonzalez-Espinoza,  
 S. Gulania,  A. Gunina,  M. W. D. Hanson-Heine,  P. H. P. Harbach,  
 A. W. Hauser,  M. F. Herbst,  M. Hernandez Vera,  M. Hodecker,  
 Z. C. Holden,  S. Houck,  Xunkun Huang,  Kerwin Hui,  B. C. Huynh,  
 M. Ivanov,  Hyunjun Ji,  Hanjie Jiang,  B. Kaduk,  S. Kaehler,  
 K. Khistyaev,  Jaehoon Kim,  P. Klunzinger,  Z. Koczor-Benda,  
 Joong Hoon Koh,  D. Kosenkov,  L. Koulias,  T. Kowalczyk,  C. M. Krauter,  
 K. Kue,  A. Kunitsa,  T. Kus,  A. Landau,  K. V. Lawler,  D. Lefrancois,  
 S. Lehtola,  Rain Li,  Yi-Pei Li,  Jiashu Liang,  M. Liebenthal,  
 Hung-Hsuan Lin,  You-Sheng Lin,  Fenglai Liu,  Kuan-Yu Liu,  
 M. Loipersberger,  A. Luenser,  A. Manjanath,  P. Manohar,  E. Mansoor,  
 S. F. Manzer,  Shan-Ping Mao,  A. V. Marenich,  T. Markovich,  S. Mason,  
 S. A. Maurer,  P. F. McLaughlin,  M. F. S. J. Menger,  J.-M. Mewes,  
 S. A. Mewes,  P. Morgante,  J. W. Mullinax,  T. S. Nguyen-Beck,  
 K. J. Oosterbaan,  G. Paran,  Alexander C. Paul,  Suranjan K. Paul,  
 F. Pavosevic,  Zheng Pei,  S. Prager,  E. I. Proynov,  E. Ramos,  B. Rana,  
 A. E. Rask,  A. Rettig,  R. M. Richard,  F. Rob,  E. Rossomme,  T. Scheele,  
 M. Scheurer,  M. Schneider,  N. Sergueev,  S. M. Sharada,  W. Skomorowski,  
 D. W. Small,  C. J. Stein,  Yu-Chuan Su,  E. J. Sundstrom,  Zhen Tao,  
 J. Thirman,  T. Tsuchimochi,  N. M. Tubman,  S. P. Veccham,  O. Vydrov,  
 J. Wenzel,  J. Witte,  A. Yamada,  Kun Yao,  S. Yeganeh,  S. R. Yost,  
 A. Zech,  Igor Ying Zhang,  Xing Zhang,  Yu Zhang,  D. Zuev,  
 A. Aspuru-Guzik,  A. T. Bell,  N. A. Besley,  K. B. Bravaya,  B. R. Brooks,  
 D. Casanova,  Jeng-Da Chai,  S. Coriani,  C. J. Cramer,  
 A. E. DePrince, III,  R. A. DiStasio Jr.,  A. Dreuw,  B. D. Dunietz,  
 T. R. Furlani,  W. A. Goddard III,  S. Grimme,  S. Hammes-Schiffer,  
 T. Head-Gordon,  W. J. Hehre,  Chao-Ping Hsu,  T.-C. Jagau,  Yousung Jung,  
 A. Klamt,  Jing Kong,  D. S. Lambrecht,  WanZhen Liang,  N. J. Mayhall,  
 C. W. McCurdy,  J. B. Neaton,  C. Ochsenfeld,  J. A. Parkhill,  R. Peverati,  
 V. A. Rassolov,  Yihan Shao,  L. V. Slipchenko,  T. Stauch,  R. P. Steele,  
 J. E. Subotnik,  A. J. W. Thom,  A. Tkatchenko,  D. G. Truhlar,  
 T. Van Voorhis,  T. A. Wesolowski,  K. B. Whaley,  H. L. Woodcock III,  
 P. M. Zimmerman,  S. Faraji,  P. M. W. Gill,  M. Head-Gordon,  
 J. M. Herbert,  A. I. Krylov

 Contributors to earlier versions of Q-Chem not listed above: 
 R. D. Adamson,  B. Austin,  R. Baer,  J. Baker,  G. J. O. Beran,  
 K. Brandhorst,  S. T. Brown,  E. F. C. Byrd,  A. K. Chakraborty,  
 G. K. L. Chan,  Chun-Min Chang,  Yunqing Chen,  C.-L. Cheng,  
 Siu Hung Chien,  D. M. Chipman,  D. L. Crittenden,  H. Dachsel,  
 R. J. Doerksen,  A. D. Dutoi,  R. G. Edgar,  J. Fosso-Tande,  
 L. Fusti-Molnar,  D. Ghosh,  A. Ghysels,  A. Golubeva-Zadorozhnaya,  
 J. Gonthier,  M. S. Gordon,  S. R. Gwaltney,  G. Hawkins,  J. E. Herr,  
 A. Heyden,  S. Hirata,  E. G. Hohenstein,  G. Kedziora,  F. J. Keil,  
 C. Kelley,  Jihan Kim,  R. A. King,  R. Z. Khaliullin,  P. P. Korambath,  
 W. Kurlancheek,  A. Laurent,  A. M. Lee,  M. S. Lee,  S. V. Levchenko,  
 Ching Yeh Lin,  D. Liotard,  E. Livshits,  R. C. Lochan,  I. Lotan,  
 L. A. Martinez-Martinez,  P. E. Maslen,  N. Nair,  D. P. O'Neill,  
 D. Neuhauser,  E. Neuscamman,  C. M. Oana,  R. Olivares-Amaya,  R. Olson,  
 T. M. Perrine,  B. Peters,  P. A. Pieniazek,  A. Prociuk,  Y. M. Rhee,  
 J. Ritchie,  M. A. Rohrdanz,  E. Rosta,  N. J. Russ,  H. F. Schaefer III,  
 M. W. Schmidt,  N. E. Schultz,  S. Sharma,  N. Shenvi,  C. D. Sherrill,  
 A. C. Simmonett,  A. Sodt,  T. Stein,  D. Stuck,  K. S. Thanthiriwatte,  
 V. Vanovschi,  L. Vogt,  Tao Wang,  A. Warshel,  M. A. Watson,  
 C. F. Williams,  Q. Wu,  X. Xu,  Jun Yang,  W. Zhang,  Yan Zhao

 Please cite Q-Chem as follows:
 Y. Shao et al., Mol. Phys. 113, 184-215 (2015)
 DOI: 10.1080/00268976.2014.952696

 Q-Chem 5.4.0 for Intel X86 EM64T Linux

 Parts of Q-Chem use Armadillo 9.800.1 (Horizon Scraper).
 http://arma.sourceforge.net/

 Q-Chem begins on Wed Dec 13 16:06:30 2023  

 Host: 
0

     Scratch files written to ./qchem2936722//
 May1621 |scratch|qcdevops|jenkins|workspace|build_RNUM    
 Parallel job on  1  processors
 Processing $rem in /cm/shared/apps/spack/cpu/opt/spack/linux-centos8-zen2/gcc-10.2.0/qchem-5.4-akfmr7b3t57bfs6qan3padb2wnb2i7cl/config/preferences:
 Processing $rem in /home/rramji/.qchemrc:
 Symmetry turned off for PCM/SM12/SMD calculation
 Core orbitals will be frozen

 Checking the input file for inconsistencies... 	...done.

 Q-Chem warning in module forms1/BasisType.C, line 2236:

 You are not using the predefined 5D/6D in this basis set.


--------------------------------------------------------------
User input:
--------------------------------------------------------------
$molecule
0 1
C	-0.246754	-3.887800	-0.681143
C	0.227093	-3.701456	0.620906
C	0.371543	-2.345170	1.019618
H	0.468992	-4.545233	1.284357
C	0.000000	-1.450135	0.000000
S	-0.522097	-2.321334	-1.435522
C	0.866035	-1.934439	2.378731
H	1.093799	-2.819799	3.003272
H	0.114688	-1.326210	2.924444
H	1.791841	-1.325374	2.313987
H	-0.445911	-4.815326	-1.229547
C	0.000000	0.000000	0.000000
C	0.143630	0.832309	1.113020
C	0.380550	2.202961	0.820578
H	0.077556	0.449877	2.142881
C	0.422995	2.447456	-0.563588
S	0.164909	0.956502	-1.464748
C	0.561888	3.252016	1.882380
H	0.485513	2.810624	2.894974
H	-0.205711	4.050482	1.808137
H	1.553045	3.746365	1.808230
H	0.586105	3.391501	-1.097114
$end

$rem
JOBTYPE		SP
EXCHANGE	HF
CORRELATION	pRIMP2
BASIS		cc-pvtz
METHOD		rimp2
AUX_BASIS	rimp2-cc-pvtz
SOLVENT_METHOD	PCM
PURECART	11111
SYMMETRY	false
MEM_TOTAL	110000
SCF_CONVERGENCE = 6
THRESH=10
GUI = 2
$end



$solvent
dielectric 4.90
$end
--------------------------------------------------------------
 ----------------------------------------------------------------
             Standard Nuclear Orientation (Angstroms)
    I     Atom           X                Y                Z
 ----------------------------------------------------------------
    1      C      -0.2467540000    -3.8878000000    -0.6811430000
    2      C       0.2270930000    -3.7014560000     0.6209060000
    3      C       0.3715430000    -2.3451700000     1.0196180000
    4      H       0.4689920000    -4.5452330000     1.2843570000
    5      C       0.0000000000    -1.4501350000     0.0000000000
    6      S      -0.5220970000    -2.3213340000    -1.4355220000
    7      C       0.8660350000    -1.9344390000     2.3787310000
    8      H       1.0937990000    -2.8197990000     3.0032720000
    9      H       0.1146880000    -1.3262100000     2.9244440000
   10      H       1.7918410000    -1.3253740000     2.3139870000
   11      H      -0.4459110000    -4.8153260000    -1.2295470000
   12      C       0.0000000000     0.0000000000     0.0000000000
   13      C       0.1436300000     0.8323090000     1.1130200000
   14      C       0.3805500000     2.2029610000     0.8205780000
   15      H       0.0775560000     0.4498770000     2.1428810000
   16      C       0.4229950000     2.4474560000    -0.5635880000
   17      S       0.1649090000     0.9565020000    -1.4647480000
   18      C       0.5618880000     3.2520160000     1.8823800000
   19      H       0.4855130000     2.8106240000     2.8949740000
   20      H      -0.2057110000     4.0504820000     1.8081370000
   21      H       1.5530450000     3.7463650000     1.8082300000
   22      H       0.5861050000     3.3915010000    -1.0971140000
 ----------------------------------------------------------------
 Nuclear Repulsion Energy =         836.67306867 hartrees
 There are       51 alpha and       51 beta electrons
 Requested basis set is cc-pVTZ
 There are 184 shells and 508 basis functions

 Total QAlloc Memory Limit 110000 MB
 Mega-Array Size       188 MB
 MEM_STATIC part       192 MB
 Discretize the solute cavity surface with Lebedev spheres
	Using 110 Lebedev grid points for each H atom
	Using 194 Lebedev grid points for other atoms
	Atomic van der Waals radii will be scaled by 1.20
 Remove points where switching function is < 1.0e-08
 Keep 1530 surface tesserae and discard 1898 interior tesserae
 Molecular Surface Area = 230.163 Angst**2
 Requested basis set is rimp2-cc-pVTZ
 There are 394 shells and 1354 basis functions
 A cutoff of  1.0D-10 yielded  12387 shell pairs
 There are     91847 function pairs (    118439 Cartesian)
 Smallest overlap matrix eigenvalue = 4.75E-05

 Scale SEOQF with 1.000000e-01/1.000000e-01/1.000000e-01

 Standard Electronic Orientation quadrupole field applied
 Nucleus-field energy     =     0.0000000214 hartrees
 Guess from superposition of atomic densities
 Warning:  Energy on first SCF cycle will be non-variational
 SAD guess density has 102.000000 electrons

 -----------------------------------------------------------------------
  General SCF calculation program by
  Eric Jon Sundstrom, Paul Horn, Yuezhi Mao, Dmitri Zuev, Alec White,
  David Stuck, Shaama M.S., Shane Yost, Joonho Lee, David Small,
  Daniel Levine, Susi Lehtola, Hugh Burton, Evgeny Epifanovsky,
  Bang C. Huynh
 -----------------------------------------------------------------------
 Hartree-Fock
 using 64 threads for integral computing
 -------------------------------------------------------
 OpenMP Integral computing Module                
 Release: version 1.0, May 2013, Q-Chem Inc. Pittsburgh 
 -------------------------------------------------------
 A restricted SCF calculation will be
 performed using DIIS
 SCF converges when DIIS error is below 1.0e-06
 ---------------------------------------
  Cycle       Energy         DIIS error
 ---------------------------------------
    1   -1184.2379201248      2.38e-02  
    2   -1179.5422925460      1.61e-03  
    3   -1179.6638521098      6.30e-04  
    4   -1179.6779898955      3.42e-04  
    5   -1179.6829231900      6.36e-05  
    6   -1179.6831869731      2.92e-05  
    7   -1179.6832652782      1.19e-05  
    8   -1179.6832892096      5.16e-06  
    9   -1179.6832934241      1.57e-06  
   10   -1179.6832938452      5.14e-07  Convergence criterion met
 ---------------------------------------
 SCF time:   CPU 1535.90s  wall 45.00s 

************** Final PCM Free Energy Summary **************
 G_electrostatic  =      -0.00867552 hartree =      -5.44396803 kcal/mol
 G_cavitation     =       0.00000000 hartree =       0.00000000 kcal/mol
 G_dispersion     =       0.00000000 hartree =       0.00000000 kcal/mol
 G_repulsion      =       0.00000000 hartree =       0.00000000 kcal/mol
 --------------------------------------------------
 Non-electrostatic Free Energy =       0.00000000 hartree =       0.00000000 kcal/mol
 Total                         =      -0.00867552 hartree =      -5.44396803 kcal/mol
 --------------------------------------------------
 SCF Energy (H0 + V/2)                       =   -1179.68329385 
 Solute Internal Energy (H0)                 =   -1179.67461833 
 Total Free Energy (H0 + V/2 + non-elec)     =   -1179.68329385 hartree
                                             = -740262.43966837 kcal/mol
***********************************************************

 SCF   energy in the final basis set =    -1179.6832938452
 Total energy in the final basis set =    -1179.6832938452


 --------------------------------------------------------------
  Generalized many-body perturbation theory program
  by Joonho Lee, Fazle Rob, Xintian Feng, Evgeny Epifanovsky

 No regularization used 
 (reg. param. = 0.0000e+00)
  (P|Q)^-1/2 Time:  CPU 40.43 s  wall 0.65 s

 In RI-MP2 calculation: 
 # of frozen core orbitals: 20

 Components of the RIMP2 correlation energy:
        aaaa    correlation energy =        -0.2529810339 a.u.
        abab    correlation energy =        -1.4743745926 a.u.
        bbbb    correlation energy =        -0.2529810339 a.u.
        non-Brillouin singles      =        -0.0000000000 a.u.
        total same-spin energy     =        -0.5059620678 a.u.
        total opposite-spin energy =        -1.4743745926 a.u.

 Total  RIMP2   correlation energy =        -1.9803366604 a.u.
        RIMP2         total energy =     -1181.6636305057 a.u.

 RI-MP2 Energy Time:  CPU 189.76 s  wall 3.54 s
 
 --------------------------------------------------------------
 
                    Orbital Energies (a.u.)
 --------------------------------------------------------------
 
 Alpha MOs
 -- Occupied --
-91.9859 -91.9857 -11.2831 -11.2790 -11.2732 -11.2646 -11.2539 -11.2522
-11.2443 -11.2392 -11.2312 -11.2295  -8.9856  -8.9855  -6.6665  -6.6665
 -6.6660  -6.6659  -6.6653  -6.6653  -1.1808  -1.1504  -1.0410  -1.0273
 -0.9958  -0.9557  -0.9148  -0.8948  -0.8019  -0.7561  -0.7276  -0.7010
 -0.6617  -0.6150  -0.5912  -0.5820  -0.5703  -0.5628  -0.5512  -0.5397
 -0.5297  -0.5228  -0.5039  -0.4925  -0.4877  -0.4749  -0.4534  -0.3665
 -0.3463  -0.3387  -0.2716
 -- Virtual --
  0.0640   0.1344   0.1409   0.1482   0.1616   0.1735   0.1794   0.1863
  0.1975   0.2028   0.2050   0.2188   0.2347   0.2371   0.2413   0.2669
  0.2760   0.2815   0.3004   0.3175   0.3271   0.3542   0.3710   0.3763
  0.3849   0.3860   0.3960   0.3993   0.4051   0.4213   0.4335   0.4400
  0.4586   0.4661   0.4740   0.4784   0.4869   0.4916   0.5065   0.5100
  0.5136   0.5200   0.5281   0.5334   0.5393   0.5513   0.5539   0.5723
  0.5819   0.5834   0.5910   0.5943   0.6078   0.6121   0.6124   0.6182
  0.6240   0.6323   0.6382   0.6423   0.6498   0.6580   0.6747   0.6800
  0.6821   0.6922   0.7024   0.7150   0.7212   0.7383   0.7547   0.7621
  0.7631   0.7732   0.7948   0.8043   0.8061   0.8240   0.8363   0.8541
  0.8617   0.8706   0.8783   0.8960   0.9002   0.9265   0.9396   0.9482
  0.9608   0.9683   0.9848   0.9928   1.0035   1.0221   1.0279   1.0480
  1.0555   1.0585   1.0651   1.0720   1.0807   1.0884   1.0944   1.0987
  1.1105   1.1215   1.1243   1.1504   1.1527   1.1589   1.1915   1.2005
  1.2118   1.2204   1.2279   1.2321   1.2380   1.2542   1.2641   1.2704
  1.2811   1.2906   1.2981   1.3078   1.3321   1.3437   1.3507   1.3700
  1.3791   1.3866   1.4023   1.4099   1.4201   1.4382   1.4491   1.4668
  1.4787   1.4871   1.5087   1.5188   1.5258   1.5334   1.5382   1.5507
  1.5603   1.5707   1.5761   1.5826   1.5932   1.5990   1.6187   1.6303
  1.6457   1.6689   1.6721   1.6871   1.7067   1.7172   1.7239   1.7422
  1.7552   1.7677   1.7892   1.7984   1.8107   1.8230   1.8544   1.8647
  1.8775   1.8874   1.8969   1.9185   1.9512   1.9577   1.9733   1.9825
  2.0095   2.0498   2.0719   2.0895   2.1298   2.1414   2.1567   2.1685
  2.1960   2.2083   2.2243   2.2358   2.2440   2.2574   2.2645   2.2713
  2.2746   2.2950   2.3069   2.3815   2.4102   2.4292   2.4487   2.4597
  2.4867   2.4973   2.5041   2.5284   2.5423   2.5722   2.6015   2.6060
  2.6244   2.6377   2.6615   2.6689   2.6935   2.7046   2.7144   2.7373
  2.7432   2.7519   2.7626   2.7644   2.7654   2.7747   2.8007   2.8063
  2.8149   2.8475   2.8521   2.8606   2.8854   2.8883   2.9119   2.9323
  2.9392   2.9577   2.9865   2.9938   2.9963   3.0192   3.0295   3.0452
  3.0557   3.0718   3.0944   3.1078   3.1108   3.1205   3.1361   3.1454
  3.1511   3.1542   3.1634   3.1777   3.1863   3.1995   3.2050   3.2252
  3.2377   3.2405   3.2560   3.2726   3.2857   3.2892   3.2952   3.3109
  3.3131   3.3182   3.3398   3.3441   3.3556   3.3612   3.3730   3.3753
  3.3819   3.3908   3.3992   3.4134   3.4178   3.4306   3.4378   3.4410
  3.4476   3.4609   3.4735   3.4784   3.4873   3.5022   3.5093   3.5178
  3.5244   3.5311   3.5345   3.5468   3.5627   3.5675   3.5809   3.5912
  3.5979   3.6127   3.6208   3.6237   3.6374   3.6548   3.6551   3.6707
  3.6836   3.6879   3.6955   3.7038   3.7059   3.7148   3.7397   3.7567
  3.7689   3.7783   3.7826   3.7961   3.8015   3.8200   3.8239   3.8460
  3.8625   3.8839   3.8982   3.9107   3.9213   3.9340   3.9476   3.9728
  3.9826   3.9921   4.0069   4.0084   4.0179   4.0287   4.0400   4.0584
  4.0587   4.0954   4.0988   4.1050   4.1328   4.1416   4.1473   4.1547
  4.1598   4.1754   4.1958   4.2002   4.2081   4.2135   4.2177   4.2364
  4.2519   4.2640   4.2819   4.2843   4.3059   4.3274   4.3365   4.3489
  4.3546   4.3679   4.3781   4.3993   4.4016   4.4193   4.4245   4.4278
  4.4465   4.4667   4.4748   4.4926   4.5059   4.5369   4.5615   4.5709
  4.5913   4.6107   4.6206   4.6220   4.6388   4.6469   4.6595   4.6886
  4.6975   4.7158   4.7605   4.7689   4.7748   4.8016   4.8402   4.8658
  4.8723   4.8889   4.9074   4.9541   4.9671   4.9933   5.0103   5.0554
  5.0899   5.1101   5.1139   5.1424   5.1742   5.1975   5.2035   5.2749
  5.2809   5.2984   5.3042   5.3155   5.3458   5.3680   5.3771   5.4025
  5.4075   5.4429   5.4677   5.4940   5.5159   5.5239   5.5479   5.5664
  5.5785   5.6052   5.6189   5.6311   5.6367   5.7007   5.7064   5.7564
  5.7871   5.8362   5.9191   5.9827   6.0515   6.1364   6.2157   6.2271
  6.2590   6.2693   6.2870   6.3326   6.3584   6.4646   6.5995   8.7886
 10.0638  11.5558  12.0073  12.8353  13.1365  13.7492  14.1726  14.3175
 14.5770
 --------------------------------------------------------------
 
          Ground-State Mulliken Net Atomic Charges

     Atom                 Charge (a.u.)
  ----------------------------------------
      1 C                    -0.212566
      2 C                    -0.251988
      3 C                     0.069695
      4 H                     0.185286
      5 C                    -0.045407
      6 S                     0.012857
      7 C                    -0.309265
      8 H                     0.117383
      9 H                     0.104943
     10 H                     0.118332
     11 H                     0.206562
     12 C                     0.029777
     13 C                    -0.266910
     14 C                     0.037232
     15 H                     0.196076
     16 C                    -0.255454
     17 S                     0.015852
     18 C                    -0.270962
     19 H                     0.101662
     20 H                     0.108690
     21 H                     0.108971
     22 H                     0.199232
  ----------------------------------------
  Sum of atomic charges =     0.000000

 -----------------------------------------------------------------
                    Cartesian Multipole Moments
 -----------------------------------------------------------------
    Charge (ESU x 10^10)
                -0.0000
    Dipole Moment (Debye)
         X       0.8459      Y       0.1329      Z       2.9088
       Tot       3.0322
    Quadrupole Moments (Debye-Ang)
        XX     -91.6652     XY       1.0759     YY     -68.6445
        XZ       2.3825     YZ      -1.0157     ZZ     -80.8522
    Octopole Moments (Debye-Ang^2)
       XXX     -40.2628    XXY      48.1058    XYY      -7.1753
       YYY      94.5793    XXZ      -5.1763    XYZ      -8.3641
       YYZ     -10.0319    XZZ     -10.6821    YZZ      38.7449
       ZZZ      -6.6956
    Hexadecapole Moments (Debye-Ang^3)
      XXXX    -224.3181   XXXY     -84.7722   XXYY    -565.4046
      XYYY     -49.9277   YYYY   -2549.8521   XXXZ    -108.4101
      XXYZ     -33.2961   XYYZ      -5.3132   YYYZ     -79.2569
      XXZZ    -215.8176   XYZZ     -25.7581   YYZZ    -601.3576
      XZZZ    -102.2529   YZZZ    -107.6089   ZZZZ   -1022.9673
 -----------------------------------------------------------------
 Total job time:  50.76s(wall), 1812.44s(cpu) 
 Wed Dec 13 16:07:21 2023

        *************************************************************
        *                                                           *
        *  Thank you very much for using Q-Chem.  Have a nice day.  *
        *                                                           *
        *************************************************************


0 sent ACK to 0 
now end server 0 ... 
cleanup process ... done
remove work dirs ./qchem2936722.0 -- ./qchem2936722.0
rm -rf ./qchem2936722.0
rm -rf ./qchem2936722
