You are running Q-Chem version: 5.4.0

#
# job setting
#
local host:  exp-5-41
current dir: /home/rramji/project-csd799/aromodel/p3ht-qchem/rotation-run
input file:  Methylthiophene_Phi_60_Theta_40_Methylthiophene.qcin
output file: 
nprocs     : 1
nthreads   : 64
#
# qchem installation setting
#
QC:          /cm/shared/apps/spack/cpu/opt/spack/linux-centos8-zen2/gcc-10.2.0/qchem-5.4-akfmr7b3t57bfs6qan3padb2wnb2i7cl
QCAUX:       /cm/shared/apps/spack/cpu/opt/spack/linux-centos8-zen2/gcc-10.2.0/qchem-5.4-akfmr7b3t57bfs6qan3padb2wnb2i7cl/qcaux
QCPROG:      /cm/shared/apps/spack/cpu/opt/spack/linux-centos8-zen2/gcc-10.2.0/qchem-5.4-akfmr7b3t57bfs6qan3padb2wnb2i7cl/exe/qcprog.exe
QCPROG_S:    /cm/shared/apps/spack/cpu/opt/spack/linux-centos8-zen2/gcc-10.2.0/qchem-5.4-akfmr7b3t57bfs6qan3padb2wnb2i7cl/exe/qcprog.exe_s
PARALLEL:    -DPARALLEL
QCMPI:       mpich
#
# qchem directory setting
#
qcrun:       qchem3051476
QCSCRATCH:   .
QCLOCALSCR:  
QCTMPDIR:    .
QCFILEPREF:  ./qchem3051476
QCSAVEDIR:   
workdirs:    ./qchem3051476
workdir0:    ./qchem3051476
partmpdirs =  
#
# parallel setting
#
QCRSH:           ssh
QCMPI:           mpich
QCMPIRUN:        /cm/shared/apps/spack/cpu/opt/spack/linux-centos8-zen2/gcc-10.2.0/qchem-5.4-akfmr7b3t57bfs6qan3padb2wnb2i7cl/bin/mpi/mpirun_qchem
QCMACHINEFILE:   ./qchem3051476/hostfile
exp-5-41

#
# env setting
#
exported envs:   QC QCAUX QCSCRATCH QCRUNNAME QCFILEPREF QCPROG QCPROG_S GUIFILE

Running Job 1 of 1 Methylthiophene_Phi_60_Theta_40_Methylthiophene.qcin
qchem Methylthiophene_Phi_60_Theta_40_Methylthiophene.qcin_3051476.0 ./qchem3051476/ 1
/cm/shared/apps/spack/cpu/opt/spack/linux-centos8-zen2/gcc-10.2.0/qchem-5.4-akfmr7b3t57bfs6qan3padb2wnb2i7cl/bin/mpi/mpirun_qchem -machinefile ./qchem3051476/hostfile -np 1 /cm/shared/apps/spack/cpu/opt/spack/linux-centos8-zen2/gcc-10.2.0/qchem-5.4-akfmr7b3t57bfs6qan3padb2wnb2i7cl/exe/qcprog.exe Methylthiophene_Phi_60_Theta_40_Methylthiophene.qcin_3051476.0 ./qchem3051476/

Process 0 of 1 is on exp-5-41 - thread support 0
initial socket setup ...start
initial socket setup ...done 
now start server 0 ... 
                  Welcome to Q-Chem
     A Quantum Leap Into The Future Of Chemistry


 Q-Chem 5.4, Q-Chem, Inc., Pleasanton, CA (2021)

 License issued to: University of California, San Diego (site)

 E. Epifanovsky,  A. T. B. Gilbert,  Xintian Feng,  Joonho Lee,  Yuezhi Mao,  
 N. Mardirossian,  P. Pokhilko,  A. White,  M. Wormit,  M. P. Coons,  
 A. L. Dempwolff,  Zhengting Gan,  D. Hait,  P. R. Horn,  L. D. Jacobson,  
 I. Kaliman,  J. Kussmann,  A. W. Lange,  Ka Un Lao,  D. S. Levine,  Jie Liu,  
 S. C. McKenzie,  A. F. Morrison,  K. Nanda,  F. Plasser,  D. R. Rehn,  
 M. L. Vidal,  Zhi-Qiang You,  Ying Zhu,  B. Alam,  B. Albrecht,  
 A. Aldossary,  E. Alguire,  J. H. Andersen,  D. Barton,  K. Begam,  A. Behn,  
 Y. A. Bernard,  E. J. Berquist,  H. Burton,  A. Carreras,  K. Carter-Fenk,  
 R. Chakraborty,  A. D. Chien,  K. D. Closser,  V. Cofer-Shabica,  
 S. Dasgupta,  Jia Deng,  M. de Wergifosse,  M. Diedenhofen,  Hainam Do,  
 S. Ehlert,  Po-Tung Fang,  S. Fatehi,  Qingguo Feng,  J. Gayvert,  
 Qinghui Ge,  G. Gidofalvi,  M. Goldey,  J. Gomes,  C. Gonzalez-Espinoza,  
 S. Gulania,  A. Gunina,  M. W. D. Hanson-Heine,  P. H. P. Harbach,  
 A. W. Hauser,  M. F. Herbst,  M. Hernandez Vera,  M. Hodecker,  
 Z. C. Holden,  S. Houck,  Xunkun Huang,  Kerwin Hui,  B. C. Huynh,  
 M. Ivanov,  Hyunjun Ji,  Hanjie Jiang,  B. Kaduk,  S. Kaehler,  
 K. Khistyaev,  Jaehoon Kim,  P. Klunzinger,  Z. Koczor-Benda,  
 Joong Hoon Koh,  D. Kosenkov,  L. Koulias,  T. Kowalczyk,  C. M. Krauter,  
 K. Kue,  A. Kunitsa,  T. Kus,  A. Landau,  K. V. Lawler,  D. Lefrancois,  
 S. Lehtola,  Rain Li,  Yi-Pei Li,  Jiashu Liang,  M. Liebenthal,  
 Hung-Hsuan Lin,  You-Sheng Lin,  Fenglai Liu,  Kuan-Yu Liu,  
 M. Loipersberger,  A. Luenser,  A. Manjanath,  P. Manohar,  E. Mansoor,  
 S. F. Manzer,  Shan-Ping Mao,  A. V. Marenich,  T. Markovich,  S. Mason,  
 S. A. Maurer,  P. F. McLaughlin,  M. F. S. J. Menger,  J.-M. Mewes,  
 S. A. Mewes,  P. Morgante,  J. W. Mullinax,  T. S. Nguyen-Beck,  
 K. J. Oosterbaan,  G. Paran,  Alexander C. Paul,  Suranjan K. Paul,  
 F. Pavosevic,  Zheng Pei,  S. Prager,  E. I. Proynov,  E. Ramos,  B. Rana,  
 A. E. Rask,  A. Rettig,  R. M. Richard,  F. Rob,  E. Rossomme,  T. Scheele,  
 M. Scheurer,  M. Schneider,  N. Sergueev,  S. M. Sharada,  W. Skomorowski,  
 D. W. Small,  C. J. Stein,  Yu-Chuan Su,  E. J. Sundstrom,  Zhen Tao,  
 J. Thirman,  T. Tsuchimochi,  N. M. Tubman,  S. P. Veccham,  O. Vydrov,  
 J. Wenzel,  J. Witte,  A. Yamada,  Kun Yao,  S. Yeganeh,  S. R. Yost,  
 A. Zech,  Igor Ying Zhang,  Xing Zhang,  Yu Zhang,  D. Zuev,  
 A. Aspuru-Guzik,  A. T. Bell,  N. A. Besley,  K. B. Bravaya,  B. R. Brooks,  
 D. Casanova,  Jeng-Da Chai,  S. Coriani,  C. J. Cramer,  
 A. E. DePrince, III,  R. A. DiStasio Jr.,  A. Dreuw,  B. D. Dunietz,  
 T. R. Furlani,  W. A. Goddard III,  S. Grimme,  S. Hammes-Schiffer,  
 T. Head-Gordon,  W. J. Hehre,  Chao-Ping Hsu,  T.-C. Jagau,  Yousung Jung,  
 A. Klamt,  Jing Kong,  D. S. Lambrecht,  WanZhen Liang,  N. J. Mayhall,  
 C. W. McCurdy,  J. B. Neaton,  C. Ochsenfeld,  J. A. Parkhill,  R. Peverati,  
 V. A. Rassolov,  Yihan Shao,  L. V. Slipchenko,  T. Stauch,  R. P. Steele,  
 J. E. Subotnik,  A. J. W. Thom,  A. Tkatchenko,  D. G. Truhlar,  
 T. Van Voorhis,  T. A. Wesolowski,  K. B. Whaley,  H. L. Woodcock III,  
 P. M. Zimmerman,  S. Faraji,  P. M. W. Gill,  M. Head-Gordon,  
 J. M. Herbert,  A. I. Krylov

 Contributors to earlier versions of Q-Chem not listed above: 
 R. D. Adamson,  B. Austin,  R. Baer,  J. Baker,  G. J. O. Beran,  
 K. Brandhorst,  S. T. Brown,  E. F. C. Byrd,  A. K. Chakraborty,  
 G. K. L. Chan,  Chun-Min Chang,  Yunqing Chen,  C.-L. Cheng,  
 Siu Hung Chien,  D. M. Chipman,  D. L. Crittenden,  H. Dachsel,  
 R. J. Doerksen,  A. D. Dutoi,  R. G. Edgar,  J. Fosso-Tande,  
 L. Fusti-Molnar,  D. Ghosh,  A. Ghysels,  A. Golubeva-Zadorozhnaya,  
 J. Gonthier,  M. S. Gordon,  S. R. Gwaltney,  G. Hawkins,  J. E. Herr,  
 A. Heyden,  S. Hirata,  E. G. Hohenstein,  G. Kedziora,  F. J. Keil,  
 C. Kelley,  Jihan Kim,  R. A. King,  R. Z. Khaliullin,  P. P. Korambath,  
 W. Kurlancheek,  A. Laurent,  A. M. Lee,  M. S. Lee,  S. V. Levchenko,  
 Ching Yeh Lin,  D. Liotard,  E. Livshits,  R. C. Lochan,  I. Lotan,  
 L. A. Martinez-Martinez,  P. E. Maslen,  N. Nair,  D. P. O'Neill,  
 D. Neuhauser,  E. Neuscamman,  C. M. Oana,  R. Olivares-Amaya,  R. Olson,  
 T. M. Perrine,  B. Peters,  P. A. Pieniazek,  A. Prociuk,  Y. M. Rhee,  
 J. Ritchie,  M. A. Rohrdanz,  E. Rosta,  N. J. Russ,  H. F. Schaefer III,  
 M. W. Schmidt,  N. E. Schultz,  S. Sharma,  N. Shenvi,  C. D. Sherrill,  
 A. C. Simmonett,  A. Sodt,  T. Stein,  D. Stuck,  K. S. Thanthiriwatte,  
 V. Vanovschi,  L. Vogt,  Tao Wang,  A. Warshel,  M. A. Watson,  
 C. F. Williams,  Q. Wu,  X. Xu,  Jun Yang,  W. Zhang,  Yan Zhao

 Please cite Q-Chem as follows:
 Y. Shao et al., Mol. Phys. 113, 184-215 (2015)
 DOI: 10.1080/00268976.2014.952696

 Q-Chem 5.4.0 for Intel X86 EM64T Linux

 Parts of Q-Chem use Armadillo 9.800.1 (Horizon Scraper).
 http://arma.sourceforge.net/

 Q-Chem begins on Wed Dec 13 15:54:24 2023  

 Host: 
0

     Scratch files written to ./qchem3051476//
 May1621 |scratch|qcdevops|jenkins|workspace|build_RNUM    
 Parallel job on  1  processors
 Processing $rem in /cm/shared/apps/spack/cpu/opt/spack/linux-centos8-zen2/gcc-10.2.0/qchem-5.4-akfmr7b3t57bfs6qan3padb2wnb2i7cl/config/preferences:
 Processing $rem in /home/rramji/.qchemrc:
 Symmetry turned off for PCM/SM12/SMD calculation
 Core orbitals will be frozen

 Checking the input file for inconsistencies... 	...done.

 Q-Chem warning in module forms1/BasisType.C, line 2236:

 You are not using the predefined 5D/6D in this basis set.


--------------------------------------------------------------
User input:
--------------------------------------------------------------
$molecule
0 1
C	-0.466510	-3.887800	0.554267
C	0.424173	-3.701456	-0.507121
C	0.697244	-2.345170	-0.831575
H	0.877789	-4.545233	-1.048337
C	0.000000	-1.450135	0.000000
S	-0.982150	-2.321334	1.169911
C	1.627024	-1.934439	-1.939374
H	2.054010	-2.819799	-2.448894
H	2.475299	-1.326210	-1.561545
H	1.108051	-1.325374	-2.708773
H	-0.841863	-4.815326	1.000944
C	0.000000	0.000000	0.000000
C	0.729909	0.424971	1.113020
C	1.932179	1.124518	0.820578
H	0.394478	0.229765	2.142881
C	2.146756	1.249161	-0.563588
S	0.838724	0.488500	-1.464748
C	2.852364	1.659924	1.882380
H	2.465145	1.434710	2.894974
H	2.970621	2.761183	1.808137
H	3.868160	1.218416	1.808230
H	2.974781	1.731032	-1.097114
$end

$rem
JOBTYPE		SP
EXCHANGE	HF
CORRELATION	pRIMP2
BASIS		cc-pvtz
METHOD		rimp2
AUX_BASIS	rimp2-cc-pvtz
SOLVENT_METHOD	PCM
PURECART	11111
SYMMETRY	false
MEM_TOTAL	110000
SCF_CONVERGENCE = 6
THRESH=10
GUI = 2
$end



$solvent
dielectric 4.90
$end
--------------------------------------------------------------
 ----------------------------------------------------------------
             Standard Nuclear Orientation (Angstroms)
    I     Atom           X                Y                Z
 ----------------------------------------------------------------
    1      C      -0.4665100000    -3.8878000000     0.5542670000
    2      C       0.4241730000    -3.7014560000    -0.5071210000
    3      C       0.6972440000    -2.3451700000    -0.8315750000
    4      H       0.8777890000    -4.5452330000    -1.0483370000
    5      C       0.0000000000    -1.4501350000     0.0000000000
    6      S      -0.9821500000    -2.3213340000     1.1699110000
    7      C       1.6270240000    -1.9344390000    -1.9393740000
    8      H       2.0540100000    -2.8197990000    -2.4488940000
    9      H       2.4752990000    -1.3262100000    -1.5615450000
   10      H       1.1080510000    -1.3253740000    -2.7087730000
   11      H      -0.8418630000    -4.8153260000     1.0009440000
   12      C       0.0000000000     0.0000000000     0.0000000000
   13      C       0.7299090000     0.4249710000     1.1130200000
   14      C       1.9321790000     1.1245180000     0.8205780000
   15      H       0.3944780000     0.2297650000     2.1428810000
   16      C       2.1467560000     1.2491610000    -0.5635880000
   17      S       0.8387240000     0.4885000000    -1.4647480000
   18      C       2.8523640000     1.6599240000     1.8823800000
   19      H       2.4651450000     1.4347100000     2.8949740000
   20      H       2.9706210000     2.7611830000     1.8081370000
   21      H       3.8681600000     1.2184160000     1.8082300000
   22      H       2.9747810000     1.7310320000    -1.0971140000
 ----------------------------------------------------------------
 Nuclear Repulsion Energy =         866.73893194 hartrees
 There are       51 alpha and       51 beta electrons
 Requested basis set is cc-pVTZ
 There are 184 shells and 508 basis functions

 Total QAlloc Memory Limit 110000 MB
 Mega-Array Size       188 MB
 MEM_STATIC part       192 MB
 Discretize the solute cavity surface with Lebedev spheres
	Using 110 Lebedev grid points for each H atom
	Using 194 Lebedev grid points for other atoms
	Atomic van der Waals radii will be scaled by 1.20
 Remove points where switching function is < 1.0e-08
 Keep 1468 surface tesserae and discard 1960 interior tesserae
 Molecular Surface Area = 223.008 Angst**2
 Requested basis set is rimp2-cc-pVTZ
 There are 394 shells and 1354 basis functions
 A cutoff of  1.0D-10 yielded  13012 shell pairs
 There are     96714 function pairs (    124830 Cartesian)
 Smallest overlap matrix eigenvalue = 7.15E-05

 Scale SEOQF with 1.000000e-01/1.000000e-01/1.000000e-01

 Standard Electronic Orientation quadrupole field applied
 Nucleus-field energy     =     0.0000000212 hartrees
 Guess from superposition of atomic densities
 Warning:  Energy on first SCF cycle will be non-variational
 SAD guess density has 102.000000 electrons

 -----------------------------------------------------------------------
  General SCF calculation program by
  Eric Jon Sundstrom, Paul Horn, Yuezhi Mao, Dmitri Zuev, Alec White,
  David Stuck, Shaama M.S., Shane Yost, Joonho Lee, David Small,
  Daniel Levine, Susi Lehtola, Hugh Burton, Evgeny Epifanovsky,
  Bang C. Huynh
 -----------------------------------------------------------------------
 Hartree-Fock
 using 64 threads for integral computing
 -------------------------------------------------------
 OpenMP Integral computing Module                
 Release: version 1.0, May 2013, Q-Chem Inc. Pittsburgh 
 -------------------------------------------------------
 A restricted SCF calculation will be
 performed using DIIS
 SCF converges when DIIS error is below 1.0e-06
 ---------------------------------------
  Cycle       Energy         DIIS error
 ---------------------------------------
    1   -1184.4534712310      2.41e-02  
    2   -1179.4410453490      1.59e-03  
    3   -1179.5642656860      5.85e-04  
    4   -1179.5780718346      3.08e-04  
    5   -1179.5822536695      6.27e-05  
    6   -1179.5825663525      3.20e-05  
    7   -1179.5826759304      1.61e-05  
    8   -1179.5827215564      6.55e-06  
    9   -1179.5827320193      2.85e-06  
   10   -1179.5827334267      1.12e-06  
   11   -1179.5827336766      5.65e-07  Convergence criterion met
 ---------------------------------------
 SCF time:   CPU 1679.84s  wall 48.00s 

************** Final PCM Free Energy Summary **************
 G_electrostatic  =      -0.00958109 hartree =      -6.01222313 kcal/mol
 G_cavitation     =       0.00000000 hartree =       0.00000000 kcal/mol
 G_dispersion     =       0.00000000 hartree =       0.00000000 kcal/mol
 G_repulsion      =       0.00000000 hartree =       0.00000000 kcal/mol
 --------------------------------------------------
 Non-electrostatic Free Energy =       0.00000000 hartree =       0.00000000 kcal/mol
 Total                         =      -0.00958109 hartree =      -6.01222313 kcal/mol
 --------------------------------------------------
 SCF Energy (H0 + V/2)                       =   -1179.58273368 
 Solute Internal Energy (H0)                 =   -1179.57315259 
 Total Free Energy (H0 + V/2 + non-elec)     =   -1179.58273368 hartree
                                             = -740199.33721012 kcal/mol
***********************************************************

 SCF   energy in the final basis set =    -1179.5827336766
 Total energy in the final basis set =    -1179.5827336766


 --------------------------------------------------------------
  Generalized many-body perturbation theory program
  by Joonho Lee, Fazle Rob, Xintian Feng, Evgeny Epifanovsky

 No regularization used 
 (reg. param. = 0.0000e+00)
  (P|Q)^-1/2 Time:  CPU 17.80 s  wall 0.28 s

 In RI-MP2 calculation: 
 # of frozen core orbitals: 20

 Components of the RIMP2 correlation energy:
        aaaa    correlation energy =        -0.2576994434 a.u.
        abab    correlation energy =        -1.4888547345 a.u.
        bbbb    correlation energy =        -0.2576994434 a.u.
        non-Brillouin singles      =        -0.0000000000 a.u.
        total same-spin energy     =        -0.5153988867 a.u.
        total opposite-spin energy =        -1.4888547345 a.u.

 Total  RIMP2   correlation energy =        -2.0042536212 a.u.
        RIMP2         total energy =     -1181.5869872978 a.u.

 RI-MP2 Energy Time:  CPU 146.96 s  wall 3.03 s
 
 --------------------------------------------------------------
 
                    Orbital Energies (a.u.)
 --------------------------------------------------------------
 
 Alpha MOs
 -- Occupied --
-91.9788 -91.9742 -11.2888 -11.2814 -11.2640 -11.2572 -11.2557 -11.2540
-11.2377 -11.2341 -11.2315 -11.2189  -8.9810  -8.9745  -6.6613  -6.6608
 -6.6604  -6.6555  -6.6549  -6.6543  -1.1928  -1.1442  -1.0475  -1.0239
 -0.9968  -0.9513  -0.9093  -0.8959  -0.7918  -0.7627  -0.7292  -0.6953
 -0.6540  -0.6220  -0.5902  -0.5839  -0.5762  -0.5682  -0.5485  -0.5396
 -0.5241  -0.5214  -0.5110  -0.4951  -0.4658  -0.4482  -0.4438  -0.3614
 -0.3372  -0.3268  -0.2674
 -- Virtual --
  0.0561   0.1183   0.1386   0.1561   0.1626   0.1690   0.1727   0.1821
  0.1904   0.1967   0.2099   0.2152   0.2278   0.2389   0.2436   0.2536
  0.2630   0.2788   0.2895   0.3090   0.3340   0.3401   0.3511   0.3597
  0.3682   0.3772   0.3927   0.4043   0.4174   0.4188   0.4291   0.4411
  0.4464   0.4592   0.4680   0.4743   0.4774   0.4885   0.4915   0.5128
  0.5173   0.5242   0.5292   0.5304   0.5406   0.5510   0.5631   0.5717
  0.5775   0.5865   0.5936   0.5985   0.6013   0.6128   0.6219   0.6261
  0.6281   0.6351   0.6421   0.6490   0.6519   0.6570   0.6653   0.6731
  0.6854   0.6888   0.6936   0.7115   0.7223   0.7393   0.7499   0.7638
  0.7772   0.7921   0.8083   0.8125   0.8140   0.8356   0.8477   0.8504
  0.8582   0.8666   0.8771   0.8921   0.9049   0.9137   0.9274   0.9437
  0.9619   0.9764   0.9836   0.9944   1.0132   1.0267   1.0314   1.0487
  1.0543   1.0572   1.0685   1.0814   1.0916   1.0964   1.1102   1.1161
  1.1270   1.1354   1.1424   1.1629   1.1709   1.1886   1.1978   1.1994
  1.2163   1.2283   1.2363   1.2414   1.2438   1.2550   1.2680   1.2786
  1.2863   1.2955   1.3030   1.3185   1.3491   1.3606   1.3674   1.3732
  1.3858   1.3957   1.4125   1.4130   1.4295   1.4339   1.4547   1.4641
  1.4856   1.5003   1.5061   1.5103   1.5247   1.5303   1.5367   1.5492
  1.5581   1.5613   1.5686   1.5767   1.5863   1.6023   1.6172   1.6324
  1.6547   1.6703   1.6830   1.6899   1.6991   1.7098   1.7280   1.7319
  1.7532   1.7585   1.7818   1.7928   1.8163   1.8299   1.8343   1.8571
  1.8831   1.9029   1.9126   1.9505   1.9672   1.9778   1.9868   2.0301
  2.0513   2.0564   2.0652   2.1038   2.1080   2.1267   2.1501   2.1642
  2.1909   2.1975   2.2177   2.2277   2.2474   2.2662   2.2781   2.2833
  2.3127   2.3383   2.3528   2.3676   2.4200   2.4351   2.4494   2.4753
  2.5078   2.5124   2.5180   2.5364   2.5662   2.5967   2.6185   2.6236
  2.6328   2.6454   2.6610   2.6770   2.6977   2.7119   2.7295   2.7360
  2.7559   2.7619   2.7658   2.7747   2.7866   2.7930   2.8100   2.8173
  2.8403   2.8514   2.8605   2.8698   2.8875   2.9149   2.9310   2.9566
  2.9670   2.9851   2.9972   2.9995   3.0177   3.0186   3.0330   3.0449
  3.0574   3.0795   3.1055   3.1133   3.1289   3.1422   3.1459   3.1553
  3.1617   3.1644   3.1730   3.1812   3.1976   3.2096   3.2232   3.2371
  3.2434   3.2575   3.2652   3.2763   3.2881   3.2976   3.3094   3.3118
  3.3238   3.3305   3.3339   3.3460   3.3538   3.3734   3.3772   3.3851
  3.4006   3.4103   3.4161   3.4198   3.4321   3.4371   3.4561   3.4627
  3.4681   3.4696   3.4833   3.4960   3.5024   3.5065   3.5217   3.5292
  3.5370   3.5463   3.5528   3.5582   3.5716   3.5883   3.6010   3.6032
  3.6173   3.6247   3.6359   3.6455   3.6590   3.6790   3.6849   3.6955
  3.7038   3.7175   3.7271   3.7362   3.7476   3.7524   3.7616   3.7813
  3.7937   3.7975   3.8187   3.8271   3.8412   3.8506   3.8605   3.8798
  3.8891   3.9048   3.9183   3.9254   3.9406   3.9472   3.9603   3.9716
  3.9802   3.9933   4.0225   4.0266   4.0285   4.0419   4.0473   4.0581
  4.0728   4.0840   4.1027   4.1228   4.1310   4.1418   4.1614   4.1718
  4.1931   4.1967   4.1980   4.2067   4.2152   4.2309   4.2360   4.2473
  4.2760   4.2812   4.2969   4.3030   4.3113   4.3216   4.3337   4.3384
  4.3602   4.3735   4.3870   4.3925   4.4007   4.4179   4.4297   4.4331
  4.4562   4.4636   4.4913   4.5052   4.5269   4.5559   4.5641   4.5808
  4.5974   4.6038   4.6238   4.6361   4.6429   4.6556   4.6640   4.6887
  4.7106   4.7271   4.7381   4.7545   4.7748   4.8031   4.8169   4.8537
  4.8980   4.9043   4.9280   4.9354   4.9430   4.9616   4.9951   5.0599
  5.0657   5.0911   5.1101   5.1313   5.1753   5.1834   5.1917   5.2182
  5.2723   5.2774   5.2991   5.3065   5.3206   5.3636   5.3979   5.4003
  5.4124   5.4551   5.4668   5.4772   5.5158   5.5330   5.5479   5.5647
  5.5852   5.5977   5.6242   5.6394   5.6533   5.6709   5.6998   5.7460
  5.7978   5.8072   5.9456   6.0148   6.0289   6.0873   6.1996   6.2269
  6.2443   6.2702   6.3011   6.3364   6.3481   6.4047   6.5257   8.7568
  9.6770  11.6333  12.3613  12.8284  13.1873  13.8027  13.9330  14.2258
 14.4895
 --------------------------------------------------------------
 
          Ground-State Mulliken Net Atomic Charges

     Atom                 Charge (a.u.)
  ----------------------------------------
      1 C                    -0.236024
      2 C                    -0.255584
      3 C                    -0.005575
      4 H                     0.183716
      5 C                     0.014677
      6 S                    -0.016994
      7 C                    -0.266848
      8 H                     0.097474
      9 H                     0.107848
     10 H                     0.108607
     11 H                     0.199300
     12 C                    -0.131630
     13 C                    -0.093648
     14 C                    -0.022695
     15 H                     0.191836
     16 C                    -0.186424
     17 S                     0.057196
     18 C                    -0.265472
     19 H                     0.103848
     20 H                     0.107229
     21 H                     0.105474
     22 H                     0.203689
  ----------------------------------------
  Sum of atomic charges =     0.000000

 -----------------------------------------------------------------
                    Cartesian Multipole Moments
 -----------------------------------------------------------------
    Charge (ESU x 10^10)
                -0.0000
    Dipole Moment (Debye)
         X       3.9348      Y       1.1879      Z       0.2013
       Tot       4.1151
    Quadrupole Moments (Debye-Ang)
        XX     -80.5830     XY       4.1941     YY     -82.4774
        XZ      -2.4827     YZ       2.3686     ZZ     -81.8739
    Octopole Moments (Debye-Ang^2)
       XXX    -160.1942    XXY      96.3077    XYY     -55.8223
       YYY     193.8090    XXZ      -4.4814    XYZ       8.3398
       YYZ       0.8892    XZZ     -53.7577    YZZ      80.1063
       ZZZ       5.0913
    Hexadecapole Moments (Debye-Ang^3)
      XXXX   -1030.5488   XXXY    -170.2858   XXYY    -549.1649
      XYYY    -182.1124   YYYY   -2055.5463   XXXZ      37.2758
      XXYZ     -25.3020   XYYZ     -30.5520   YYYZ     -74.7229
      XXZZ    -310.4865   XYZZ     -60.0417   YYZZ    -520.2001
      XZZZ      47.8947   YZZZ     -48.6942   ZZZZ    -858.2725
 -----------------------------------------------------------------
 Total job time:  53.31s(wall), 1891.38s(cpu) 
 Wed Dec 13 15:55:17 2023

        *************************************************************
        *                                                           *
        *  Thank you very much for using Q-Chem.  Have a nice day.  *
        *                                                           *
        *************************************************************


0 sent ACK to 0 
now end server 0 ... 
cleanup process ... done
remove work dirs ./qchem3051476.0 -- ./qchem3051476.0
rm -rf ./qchem3051476.0
rm -rf ./qchem3051476
