You are running Q-Chem version: 5.4.0

#
# job setting
#
local host:  exp-3-52
current dir: /home/rramji/project-csd799/aromodel/p3ht-qchem/rotation-run
input file:  Methylthiophene_Phi_40_Theta_200_Methylthiophene.qcin
output file: 
nprocs     : 1
nthreads   : 64
#
# qchem installation setting
#
QC:          /cm/shared/apps/spack/cpu/opt/spack/linux-centos8-zen2/gcc-10.2.0/qchem-5.4-akfmr7b3t57bfs6qan3padb2wnb2i7cl
QCAUX:       /cm/shared/apps/spack/cpu/opt/spack/linux-centos8-zen2/gcc-10.2.0/qchem-5.4-akfmr7b3t57bfs6qan3padb2wnb2i7cl/qcaux
QCPROG:      /cm/shared/apps/spack/cpu/opt/spack/linux-centos8-zen2/gcc-10.2.0/qchem-5.4-akfmr7b3t57bfs6qan3padb2wnb2i7cl/exe/qcprog.exe
QCPROG_S:    /cm/shared/apps/spack/cpu/opt/spack/linux-centos8-zen2/gcc-10.2.0/qchem-5.4-akfmr7b3t57bfs6qan3padb2wnb2i7cl/exe/qcprog.exe_s
PARALLEL:    -DPARALLEL
QCMPI:       mpich
#
# qchem directory setting
#
qcrun:       qchem2599042
QCSCRATCH:   .
QCLOCALSCR:  
QCTMPDIR:    .
QCFILEPREF:  ./qchem2599042
QCSAVEDIR:   
workdirs:    ./qchem2599042
workdir0:    ./qchem2599042
partmpdirs =  
#
# parallel setting
#
QCRSH:           ssh
QCMPI:           mpich
QCMPIRUN:        /cm/shared/apps/spack/cpu/opt/spack/linux-centos8-zen2/gcc-10.2.0/qchem-5.4-akfmr7b3t57bfs6qan3padb2wnb2i7cl/bin/mpi/mpirun_qchem
QCMACHINEFILE:   ./qchem2599042/hostfile
exp-3-52

#
# env setting
#
exported envs:   QC QCAUX QCSCRATCH QCRUNNAME QCFILEPREF QCPROG QCPROG_S GUIFILE

Running Job 1 of 1 Methylthiophene_Phi_40_Theta_200_Methylthiophene.qcin
qchem Methylthiophene_Phi_40_Theta_200_Methylthiophene.qcin_2599042.0 ./qchem2599042/ 1
/cm/shared/apps/spack/cpu/opt/spack/linux-centos8-zen2/gcc-10.2.0/qchem-5.4-akfmr7b3t57bfs6qan3padb2wnb2i7cl/bin/mpi/mpirun_qchem -machinefile ./qchem2599042/hostfile -np 1 /cm/shared/apps/spack/cpu/opt/spack/linux-centos8-zen2/gcc-10.2.0/qchem-5.4-akfmr7b3t57bfs6qan3padb2wnb2i7cl/exe/qcprog.exe Methylthiophene_Phi_40_Theta_200_Methylthiophene.qcin_2599042.0 ./qchem2599042/

Process 0 of 1 is on exp-3-52 - thread support 0
initial socket setup ...start
initial socket setup ...done 
now start server 0 ... 
                  Welcome to Q-Chem
     A Quantum Leap Into The Future Of Chemistry


 Q-Chem 5.4, Q-Chem, Inc., Pleasanton, CA (2021)

 License issued to: University of California, San Diego (site)

 E. Epifanovsky,  A. T. B. Gilbert,  Xintian Feng,  Joonho Lee,  Yuezhi Mao,  
 N. Mardirossian,  P. Pokhilko,  A. White,  M. Wormit,  M. P. Coons,  
 A. L. Dempwolff,  Zhengting Gan,  D. Hait,  P. R. Horn,  L. D. Jacobson,  
 I. Kaliman,  J. Kussmann,  A. W. Lange,  Ka Un Lao,  D. S. Levine,  Jie Liu,  
 S. C. McKenzie,  A. F. Morrison,  K. Nanda,  F. Plasser,  D. R. Rehn,  
 M. L. Vidal,  Zhi-Qiang You,  Ying Zhu,  B. Alam,  B. Albrecht,  
 A. Aldossary,  E. Alguire,  J. H. Andersen,  D. Barton,  K. Begam,  A. Behn,  
 Y. A. Bernard,  E. J. Berquist,  H. Burton,  A. Carreras,  K. Carter-Fenk,  
 R. Chakraborty,  A. D. Chien,  K. D. Closser,  V. Cofer-Shabica,  
 S. Dasgupta,  Jia Deng,  M. de Wergifosse,  M. Diedenhofen,  Hainam Do,  
 S. Ehlert,  Po-Tung Fang,  S. Fatehi,  Qingguo Feng,  J. Gayvert,  
 Qinghui Ge,  G. Gidofalvi,  M. Goldey,  J. Gomes,  C. Gonzalez-Espinoza,  
 S. Gulania,  A. Gunina,  M. W. D. Hanson-Heine,  P. H. P. Harbach,  
 A. W. Hauser,  M. F. Herbst,  M. Hernandez Vera,  M. Hodecker,  
 Z. C. Holden,  S. Houck,  Xunkun Huang,  Kerwin Hui,  B. C. Huynh,  
 M. Ivanov,  Hyunjun Ji,  Hanjie Jiang,  B. Kaduk,  S. Kaehler,  
 K. Khistyaev,  Jaehoon Kim,  P. Klunzinger,  Z. Koczor-Benda,  
 Joong Hoon Koh,  D. Kosenkov,  L. Koulias,  T. Kowalczyk,  C. M. Krauter,  
 K. Kue,  A. Kunitsa,  T. Kus,  A. Landau,  K. V. Lawler,  D. Lefrancois,  
 S. Lehtola,  Rain Li,  Yi-Pei Li,  Jiashu Liang,  M. Liebenthal,  
 Hung-Hsuan Lin,  You-Sheng Lin,  Fenglai Liu,  Kuan-Yu Liu,  
 M. Loipersberger,  A. Luenser,  A. Manjanath,  P. Manohar,  E. Mansoor,  
 S. F. Manzer,  Shan-Ping Mao,  A. V. Marenich,  T. Markovich,  S. Mason,  
 S. A. Maurer,  P. F. McLaughlin,  M. F. S. J. Menger,  J.-M. Mewes,  
 S. A. Mewes,  P. Morgante,  J. W. Mullinax,  T. S. Nguyen-Beck,  
 K. J. Oosterbaan,  G. Paran,  Alexander C. Paul,  Suranjan K. Paul,  
 F. Pavosevic,  Zheng Pei,  S. Prager,  E. I. Proynov,  E. Ramos,  B. Rana,  
 A. E. Rask,  A. Rettig,  R. M. Richard,  F. Rob,  E. Rossomme,  T. Scheele,  
 M. Scheurer,  M. Schneider,  N. Sergueev,  S. M. Sharada,  W. Skomorowski,  
 D. W. Small,  C. J. Stein,  Yu-Chuan Su,  E. J. Sundstrom,  Zhen Tao,  
 J. Thirman,  T. Tsuchimochi,  N. M. Tubman,  S. P. Veccham,  O. Vydrov,  
 J. Wenzel,  J. Witte,  A. Yamada,  Kun Yao,  S. Yeganeh,  S. R. Yost,  
 A. Zech,  Igor Ying Zhang,  Xing Zhang,  Yu Zhang,  D. Zuev,  
 A. Aspuru-Guzik,  A. T. Bell,  N. A. Besley,  K. B. Bravaya,  B. R. Brooks,  
 D. Casanova,  Jeng-Da Chai,  S. Coriani,  C. J. Cramer,  
 A. E. DePrince, III,  R. A. DiStasio Jr.,  A. Dreuw,  B. D. Dunietz,  
 T. R. Furlani,  W. A. Goddard III,  S. Grimme,  S. Hammes-Schiffer,  
 T. Head-Gordon,  W. J. Hehre,  Chao-Ping Hsu,  T.-C. Jagau,  Yousung Jung,  
 A. Klamt,  Jing Kong,  D. S. Lambrecht,  WanZhen Liang,  N. J. Mayhall,  
 C. W. McCurdy,  J. B. Neaton,  C. Ochsenfeld,  J. A. Parkhill,  R. Peverati,  
 V. A. Rassolov,  Yihan Shao,  L. V. Slipchenko,  T. Stauch,  R. P. Steele,  
 J. E. Subotnik,  A. J. W. Thom,  A. Tkatchenko,  D. G. Truhlar,  
 T. Van Voorhis,  T. A. Wesolowski,  K. B. Whaley,  H. L. Woodcock III,  
 P. M. Zimmerman,  S. Faraji,  P. M. W. Gill,  M. Head-Gordon,  
 J. M. Herbert,  A. I. Krylov

 Contributors to earlier versions of Q-Chem not listed above: 
 R. D. Adamson,  B. Austin,  R. Baer,  J. Baker,  G. J. O. Beran,  
 K. Brandhorst,  S. T. Brown,  E. F. C. Byrd,  A. K. Chakraborty,  
 G. K. L. Chan,  Chun-Min Chang,  Yunqing Chen,  C.-L. Cheng,  
 Siu Hung Chien,  D. M. Chipman,  D. L. Crittenden,  H. Dachsel,  
 R. J. Doerksen,  A. D. Dutoi,  R. G. Edgar,  J. Fosso-Tande,  
 L. Fusti-Molnar,  D. Ghosh,  A. Ghysels,  A. Golubeva-Zadorozhnaya,  
 J. Gonthier,  M. S. Gordon,  S. R. Gwaltney,  G. Hawkins,  J. E. Herr,  
 A. Heyden,  S. Hirata,  E. G. Hohenstein,  G. Kedziora,  F. J. Keil,  
 C. Kelley,  Jihan Kim,  R. A. King,  R. Z. Khaliullin,  P. P. Korambath,  
 W. Kurlancheek,  A. Laurent,  A. M. Lee,  M. S. Lee,  S. V. Levchenko,  
 Ching Yeh Lin,  D. Liotard,  E. Livshits,  R. C. Lochan,  I. Lotan,  
 L. A. Martinez-Martinez,  P. E. Maslen,  N. Nair,  D. P. O'Neill,  
 D. Neuhauser,  E. Neuscamman,  C. M. Oana,  R. Olivares-Amaya,  R. Olson,  
 T. M. Perrine,  B. Peters,  P. A. Pieniazek,  A. Prociuk,  Y. M. Rhee,  
 J. Ritchie,  M. A. Rohrdanz,  E. Rosta,  N. J. Russ,  H. F. Schaefer III,  
 M. W. Schmidt,  N. E. Schultz,  S. Sharma,  N. Shenvi,  C. D. Sherrill,  
 A. C. Simmonett,  A. Sodt,  T. Stein,  D. Stuck,  K. S. Thanthiriwatte,  
 V. Vanovschi,  L. Vogt,  Tao Wang,  A. Warshel,  M. A. Watson,  
 C. F. Williams,  Q. Wu,  X. Xu,  Jun Yang,  W. Zhang,  Yan Zhao

 Please cite Q-Chem as follows:
 Y. Shao et al., Mol. Phys. 113, 184-215 (2015)
 DOI: 10.1080/00268976.2014.952696

 Q-Chem 5.4.0 for Intel X86 EM64T Linux

 Parts of Q-Chem use Armadillo 9.800.1 (Horizon Scraper).
 http://arma.sourceforge.net/

 Q-Chem begins on Wed Dec 13 16:09:23 2023  

 Host: 
0

     Scratch files written to ./qchem2599042//
 May1621 |scratch|qcdevops|jenkins|workspace|build_RNUM    
 Parallel job on  1  processors
 Processing $rem in /cm/shared/apps/spack/cpu/opt/spack/linux-centos8-zen2/gcc-10.2.0/qchem-5.4-akfmr7b3t57bfs6qan3padb2wnb2i7cl/config/preferences:
 Processing $rem in /home/rramji/.qchemrc:
 Symmetry turned off for PCM/SM12/SMD calculation
 Core orbitals will be frozen

 Checking the input file for inconsistencies... 	...done.

 Q-Chem warning in module forms1/BasisType.C, line 2236:

 You are not using the predefined 5D/6D in this basis set.


--------------------------------------------------------------
User input:
--------------------------------------------------------------
$molecule
0 1
C	0.248806	-3.887800	-0.680396
C	-0.225147	-3.701456	0.621614
C	-0.370780	-2.345170	1.019896
H	-0.466300	-4.545233	1.285337
C	-0.000000	-1.450135	-0.000000
S	0.522786	-2.321334	-1.435271
C	-0.865597	-1.934439	2.378891
H	-1.092567	-2.819799	3.003720
H	-1.791940	-1.326210	2.313975
H	-0.114772	-1.325374	2.924390
H	0.448750	-4.815326	-1.228514
C	0.000000	0.000000	0.000000
C	0.540541	0.648986	1.113020
C	1.431046	1.717546	0.820578
H	0.292104	0.350827	2.142881
C	1.590053	1.908061	-0.563588
S	0.621066	0.745901	-1.464748
C	2.112618	2.535384	1.882380
H	1.825779	2.191315	2.894974
H	1.847090	3.610676	1.808137
H	3.218159	2.467925	1.808230
H	2.203332	2.644073	-1.097114
$end

$rem
JOBTYPE		SP
EXCHANGE	HF
CORRELATION	pRIMP2
BASIS		cc-pvtz
METHOD		rimp2
AUX_BASIS	rimp2-cc-pvtz
SOLVENT_METHOD	PCM
PURECART	11111
SYMMETRY	false
MEM_TOTAL	110000
SCF_CONVERGENCE = 6
THRESH=10
GUI = 2
$end



$solvent
dielectric 4.90
$end
--------------------------------------------------------------
 ----------------------------------------------------------------
             Standard Nuclear Orientation (Angstroms)
    I     Atom           X                Y                Z
 ----------------------------------------------------------------
    1      C       0.2488060000    -3.8878000000    -0.6803960000
    2      C      -0.2251470000    -3.7014560000     0.6216140000
    3      C      -0.3707800000    -2.3451700000     1.0198960000
    4      H      -0.4663000000    -4.5452330000     1.2853370000
    5      C       0.0000000000    -1.4501350000     0.0000000000
    6      S       0.5227860000    -2.3213340000    -1.4352710000
    7      C      -0.8655970000    -1.9344390000     2.3788910000
    8      H      -1.0925670000    -2.8197990000     3.0037200000
    9      H      -1.7919400000    -1.3262100000     2.3139750000
   10      H      -0.1147720000    -1.3253740000     2.9243900000
   11      H       0.4487500000    -4.8153260000    -1.2285140000
   12      C       0.0000000000     0.0000000000     0.0000000000
   13      C       0.5405410000     0.6489860000     1.1130200000
   14      C       1.4310460000     1.7175460000     0.8205780000
   15      H       0.2921040000     0.3508270000     2.1428810000
   16      C       1.5900530000     1.9080610000    -0.5635880000
   17      S       0.6210660000     0.7459010000    -1.4647480000
   18      C       2.1126180000     2.5353840000     1.8823800000
   19      H       1.8257790000     2.1913150000     2.8949740000
   20      H       1.8470900000     3.6106760000     1.8081370000
   21      H       3.2181590000     2.4679250000     1.8082300000
   22      H       2.2033320000     2.6440730000    -1.0971140000
 ----------------------------------------------------------------
 Nuclear Repulsion Energy =         847.72974901 hartrees
 There are       51 alpha and       51 beta electrons
 Requested basis set is cc-pVTZ
 There are 184 shells and 508 basis functions

 Total QAlloc Memory Limit 110000 MB
 Mega-Array Size       188 MB
 MEM_STATIC part       192 MB
 Discretize the solute cavity surface with Lebedev spheres
	Using 110 Lebedev grid points for each H atom
	Using 194 Lebedev grid points for other atoms
	Atomic van der Waals radii will be scaled by 1.20
 Remove points where switching function is < 1.0e-08
 Keep 1508 surface tesserae and discard 1920 interior tesserae
 Molecular Surface Area = 228.580 Angst**2
 Requested basis set is rimp2-cc-pVTZ
 There are 394 shells and 1354 basis functions
 A cutoff of  1.0D-10 yielded  12548 shell pairs
 There are     93086 function pairs (    120050 Cartesian)
 Smallest overlap matrix eigenvalue = 7.28E-05

 Scale SEOQF with 1.000000e-01/1.000000e-01/1.000000e-01

 Standard Electronic Orientation quadrupole field applied
 Nucleus-field energy     =     0.0000000187 hartrees
 Guess from superposition of atomic densities
 Warning:  Energy on first SCF cycle will be non-variational
 SAD guess density has 102.000000 electrons

 -----------------------------------------------------------------------
  General SCF calculation program by
  Eric Jon Sundstrom, Paul Horn, Yuezhi Mao, Dmitri Zuev, Alec White,
  David Stuck, Shaama M.S., Shane Yost, Joonho Lee, David Small,
  Daniel Levine, Susi Lehtola, Hugh Burton, Evgeny Epifanovsky,
  Bang C. Huynh
 -----------------------------------------------------------------------
 Hartree-Fock
 using 64 threads for integral computing
 -------------------------------------------------------
 OpenMP Integral computing Module                
 Release: version 1.0, May 2013, Q-Chem Inc. Pittsburgh 
 -------------------------------------------------------
 A restricted SCF calculation will be
 performed using DIIS
 SCF converges when DIIS error is below 1.0e-06
 ---------------------------------------
  Cycle       Energy         DIIS error
 ---------------------------------------
    1   -1184.2859325748      2.39e-02  
    2   -1179.5114456056      1.60e-03  
    3   -1179.6333523531      6.18e-04  
    4   -1179.6472948562      3.37e-04  
    5   -1179.6521202010      6.33e-05  
    6   -1179.6523955069      3.05e-05  
    7   -1179.6524819104      1.30e-05  
    8   -1179.6525109597      5.33e-06  
    9   -1179.6525163412      1.98e-06  
   10   -1179.6525169653      7.42e-07  Convergence criterion met
 ---------------------------------------
 SCF time:   CPU 1566.30s  wall 47.00s 

************** Final PCM Free Energy Summary **************
 G_electrostatic  =      -0.00899115 hartree =      -5.64203187 kcal/mol
 G_cavitation     =       0.00000000 hartree =       0.00000000 kcal/mol
 G_dispersion     =       0.00000000 hartree =       0.00000000 kcal/mol
 G_repulsion      =       0.00000000 hartree =       0.00000000 kcal/mol
 --------------------------------------------------
 Non-electrostatic Free Energy =       0.00000000 hartree =       0.00000000 kcal/mol
 Total                         =      -0.00899115 hartree =      -5.64203187 kcal/mol
 --------------------------------------------------
 SCF Energy (H0 + V/2)                       =   -1179.65251697 
 Solute Internal Energy (H0)                 =   -1179.64352582 
 Total Free Energy (H0 + V/2 + non-elec)     =   -1179.65251697 hartree
                                             = -740243.12688468 kcal/mol
***********************************************************

 SCF   energy in the final basis set =    -1179.6525169653
 Total energy in the final basis set =    -1179.6525169653


 --------------------------------------------------------------
  Generalized many-body perturbation theory program
  by Joonho Lee, Fazle Rob, Xintian Feng, Evgeny Epifanovsky

 No regularization used 
 (reg. param. = 0.0000e+00)
  (P|Q)^-1/2 Time:  CPU 21.40 s  wall 0.34 s

 In RI-MP2 calculation: 
 # of frozen core orbitals: 20

 Components of the RIMP2 correlation energy:
        aaaa    correlation energy =        -0.2543852228 a.u.
        abab    correlation energy =        -1.4791554865 a.u.
        bbbb    correlation energy =        -0.2543852228 a.u.
        non-Brillouin singles      =        -0.0000000000 a.u.
        total same-spin energy     =        -0.5087704455 a.u.
        total opposite-spin energy =        -1.4791554865 a.u.

 Total  RIMP2   correlation energy =        -1.9879259320 a.u.
        RIMP2         total energy =     -1181.6404428973 a.u.

 RI-MP2 Energy Time:  CPU 157.40 s  wall 3.56 s
 
 --------------------------------------------------------------
 
                    Orbital Energies (a.u.)
 --------------------------------------------------------------
 
 Alpha MOs
 -- Occupied --
-91.9860 -91.9815 -11.2795 -11.2776 -11.2740 -11.2620 -11.2550 -11.2525
-11.2415 -11.2401 -11.2311 -11.2286  -8.9862  -8.9813  -6.6671  -6.6665
 -6.6659  -6.6622  -6.6616  -6.6610  -1.1852  -1.1482  -1.0441  -1.0239
 -0.9963  -0.9559  -0.9117  -0.8946  -0.8008  -0.7544  -0.7302  -0.7000
 -0.6574  -0.6161  -0.5940  -0.5820  -0.5707  -0.5609  -0.5504  -0.5409
 -0.5319  -0.5199  -0.5054  -0.4895  -0.4825  -0.4725  -0.4487  -0.3695
 -0.3458  -0.3349  -0.2665
 -- Virtual --
  0.0564   0.1299   0.1385   0.1543   0.1613   0.1724   0.1772   0.1828
  0.1976   0.2048   0.2085   0.2201   0.2334   0.2372   0.2417   0.2567
  0.2709   0.2766   0.3059   0.3122   0.3142   0.3463   0.3617   0.3679
  0.3786   0.3855   0.3934   0.4040   0.4091   0.4192   0.4275   0.4427
  0.4461   0.4578   0.4690   0.4756   0.4770   0.4853   0.4937   0.5053
  0.5195   0.5222   0.5284   0.5414   0.5470   0.5547   0.5613   0.5652
  0.5774   0.5834   0.5969   0.5980   0.6072   0.6090   0.6142   0.6189
  0.6285   0.6326   0.6376   0.6419   0.6445   0.6578   0.6647   0.6754
  0.6830   0.6881   0.7044   0.7213   0.7238   0.7326   0.7451   0.7479
  0.7602   0.7808   0.7943   0.7979   0.8108   0.8206   0.8306   0.8417
  0.8565   0.8601   0.8833   0.8995   0.9108   0.9210   0.9306   0.9425
  0.9450   0.9584   0.9686   0.9835   1.0000   1.0088   1.0272   1.0433
  1.0524   1.0569   1.0628   1.0678   1.0714   1.0771   1.0917   1.1003
  1.1110   1.1176   1.1436   1.1467   1.1609   1.1682   1.1754   1.1889
  1.1976   1.2217   1.2223   1.2396   1.2442   1.2560   1.2623   1.2692
  1.2718   1.2832   1.2883   1.3231   1.3311   1.3450   1.3589   1.3671
  1.3741   1.3825   1.4005   1.4156   1.4227   1.4299   1.4406   1.4538
  1.4835   1.4881   1.5055   1.5214   1.5258   1.5316   1.5460   1.5572
  1.5638   1.5652   1.5688   1.5768   1.5806   1.6016   1.6179   1.6369
  1.6445   1.6658   1.6696   1.6838   1.6969   1.7065   1.7192   1.7373
  1.7498   1.7613   1.7808   1.7889   1.8049   1.8196   1.8301   1.8544
  1.8735   1.8928   1.9274   1.9308   1.9380   1.9702   1.9868   2.0046
  2.0154   2.0317   2.0529   2.1022   2.1222   2.1435   2.1660   2.1738
  2.1823   2.2041   2.2124   2.2251   2.2329   2.2543   2.2697   2.2725
  2.2842   2.2960   2.3237   2.3789   2.4096   2.4144   2.4402   2.4599
  2.4654   2.4925   2.5040   2.5234   2.5392   2.5693   2.5810   2.6046
  2.6127   2.6380   2.6556   2.6602   2.6848   2.6979   2.7009   2.7252
  2.7383   2.7461   2.7559   2.7634   2.7685   2.7803   2.7868   2.8150
  2.8293   2.8350   2.8394   2.8644   2.8722   2.9208   2.9316   2.9401
  2.9620   2.9654   2.9861   3.0034   3.0091   3.0252   3.0332   3.0412
  3.0492   3.0591   3.0988   3.1085   3.1266   3.1304   3.1406   3.1423
  3.1528   3.1580   3.1649   3.1821   3.1953   3.2051   3.2174   3.2315
  3.2357   3.2507   3.2599   3.2729   3.2832   3.2911   3.2987   3.3069
  3.3154   3.3270   3.3308   3.3476   3.3525   3.3628   3.3658   3.3700
  3.3840   3.3930   3.4019   3.4121   3.4213   3.4244   3.4344   3.4452
  3.4567   3.4631   3.4723   3.4850   3.5005   3.5057   3.5127   3.5220
  3.5336   3.5352   3.5446   3.5500   3.5649   3.5769   3.5842   3.5911
  3.6023   3.6171   3.6254   3.6315   3.6448   3.6467   3.6529   3.6725
  3.6821   3.6946   3.7015   3.7128   3.7275   3.7398   3.7489   3.7614
  3.7744   3.7840   3.7918   3.8046   3.8190   3.8225   3.8285   3.8524
  3.8642   3.8763   3.8891   3.9112   3.9182   3.9422   3.9438   3.9705
  3.9716   3.9870   4.0084   4.0211   4.0229   4.0394   4.0460   4.0494
  4.0616   4.0737   4.0828   4.1008   4.1151   4.1306   4.1458   4.1546
  4.1822   4.1885   4.1992   4.2073   4.2105   4.2247   4.2323   4.2504
  4.2601   4.2677   4.2795   4.3003   4.3059   4.3259   4.3392   4.3462
  4.3518   4.3642   4.3695   4.3917   4.4006   4.4018   4.4237   4.4344
  4.4552   4.4598   4.4679   4.4813   4.4946   4.5375   4.5584   4.5660
  4.5956   4.6012   4.6083   4.6238   4.6460   4.6528   4.6736   4.6904
  4.6938   4.7342   4.7519   4.7631   4.7724   4.7889   4.8577   4.8625
  4.8811   4.8998   4.9156   4.9441   4.9658   4.9921   5.0064   5.0602
  5.0809   5.1052   5.1141   5.1431   5.1556   5.1962   5.2028   5.2253
  5.2751   5.2800   5.2979   5.3123   5.3230   5.3670   5.3998   5.4022
  5.4141   5.4522   5.4741   5.4901   5.5179   5.5348   5.5473   5.5583
  5.5729   5.6154   5.6204   5.6309   5.6432   5.6698   5.6992   5.7347
  5.7853   5.8185   5.9197   5.9460   6.0364   6.0964   6.1400   6.2132
  6.2257   6.2656   6.2713   6.3031   6.3462   6.3969   6.5182   8.7178
  9.7398  11.5459  12.1956  12.8559  13.1578  13.7771  13.9398  14.2184
 14.3662
 --------------------------------------------------------------
 
          Ground-State Mulliken Net Atomic Charges

     Atom                 Charge (a.u.)
  ----------------------------------------
      1 C                    -0.242329
      2 C                    -0.242770
      3 C                     0.029634
      4 H                     0.183122
      5 C                    -0.012120
      6 S                     0.010459
      7 C                    -0.308646
      8 H                     0.114092
      9 H                     0.113911
     10 H                     0.097634
     11 H                     0.202933
     12 C                    -0.033109
     13 C                    -0.175355
     14 C                     0.003959
     15 H                     0.197570
     16 C                    -0.206550
     17 S                     0.014257
     18 C                    -0.268546
     19 H                     0.101949
     20 H                     0.109003
     21 H                     0.108148
     22 H                     0.202755
  ----------------------------------------
  Sum of atomic charges =     0.000000

 -----------------------------------------------------------------
                    Cartesian Multipole Moments
 -----------------------------------------------------------------
    Charge (ESU x 10^10)
                -0.0000
    Dipole Moment (Debye)
         X       1.2043      Y       1.0779      Z       2.8978
       Tot       3.3180
    Quadrupole Moments (Debye-Ang)
        XX     -86.9484     XY       6.7741     YY     -75.4450
        XZ      -1.3544     YZ      -1.4269     ZZ     -80.8286
    Octopole Moments (Debye-Ang^2)
       XXX    -123.2987    XXY      78.7727    XYY     -27.4093
       YYY     138.2793    XXZ      -6.6085    XYZ       6.2142
       YYZ      -8.5527    XZZ     -38.8633    YZZ      54.5406
       ZZZ      -7.6310
    Hexadecapole Moments (Debye-Ang^3)
      XXXX    -583.9816   XXXY    -218.2927   XXYY    -535.6989
      XYYY    -215.7661   YYYY   -2305.9941   XXXZ      24.8040
      XXYZ     -31.9739   XYYZ     -30.6484   YYYZ     -57.3604
      XXZZ    -267.6516   XYZZ     -64.5854   YYZZ    -554.1020
      XZZZ      20.2526   YZZZ     -82.7650   ZZZZ   -1024.1972
 -----------------------------------------------------------------
 Total job time:  59.26s(wall), 2219.32s(cpu) 
 Wed Dec 13 16:10:23 2023

        *************************************************************
        *                                                           *
        *  Thank you very much for using Q-Chem.  Have a nice day.  *
        *                                                           *
        *************************************************************


0 sent ACK to 0 
now end server 0 ... 
cleanup process ... done
remove work dirs ./qchem2599042.0 -- ./qchem2599042.0
rm -rf ./qchem2599042.0
rm -rf ./qchem2599042
