You are running Q-Chem version: 5.4.0

#
# job setting
#
local host:  exp-1-44
current dir: /home/rramji/project-csd799/aromodel/p3ht-qchem/rotation-run
input file:  Methylthiophene_Phi_15_Theta_290_Methylthiophene.qcin
output file: 
nprocs     : 1
nthreads   : 64
#
# qchem installation setting
#
QC:          /cm/shared/apps/spack/cpu/opt/spack/linux-centos8-zen2/gcc-10.2.0/qchem-5.4-akfmr7b3t57bfs6qan3padb2wnb2i7cl
QCAUX:       /cm/shared/apps/spack/cpu/opt/spack/linux-centos8-zen2/gcc-10.2.0/qchem-5.4-akfmr7b3t57bfs6qan3padb2wnb2i7cl/qcaux
QCPROG:      /cm/shared/apps/spack/cpu/opt/spack/linux-centos8-zen2/gcc-10.2.0/qchem-5.4-akfmr7b3t57bfs6qan3padb2wnb2i7cl/exe/qcprog.exe
QCPROG_S:    /cm/shared/apps/spack/cpu/opt/spack/linux-centos8-zen2/gcc-10.2.0/qchem-5.4-akfmr7b3t57bfs6qan3padb2wnb2i7cl/exe/qcprog.exe_s
PARALLEL:    -DPARALLEL
QCMPI:       mpich
#
# qchem directory setting
#
qcrun:       qchem2798470
QCSCRATCH:   .
QCLOCALSCR:  
QCTMPDIR:    .
QCFILEPREF:  ./qchem2798470
QCSAVEDIR:   
workdirs:    ./qchem2798470
workdir0:    ./qchem2798470
partmpdirs =  
#
# parallel setting
#
QCRSH:           ssh
QCMPI:           mpich
QCMPIRUN:        /cm/shared/apps/spack/cpu/opt/spack/linux-centos8-zen2/gcc-10.2.0/qchem-5.4-akfmr7b3t57bfs6qan3padb2wnb2i7cl/bin/mpi/mpirun_qchem
QCMACHINEFILE:   ./qchem2798470/hostfile
exp-1-44

#
# env setting
#
exported envs:   QC QCAUX QCSCRATCH QCRUNNAME QCFILEPREF QCPROG QCPROG_S GUIFILE

Running Job 1 of 1 Methylthiophene_Phi_15_Theta_290_Methylthiophene.qcin
qchem Methylthiophene_Phi_15_Theta_290_Methylthiophene.qcin_2798470.0 ./qchem2798470/ 1
/cm/shared/apps/spack/cpu/opt/spack/linux-centos8-zen2/gcc-10.2.0/qchem-5.4-akfmr7b3t57bfs6qan3padb2wnb2i7cl/bin/mpi/mpirun_qchem -machinefile ./qchem2798470/hostfile -np 1 /cm/shared/apps/spack/cpu/opt/spack/linux-centos8-zen2/gcc-10.2.0/qchem-5.4-akfmr7b3t57bfs6qan3padb2wnb2i7cl/exe/qcprog.exe Methylthiophene_Phi_15_Theta_290_Methylthiophene.qcin_2798470.0 ./qchem2798470/

Process 0 of 1 is on exp-1-44 - thread support 0
initial socket setup ...start
initial socket setup ...done 
now start server 0 ... 
                  Welcome to Q-Chem
     A Quantum Leap Into The Future Of Chemistry


 Q-Chem 5.4, Q-Chem, Inc., Pleasanton, CA (2021)

 License issued to: University of California, San Diego (site)

 E. Epifanovsky,  A. T. B. Gilbert,  Xintian Feng,  Joonho Lee,  Yuezhi Mao,  
 N. Mardirossian,  P. Pokhilko,  A. White,  M. Wormit,  M. P. Coons,  
 A. L. Dempwolff,  Zhengting Gan,  D. Hait,  P. R. Horn,  L. D. Jacobson,  
 I. Kaliman,  J. Kussmann,  A. W. Lange,  Ka Un Lao,  D. S. Levine,  Jie Liu,  
 S. C. McKenzie,  A. F. Morrison,  K. Nanda,  F. Plasser,  D. R. Rehn,  
 M. L. Vidal,  Zhi-Qiang You,  Ying Zhu,  B. Alam,  B. Albrecht,  
 A. Aldossary,  E. Alguire,  J. H. Andersen,  D. Barton,  K. Begam,  A. Behn,  
 Y. A. Bernard,  E. J. Berquist,  H. Burton,  A. Carreras,  K. Carter-Fenk,  
 R. Chakraborty,  A. D. Chien,  K. D. Closser,  V. Cofer-Shabica,  
 S. Dasgupta,  Jia Deng,  M. de Wergifosse,  M. Diedenhofen,  Hainam Do,  
 S. Ehlert,  Po-Tung Fang,  S. Fatehi,  Qingguo Feng,  J. Gayvert,  
 Qinghui Ge,  G. Gidofalvi,  M. Goldey,  J. Gomes,  C. Gonzalez-Espinoza,  
 S. Gulania,  A. Gunina,  M. W. D. Hanson-Heine,  P. H. P. Harbach,  
 A. W. Hauser,  M. F. Herbst,  M. Hernandez Vera,  M. Hodecker,  
 Z. C. Holden,  S. Houck,  Xunkun Huang,  Kerwin Hui,  B. C. Huynh,  
 M. Ivanov,  Hyunjun Ji,  Hanjie Jiang,  B. Kaduk,  S. Kaehler,  
 K. Khistyaev,  Jaehoon Kim,  P. Klunzinger,  Z. Koczor-Benda,  
 Joong Hoon Koh,  D. Kosenkov,  L. Koulias,  T. Kowalczyk,  C. M. Krauter,  
 K. Kue,  A. Kunitsa,  T. Kus,  A. Landau,  K. V. Lawler,  D. Lefrancois,  
 S. Lehtola,  Rain Li,  Yi-Pei Li,  Jiashu Liang,  M. Liebenthal,  
 Hung-Hsuan Lin,  You-Sheng Lin,  Fenglai Liu,  Kuan-Yu Liu,  
 M. Loipersberger,  A. Luenser,  A. Manjanath,  P. Manohar,  E. Mansoor,  
 S. F. Manzer,  Shan-Ping Mao,  A. V. Marenich,  T. Markovich,  S. Mason,  
 S. A. Maurer,  P. F. McLaughlin,  M. F. S. J. Menger,  J.-M. Mewes,  
 S. A. Mewes,  P. Morgante,  J. W. Mullinax,  T. S. Nguyen-Beck,  
 K. J. Oosterbaan,  G. Paran,  Alexander C. Paul,  Suranjan K. Paul,  
 F. Pavosevic,  Zheng Pei,  S. Prager,  E. I. Proynov,  E. Ramos,  B. Rana,  
 A. E. Rask,  A. Rettig,  R. M. Richard,  F. Rob,  E. Rossomme,  T. Scheele,  
 M. Scheurer,  M. Schneider,  N. Sergueev,  S. M. Sharada,  W. Skomorowski,  
 D. W. Small,  C. J. Stein,  Yu-Chuan Su,  E. J. Sundstrom,  Zhen Tao,  
 J. Thirman,  T. Tsuchimochi,  N. M. Tubman,  S. P. Veccham,  O. Vydrov,  
 J. Wenzel,  J. Witte,  A. Yamada,  Kun Yao,  S. Yeganeh,  S. R. Yost,  
 A. Zech,  Igor Ying Zhang,  Xing Zhang,  Yu Zhang,  D. Zuev,  
 A. Aspuru-Guzik,  A. T. Bell,  N. A. Besley,  K. B. Bravaya,  B. R. Brooks,  
 D. Casanova,  Jeng-Da Chai,  S. Coriani,  C. J. Cramer,  
 A. E. DePrince, III,  R. A. DiStasio Jr.,  A. Dreuw,  B. D. Dunietz,  
 T. R. Furlani,  W. A. Goddard III,  S. Grimme,  S. Hammes-Schiffer,  
 T. Head-Gordon,  W. J. Hehre,  Chao-Ping Hsu,  T.-C. Jagau,  Yousung Jung,  
 A. Klamt,  Jing Kong,  D. S. Lambrecht,  WanZhen Liang,  N. J. Mayhall,  
 C. W. McCurdy,  J. B. Neaton,  C. Ochsenfeld,  J. A. Parkhill,  R. Peverati,  
 V. A. Rassolov,  Yihan Shao,  L. V. Slipchenko,  T. Stauch,  R. P. Steele,  
 J. E. Subotnik,  A. J. W. Thom,  A. Tkatchenko,  D. G. Truhlar,  
 T. Van Voorhis,  T. A. Wesolowski,  K. B. Whaley,  H. L. Woodcock III,  
 P. M. Zimmerman,  S. Faraji,  P. M. W. Gill,  M. Head-Gordon,  
 J. M. Herbert,  A. I. Krylov

 Contributors to earlier versions of Q-Chem not listed above: 
 R. D. Adamson,  B. Austin,  R. Baer,  J. Baker,  G. J. O. Beran,  
 K. Brandhorst,  S. T. Brown,  E. F. C. Byrd,  A. K. Chakraborty,  
 G. K. L. Chan,  Chun-Min Chang,  Yunqing Chen,  C.-L. Cheng,  
 Siu Hung Chien,  D. M. Chipman,  D. L. Crittenden,  H. Dachsel,  
 R. J. Doerksen,  A. D. Dutoi,  R. G. Edgar,  J. Fosso-Tande,  
 L. Fusti-Molnar,  D. Ghosh,  A. Ghysels,  A. Golubeva-Zadorozhnaya,  
 J. Gonthier,  M. S. Gordon,  S. R. Gwaltney,  G. Hawkins,  J. E. Herr,  
 A. Heyden,  S. Hirata,  E. G. Hohenstein,  G. Kedziora,  F. J. Keil,  
 C. Kelley,  Jihan Kim,  R. A. King,  R. Z. Khaliullin,  P. P. Korambath,  
 W. Kurlancheek,  A. Laurent,  A. M. Lee,  M. S. Lee,  S. V. Levchenko,  
 Ching Yeh Lin,  D. Liotard,  E. Livshits,  R. C. Lochan,  I. Lotan,  
 L. A. Martinez-Martinez,  P. E. Maslen,  N. Nair,  D. P. O'Neill,  
 D. Neuhauser,  E. Neuscamman,  C. M. Oana,  R. Olivares-Amaya,  R. Olson,  
 T. M. Perrine,  B. Peters,  P. A. Pieniazek,  A. Prociuk,  Y. M. Rhee,  
 J. Ritchie,  M. A. Rohrdanz,  E. Rosta,  N. J. Russ,  H. F. Schaefer III,  
 M. W. Schmidt,  N. E. Schultz,  S. Sharma,  N. Shenvi,  C. D. Sherrill,  
 A. C. Simmonett,  A. Sodt,  T. Stein,  D. Stuck,  K. S. Thanthiriwatte,  
 V. Vanovschi,  L. Vogt,  Tao Wang,  A. Warshel,  M. A. Watson,  
 C. F. Williams,  Q. Wu,  X. Xu,  Jun Yang,  W. Zhang,  Yan Zhao

 Please cite Q-Chem as follows:
 Y. Shao et al., Mol. Phys. 113, 184-215 (2015)
 DOI: 10.1080/00268976.2014.952696

 Q-Chem 5.4.0 for Intel X86 EM64T Linux

 Parts of Q-Chem use Armadillo 9.800.1 (Horizon Scraper).
 http://arma.sourceforge.net/

 Q-Chem begins on Wed Dec 13 16:19:00 2023  

 Host: 
0

     Scratch files written to ./qchem2798470//
 May1621 |scratch|qcdevops|jenkins|workspace|build_RNUM    
 Parallel job on  1  processors
 Processing $rem in /cm/shared/apps/spack/cpu/opt/spack/linux-centos8-zen2/gcc-10.2.0/qchem-5.4-akfmr7b3t57bfs6qan3padb2wnb2i7cl/config/preferences:
 Processing $rem in /home/rramji/.qchemrc:
 Symmetry turned off for PCM/SM12/SMD calculation
 Core orbitals will be frozen

 Checking the input file for inconsistencies... 	...done.

 Q-Chem warning in module forms1/BasisType.C, line 2236:

 You are not using the predefined 5D/6D in this basis set.


--------------------------------------------------------------
User input:
--------------------------------------------------------------
$molecule
0 1
C	0.680396	-3.887800	0.248806
C	-0.621614	-3.701456	-0.225147
C	-1.019896	-2.345170	-0.370780
H	-1.285337	-4.545233	-0.466300
C	-0.000000	-1.450135	-0.000000
S	1.435271	-2.321334	0.522786
C	-2.378891	-1.934439	-0.865597
H	-3.003720	-2.819799	-1.092567
H	-2.313975	-1.326210	-1.791940
H	-2.924390	-1.325374	-0.114772
H	1.228514	-4.815326	0.448750
C	0.000000	0.000000	0.000000
C	0.215623	0.816623	1.113020
C	0.571102	2.161411	0.820578
H	0.116470	0.441406	2.142881
C	0.634696	2.401276	-0.563588
S	0.247646	0.938489	-1.464748
C	0.843182	3.190669	1.882380
H	0.728628	2.757614	2.894974
H	0.148095	4.052998	1.808137
H	1.873652	3.596752	1.808230
H	0.879464	3.327513	-1.097114
$end

$rem
JOBTYPE		SP
EXCHANGE	HF
CORRELATION	pRIMP2
BASIS		cc-pvtz
METHOD		rimp2
AUX_BASIS	rimp2-cc-pvtz
SOLVENT_METHOD	PCM
PURECART	11111
SYMMETRY	false
MEM_TOTAL	110000
SCF_CONVERGENCE = 6
THRESH=10
GUI = 2
$end



$solvent
dielectric 4.90
$end
--------------------------------------------------------------
 ----------------------------------------------------------------
             Standard Nuclear Orientation (Angstroms)
    I     Atom           X                Y                Z
 ----------------------------------------------------------------
    1      C       0.6803960000    -3.8878000000     0.2488060000
    2      C      -0.6216140000    -3.7014560000    -0.2251470000
    3      C      -1.0198960000    -2.3451700000    -0.3707800000
    4      H      -1.2853370000    -4.5452330000    -0.4663000000
    5      C       0.0000000000    -1.4501350000     0.0000000000
    6      S       1.4352710000    -2.3213340000     0.5227860000
    7      C      -2.3788910000    -1.9344390000    -0.8655970000
    8      H      -3.0037200000    -2.8197990000    -1.0925670000
    9      H      -2.3139750000    -1.3262100000    -1.7919400000
   10      H      -2.9243900000    -1.3253740000    -0.1147720000
   11      H       1.2285140000    -4.8153260000     0.4487500000
   12      C       0.0000000000     0.0000000000     0.0000000000
   13      C       0.2156230000     0.8166230000     1.1130200000
   14      C       0.5711020000     2.1614110000     0.8205780000
   15      H       0.1164700000     0.4414060000     2.1428810000
   16      C       0.6346960000     2.4012760000    -0.5635880000
   17      S       0.2476460000     0.9384890000    -1.4647480000
   18      C       0.8431820000     3.1906690000     1.8823800000
   19      H       0.7286280000     2.7576140000     2.8949740000
   20      H       0.1480950000     4.0529980000     1.8081370000
   21      H       1.8736520000     3.5967520000     1.8082300000
   22      H       0.8794640000     3.3275130000    -1.0971140000
 ----------------------------------------------------------------
 Nuclear Repulsion Energy =         833.57905555 hartrees
 There are       51 alpha and       51 beta electrons
 Requested basis set is cc-pVTZ
 There are 184 shells and 508 basis functions

 Total QAlloc Memory Limit 110000 MB
 Mega-Array Size       188 MB
 MEM_STATIC part       192 MB
 Discretize the solute cavity surface with Lebedev spheres
	Using 110 Lebedev grid points for each H atom
	Using 194 Lebedev grid points for other atoms
	Atomic van der Waals radii will be scaled by 1.20
 Remove points where switching function is < 1.0e-08
 Keep 1565 surface tesserae and discard 1863 interior tesserae
 Molecular Surface Area = 237.031 Angst**2
 Requested basis set is rimp2-cc-pVTZ
 There are 394 shells and 1354 basis functions
 A cutoff of  1.0D-10 yielded  12149 shell pairs
 There are     90125 function pairs (    116356 Cartesian)
 Smallest overlap matrix eigenvalue = 7.21E-05

 Scale SEOQF with 1.000000e-01/1.000000e-01/1.000000e-01

 Standard Electronic Orientation quadrupole field applied
 Nucleus-field energy     =     0.0000000339 hartrees
 Guess from superposition of atomic densities
 Warning:  Energy on first SCF cycle will be non-variational
 SAD guess density has 102.000000 electrons

 -----------------------------------------------------------------------
  General SCF calculation program by
  Eric Jon Sundstrom, Paul Horn, Yuezhi Mao, Dmitri Zuev, Alec White,
  David Stuck, Shaama M.S., Shane Yost, Joonho Lee, David Small,
  Daniel Levine, Susi Lehtola, Hugh Burton, Evgeny Epifanovsky,
  Bang C. Huynh
 -----------------------------------------------------------------------
 Hartree-Fock
 using 64 threads for integral computing
 -------------------------------------------------------
 OpenMP Integral computing Module                
 Release: version 1.0, May 2013, Q-Chem Inc. Pittsburgh 
 -------------------------------------------------------
 A restricted SCF calculation will be
 performed using DIIS
 SCF converges when DIIS error is below 1.0e-06
 ---------------------------------------
  Cycle       Energy         DIIS error
 ---------------------------------------
    1   -1184.1869758242      2.38e-02  
    2   -1179.5449351858      1.59e-03  
    3   -1179.6644141092      6.11e-04  
    4   -1179.6778194534      3.36e-04  
    5   -1179.6825368712      6.68e-05  
    6   -1179.6828179278      3.09e-05  
    7   -1179.6829061960      1.28e-05  
    8   -1179.6829346995      5.26e-06  
    9   -1179.6829396298      1.65e-06  
   10   -1179.6829400566      5.07e-07  Convergence criterion met
 ---------------------------------------
 SCF time:   CPU 1528.15s  wall 46.00s 

************** Final PCM Free Energy Summary **************
 G_electrostatic  =      -0.00777367 hartree =      -4.87805021 kcal/mol
 G_cavitation     =       0.00000000 hartree =       0.00000000 kcal/mol
 G_dispersion     =       0.00000000 hartree =       0.00000000 kcal/mol
 G_repulsion      =       0.00000000 hartree =       0.00000000 kcal/mol
 --------------------------------------------------
 Non-electrostatic Free Energy =       0.00000000 hartree =       0.00000000 kcal/mol
 Total                         =      -0.00777367 hartree =      -4.87805021 kcal/mol
 --------------------------------------------------
 SCF Energy (H0 + V/2)                       =   -1179.68294006 
 Solute Internal Energy (H0)                 =   -1179.67516639 
 Total Free Energy (H0 + V/2 + non-elec)     =   -1179.68294006 hartree
                                             = -740262.21766266 kcal/mol
***********************************************************

 SCF   energy in the final basis set =    -1179.6829400566
 Total energy in the final basis set =    -1179.6829400566


 --------------------------------------------------------------
  Generalized many-body perturbation theory program
  by Joonho Lee, Fazle Rob, Xintian Feng, Evgeny Epifanovsky

 No regularization used 
 (reg. param. = 0.0000e+00)
  (P|Q)^-1/2 Time:  CPU 41.01 s  wall 0.68 s

 In RI-MP2 calculation: 
 # of frozen core orbitals: 20

 Components of the RIMP2 correlation energy:
        aaaa    correlation energy =        -0.2522401144 a.u.
        abab    correlation energy =        -1.4737872667 a.u.
        bbbb    correlation energy =        -0.2522401144 a.u.
        non-Brillouin singles      =        -0.0000000000 a.u.
        total same-spin energy     =        -0.5044802288 a.u.
        total opposite-spin energy =        -1.4737872667 a.u.

 Total  RIMP2   correlation energy =        -1.9782674956 a.u.
        RIMP2         total energy =     -1181.6612075522 a.u.

 RI-MP2 Energy Time:  CPU 180.19 s  wall 3.45 s
 
 --------------------------------------------------------------
 
                    Orbital Energies (a.u.)
 --------------------------------------------------------------
 
 Alpha MOs
 -- Occupied --
-91.9856 -91.9851 -11.2779 -11.2731 -11.2725 -11.2662 -11.2523 -11.2511
-11.2424 -11.2418 -11.2291 -11.2290  -8.9851  -8.9846  -6.6659  -6.6655
 -6.6654  -6.6650  -6.6648  -6.6644  -1.1783  -1.1495  -1.0394  -1.0227
 -0.9974  -0.9529  -0.9137  -0.8923  -0.7994  -0.7562  -0.7276  -0.6935
 -0.6620  -0.6167  -0.5826  -0.5789  -0.5717  -0.5693  -0.5513  -0.5323
 -0.5273  -0.5189  -0.5072  -0.4935  -0.4870  -0.4656  -0.4615  -0.3458
 -0.3388  -0.3292  -0.2964
 -- Virtual --
  0.0830   0.1078   0.1432   0.1480   0.1617   0.1727   0.1783   0.1853
  0.1888   0.1955   0.2050   0.2187   0.2301   0.2352   0.2401   0.2498
  0.2543   0.2667   0.2941   0.3049   0.3367   0.3430   0.3564   0.3633
  0.3749   0.3827   0.3952   0.3992   0.4095   0.4165   0.4205   0.4409
  0.4500   0.4565   0.4687   0.4707   0.4739   0.4797   0.4841   0.4919
  0.5145   0.5152   0.5341   0.5359   0.5433   0.5497   0.5551   0.5581
  0.5738   0.5800   0.5859   0.5965   0.6062   0.6103   0.6144   0.6224
  0.6253   0.6330   0.6376   0.6420   0.6454   0.6488   0.6521   0.6651
  0.6788   0.6796   0.6942   0.7047   0.7155   0.7261   0.7434   0.7546
  0.7660   0.7800   0.7992   0.8078   0.8169   0.8241   0.8307   0.8357
  0.8479   0.8555   0.8711   0.8758   0.8982   0.9152   0.9264   0.9395
  0.9563   0.9745   0.9799   0.9932   0.9978   1.0163   1.0227   1.0331
  1.0445   1.0606   1.0634   1.0718   1.0796   1.0860   1.0887   1.0971
  1.1163   1.1219   1.1319   1.1357   1.1542   1.1635   1.1692   1.1845
  1.2062   1.2099   1.2228   1.2316   1.2508   1.2587   1.2617   1.2760
  1.2785   1.2922   1.3053   1.3091   1.3232   1.3393   1.3464   1.3657
  1.3676   1.3836   1.4012   1.4180   1.4243   1.4454   1.4533   1.4617
  1.4803   1.4867   1.5012   1.5058   1.5079   1.5276   1.5350   1.5500
  1.5557   1.5639   1.5677   1.5750   1.5805   1.5941   1.6085   1.6411
  1.6474   1.6562   1.6722   1.6811   1.6994   1.7079   1.7132   1.7213
  1.7457   1.7585   1.7656   1.7807   1.7883   1.8045   1.8188   1.8558
  1.8832   1.8893   1.8964   1.9158   1.9274   1.9533   1.9603   1.9903
  2.0290   2.0458   2.0505   2.1011   2.1203   2.1319   2.1486   2.1700
  2.1780   2.1914   2.2052   2.2239   2.2433   2.2537   2.2658   2.2805
  2.2950   2.3065   2.3313   2.3828   2.4028   2.4153   2.4286   2.4521
  2.4762   2.4849   2.5095   2.5244   2.5369   2.5685   2.5860   2.5892
  2.6105   2.6385   2.6419   2.6558   2.6778   2.6880   2.7189   2.7307
  2.7398   2.7430   2.7544   2.7595   2.7653   2.7683   2.7932   2.7959
  2.8272   2.8410   2.8531   2.8720   2.8788   2.8931   2.9050   2.9079
  2.9427   2.9682   2.9758   2.9848   3.0022   3.0135   3.0328   3.0399
  3.0409   3.0779   3.0929   3.1012   3.1113   3.1184   3.1251   3.1406
  3.1441   3.1487   3.1624   3.1687   3.1885   3.1925   3.2079   3.2233
  3.2362   3.2460   3.2574   3.2839   3.2906   3.2934   3.2990   3.3084
  3.3154   3.3206   3.3266   3.3430   3.3557   3.3593   3.3609   3.3770
  3.3875   3.3923   3.3948   3.4094   3.4177   3.4285   3.4333   3.4489
  3.4501   3.4655   3.4733   3.4950   3.5046   3.5062   3.5138   3.5224
  3.5291   3.5322   3.5397   3.5432   3.5577   3.5689   3.5741   3.5884
  3.6003   3.6196   3.6233   3.6299   3.6362   3.6448   3.6563   3.6705
  3.6852   3.6887   3.6983   3.7163   3.7258   3.7363   3.7388   3.7500
  3.7521   3.7740   3.7898   3.7934   3.7968   3.8097   3.8212   3.8423
  3.8608   3.8649   3.8835   3.8914   3.8997   3.9236   3.9478   3.9579
  3.9728   3.9749   3.9901   4.0077   4.0124   4.0212   4.0290   4.0397
  4.0702   4.0847   4.0901   4.1033   4.1142   4.1344   4.1386   4.1506
  4.1651   4.1720   4.1834   4.1960   4.2035   4.2072   4.2256   4.2288
  4.2628   4.2701   4.2746   4.2769   4.2941   4.3096   4.3244   4.3294
  4.3465   4.3548   4.3743   4.3751   4.3890   4.3964   4.4032   4.4190
  4.4298   4.4403   4.4655   4.4785   4.4800   4.5037   4.5346   4.5623
  4.5813   4.5866   4.6093   4.6233   4.6315   4.6512   4.6664   4.6867
  4.7068   4.7267   4.7338   4.7385   4.7724   4.7929   4.8134   4.8383
  4.8699   4.8799   4.9050   4.9118   4.9417   4.9581   4.9853   5.0554
  5.0798   5.0966   5.1098   5.1521   5.1793   5.1806   5.1958   5.2045
  5.2676   5.2787   5.2892   5.3020   5.3285   5.3670   5.3924   5.4009
  5.4236   5.4503   5.4641   5.4689   5.5148   5.5246   5.5434   5.5571
  5.5717   5.5900   5.6088   5.6237   5.6275   5.6897   5.7051   5.7180
  5.7808   5.8241   5.8882   5.9484   6.0048   6.0455   6.1328   6.2259
  6.2287   6.2426   6.2707   6.2923   6.3271   6.4411   6.5032   8.9446
  9.8044  11.6078  11.9337  12.9014  12.9745  13.7475  13.9195  14.2006
 14.3291
 --------------------------------------------------------------
 
          Ground-State Mulliken Net Atomic Charges

     Atom                 Charge (a.u.)
  ----------------------------------------
      1 C                    -0.208130
      2 C                    -0.251891
      3 C                     0.047078
      4 H                     0.184624
      5 C                    -0.048419
      6 S                     0.026524
      7 C                    -0.283815
      8 H                     0.107058
      9 H                     0.109276
     10 H                     0.110822
     11 H                     0.204228
     12 C                     0.005850
     13 C                    -0.256185
     14 C                     0.032445
     15 H                     0.186889
     16 C                    -0.238863
     17 S                     0.025362
     18 C                    -0.270460
     19 H                     0.102902
     20 H                     0.107827
     21 H                     0.108384
     22 H                     0.198493
  ----------------------------------------
  Sum of atomic charges =     0.000000

 -----------------------------------------------------------------
                    Cartesian Multipole Moments
 -----------------------------------------------------------------
    Charge (ESU x 10^10)
                -0.0000
    Dipole Moment (Debye)
         X      -0.9065      Y       0.2579      Z       0.9581
       Tot       1.3439
    Quadrupole Moments (Debye-Ang)
        XX     -86.1677     XY       4.8122     YY     -69.4650
        XZ       2.4570     YZ       1.8573     ZZ     -85.9272
    Octopole Moments (Debye-Ang^2)
       XXX     -48.8744    XXY      32.4328    XYY      -2.5929
       YYY      98.6044    XXZ      -2.6760    XYZ      -8.4446
       YYZ      -2.6719    XZZ     -13.3770    YZZ      58.8127
       ZZZ       2.9729
    Hexadecapole Moments (Debye-Ang^3)
      XXXX    -683.2325   XXXY    -116.4387   XXYY    -554.5328
      XYYY    -127.8673   YYYY   -2533.7697   XXXZ    -110.2236
      XXYZ     -29.5201   XYYZ     -10.0669   YYYZ    -123.1071
      XXZZ    -221.1387   XYZZ     -33.1549   YYZZ    -604.3440
      XZZZ    -118.2994   YZZZ     -98.3312   ZZZZ    -602.0098
 -----------------------------------------------------------------
 Total job time:  50.98s(wall), 1791.16s(cpu) 
 Wed Dec 13 16:19:51 2023

        *************************************************************
        *                                                           *
        *  Thank you very much for using Q-Chem.  Have a nice day.  *
        *                                                           *
        *************************************************************


0 sent ACK to 0 
now end server 0 ... 
cleanup process ... done
remove work dirs ./qchem2798470.0 -- ./qchem2798470.0
rm -rf ./qchem2798470.0
rm -rf ./qchem2798470
