You are running Q-Chem version: 5.4.0

#
# job setting
#
local host:  exp-1-44
current dir: /home/rramji/project-csd799/aromodel/p3ht-qchem/rotation-run
input file:  Methylthiophene_Phi_15_Theta_320_Methylthiophene.qcin
output file: 
nprocs     : 1
nthreads   : 64
#
# qchem installation setting
#
QC:          /cm/shared/apps/spack/cpu/opt/spack/linux-centos8-zen2/gcc-10.2.0/qchem-5.4-akfmr7b3t57bfs6qan3padb2wnb2i7cl
QCAUX:       /cm/shared/apps/spack/cpu/opt/spack/linux-centos8-zen2/gcc-10.2.0/qchem-5.4-akfmr7b3t57bfs6qan3padb2wnb2i7cl/qcaux
QCPROG:      /cm/shared/apps/spack/cpu/opt/spack/linux-centos8-zen2/gcc-10.2.0/qchem-5.4-akfmr7b3t57bfs6qan3padb2wnb2i7cl/exe/qcprog.exe
QCPROG_S:    /cm/shared/apps/spack/cpu/opt/spack/linux-centos8-zen2/gcc-10.2.0/qchem-5.4-akfmr7b3t57bfs6qan3padb2wnb2i7cl/exe/qcprog.exe_s
PARALLEL:    -DPARALLEL
QCMPI:       mpich
#
# qchem directory setting
#
qcrun:       qchem2801013
QCSCRATCH:   .
QCLOCALSCR:  
QCTMPDIR:    .
QCFILEPREF:  ./qchem2801013
QCSAVEDIR:   
workdirs:    ./qchem2801013
workdir0:    ./qchem2801013
partmpdirs =  
#
# parallel setting
#
QCRSH:           ssh
QCMPI:           mpich
QCMPIRUN:        /cm/shared/apps/spack/cpu/opt/spack/linux-centos8-zen2/gcc-10.2.0/qchem-5.4-akfmr7b3t57bfs6qan3padb2wnb2i7cl/bin/mpi/mpirun_qchem
QCMACHINEFILE:   ./qchem2801013/hostfile
exp-1-44

#
# env setting
#
exported envs:   QC QCAUX QCSCRATCH QCRUNNAME QCFILEPREF QCPROG QCPROG_S GUIFILE

Running Job 1 of 1 Methylthiophene_Phi_15_Theta_320_Methylthiophene.qcin
qchem Methylthiophene_Phi_15_Theta_320_Methylthiophene.qcin_2801013.0 ./qchem2801013/ 1
/cm/shared/apps/spack/cpu/opt/spack/linux-centos8-zen2/gcc-10.2.0/qchem-5.4-akfmr7b3t57bfs6qan3padb2wnb2i7cl/bin/mpi/mpirun_qchem -machinefile ./qchem2801013/hostfile -np 1 /cm/shared/apps/spack/cpu/opt/spack/linux-centos8-zen2/gcc-10.2.0/qchem-5.4-akfmr7b3t57bfs6qan3padb2wnb2i7cl/exe/qcprog.exe Methylthiophene_Phi_15_Theta_320_Methylthiophene.qcin_2801013.0 ./qchem2801013/

Process 0 of 1 is on exp-1-44 - thread support 0
initial socket setup ...start
initial socket setup ...done 
now start server 0 ... 
                  Welcome to Q-Chem
     A Quantum Leap Into The Future Of Chemistry


 Q-Chem 5.4, Q-Chem, Inc., Pleasanton, CA (2021)

 License issued to: University of California, San Diego (site)

 E. Epifanovsky,  A. T. B. Gilbert,  Xintian Feng,  Joonho Lee,  Yuezhi Mao,  
 N. Mardirossian,  P. Pokhilko,  A. White,  M. Wormit,  M. P. Coons,  
 A. L. Dempwolff,  Zhengting Gan,  D. Hait,  P. R. Horn,  L. D. Jacobson,  
 I. Kaliman,  J. Kussmann,  A. W. Lange,  Ka Un Lao,  D. S. Levine,  Jie Liu,  
 S. C. McKenzie,  A. F. Morrison,  K. Nanda,  F. Plasser,  D. R. Rehn,  
 M. L. Vidal,  Zhi-Qiang You,  Ying Zhu,  B. Alam,  B. Albrecht,  
 A. Aldossary,  E. Alguire,  J. H. Andersen,  D. Barton,  K. Begam,  A. Behn,  
 Y. A. Bernard,  E. J. Berquist,  H. Burton,  A. Carreras,  K. Carter-Fenk,  
 R. Chakraborty,  A. D. Chien,  K. D. Closser,  V. Cofer-Shabica,  
 S. Dasgupta,  Jia Deng,  M. de Wergifosse,  M. Diedenhofen,  Hainam Do,  
 S. Ehlert,  Po-Tung Fang,  S. Fatehi,  Qingguo Feng,  J. Gayvert,  
 Qinghui Ge,  G. Gidofalvi,  M. Goldey,  J. Gomes,  C. Gonzalez-Espinoza,  
 S. Gulania,  A. Gunina,  M. W. D. Hanson-Heine,  P. H. P. Harbach,  
 A. W. Hauser,  M. F. Herbst,  M. Hernandez Vera,  M. Hodecker,  
 Z. C. Holden,  S. Houck,  Xunkun Huang,  Kerwin Hui,  B. C. Huynh,  
 M. Ivanov,  Hyunjun Ji,  Hanjie Jiang,  B. Kaduk,  S. Kaehler,  
 K. Khistyaev,  Jaehoon Kim,  P. Klunzinger,  Z. Koczor-Benda,  
 Joong Hoon Koh,  D. Kosenkov,  L. Koulias,  T. Kowalczyk,  C. M. Krauter,  
 K. Kue,  A. Kunitsa,  T. Kus,  A. Landau,  K. V. Lawler,  D. Lefrancois,  
 S. Lehtola,  Rain Li,  Yi-Pei Li,  Jiashu Liang,  M. Liebenthal,  
 Hung-Hsuan Lin,  You-Sheng Lin,  Fenglai Liu,  Kuan-Yu Liu,  
 M. Loipersberger,  A. Luenser,  A. Manjanath,  P. Manohar,  E. Mansoor,  
 S. F. Manzer,  Shan-Ping Mao,  A. V. Marenich,  T. Markovich,  S. Mason,  
 S. A. Maurer,  P. F. McLaughlin,  M. F. S. J. Menger,  J.-M. Mewes,  
 S. A. Mewes,  P. Morgante,  J. W. Mullinax,  T. S. Nguyen-Beck,  
 K. J. Oosterbaan,  G. Paran,  Alexander C. Paul,  Suranjan K. Paul,  
 F. Pavosevic,  Zheng Pei,  S. Prager,  E. I. Proynov,  E. Ramos,  B. Rana,  
 A. E. Rask,  A. Rettig,  R. M. Richard,  F. Rob,  E. Rossomme,  T. Scheele,  
 M. Scheurer,  M. Schneider,  N. Sergueev,  S. M. Sharada,  W. Skomorowski,  
 D. W. Small,  C. J. Stein,  Yu-Chuan Su,  E. J. Sundstrom,  Zhen Tao,  
 J. Thirman,  T. Tsuchimochi,  N. M. Tubman,  S. P. Veccham,  O. Vydrov,  
 J. Wenzel,  J. Witte,  A. Yamada,  Kun Yao,  S. Yeganeh,  S. R. Yost,  
 A. Zech,  Igor Ying Zhang,  Xing Zhang,  Yu Zhang,  D. Zuev,  
 A. Aspuru-Guzik,  A. T. Bell,  N. A. Besley,  K. B. Bravaya,  B. R. Brooks,  
 D. Casanova,  Jeng-Da Chai,  S. Coriani,  C. J. Cramer,  
 A. E. DePrince, III,  R. A. DiStasio Jr.,  A. Dreuw,  B. D. Dunietz,  
 T. R. Furlani,  W. A. Goddard III,  S. Grimme,  S. Hammes-Schiffer,  
 T. Head-Gordon,  W. J. Hehre,  Chao-Ping Hsu,  T.-C. Jagau,  Yousung Jung,  
 A. Klamt,  Jing Kong,  D. S. Lambrecht,  WanZhen Liang,  N. J. Mayhall,  
 C. W. McCurdy,  J. B. Neaton,  C. Ochsenfeld,  J. A. Parkhill,  R. Peverati,  
 V. A. Rassolov,  Yihan Shao,  L. V. Slipchenko,  T. Stauch,  R. P. Steele,  
 J. E. Subotnik,  A. J. W. Thom,  A. Tkatchenko,  D. G. Truhlar,  
 T. Van Voorhis,  T. A. Wesolowski,  K. B. Whaley,  H. L. Woodcock III,  
 P. M. Zimmerman,  S. Faraji,  P. M. W. Gill,  M. Head-Gordon,  
 J. M. Herbert,  A. I. Krylov

 Contributors to earlier versions of Q-Chem not listed above: 
 R. D. Adamson,  B. Austin,  R. Baer,  J. Baker,  G. J. O. Beran,  
 K. Brandhorst,  S. T. Brown,  E. F. C. Byrd,  A. K. Chakraborty,  
 G. K. L. Chan,  Chun-Min Chang,  Yunqing Chen,  C.-L. Cheng,  
 Siu Hung Chien,  D. M. Chipman,  D. L. Crittenden,  H. Dachsel,  
 R. J. Doerksen,  A. D. Dutoi,  R. G. Edgar,  J. Fosso-Tande,  
 L. Fusti-Molnar,  D. Ghosh,  A. Ghysels,  A. Golubeva-Zadorozhnaya,  
 J. Gonthier,  M. S. Gordon,  S. R. Gwaltney,  G. Hawkins,  J. E. Herr,  
 A. Heyden,  S. Hirata,  E. G. Hohenstein,  G. Kedziora,  F. J. Keil,  
 C. Kelley,  Jihan Kim,  R. A. King,  R. Z. Khaliullin,  P. P. Korambath,  
 W. Kurlancheek,  A. Laurent,  A. M. Lee,  M. S. Lee,  S. V. Levchenko,  
 Ching Yeh Lin,  D. Liotard,  E. Livshits,  R. C. Lochan,  I. Lotan,  
 L. A. Martinez-Martinez,  P. E. Maslen,  N. Nair,  D. P. O'Neill,  
 D. Neuhauser,  E. Neuscamman,  C. M. Oana,  R. Olivares-Amaya,  R. Olson,  
 T. M. Perrine,  B. Peters,  P. A. Pieniazek,  A. Prociuk,  Y. M. Rhee,  
 J. Ritchie,  M. A. Rohrdanz,  E. Rosta,  N. J. Russ,  H. F. Schaefer III,  
 M. W. Schmidt,  N. E. Schultz,  S. Sharma,  N. Shenvi,  C. D. Sherrill,  
 A. C. Simmonett,  A. Sodt,  T. Stein,  D. Stuck,  K. S. Thanthiriwatte,  
 V. Vanovschi,  L. Vogt,  Tao Wang,  A. Warshel,  M. A. Watson,  
 C. F. Williams,  Q. Wu,  X. Xu,  Jun Yang,  W. Zhang,  Yan Zhao

 Please cite Q-Chem as follows:
 Y. Shao et al., Mol. Phys. 113, 184-215 (2015)
 DOI: 10.1080/00268976.2014.952696

 Q-Chem 5.4.0 for Intel X86 EM64T Linux

 Parts of Q-Chem use Armadillo 9.800.1 (Horizon Scraper).
 http://arma.sourceforge.net/

 Q-Chem begins on Wed Dec 13 16:21:42 2023  

 Host: 
0

     Scratch files written to ./qchem2801013//
 May1621 |scratch|qcdevops|jenkins|workspace|build_RNUM    
 Parallel job on  1  processors
 Processing $rem in /cm/shared/apps/spack/cpu/opt/spack/linux-centos8-zen2/gcc-10.2.0/qchem-5.4-akfmr7b3t57bfs6qan3padb2wnb2i7cl/config/preferences:
 Processing $rem in /home/rramji/.qchemrc:
 Symmetry turned off for PCM/SM12/SMD calculation
 Core orbitals will be frozen

 Checking the input file for inconsistencies... 	...done.

 Q-Chem warning in module forms1/BasisType.C, line 2236:

 You are not using the predefined 5D/6D in this basis set.


--------------------------------------------------------------
User input:
--------------------------------------------------------------
$molecule
0 1
C	0.464838	-3.887800	0.555670
C	-0.425760	-3.701456	-0.505790
C	-0.697866	-2.345170	-0.831053
H	-0.879984	-4.545233	-1.046496
C	-0.000000	-1.450135	-0.000000
S	0.981588	-2.321334	1.170382
C	-1.627381	-1.934439	-1.939074
H	-2.055015	-2.819799	-2.448051
H	-1.107991	-1.326210	-2.708853
H	-2.475210	-1.325374	-1.561590
H	0.839549	-4.815326	1.002886
C	0.000000	0.000000	0.000000
C	0.215623	0.816623	1.113020
C	0.571102	2.161411	0.820578
H	0.116470	0.441406	2.142881
C	0.634696	2.401276	-0.563588
S	0.247646	0.938489	-1.464748
C	0.843182	3.190669	1.882380
H	0.728628	2.757614	2.894974
H	0.148095	4.052998	1.808137
H	1.873652	3.596752	1.808230
H	0.879464	3.327513	-1.097114
$end

$rem
JOBTYPE		SP
EXCHANGE	HF
CORRELATION	pRIMP2
BASIS		cc-pvtz
METHOD		rimp2
AUX_BASIS	rimp2-cc-pvtz
SOLVENT_METHOD	PCM
PURECART	11111
SYMMETRY	false
MEM_TOTAL	110000
SCF_CONVERGENCE = 6
THRESH=10
GUI = 2
$end



$solvent
dielectric 4.90
$end
--------------------------------------------------------------
 ----------------------------------------------------------------
             Standard Nuclear Orientation (Angstroms)
    I     Atom           X                Y                Z
 ----------------------------------------------------------------
    1      C       0.4648380000    -3.8878000000     0.5556700000
    2      C      -0.4257600000    -3.7014560000    -0.5057900000
    3      C      -0.6978660000    -2.3451700000    -0.8310530000
    4      H      -0.8799840000    -4.5452330000    -1.0464960000
    5      C       0.0000000000    -1.4501350000     0.0000000000
    6      S       0.9815880000    -2.3213340000     1.1703820000
    7      C      -1.6273810000    -1.9344390000    -1.9390740000
    8      H      -2.0550150000    -2.8197990000    -2.4480510000
    9      H      -1.1079910000    -1.3262100000    -2.7088530000
   10      H      -2.4752100000    -1.3253740000    -1.5615900000
   11      H       0.8395490000    -4.8153260000     1.0028860000
   12      C       0.0000000000     0.0000000000     0.0000000000
   13      C       0.2156230000     0.8166230000     1.1130200000
   14      C       0.5711020000     2.1614110000     0.8205780000
   15      H       0.1164700000     0.4414060000     2.1428810000
   16      C       0.6346960000     2.4012760000    -0.5635880000
   17      S       0.2476460000     0.9384890000    -1.4647480000
   18      C       0.8431820000     3.1906690000     1.8823800000
   19      H       0.7286280000     2.7576140000     2.8949740000
   20      H       0.1480950000     4.0529980000     1.8081370000
   21      H       1.8736520000     3.5967520000     1.8082300000
   22      H       0.8794640000     3.3275130000    -1.0971140000
 ----------------------------------------------------------------
 Nuclear Repulsion Energy =         835.84015275 hartrees
 There are       51 alpha and       51 beta electrons
 Requested basis set is cc-pVTZ
 There are 184 shells and 508 basis functions

 Total QAlloc Memory Limit 110000 MB
 Mega-Array Size       188 MB
 MEM_STATIC part       192 MB
 Discretize the solute cavity surface with Lebedev spheres
	Using 110 Lebedev grid points for each H atom
	Using 194 Lebedev grid points for other atoms
	Atomic van der Waals radii will be scaled by 1.20
 Remove points where switching function is < 1.0e-08
 Keep 1530 surface tesserae and discard 1898 interior tesserae
 Molecular Surface Area = 232.436 Angst**2
 Requested basis set is rimp2-cc-pVTZ
 There are 394 shells and 1354 basis functions
 A cutoff of  1.0D-10 yielded  12151 shell pairs
 There are     90301 function pairs (    116620 Cartesian)
 Smallest overlap matrix eigenvalue = 6.21E-05

 Scale SEOQF with 1.000000e-01/1.000000e-01/1.000000e-01

 Standard Electronic Orientation quadrupole field applied
 Nucleus-field energy     =     0.0000000261 hartrees
 Guess from superposition of atomic densities
 Warning:  Energy on first SCF cycle will be non-variational
 SAD guess density has 102.000000 electrons

 -----------------------------------------------------------------------
  General SCF calculation program by
  Eric Jon Sundstrom, Paul Horn, Yuezhi Mao, Dmitri Zuev, Alec White,
  David Stuck, Shaama M.S., Shane Yost, Joonho Lee, David Small,
  Daniel Levine, Susi Lehtola, Hugh Burton, Evgeny Epifanovsky,
  Bang C. Huynh
 -----------------------------------------------------------------------
 Hartree-Fock
 using 64 threads for integral computing
 -------------------------------------------------------
 OpenMP Integral computing Module                
 Release: version 1.0, May 2013, Q-Chem Inc. Pittsburgh 
 -------------------------------------------------------
 A restricted SCF calculation will be
 performed using DIIS
 SCF converges when DIIS error is below 1.0e-06
 ---------------------------------------
  Cycle       Energy         DIIS error
 ---------------------------------------
    1   -1184.2068429720      2.38e-02  
    2   -1179.5449359340      1.60e-03  
    3   -1179.6653756309      6.13e-04  
    4   -1179.6789672114      3.32e-04  
    5   -1179.6836152734      6.48e-05  
    6   -1179.6838908294      3.05e-05  
    7   -1179.6839771358      1.25e-05  
    8   -1179.6840051319      5.22e-06  
    9   -1179.6840100705      1.64e-06  
   10   -1179.6840105181      5.31e-07  Convergence criterion met
 ---------------------------------------
 SCF time:   CPU 1523.50s  wall 45.00s 

************** Final PCM Free Energy Summary **************
 G_electrostatic  =      -0.00779954 hartree =      -4.89428734 kcal/mol
 G_cavitation     =       0.00000000 hartree =       0.00000000 kcal/mol
 G_dispersion     =       0.00000000 hartree =       0.00000000 kcal/mol
 G_repulsion      =       0.00000000 hartree =       0.00000000 kcal/mol
 --------------------------------------------------
 Non-electrostatic Free Energy =       0.00000000 hartree =       0.00000000 kcal/mol
 Total                         =      -0.00779954 hartree =      -4.89428734 kcal/mol
 --------------------------------------------------
 SCF Energy (H0 + V/2)                       =   -1179.68401052 
 Solute Internal Energy (H0)                 =   -1179.67621097 
 Total Free Energy (H0 + V/2 + non-elec)     =   -1179.68401052 hartree
                                             = -740262.88938740 kcal/mol
***********************************************************

 SCF   energy in the final basis set =    -1179.6840105181
 Total energy in the final basis set =    -1179.6840105181


 --------------------------------------------------------------
  Generalized many-body perturbation theory program
  by Joonho Lee, Fazle Rob, Xintian Feng, Evgeny Epifanovsky

 No regularization used 
 (reg. param. = 0.0000e+00)
  (P|Q)^-1/2 Time:  CPU 21.79 s  wall 0.35 s

 In RI-MP2 calculation: 
 # of frozen core orbitals: 20

 Components of the RIMP2 correlation energy:
        aaaa    correlation energy =        -0.2526604667 a.u.
        abab    correlation energy =        -1.4740897776 a.u.
        bbbb    correlation energy =        -0.2526604667 a.u.
        non-Brillouin singles      =        -0.0000000000 a.u.
        total same-spin energy     =        -0.5053209334 a.u.
        total opposite-spin energy =        -1.4740897776 a.u.

 Total  RIMP2   correlation energy =        -1.9794107110 a.u.
        RIMP2         total energy =     -1181.6634212291 a.u.

 RI-MP2 Energy Time:  CPU 162.78 s  wall 3.04 s
 
 --------------------------------------------------------------
 
                    Orbital Energies (a.u.)
 --------------------------------------------------------------
 
 Alpha MOs
 -- Occupied --
-91.9863 -91.9855 -11.2810 -11.2759 -11.2721 -11.2656 -11.2520 -11.2518
-11.2428 -11.2414 -11.2297 -11.2292  -8.9858  -8.9851  -6.6667  -6.6661
 -6.6660  -6.6655  -6.6655  -6.6648  -1.1798  -1.1499  -1.0405  -1.0239
 -0.9985  -0.9524  -0.9146  -0.8936  -0.7996  -0.7616  -0.7230  -0.6940
 -0.6625  -0.6166  -0.5833  -0.5785  -0.5760  -0.5698  -0.5519  -0.5334
 -0.5255  -0.5192  -0.5083  -0.4963  -0.4881  -0.4680  -0.4570  -0.3554
 -0.3426  -0.3409  -0.2780
 -- Virtual --
  0.0682   0.1260   0.1431   0.1507   0.1613   0.1736   0.1799   0.1874
  0.1908   0.1973   0.2046   0.2233   0.2300   0.2381   0.2408   0.2464
  0.2615   0.2728   0.2994   0.3148   0.3375   0.3513   0.3590   0.3745
  0.3769   0.3850   0.3949   0.4042   0.4117   0.4227   0.4284   0.4436
  0.4506   0.4640   0.4673   0.4726   0.4792   0.4868   0.4990   0.5018
  0.5124   0.5225   0.5302   0.5421   0.5425   0.5442   0.5526   0.5664
  0.5693   0.5765   0.5863   0.6022   0.6051   0.6128   0.6188   0.6213
  0.6227   0.6314   0.6386   0.6431   0.6483   0.6501   0.6578   0.6651
  0.6789   0.6951   0.6974   0.7091   0.7224   0.7234   0.7306   0.7513
  0.7792   0.7895   0.7993   0.8084   0.8134   0.8209   0.8412   0.8460
  0.8623   0.8645   0.8733   0.8822   0.8989   0.9101   0.9326   0.9411
  0.9517   0.9631   0.9732   0.9899   1.0097   1.0222   1.0246   1.0374
  1.0435   1.0562   1.0644   1.0677   1.0737   1.0882   1.0947   1.0996
  1.1136   1.1148   1.1326   1.1424   1.1461   1.1632   1.1793   1.1826
  1.2070   1.2169   1.2263   1.2341   1.2408   1.2537   1.2628   1.2671
  1.2893   1.2918   1.3045   1.3127   1.3318   1.3404   1.3491   1.3669
  1.3729   1.3852   1.4072   1.4184   1.4281   1.4294   1.4529   1.4674
  1.4787   1.4907   1.5004   1.5078   1.5102   1.5334   1.5361   1.5451
  1.5514   1.5572   1.5663   1.5763   1.5834   1.5937   1.6116   1.6232
  1.6507   1.6573   1.6667   1.6807   1.6913   1.7095   1.7150   1.7326
  1.7450   1.7541   1.7723   1.7899   1.7964   1.8040   1.8276   1.8390
  1.8832   1.9031   1.9115   1.9210   1.9527   1.9612   1.9740   1.9883
  1.9958   2.0407   2.0460   2.0694   2.1303   2.1369   2.1412   2.1738
  2.1827   2.1957   2.2054   2.2345   2.2498   2.2573   2.2636   2.2752
  2.2878   2.2988   2.3196   2.3701   2.3989   2.4198   2.4307   2.4547
  2.4739   2.4935   2.5036   2.5263   2.5440   2.5690   2.5974   2.6111
  2.6283   2.6440   2.6474   2.6606   2.6741   2.6995   2.7098   2.7275
  2.7316   2.7438   2.7511   2.7553   2.7692   2.7706   2.7823   2.7903
  2.8250   2.8345   2.8465   2.8692   2.8725   2.8905   2.9055   2.9308
  2.9490   2.9650   2.9768   2.9884   2.9958   3.0101   3.0255   3.0386
  3.0537   3.0720   3.0877   3.1036   3.1108   3.1184   3.1256   3.1361
  3.1452   3.1504   3.1531   3.1710   3.1759   3.1961   3.2041   3.2198
  3.2391   3.2579   3.2638   3.2724   3.2788   3.2873   3.2971   3.3097
  3.3152   3.3227   3.3284   3.3412   3.3577   3.3588   3.3617   3.3781
  3.3820   3.3899   3.3993   3.4038   3.4160   3.4226   3.4334   3.4433
  3.4516   3.4577   3.4705   3.4801   3.4941   3.5007   3.5141   3.5195
  3.5235   3.5271   3.5377   3.5460   3.5576   3.5597   3.5775   3.5884
  3.6049   3.6108   3.6252   3.6328   3.6409   3.6527   3.6598   3.6688
  3.6777   3.6948   3.7021   3.7129   3.7250   3.7392   3.7463   3.7515
  3.7652   3.7730   3.7814   3.7891   3.7992   3.8109   3.8184   3.8384
  3.8563   3.8657   3.8839   3.9002   3.9186   3.9237   3.9442   3.9554
  3.9711   3.9822   3.9868   4.0006   4.0045   4.0179   4.0253   4.0474
  4.0616   4.0748   4.0845   4.1056   4.1218   4.1271   4.1450   4.1497
  4.1734   4.1814   4.1895   4.1949   4.1994   4.2120   4.2193   4.2361
  4.2551   4.2599   4.2817   4.2882   4.2930   4.3035   4.3255   4.3313
  4.3509   4.3577   4.3650   4.3772   4.3932   4.4014   4.4079   4.4245
  4.4300   4.4482   4.4688   4.4754   4.4852   4.5250   4.5454   4.5555
  4.5901   4.6013   4.6163   4.6249   4.6322   4.6479   4.6613   4.6908
  4.6966   4.7284   4.7355   4.7498   4.7573   4.7851   4.8204   4.8404
  4.8517   4.8729   4.8935   4.9261   4.9320   4.9447   4.9873   5.0552
  5.0772   5.0961   5.1097   5.1577   5.1733   5.1818   5.2040   5.2294
  5.2732   5.2795   5.2841   5.3076   5.3196   5.3699   5.3940   5.4054
  5.4106   5.4426   5.4630   5.4651   5.5164   5.5294   5.5451   5.5591
  5.5680   5.5732   5.6134   5.6239   5.6267   5.6969   5.7075   5.7218
  5.7897   5.8322   5.8902   5.9834   6.0198   6.0752   6.1449   6.2265
  6.2327   6.2449   6.2769   6.3032   6.3278   6.4566   6.5143   8.9118
  9.8410  11.5016  11.9582  12.9230  13.0693  13.7539  13.9261  14.2068
 14.3962
 --------------------------------------------------------------
 
          Ground-State Mulliken Net Atomic Charges

     Atom                 Charge (a.u.)
  ----------------------------------------
      1 C                    -0.212971
      2 C                    -0.249178
      3 C                     0.034938
      4 H                     0.185125
      5 C                    -0.023686
      6 S                     0.021159
      7 C                    -0.299825
      8 H                     0.110806
      9 H                     0.111854
     10 H                     0.115080
     11 H                     0.204823
     12 C                     0.037802
     13 C                    -0.295183
     14 C                     0.045664
     15 H                     0.185958
     16 C                    -0.249839
     17 S                     0.029826
     18 C                    -0.270827
     19 H                     0.103141
     20 H                     0.108100
     21 H                     0.108988
     22 H                     0.198245
  ----------------------------------------
  Sum of atomic charges =     0.000000

 -----------------------------------------------------------------
                    Cartesian Multipole Moments
 -----------------------------------------------------------------
    Charge (ESU x 10^10)
                -0.0000
    Dipole Moment (Debye)
         X      -0.4809      Y       0.2200      Z       0.2976
       Tot       0.6068
    Quadrupole Moments (Debye-Ang)
        XX     -89.2708     XY       4.2040     YY     -69.3725
        XZ       3.6430     YZ       2.8386     ZZ     -82.7163
    Octopole Moments (Debye-Ang^2)
       XXX     -49.9031    XXY      43.8241    XYY      -4.4863
       YYY      98.2018    XXZ      -1.3954    XYZ     -12.7224
       YYZ      -0.1324    XZZ     -15.2633    YZZ      47.2365
       ZZZ       5.2928
    Hexadecapole Moments (Debye-Ang^3)
      XXXX    -427.7527   XXXY    -121.6988   XXYY    -557.9565
      XYYY    -115.9502   YYYY   -2531.0911   XXXZ    -161.6297
      XXYZ     -29.3852   XYYZ      -7.9829   YYYZ    -136.8763
      XXZZ    -216.8186   XYZZ     -30.1148   YYZZ    -599.7106
      XZZZ    -160.2433   YZZZ     -94.4290   ZZZZ    -863.0915
 -----------------------------------------------------------------
 Total job time:  51.51s(wall), 1772.87s(cpu) 
 Wed Dec 13 16:22:34 2023

        *************************************************************
        *                                                           *
        *  Thank you very much for using Q-Chem.  Have a nice day.  *
        *                                                           *
        *************************************************************


0 sent ACK to 0 
now end server 0 ... 
cleanup process ... done
remove work dirs ./qchem2801013.0 -- ./qchem2801013.0
rm -rf ./qchem2801013.0
rm -rf ./qchem2801013
