You are running Q-Chem version: 5.4.0

#
# job setting
#
local host:  exp-1-10
current dir: /home/rramji/project-csd799/aromodel/p3ht-qchem/rotation-run
input file:  Methylthiophene_Phi_0_Theta_260_Methylthiophene.qcin
output file: 
nprocs     : 1
nthreads   : 64
#
# qchem installation setting
#
QC:          /cm/shared/apps/spack/cpu/opt/spack/linux-centos8-zen2/gcc-10.2.0/qchem-5.4-akfmr7b3t57bfs6qan3padb2wnb2i7cl
QCAUX:       /cm/shared/apps/spack/cpu/opt/spack/linux-centos8-zen2/gcc-10.2.0/qchem-5.4-akfmr7b3t57bfs6qan3padb2wnb2i7cl/qcaux
QCPROG:      /cm/shared/apps/spack/cpu/opt/spack/linux-centos8-zen2/gcc-10.2.0/qchem-5.4-akfmr7b3t57bfs6qan3padb2wnb2i7cl/exe/qcprog.exe
QCPROG_S:    /cm/shared/apps/spack/cpu/opt/spack/linux-centos8-zen2/gcc-10.2.0/qchem-5.4-akfmr7b3t57bfs6qan3padb2wnb2i7cl/exe/qcprog.exe_s
PARALLEL:    -DPARALLEL
QCMPI:       mpich
#
# qchem directory setting
#
qcrun:       qchem1470666
QCSCRATCH:   .
QCLOCALSCR:  
QCTMPDIR:    .
QCFILEPREF:  ./qchem1470666
QCSAVEDIR:   
workdirs:    ./qchem1470666
workdir0:    ./qchem1470666
partmpdirs =  
#
# parallel setting
#
QCRSH:           ssh
QCMPI:           mpich
QCMPIRUN:        /cm/shared/apps/spack/cpu/opt/spack/linux-centos8-zen2/gcc-10.2.0/qchem-5.4-akfmr7b3t57bfs6qan3padb2wnb2i7cl/bin/mpi/mpirun_qchem
QCMACHINEFILE:   ./qchem1470666/hostfile
exp-1-10

#
# env setting
#
exported envs:   QC QCAUX QCSCRATCH QCRUNNAME QCFILEPREF QCPROG QCPROG_S GUIFILE

Running Job 1 of 1 Methylthiophene_Phi_0_Theta_260_Methylthiophene.qcin
qchem Methylthiophene_Phi_0_Theta_260_Methylthiophene.qcin_1470666.0 ./qchem1470666/ 1
/cm/shared/apps/spack/cpu/opt/spack/linux-centos8-zen2/gcc-10.2.0/qchem-5.4-akfmr7b3t57bfs6qan3padb2wnb2i7cl/bin/mpi/mpirun_qchem -machinefile ./qchem1470666/hostfile -np 1 /cm/shared/apps/spack/cpu/opt/spack/linux-centos8-zen2/gcc-10.2.0/qchem-5.4-akfmr7b3t57bfs6qan3padb2wnb2i7cl/exe/qcprog.exe Methylthiophene_Phi_0_Theta_260_Methylthiophene.qcin_1470666.0 ./qchem1470666/

Process 0 of 1 is on exp-1-10 - thread support 0
initial socket setup ...start
initial socket setup ...done 
now start server 0 ... 
                  Welcome to Q-Chem
     A Quantum Leap Into The Future Of Chemistry


 Q-Chem 5.4, Q-Chem, Inc., Pleasanton, CA (2021)

 License issued to: University of California, San Diego (site)

 E. Epifanovsky,  A. T. B. Gilbert,  Xintian Feng,  Joonho Lee,  Yuezhi Mao,  
 N. Mardirossian,  P. Pokhilko,  A. White,  M. Wormit,  M. P. Coons,  
 A. L. Dempwolff,  Zhengting Gan,  D. Hait,  P. R. Horn,  L. D. Jacobson,  
 I. Kaliman,  J. Kussmann,  A. W. Lange,  Ka Un Lao,  D. S. Levine,  Jie Liu,  
 S. C. McKenzie,  A. F. Morrison,  K. Nanda,  F. Plasser,  D. R. Rehn,  
 M. L. Vidal,  Zhi-Qiang You,  Ying Zhu,  B. Alam,  B. Albrecht,  
 A. Aldossary,  E. Alguire,  J. H. Andersen,  D. Barton,  K. Begam,  A. Behn,  
 Y. A. Bernard,  E. J. Berquist,  H. Burton,  A. Carreras,  K. Carter-Fenk,  
 R. Chakraborty,  A. D. Chien,  K. D. Closser,  V. Cofer-Shabica,  
 S. Dasgupta,  Jia Deng,  M. de Wergifosse,  M. Diedenhofen,  Hainam Do,  
 S. Ehlert,  Po-Tung Fang,  S. Fatehi,  Qingguo Feng,  J. Gayvert,  
 Qinghui Ge,  G. Gidofalvi,  M. Goldey,  J. Gomes,  C. Gonzalez-Espinoza,  
 S. Gulania,  A. Gunina,  M. W. D. Hanson-Heine,  P. H. P. Harbach,  
 A. W. Hauser,  M. F. Herbst,  M. Hernandez Vera,  M. Hodecker,  
 Z. C. Holden,  S. Houck,  Xunkun Huang,  Kerwin Hui,  B. C. Huynh,  
 M. Ivanov,  Hyunjun Ji,  Hanjie Jiang,  B. Kaduk,  S. Kaehler,  
 K. Khistyaev,  Jaehoon Kim,  P. Klunzinger,  Z. Koczor-Benda,  
 Joong Hoon Koh,  D. Kosenkov,  L. Koulias,  T. Kowalczyk,  C. M. Krauter,  
 K. Kue,  A. Kunitsa,  T. Kus,  A. Landau,  K. V. Lawler,  D. Lefrancois,  
 S. Lehtola,  Rain Li,  Yi-Pei Li,  Jiashu Liang,  M. Liebenthal,  
 Hung-Hsuan Lin,  You-Sheng Lin,  Fenglai Liu,  Kuan-Yu Liu,  
 M. Loipersberger,  A. Luenser,  A. Manjanath,  P. Manohar,  E. Mansoor,  
 S. F. Manzer,  Shan-Ping Mao,  A. V. Marenich,  T. Markovich,  S. Mason,  
 S. A. Maurer,  P. F. McLaughlin,  M. F. S. J. Menger,  J.-M. Mewes,  
 S. A. Mewes,  P. Morgante,  J. W. Mullinax,  T. S. Nguyen-Beck,  
 K. J. Oosterbaan,  G. Paran,  Alexander C. Paul,  Suranjan K. Paul,  
 F. Pavosevic,  Zheng Pei,  S. Prager,  E. I. Proynov,  E. Ramos,  B. Rana,  
 A. E. Rask,  A. Rettig,  R. M. Richard,  F. Rob,  E. Rossomme,  T. Scheele,  
 M. Scheurer,  M. Schneider,  N. Sergueev,  S. M. Sharada,  W. Skomorowski,  
 D. W. Small,  C. J. Stein,  Yu-Chuan Su,  E. J. Sundstrom,  Zhen Tao,  
 J. Thirman,  T. Tsuchimochi,  N. M. Tubman,  S. P. Veccham,  O. Vydrov,  
 J. Wenzel,  J. Witte,  A. Yamada,  Kun Yao,  S. Yeganeh,  S. R. Yost,  
 A. Zech,  Igor Ying Zhang,  Xing Zhang,  Yu Zhang,  D. Zuev,  
 A. Aspuru-Guzik,  A. T. Bell,  N. A. Besley,  K. B. Bravaya,  B. R. Brooks,  
 D. Casanova,  Jeng-Da Chai,  S. Coriani,  C. J. Cramer,  
 A. E. DePrince, III,  R. A. DiStasio Jr.,  A. Dreuw,  B. D. Dunietz,  
 T. R. Furlani,  W. A. Goddard III,  S. Grimme,  S. Hammes-Schiffer,  
 T. Head-Gordon,  W. J. Hehre,  Chao-Ping Hsu,  T.-C. Jagau,  Yousung Jung,  
 A. Klamt,  Jing Kong,  D. S. Lambrecht,  WanZhen Liang,  N. J. Mayhall,  
 C. W. McCurdy,  J. B. Neaton,  C. Ochsenfeld,  J. A. Parkhill,  R. Peverati,  
 V. A. Rassolov,  Yihan Shao,  L. V. Slipchenko,  T. Stauch,  R. P. Steele,  
 J. E. Subotnik,  A. J. W. Thom,  A. Tkatchenko,  D. G. Truhlar,  
 T. Van Voorhis,  T. A. Wesolowski,  K. B. Whaley,  H. L. Woodcock III,  
 P. M. Zimmerman,  S. Faraji,  P. M. W. Gill,  M. Head-Gordon,  
 J. M. Herbert,  A. I. Krylov

 Contributors to earlier versions of Q-Chem not listed above: 
 R. D. Adamson,  B. Austin,  R. Baer,  J. Baker,  G. J. O. Beran,  
 K. Brandhorst,  S. T. Brown,  E. F. C. Byrd,  A. K. Chakraborty,  
 G. K. L. Chan,  Chun-Min Chang,  Yunqing Chen,  C.-L. Cheng,  
 Siu Hung Chien,  D. M. Chipman,  D. L. Crittenden,  H. Dachsel,  
 R. J. Doerksen,  A. D. Dutoi,  R. G. Edgar,  J. Fosso-Tande,  
 L. Fusti-Molnar,  D. Ghosh,  A. Ghysels,  A. Golubeva-Zadorozhnaya,  
 J. Gonthier,  M. S. Gordon,  S. R. Gwaltney,  G. Hawkins,  J. E. Herr,  
 A. Heyden,  S. Hirata,  E. G. Hohenstein,  G. Kedziora,  F. J. Keil,  
 C. Kelley,  Jihan Kim,  R. A. King,  R. Z. Khaliullin,  P. P. Korambath,  
 W. Kurlancheek,  A. Laurent,  A. M. Lee,  M. S. Lee,  S. V. Levchenko,  
 Ching Yeh Lin,  D. Liotard,  E. Livshits,  R. C. Lochan,  I. Lotan,  
 L. A. Martinez-Martinez,  P. E. Maslen,  N. Nair,  D. P. O'Neill,  
 D. Neuhauser,  E. Neuscamman,  C. M. Oana,  R. Olivares-Amaya,  R. Olson,  
 T. M. Perrine,  B. Peters,  P. A. Pieniazek,  A. Prociuk,  Y. M. Rhee,  
 J. Ritchie,  M. A. Rohrdanz,  E. Rosta,  N. J. Russ,  H. F. Schaefer III,  
 M. W. Schmidt,  N. E. Schultz,  S. Sharma,  N. Shenvi,  C. D. Sherrill,  
 A. C. Simmonett,  A. Sodt,  T. Stein,  D. Stuck,  K. S. Thanthiriwatte,  
 V. Vanovschi,  L. Vogt,  Tao Wang,  A. Warshel,  M. A. Watson,  
 C. F. Williams,  Q. Wu,  X. Xu,  Jun Yang,  W. Zhang,  Yan Zhao

 Please cite Q-Chem as follows:
 Y. Shao et al., Mol. Phys. 113, 184-215 (2015)
 DOI: 10.1080/00268976.2014.952696

 Q-Chem 5.4.0 for Intel X86 EM64T Linux

 Parts of Q-Chem use Armadillo 9.800.1 (Horizon Scraper).
 http://arma.sourceforge.net/

 Q-Chem begins on Wed Dec 13 16:15:13 2023  

 Host: 
0

     Scratch files written to ./qchem1470666//
 May1621 |scratch|qcdevops|jenkins|workspace|build_RNUM    
 Parallel job on  1  processors
 Processing $rem in /cm/shared/apps/spack/cpu/opt/spack/linux-centos8-zen2/gcc-10.2.0/qchem-5.4-akfmr7b3t57bfs6qan3padb2wnb2i7cl/config/preferences:
 Processing $rem in /home/rramji/.qchemrc:
 Symmetry turned off for PCM/SM12/SMD calculation
 Core orbitals will be frozen

 Checking the input file for inconsistencies... 	...done.

 Q-Chem warning in module forms1/BasisType.C, line 2236:

 You are not using the predefined 5D/6D in this basis set.


--------------------------------------------------------------
User input:
--------------------------------------------------------------
$molecule
0 1
C	0.713644	-3.887800	-0.124726
C	-0.650907	-3.701456	0.115824
C	-1.068646	-2.345170	0.188844
H	-1.346284	-4.545233	0.238841
C	0.000000	-1.450135	0.000000
S	1.504375	-2.321334	-0.264890
C	-2.492978	-1.934439	0.439816
H	-3.147582	-2.819799	0.555669
H	-2.899931	-1.326210	-0.394879
H	-2.589982	-1.325374	1.362799
H	1.288299	-4.815326	-0.225628
C	0.000000	0.000000	0.000000
C	-0.003081	0.844605	1.113020
C	-0.007772	2.235575	0.820578
H	-0.001743	0.456510	2.142881
C	-0.008427	2.483726	-0.563588
S	-0.003691	0.970607	-1.464748
C	-0.011355	3.300181	1.882380
H	-0.009922	2.852233	2.894974
H	-0.905944	3.953225	1.808137
H	0.878901	3.959133	1.808230
H	-0.011727	3.441752	-1.097114
$end

$rem
JOBTYPE		SP
EXCHANGE	HF
CORRELATION	pRIMP2
BASIS		cc-pvtz
METHOD		rimp2
AUX_BASIS	rimp2-cc-pvtz
SOLVENT_METHOD	PCM
PURECART	11111
SYMMETRY	false
MEM_TOTAL	110000
SCF_CONVERGENCE = 6
THRESH=10
GUI = 2
$end



$solvent
dielectric 4.90
$end
--------------------------------------------------------------
 ----------------------------------------------------------------
             Standard Nuclear Orientation (Angstroms)
    I     Atom           X                Y                Z
 ----------------------------------------------------------------
    1      C       0.7136440000    -3.8878000000    -0.1247260000
    2      C      -0.6509070000    -3.7014560000     0.1158240000
    3      C      -1.0686460000    -2.3451700000     0.1888440000
    4      H      -1.3462840000    -4.5452330000     0.2388410000
    5      C       0.0000000000    -1.4501350000     0.0000000000
    6      S       1.5043750000    -2.3213340000    -0.2648900000
    7      C      -2.4929780000    -1.9344390000     0.4398160000
    8      H      -3.1475820000    -2.8197990000     0.5556690000
    9      H      -2.8999310000    -1.3262100000    -0.3948790000
   10      H      -2.5899820000    -1.3253740000     1.3627990000
   11      H       1.2882990000    -4.8153260000    -0.2256280000
   12      C       0.0000000000     0.0000000000     0.0000000000
   13      C      -0.0030810000     0.8446050000     1.1130200000
   14      C      -0.0077720000     2.2355750000     0.8205780000
   15      H      -0.0017430000     0.4565100000     2.1428810000
   16      C      -0.0084270000     2.4837260000    -0.5635880000
   17      S      -0.0036910000     0.9706070000    -1.4647480000
   18      C      -0.0113550000     3.3001810000     1.8823800000
   19      H      -0.0099220000     2.8522330000     2.8949740000
   20      H      -0.9059440000     3.9532250000     1.8081370000
   21      H       0.8789010000     3.9591330000     1.8082300000
   22      H      -0.0117270000     3.4417520000    -1.0971140000
 ----------------------------------------------------------------
 Nuclear Repulsion Energy =         831.86163917 hartrees
 There are       51 alpha and       51 beta electrons
 Requested basis set is cc-pVTZ
 There are 184 shells and 508 basis functions

 Total QAlloc Memory Limit 110000 MB
 Mega-Array Size       188 MB
 MEM_STATIC part       192 MB
 Discretize the solute cavity surface with Lebedev spheres
	Using 110 Lebedev grid points for each H atom
	Using 194 Lebedev grid points for other atoms
	Atomic van der Waals radii will be scaled by 1.20
 Remove points where switching function is < 1.0e-08
 Keep 1580 surface tesserae and discard 1848 interior tesserae
 Molecular Surface Area = 239.162 Angst**2
 Requested basis set is rimp2-cc-pVTZ
 There are 394 shells and 1354 basis functions
 A cutoff of  1.0D-10 yielded  12206 shell pairs
 There are     90650 function pairs (    117142 Cartesian)
 Smallest overlap matrix eigenvalue = 6.97E-05

 Scale SEOQF with 1.000000e-01/1.000000e-01/1.000000e-01

 Standard Electronic Orientation quadrupole field applied
 Nucleus-field energy     =     0.0000000358 hartrees
 Guess from superposition of atomic densities
 Warning:  Energy on first SCF cycle will be non-variational
 SAD guess density has 102.000000 electrons

 -----------------------------------------------------------------------
  General SCF calculation program by
  Eric Jon Sundstrom, Paul Horn, Yuezhi Mao, Dmitri Zuev, Alec White,
  David Stuck, Shaama M.S., Shane Yost, Joonho Lee, David Small,
  Daniel Levine, Susi Lehtola, Hugh Burton, Evgeny Epifanovsky,
  Bang C. Huynh
 -----------------------------------------------------------------------
 Hartree-Fock
 using 64 threads for integral computing
 -------------------------------------------------------
 OpenMP Integral computing Module                
 Release: version 1.0, May 2013, Q-Chem Inc. Pittsburgh 
 -------------------------------------------------------
 A restricted SCF calculation will be
 performed using DIIS
 SCF converges when DIIS error is below 1.0e-06
 ---------------------------------------
  Cycle       Energy         DIIS error
 ---------------------------------------
    1   -1184.1799173510      2.38e-02  
    2   -1179.5477447610      1.60e-03  
    3   -1179.6671291850      6.17e-04  
    4   -1179.6806512261      3.42e-04  
    5   -1179.6855318540      6.75e-05  
    6   -1179.6858130520      3.05e-05  
    7   -1179.6858993111      1.26e-05  
    8   -1179.6859267318      5.31e-06  
    9   -1179.6859315631      1.65e-06  
   10   -1179.6859319932      5.13e-07  Convergence criterion met
 ---------------------------------------
 SCF time:   CPU 1503.42s  wall 46.00s 

************** Final PCM Free Energy Summary **************
 G_electrostatic  =      -0.00781571 hartree =      -4.90443433 kcal/mol
 G_cavitation     =       0.00000000 hartree =       0.00000000 kcal/mol
 G_dispersion     =       0.00000000 hartree =       0.00000000 kcal/mol
 G_repulsion      =       0.00000000 hartree =       0.00000000 kcal/mol
 --------------------------------------------------
 Non-electrostatic Free Energy =       0.00000000 hartree =       0.00000000 kcal/mol
 Total                         =      -0.00781571 hartree =      -4.90443433 kcal/mol
 --------------------------------------------------
 SCF Energy (H0 + V/2)                       =   -1179.68593199 
 Solute Internal Energy (H0)                 =   -1179.67811628 
 Total Free Energy (H0 + V/2 + non-elec)     =   -1179.68593199 hartree
                                             = -740264.09513120 kcal/mol
***********************************************************

 SCF   energy in the final basis set =    -1179.6859319932
 Total energy in the final basis set =    -1179.6859319932


 --------------------------------------------------------------
  Generalized many-body perturbation theory program
  by Joonho Lee, Fazle Rob, Xintian Feng, Evgeny Epifanovsky

 No regularization used 
 (reg. param. = 0.0000e+00)
  (P|Q)^-1/2 Time:  CPU 306.69 s  wall 4.92 s

 In RI-MP2 calculation: 
 # of frozen core orbitals: 20

 Components of the RIMP2 correlation energy:
        aaaa    correlation energy =        -0.2520798475 a.u.
        abab    correlation energy =        -1.4733668123 a.u.
        bbbb    correlation energy =        -0.2520798475 a.u.
        non-Brillouin singles      =        -0.0000000000 a.u.
        total same-spin energy     =        -0.5041596949 a.u.
        total opposite-spin energy =        -1.4733668123 a.u.

 Total  RIMP2   correlation energy =        -1.9775265073 a.u.
        RIMP2         total energy =     -1181.6634585005 a.u.

 RI-MP2 Energy Time:  CPU 448.43 s  wall 8.24 s
 
 --------------------------------------------------------------
 
                    Orbital Energies (a.u.)
 --------------------------------------------------------------
 
 Alpha MOs
 -- Occupied --
-91.9857 -91.9851 -11.2791 -11.2735 -11.2730 -11.2650 -11.2540 -11.2509
-11.2422 -11.2415 -11.2292 -11.2291  -8.9851  -8.9847  -6.6660  -6.6656
 -6.6655  -6.6650  -6.6648  -6.6644  -1.1777  -1.1496  -1.0391  -1.0230
 -0.9965  -0.9543  -0.9130  -0.8926  -0.8001  -0.7528  -0.7305  -0.6951
 -0.6621  -0.6164  -0.5826  -0.5794  -0.5704  -0.5684  -0.5516  -0.5305
 -0.5299  -0.5198  -0.5071  -0.4920  -0.4889  -0.4648  -0.4627  -0.3463
 -0.3382  -0.3211  -0.3044
 -- Virtual --
  0.0910   0.1028   0.1416   0.1488   0.1624   0.1758   0.1768   0.1882
  0.1888   0.1943   0.2008   0.2172   0.2307   0.2340   0.2418   0.2470
  0.2503   0.2697   0.2892   0.3025   0.3376   0.3503   0.3551   0.3629
  0.3770   0.3832   0.3919   0.3939   0.4063   0.4110   0.4205   0.4351
  0.4434   0.4560   0.4647   0.4699   0.4733   0.4819   0.4918   0.5019
  0.5118   0.5129   0.5245   0.5368   0.5438   0.5514   0.5608   0.5658
  0.5744   0.5866   0.5903   0.5965   0.6017   0.6082   0.6110   0.6191
  0.6273   0.6320   0.6325   0.6447   0.6479   0.6514   0.6551   0.6613
  0.6709   0.6767   0.6892   0.7128   0.7175   0.7275   0.7415   0.7505
  0.7649   0.7783   0.7911   0.8041   0.8193   0.8319   0.8322   0.8390
  0.8497   0.8522   0.8702   0.8908   0.8993   0.9287   0.9402   0.9438
  0.9480   0.9549   0.9688   0.9926   1.0032   1.0127   1.0204   1.0246
  1.0396   1.0466   1.0618   1.0665   1.0757   1.0845   1.0885   1.0965
  1.1061   1.1147   1.1277   1.1469   1.1585   1.1769   1.1819   1.1952
  1.1973   1.2129   1.2233   1.2260   1.2498   1.2544   1.2563   1.2672
  1.2807   1.2890   1.3014   1.3227   1.3259   1.3458   1.3512   1.3645
  1.3739   1.3843   1.3990   1.4149   1.4202   1.4313   1.4508   1.4705
  1.4756   1.4831   1.4996   1.5048   1.5119   1.5338   1.5369   1.5543
  1.5558   1.5642   1.5701   1.5817   1.5919   1.6033   1.6063   1.6314
  1.6487   1.6553   1.6805   1.6875   1.6915   1.7049   1.7206   1.7249
  1.7527   1.7596   1.7676   1.7805   1.8013   1.8080   1.8239   1.8579
  1.8777   1.8933   1.8955   1.9190   1.9339   1.9448   1.9556   1.9859
  2.0247   2.0424   2.0535   2.1029   2.1244   2.1321   2.1540   2.1745
  2.1914   2.1964   2.1989   2.2111   2.2298   2.2429   2.2677   2.2803
  2.2989   2.3149   2.3284   2.3973   2.4045   2.4120   2.4331   2.4475
  2.4700   2.4906   2.5105   2.5270   2.5503   2.5607   2.5790   2.6044
  2.6092   2.6215   2.6432   2.6580   2.6723   2.6853   2.7087   2.7254
  2.7313   2.7425   2.7499   2.7579   2.7616   2.7680   2.7957   2.7985
  2.8269   2.8438   2.8526   2.8674   2.8781   2.8841   2.9078   2.9234
  2.9262   2.9650   2.9734   2.9881   2.9963   3.0144   3.0242   3.0363
  3.0545   3.0782   3.0973   3.1104   3.1170   3.1290   3.1339   3.1397
  3.1487   3.1571   3.1666   3.1687   3.1855   3.2070   3.2164   3.2298
  3.2352   3.2453   3.2534   3.2733   3.2803   3.2938   3.3002   3.3050
  3.3301   3.3328   3.3354   3.3442   3.3466   3.3582   3.3667   3.3781
  3.3816   3.3834   3.3917   3.4037   3.4238   3.4296   3.4326   3.4373
  3.4508   3.4618   3.4699   3.4793   3.4959   3.5053   3.5125   3.5224
  3.5304   3.5342   3.5429   3.5492   3.5567   3.5687   3.5841   3.5962
  3.6095   3.6141   3.6206   3.6267   3.6333   3.6400   3.6452   3.6630
  3.6709   3.6855   3.6966   3.7046   3.7142   3.7170   3.7354   3.7513
  3.7602   3.7771   3.7852   3.8000   3.8041   3.8178   3.8329   3.8450
  3.8598   3.8678   3.8815   3.9005   3.9069   3.9227   3.9426   3.9657
  3.9795   3.9852   3.9957   4.0025   4.0124   4.0249   4.0340   4.0530
  4.0790   4.0819   4.0905   4.1003   4.1199   4.1350   4.1402   4.1452
  4.1597   4.1752   4.1940   4.1943   4.1983   4.2063   4.2165   4.2369
  4.2411   4.2583   4.2639   4.2867   4.2928   4.3109   4.3253   4.3278
  4.3525   4.3592   4.3763   4.3835   4.3977   4.4006   4.4021   4.4248
  4.4298   4.4410   4.4555   4.4803   4.4920   4.5004   4.5275   4.5621
  4.5887   4.5976   4.6075   4.6158   4.6320   4.6355   4.6573   4.6681
  4.7013   4.7229   4.7429   4.7526   4.7691   4.7747   4.8143   4.8294
  4.8747   4.8839   4.9056   4.9184   4.9589   4.9818   5.0039   5.0548
  5.0986   5.1031   5.1130   5.1360   5.1666   5.1826   5.2015   5.2484
  5.2682   5.2795   5.2932   5.2998   5.3275   5.3673   5.3924   5.3967
  5.4172   5.4462   5.4663   5.4883   5.5189   5.5316   5.5465   5.5534
  5.5716   5.6093   5.6189   5.6243   5.6381   5.6645   5.6977   5.7126
  5.7732   5.8253   5.9094   5.9608   6.0031   6.0572   6.1344   6.2249
  6.2311   6.2464   6.2738   6.3033   6.3187   6.4405   6.5098   8.8726
  9.8909  11.6971  11.9667  12.9252  13.0106  13.7440  13.9588  14.2190
 14.2990
 --------------------------------------------------------------
 
          Ground-State Mulliken Net Atomic Charges

     Atom                 Charge (a.u.)
  ----------------------------------------
      1 C                    -0.212309
      2 C                    -0.248574
      3 C                     0.047837
      4 H                     0.185323
      5 C                    -0.048699
      6 S                     0.025885
      7 C                    -0.282053
      8 H                     0.108284
      9 H                     0.111204
     10 H                     0.109448
     11 H                     0.204166
     12 C                    -0.013064
     13 C                    -0.222836
     14 C                     0.015520
     15 H                     0.186039
     16 C                    -0.238085
     17 S                     0.026036
     18 C                    -0.271385
     19 H                     0.102792
     20 H                     0.107792
     21 H                     0.108411
     22 H                     0.198268
  ----------------------------------------
  Sum of atomic charges =     0.000000

 -----------------------------------------------------------------
                    Cartesian Multipole Moments
 -----------------------------------------------------------------
    Charge (ESU x 10^10)
                -0.0000
    Dipole Moment (Debye)
         X      -1.5051      Y       0.2359      Z       1.7411
       Tot       2.3135
    Quadrupole Moments (Debye-Ang)
        XX     -86.3327     XY       2.1702     YY     -68.7166
        XZ      -1.1251     YZ       0.7372     ZZ     -86.5565
    Octopole Moments (Debye-Ang^2)
       XXX       6.9686    XXY      25.0474    XYY       5.9466
       YYY      94.4254    XXZ      -2.5588    XYZ       4.1717
       YYZ      -5.7922    XZZ       3.2560    YZZ      58.8169
       ZZZ      -1.8470
    Hexadecapole Moments (Debye-Ang^3)
      XXXX    -663.2785   XXXY      10.2895   XXYY    -562.7872
      XYYY     -34.6996   YYYY   -2580.0099   XXXZ      45.3611
      XXYZ     -33.9935   XYYZ      -1.0210   YYYZ    -109.1032
      XXZZ    -214.3864   XYZZ       0.3921   YYZZ    -614.0137
      XZZZ      49.8130   YZZZ    -101.8679   ZZZZ    -552.5071
 -----------------------------------------------------------------
 Total job time:  55.90s(wall), 2019.73s(cpu) 
 Wed Dec 13 16:16:09 2023

        *************************************************************
        *                                                           *
        *  Thank you very much for using Q-Chem.  Have a nice day.  *
        *                                                           *
        *************************************************************


0 sent ACK to 0 
now end server 0 ... 
cleanup process ... done
remove work dirs ./qchem1470666.0 -- ./qchem1470666.0
rm -rf ./qchem1470666.0
rm -rf ./qchem1470666
