You are running Q-Chem version: 5.4.0

#
# job setting
#
local host:  exp-1-10
current dir: /home/rramji/project-csd799/aromodel/p3ht-qchem/rotation-run
input file:  Methylthiophene_Phi_0_Theta_280_Methylthiophene.qcin
output file: 
nprocs     : 1
nthreads   : 64
#
# qchem installation setting
#
QC:          /cm/shared/apps/spack/cpu/opt/spack/linux-centos8-zen2/gcc-10.2.0/qchem-5.4-akfmr7b3t57bfs6qan3padb2wnb2i7cl
QCAUX:       /cm/shared/apps/spack/cpu/opt/spack/linux-centos8-zen2/gcc-10.2.0/qchem-5.4-akfmr7b3t57bfs6qan3padb2wnb2i7cl/qcaux
QCPROG:      /cm/shared/apps/spack/cpu/opt/spack/linux-centos8-zen2/gcc-10.2.0/qchem-5.4-akfmr7b3t57bfs6qan3padb2wnb2i7cl/exe/qcprog.exe
QCPROG_S:    /cm/shared/apps/spack/cpu/opt/spack/linux-centos8-zen2/gcc-10.2.0/qchem-5.4-akfmr7b3t57bfs6qan3padb2wnb2i7cl/exe/qcprog.exe_s
PARALLEL:    -DPARALLEL
QCMPI:       mpich
#
# qchem directory setting
#
qcrun:       qchem1471399
QCSCRATCH:   .
QCLOCALSCR:  
QCTMPDIR:    .
QCFILEPREF:  ./qchem1471399
QCSAVEDIR:   
workdirs:    ./qchem1471399
workdir0:    ./qchem1471399
partmpdirs =  
#
# parallel setting
#
QCRSH:           ssh
QCMPI:           mpich
QCMPIRUN:        /cm/shared/apps/spack/cpu/opt/spack/linux-centos8-zen2/gcc-10.2.0/qchem-5.4-akfmr7b3t57bfs6qan3padb2wnb2i7cl/bin/mpi/mpirun_qchem
QCMACHINEFILE:   ./qchem1471399/hostfile
exp-1-10

#
# env setting
#
exported envs:   QC QCAUX QCSCRATCH QCRUNNAME QCFILEPREF QCPROG QCPROG_S GUIFILE

Running Job 1 of 1 Methylthiophene_Phi_0_Theta_280_Methylthiophene.qcin
qchem Methylthiophene_Phi_0_Theta_280_Methylthiophene.qcin_1471399.0 ./qchem1471399/ 1
/cm/shared/apps/spack/cpu/opt/spack/linux-centos8-zen2/gcc-10.2.0/qchem-5.4-akfmr7b3t57bfs6qan3padb2wnb2i7cl/bin/mpi/mpirun_qchem -machinefile ./qchem1471399/hostfile -np 1 /cm/shared/apps/spack/cpu/opt/spack/linux-centos8-zen2/gcc-10.2.0/qchem-5.4-akfmr7b3t57bfs6qan3padb2wnb2i7cl/exe/qcprog.exe Methylthiophene_Phi_0_Theta_280_Methylthiophene.qcin_1471399.0 ./qchem1471399/

Process 0 of 1 is on exp-1-10 - thread support 0
initial socket setup ...start
initial socket setup ...done 
now start server 0 ... 
                  Welcome to Q-Chem
     A Quantum Leap Into The Future Of Chemistry


 Q-Chem 5.4, Q-Chem, Inc., Pleasanton, CA (2021)

 License issued to: University of California, San Diego (site)

 E. Epifanovsky,  A. T. B. Gilbert,  Xintian Feng,  Joonho Lee,  Yuezhi Mao,  
 N. Mardirossian,  P. Pokhilko,  A. White,  M. Wormit,  M. P. Coons,  
 A. L. Dempwolff,  Zhengting Gan,  D. Hait,  P. R. Horn,  L. D. Jacobson,  
 I. Kaliman,  J. Kussmann,  A. W. Lange,  Ka Un Lao,  D. S. Levine,  Jie Liu,  
 S. C. McKenzie,  A. F. Morrison,  K. Nanda,  F. Plasser,  D. R. Rehn,  
 M. L. Vidal,  Zhi-Qiang You,  Ying Zhu,  B. Alam,  B. Albrecht,  
 A. Aldossary,  E. Alguire,  J. H. Andersen,  D. Barton,  K. Begam,  A. Behn,  
 Y. A. Bernard,  E. J. Berquist,  H. Burton,  A. Carreras,  K. Carter-Fenk,  
 R. Chakraborty,  A. D. Chien,  K. D. Closser,  V. Cofer-Shabica,  
 S. Dasgupta,  Jia Deng,  M. de Wergifosse,  M. Diedenhofen,  Hainam Do,  
 S. Ehlert,  Po-Tung Fang,  S. Fatehi,  Qingguo Feng,  J. Gayvert,  
 Qinghui Ge,  G. Gidofalvi,  M. Goldey,  J. Gomes,  C. Gonzalez-Espinoza,  
 S. Gulania,  A. Gunina,  M. W. D. Hanson-Heine,  P. H. P. Harbach,  
 A. W. Hauser,  M. F. Herbst,  M. Hernandez Vera,  M. Hodecker,  
 Z. C. Holden,  S. Houck,  Xunkun Huang,  Kerwin Hui,  B. C. Huynh,  
 M. Ivanov,  Hyunjun Ji,  Hanjie Jiang,  B. Kaduk,  S. Kaehler,  
 K. Khistyaev,  Jaehoon Kim,  P. Klunzinger,  Z. Koczor-Benda,  
 Joong Hoon Koh,  D. Kosenkov,  L. Koulias,  T. Kowalczyk,  C. M. Krauter,  
 K. Kue,  A. Kunitsa,  T. Kus,  A. Landau,  K. V. Lawler,  D. Lefrancois,  
 S. Lehtola,  Rain Li,  Yi-Pei Li,  Jiashu Liang,  M. Liebenthal,  
 Hung-Hsuan Lin,  You-Sheng Lin,  Fenglai Liu,  Kuan-Yu Liu,  
 M. Loipersberger,  A. Luenser,  A. Manjanath,  P. Manohar,  E. Mansoor,  
 S. F. Manzer,  Shan-Ping Mao,  A. V. Marenich,  T. Markovich,  S. Mason,  
 S. A. Maurer,  P. F. McLaughlin,  M. F. S. J. Menger,  J.-M. Mewes,  
 S. A. Mewes,  P. Morgante,  J. W. Mullinax,  T. S. Nguyen-Beck,  
 K. J. Oosterbaan,  G. Paran,  Alexander C. Paul,  Suranjan K. Paul,  
 F. Pavosevic,  Zheng Pei,  S. Prager,  E. I. Proynov,  E. Ramos,  B. Rana,  
 A. E. Rask,  A. Rettig,  R. M. Richard,  F. Rob,  E. Rossomme,  T. Scheele,  
 M. Scheurer,  M. Schneider,  N. Sergueev,  S. M. Sharada,  W. Skomorowski,  
 D. W. Small,  C. J. Stein,  Yu-Chuan Su,  E. J. Sundstrom,  Zhen Tao,  
 J. Thirman,  T. Tsuchimochi,  N. M. Tubman,  S. P. Veccham,  O. Vydrov,  
 J. Wenzel,  J. Witte,  A. Yamada,  Kun Yao,  S. Yeganeh,  S. R. Yost,  
 A. Zech,  Igor Ying Zhang,  Xing Zhang,  Yu Zhang,  D. Zuev,  
 A. Aspuru-Guzik,  A. T. Bell,  N. A. Besley,  K. B. Bravaya,  B. R. Brooks,  
 D. Casanova,  Jeng-Da Chai,  S. Coriani,  C. J. Cramer,  
 A. E. DePrince, III,  R. A. DiStasio Jr.,  A. Dreuw,  B. D. Dunietz,  
 T. R. Furlani,  W. A. Goddard III,  S. Grimme,  S. Hammes-Schiffer,  
 T. Head-Gordon,  W. J. Hehre,  Chao-Ping Hsu,  T.-C. Jagau,  Yousung Jung,  
 A. Klamt,  Jing Kong,  D. S. Lambrecht,  WanZhen Liang,  N. J. Mayhall,  
 C. W. McCurdy,  J. B. Neaton,  C. Ochsenfeld,  J. A. Parkhill,  R. Peverati,  
 V. A. Rassolov,  Yihan Shao,  L. V. Slipchenko,  T. Stauch,  R. P. Steele,  
 J. E. Subotnik,  A. J. W. Thom,  A. Tkatchenko,  D. G. Truhlar,  
 T. Van Voorhis,  T. A. Wesolowski,  K. B. Whaley,  H. L. Woodcock III,  
 P. M. Zimmerman,  S. Faraji,  P. M. W. Gill,  M. Head-Gordon,  
 J. M. Herbert,  A. I. Krylov

 Contributors to earlier versions of Q-Chem not listed above: 
 R. D. Adamson,  B. Austin,  R. Baer,  J. Baker,  G. J. O. Beran,  
 K. Brandhorst,  S. T. Brown,  E. F. C. Byrd,  A. K. Chakraborty,  
 G. K. L. Chan,  Chun-Min Chang,  Yunqing Chen,  C.-L. Cheng,  
 Siu Hung Chien,  D. M. Chipman,  D. L. Crittenden,  H. Dachsel,  
 R. J. Doerksen,  A. D. Dutoi,  R. G. Edgar,  J. Fosso-Tande,  
 L. Fusti-Molnar,  D. Ghosh,  A. Ghysels,  A. Golubeva-Zadorozhnaya,  
 J. Gonthier,  M. S. Gordon,  S. R. Gwaltney,  G. Hawkins,  J. E. Herr,  
 A. Heyden,  S. Hirata,  E. G. Hohenstein,  G. Kedziora,  F. J. Keil,  
 C. Kelley,  Jihan Kim,  R. A. King,  R. Z. Khaliullin,  P. P. Korambath,  
 W. Kurlancheek,  A. Laurent,  A. M. Lee,  M. S. Lee,  S. V. Levchenko,  
 Ching Yeh Lin,  D. Liotard,  E. Livshits,  R. C. Lochan,  I. Lotan,  
 L. A. Martinez-Martinez,  P. E. Maslen,  N. Nair,  D. P. O'Neill,  
 D. Neuhauser,  E. Neuscamman,  C. M. Oana,  R. Olivares-Amaya,  R. Olson,  
 T. M. Perrine,  B. Peters,  P. A. Pieniazek,  A. Prociuk,  Y. M. Rhee,  
 J. Ritchie,  M. A. Rohrdanz,  E. Rosta,  N. J. Russ,  H. F. Schaefer III,  
 M. W. Schmidt,  N. E. Schultz,  S. Sharma,  N. Shenvi,  C. D. Sherrill,  
 A. C. Simmonett,  A. Sodt,  T. Stein,  D. Stuck,  K. S. Thanthiriwatte,  
 V. Vanovschi,  L. Vogt,  Tao Wang,  A. Warshel,  M. A. Watson,  
 C. F. Williams,  Q. Wu,  X. Xu,  Jun Yang,  W. Zhang,  Yan Zhao

 Please cite Q-Chem as follows:
 Y. Shao et al., Mol. Phys. 113, 184-215 (2015)
 DOI: 10.1080/00268976.2014.952696

 Q-Chem 5.4.0 for Intel X86 EM64T Linux

 Parts of Q-Chem use Armadillo 9.800.1 (Horizon Scraper).
 http://arma.sourceforge.net/

 Q-Chem begins on Wed Dec 13 16:17:04 2023  

 Host: 
0

     Scratch files written to ./qchem1471399//
 May1621 |scratch|qcdevops|jenkins|workspace|build_RNUM    
 Parallel job on  1  processors
 Processing $rem in /cm/shared/apps/spack/cpu/opt/spack/linux-centos8-zen2/gcc-10.2.0/qchem-5.4-akfmr7b3t57bfs6qan3padb2wnb2i7cl/config/preferences:
 Processing $rem in /home/rramji/.qchemrc:
 Symmetry turned off for PCM/SM12/SMD calculation
 Core orbitals will be frozen

 Checking the input file for inconsistencies... 	...done.

 Q-Chem warning in module forms1/BasisType.C, line 2236:

 You are not using the predefined 5D/6D in this basis set.


--------------------------------------------------------------
User input:
--------------------------------------------------------------
$molecule
0 1
C	0.713264	-3.887800	0.126876
C	-0.651267	-3.701456	-0.113784
C	-1.068787	-2.345170	-0.188043
H	-1.346782	-4.545233	-0.236019
C	0.000000	-1.450135	0.000000
S	1.504247	-2.321334	0.265612
C	-2.493059	-1.934439	-0.439357
H	-3.147809	-2.819799	-0.554378
H	-2.589987	-1.326210	-1.362899
H	-2.899892	-1.325374	0.394786
H	1.287774	-4.815326	0.228603
C	0.000000	0.000000	0.000000
C	-0.003081	0.844605	1.113020
C	-0.007772	2.235575	0.820578
H	-0.001743	0.456510	2.142881
C	-0.008427	2.483726	-0.563588
S	-0.003691	0.970607	-1.464748
C	-0.011355	3.300181	1.882380
H	-0.009922	2.852233	2.894974
H	-0.905944	3.953225	1.808137
H	0.878901	3.959133	1.808230
H	-0.011727	3.441752	-1.097114
$end

$rem
JOBTYPE		SP
EXCHANGE	HF
CORRELATION	pRIMP2
BASIS		cc-pvtz
METHOD		rimp2
AUX_BASIS	rimp2-cc-pvtz
SOLVENT_METHOD	PCM
PURECART	11111
SYMMETRY	false
MEM_TOTAL	110000
SCF_CONVERGENCE = 6
THRESH=10
GUI = 2
$end



$solvent
dielectric 4.90
$end
--------------------------------------------------------------
 ----------------------------------------------------------------
             Standard Nuclear Orientation (Angstroms)
    I     Atom           X                Y                Z
 ----------------------------------------------------------------
    1      C       0.7132640000    -3.8878000000     0.1268760000
    2      C      -0.6512670000    -3.7014560000    -0.1137840000
    3      C      -1.0687870000    -2.3451700000    -0.1880430000
    4      H      -1.3467820000    -4.5452330000    -0.2360190000
    5      C       0.0000000000    -1.4501350000     0.0000000000
    6      S       1.5042470000    -2.3213340000     0.2656120000
    7      C      -2.4930590000    -1.9344390000    -0.4393570000
    8      H      -3.1478090000    -2.8197990000    -0.5543780000
    9      H      -2.5899870000    -1.3262100000    -1.3628990000
   10      H      -2.8998920000    -1.3253740000     0.3947860000
   11      H       1.2877740000    -4.8153260000     0.2286030000
   12      C       0.0000000000     0.0000000000     0.0000000000
   13      C      -0.0030810000     0.8446050000     1.1130200000
   14      C      -0.0077720000     2.2355750000     0.8205780000
   15      H      -0.0017430000     0.4565100000     2.1428810000
   16      C      -0.0084270000     2.4837260000    -0.5635880000
   17      S      -0.0036910000     0.9706070000    -1.4647480000
   18      C      -0.0113550000     3.3001810000     1.8823800000
   19      H      -0.0099220000     2.8522330000     2.8949740000
   20      H      -0.9059440000     3.9532250000     1.8081370000
   21      H       0.8789010000     3.9591330000     1.8082300000
   22      H      -0.0117270000     3.4417520000    -1.0971140000
 ----------------------------------------------------------------
 Nuclear Repulsion Energy =         831.90093825 hartrees
 There are       51 alpha and       51 beta electrons
 Requested basis set is cc-pVTZ
 There are 184 shells and 508 basis functions

 Total QAlloc Memory Limit 110000 MB
 Mega-Array Size       188 MB
 MEM_STATIC part       192 MB
 Discretize the solute cavity surface with Lebedev spheres
	Using 110 Lebedev grid points for each H atom
	Using 194 Lebedev grid points for other atoms
	Atomic van der Waals radii will be scaled by 1.20
 Remove points where switching function is < 1.0e-08
 Keep 1580 surface tesserae and discard 1848 interior tesserae
 Molecular Surface Area = 238.985 Angst**2
 Requested basis set is rimp2-cc-pVTZ
 There are 394 shells and 1354 basis functions
 A cutoff of  1.0D-10 yielded  12175 shell pairs
 There are     90565 function pairs (    117079 Cartesian)
 Smallest overlap matrix eigenvalue = 6.89E-05

 Scale SEOQF with 1.000000e-01/1.000000e-01/1.000000e-01

 Standard Electronic Orientation quadrupole field applied
 Nucleus-field energy     =     0.0000000358 hartrees
 Guess from superposition of atomic densities
 Warning:  Energy on first SCF cycle will be non-variational
 SAD guess density has 102.000000 electrons

 -----------------------------------------------------------------------
  General SCF calculation program by
  Eric Jon Sundstrom, Paul Horn, Yuezhi Mao, Dmitri Zuev, Alec White,
  David Stuck, Shaama M.S., Shane Yost, Joonho Lee, David Small,
  Daniel Levine, Susi Lehtola, Hugh Burton, Evgeny Epifanovsky,
  Bang C. Huynh
 -----------------------------------------------------------------------
 Hartree-Fock
 using 64 threads for integral computing
 -------------------------------------------------------
 OpenMP Integral computing Module                
 Release: version 1.0, May 2013, Q-Chem Inc. Pittsburgh 
 -------------------------------------------------------
 A restricted SCF calculation will be
 performed using DIIS
 SCF converges when DIIS error is below 1.0e-06
 ---------------------------------------
  Cycle       Energy         DIIS error
 ---------------------------------------
    1   -1184.1802263432      2.38e-02  
    2   -1179.5479322320      1.60e-03  
    3   -1179.6673493534      6.15e-04  
    4   -1179.6808288432      3.41e-04  
    5   -1179.6856642406      6.75e-05  
    6   -1179.6859474538      3.06e-05  
    7   -1179.6860349578      1.27e-05  
    8   -1179.6860628327      5.28e-06  
    9   -1179.6860676834      1.64e-06  
   10   -1179.6860680986      5.07e-07  Convergence criterion met
 ---------------------------------------
 SCF time:   CPU 1500.36s  wall 45.00s 

************** Final PCM Free Energy Summary **************
 G_electrostatic  =      -0.00765871 hartree =      -4.80591206 kcal/mol
 G_cavitation     =       0.00000000 hartree =       0.00000000 kcal/mol
 G_dispersion     =       0.00000000 hartree =       0.00000000 kcal/mol
 G_repulsion      =       0.00000000 hartree =       0.00000000 kcal/mol
 --------------------------------------------------
 Non-electrostatic Free Energy =       0.00000000 hartree =       0.00000000 kcal/mol
 Total                         =      -0.00765871 hartree =      -4.80591206 kcal/mol
 --------------------------------------------------
 SCF Energy (H0 + V/2)                       =   -1179.68606810 
 Solute Internal Energy (H0)                 =   -1179.67840939 
 Total Free Energy (H0 + V/2 + non-elec)     =   -1179.68606810 hartree
                                             = -740264.18053860 kcal/mol
***********************************************************

 SCF   energy in the final basis set =    -1179.6860680986
 Total energy in the final basis set =    -1179.6860680986


 --------------------------------------------------------------
  Generalized many-body perturbation theory program
  by Joonho Lee, Fazle Rob, Xintian Feng, Evgeny Epifanovsky

 No regularization used 
 (reg. param. = 0.0000e+00)
  (P|Q)^-1/2 Time:  CPU 32.16 s  wall 0.54 s

 In RI-MP2 calculation: 
 # of frozen core orbitals: 20

 Components of the RIMP2 correlation energy:
        aaaa    correlation energy =        -0.2520843667 a.u.
        abab    correlation energy =        -1.4733381823 a.u.
        bbbb    correlation energy =        -0.2520843667 a.u.
        non-Brillouin singles      =        -0.0000000000 a.u.
        total same-spin energy     =        -0.5041687335 a.u.
        total opposite-spin energy =        -1.4733381823 a.u.

 Total  RIMP2   correlation energy =        -1.9775069158 a.u.
        RIMP2         total energy =     -1181.6635750144 a.u.

 RI-MP2 Energy Time:  CPU 168.51 s  wall 2.87 s
 
 --------------------------------------------------------------
 
                    Orbital Energies (a.u.)
 --------------------------------------------------------------
 
 Alpha MOs
 -- Occupied --
-91.9856 -91.9855 -11.2792 -11.2735 -11.2729 -11.2650 -11.2537 -11.2509
-11.2422 -11.2417 -11.2290 -11.2290  -8.9850  -8.9850  -6.6658  -6.6658
 -6.6653  -6.6653  -6.6647  -6.6647  -1.1778  -1.1496  -1.0391  -1.0227
 -0.9971  -0.9537  -0.9134  -0.8924  -0.7997  -0.7548  -0.7287  -0.6946
 -0.6622  -0.6166  -0.5823  -0.5789  -0.5714  -0.5692  -0.5515  -0.5312
 -0.5284  -0.5194  -0.5073  -0.4927  -0.4889  -0.4647  -0.4623  -0.3453
 -0.3395  -0.3210  -0.3043
 -- Virtual --
  0.0902   0.1042   0.1429   0.1487   0.1620   0.1740   0.1782   0.1855
  0.1888   0.1949   0.2021   0.2161   0.2308   0.2349   0.2415   0.2486
  0.2524   0.2633   0.2917   0.2991   0.3372   0.3486   0.3537   0.3617
  0.3762   0.3821   0.3936   0.3986   0.4068   0.4139   0.4208   0.4428
  0.4481   0.4578   0.4610   0.4698   0.4742   0.4796   0.4892   0.4997
  0.5140   0.5182   0.5314   0.5365   0.5438   0.5506   0.5564   0.5636
  0.5761   0.5831   0.5841   0.5952   0.5979   0.6094   0.6171   0.6185
  0.6225   0.6355   0.6396   0.6426   0.6452   0.6495   0.6525   0.6662
  0.6684   0.6854   0.6881   0.7158   0.7185   0.7266   0.7364   0.7529
  0.7632   0.7759   0.7982   0.8137   0.8157   0.8268   0.8276   0.8409
  0.8427   0.8552   0.8668   0.8879   0.8968   0.9167   0.9352   0.9402
  0.9525   0.9584   0.9755   0.9944   1.0049   1.0174   1.0220   1.0308
  1.0375   1.0532   1.0643   1.0680   1.0772   1.0867   1.0923   1.0947
  1.1112   1.1133   1.1263   1.1407   1.1588   1.1716   1.1762   1.1838
  1.2019   1.2145   1.2229   1.2300   1.2540   1.2572   1.2617   1.2797
  1.2867   1.2925   1.2989   1.3180   1.3223   1.3379   1.3400   1.3597
  1.3705   1.3816   1.3996   1.4167   1.4241   1.4441   1.4491   1.4587
  1.4723   1.4864   1.5008   1.5044   1.5087   1.5323   1.5336   1.5526
  1.5564   1.5637   1.5719   1.5753   1.5900   1.6000   1.6102   1.6452
  1.6500   1.6578   1.6795   1.6872   1.7013   1.7022   1.7165   1.7191
  1.7554   1.7603   1.7662   1.7692   1.8049   1.8108   1.8272   1.8397
  1.8813   1.8847   1.9027   1.9232   1.9286   1.9431   1.9471   1.9924
  2.0207   2.0451   2.0497   2.1087   2.1305   2.1358   2.1464   2.1731
  2.1895   2.1953   2.2001   2.2159   2.2403   2.2471   2.2695   2.2785
  2.2965   2.3195   2.3375   2.3897   2.3997   2.4072   2.4219   2.4567
  2.4643   2.4847   2.5094   2.5256   2.5481   2.5678   2.5782   2.5968
  2.6125   2.6237   2.6494   2.6591   2.6734   2.6831   2.7032   2.7222
  2.7328   2.7431   2.7530   2.7587   2.7620   2.7661   2.7891   2.7955
  2.8294   2.8378   2.8500   2.8607   2.8853   2.8917   2.9065   2.9174
  2.9338   2.9680   2.9780   2.9881   3.0004   3.0151   3.0258   3.0362
  3.0593   3.0869   3.0971   3.1071   3.1134   3.1175   3.1340   3.1397
  3.1445   3.1558   3.1567   3.1671   3.1843   3.2091   3.2136   3.2334
  3.2375   3.2428   3.2555   3.2762   3.2814   3.2923   3.2965   3.3063
  3.3234   3.3276   3.3300   3.3377   3.3532   3.3574   3.3579   3.3763
  3.3835   3.3919   3.3997   3.4089   3.4177   3.4308   3.4370   3.4419
  3.4528   3.4647   3.4696   3.4866   3.4995   3.5080   3.5213   3.5251
  3.5259   3.5317   3.5398   3.5478   3.5560   3.5613   3.5786   3.5975
  3.5999   3.6124   3.6170   3.6200   3.6310   3.6355   3.6573   3.6623
  3.6739   3.6897   3.6964   3.7112   3.7138   3.7307   3.7419   3.7453
  3.7618   3.7749   3.7918   3.8040   3.8052   3.8150   3.8222   3.8416
  3.8571   3.8630   3.8800   3.8964   3.9089   3.9197   3.9377   3.9648
  3.9758   3.9843   3.9942   3.9998   4.0120   4.0250   4.0305   4.0496
  4.0722   4.0838   4.0894   4.1009   4.1253   4.1361   4.1390   4.1444
  4.1658   4.1703   4.1853   4.1953   4.2026   4.2082   4.2135   4.2366
  4.2506   4.2726   4.2756   4.2840   4.2940   4.3125   4.3229   4.3317
  4.3492   4.3542   4.3692   4.3850   4.3946   4.3963   4.4027   4.4172
  4.4274   4.4410   4.4536   4.4732   4.4912   4.5055   4.5284   4.5632
  4.5848   4.6041   4.6109   4.6152   4.6280   4.6395   4.6624   4.6685
  4.7072   4.7247   4.7393   4.7477   4.7661   4.7812   4.8128   4.8380
  4.8799   4.8828   4.9051   4.9206   4.9505   4.9822   4.9908   5.0545
  5.0866   5.0999   5.1126   5.1470   5.1729   5.1854   5.2020   5.2331
  5.2701   5.2826   5.2927   5.3007   5.3309   5.3678   5.3932   5.4000
  5.4165   5.4483   5.4646   5.4835   5.5193   5.5292   5.5476   5.5583
  5.5738   5.6042   5.6177   5.6274   5.6314   5.6689   5.6998   5.7123
  5.7773   5.8263   5.9085   5.9629   6.0059   6.0482   6.1364   6.2261
  6.2292   6.2462   6.2729   6.3019   6.3217   6.4436   6.5024   8.8932
  9.8668  11.6788  11.9527  12.9304  13.0132  13.7430  13.9425  14.2113
 14.3016
 --------------------------------------------------------------
 
          Ground-State Mulliken Net Atomic Charges

     Atom                 Charge (a.u.)
  ----------------------------------------
      1 C                    -0.212974
      2 C                    -0.248687
      3 C                     0.043463
      4 H                     0.185274
      5 C                    -0.044687
      6 S                     0.026433
      7 C                    -0.281928
      8 H                     0.107536
      9 H                     0.109965
     10 H                     0.110430
     11 H                     0.204121
     12 C                    -0.009953
     13 C                    -0.227235
     14 C                     0.017338
     15 H                     0.186017
     16 C                    -0.237652
     17 S                     0.026342
     18 C                    -0.271164
     19 H                     0.102925
     20 H                     0.107833
     21 H                     0.108336
     22 H                     0.198269
  ----------------------------------------
  Sum of atomic charges =     0.000000

 -----------------------------------------------------------------
                    Cartesian Multipole Moments
 -----------------------------------------------------------------
    Charge (ESU x 10^10)
                -0.0000
    Dipole Moment (Debye)
         X      -1.4983      Y       0.2407      Z       1.2006
       Tot       1.9350
    Quadrupole Moments (Debye-Ang)
        XX     -86.3305     XY       2.1758     YY     -68.7443
        XZ       1.1567     YZ       1.5341     ZZ     -86.5421
    Octopole Moments (Debye-Ang^2)
       XXX       6.9631    XXY      25.0426    XYY       5.9679
       YYY      94.5694    XXZ      -2.6544    XYZ      -4.1977
       YYZ      -3.7685    XZZ       3.2491    YZZ      58.8036
       ZZZ       1.4325
    Hexadecapole Moments (Debye-Ang^3)
      XXXX    -663.2121   XXXY      10.2861   XXYY    -562.8063
      XYYY     -34.5081   YYYY   -2580.7121   XXXZ     -44.4582
      XXYZ     -30.6644   XYYZ       1.6452   YYYZ    -121.6075
      XXZZ    -214.3159   XYZZ       0.4228   YYZZ    -613.9621
      XZZZ     -49.0270   YZZZ    -102.0628   ZZZZ    -552.4138
 -----------------------------------------------------------------
 Total job time:  50.99s(wall), 1775.18s(cpu) 
 Wed Dec 13 16:17:55 2023

        *************************************************************
        *                                                           *
        *  Thank you very much for using Q-Chem.  Have a nice day.  *
        *                                                           *
        *************************************************************


0 sent ACK to 0 
now end server 0 ... 
cleanup process ... done
remove work dirs ./qchem1471399.0 -- ./qchem1471399.0
rm -rf ./qchem1471399.0
rm -rf ./qchem1471399
