You are running Q-Chem version: 5.4.0

#
# job setting
#
local host:  exp-1-44
current dir: /home/rramji/project-csd799/aromodel/p3ht-qchem/rotation-run
input file:  Methylthiophene_Phi_15_Theta_170_Methylthiophene.qcin
output file: 
nprocs     : 1
nthreads   : 64
#
# qchem installation setting
#
QC:          /cm/shared/apps/spack/cpu/opt/spack/linux-centos8-zen2/gcc-10.2.0/qchem-5.4-akfmr7b3t57bfs6qan3padb2wnb2i7cl
QCAUX:       /cm/shared/apps/spack/cpu/opt/spack/linux-centos8-zen2/gcc-10.2.0/qchem-5.4-akfmr7b3t57bfs6qan3padb2wnb2i7cl/qcaux
QCPROG:      /cm/shared/apps/spack/cpu/opt/spack/linux-centos8-zen2/gcc-10.2.0/qchem-5.4-akfmr7b3t57bfs6qan3padb2wnb2i7cl/exe/qcprog.exe
QCPROG_S:    /cm/shared/apps/spack/cpu/opt/spack/linux-centos8-zen2/gcc-10.2.0/qchem-5.4-akfmr7b3t57bfs6qan3padb2wnb2i7cl/exe/qcprog.exe_s
PARALLEL:    -DPARALLEL
QCMPI:       mpich
#
# qchem directory setting
#
qcrun:       qchem2790561
QCSCRATCH:   .
QCLOCALSCR:  
QCTMPDIR:    .
QCFILEPREF:  ./qchem2790561
QCSAVEDIR:   
workdirs:    ./qchem2790561
workdir0:    ./qchem2790561
partmpdirs =  
#
# parallel setting
#
QCRSH:           ssh
QCMPI:           mpich
QCMPIRUN:        /cm/shared/apps/spack/cpu/opt/spack/linux-centos8-zen2/gcc-10.2.0/qchem-5.4-akfmr7b3t57bfs6qan3padb2wnb2i7cl/bin/mpi/mpirun_qchem
QCMACHINEFILE:   ./qchem2790561/hostfile
exp-1-44

#
# env setting
#
exported envs:   QC QCAUX QCSCRATCH QCRUNNAME QCFILEPREF QCPROG QCPROG_S GUIFILE

Running Job 1 of 1 Methylthiophene_Phi_15_Theta_170_Methylthiophene.qcin
qchem Methylthiophene_Phi_15_Theta_170_Methylthiophene.qcin_2790561.0 ./qchem2790561/ 1
/cm/shared/apps/spack/cpu/opt/spack/linux-centos8-zen2/gcc-10.2.0/qchem-5.4-akfmr7b3t57bfs6qan3padb2wnb2i7cl/bin/mpi/mpirun_qchem -machinefile ./qchem2790561/hostfile -np 1 /cm/shared/apps/spack/cpu/opt/spack/linux-centos8-zen2/gcc-10.2.0/qchem-5.4-akfmr7b3t57bfs6qan3padb2wnb2i7cl/exe/qcprog.exe Methylthiophene_Phi_15_Theta_170_Methylthiophene.qcin_2790561.0 ./qchem2790561/

Process 0 of 1 is on exp-1-44 - thread support 0
initial socket setup ...start
initial socket setup ...done 
now start server 0 ... 
                  Welcome to Q-Chem
     A Quantum Leap Into The Future Of Chemistry


 Q-Chem 5.4, Q-Chem, Inc., Pleasanton, CA (2021)

 License issued to: University of California, San Diego (site)

 E. Epifanovsky,  A. T. B. Gilbert,  Xintian Feng,  Joonho Lee,  Yuezhi Mao,  
 N. Mardirossian,  P. Pokhilko,  A. White,  M. Wormit,  M. P. Coons,  
 A. L. Dempwolff,  Zhengting Gan,  D. Hait,  P. R. Horn,  L. D. Jacobson,  
 I. Kaliman,  J. Kussmann,  A. W. Lange,  Ka Un Lao,  D. S. Levine,  Jie Liu,  
 S. C. McKenzie,  A. F. Morrison,  K. Nanda,  F. Plasser,  D. R. Rehn,  
 M. L. Vidal,  Zhi-Qiang You,  Ying Zhu,  B. Alam,  B. Albrecht,  
 A. Aldossary,  E. Alguire,  J. H. Andersen,  D. Barton,  K. Begam,  A. Behn,  
 Y. A. Bernard,  E. J. Berquist,  H. Burton,  A. Carreras,  K. Carter-Fenk,  
 R. Chakraborty,  A. D. Chien,  K. D. Closser,  V. Cofer-Shabica,  
 S. Dasgupta,  Jia Deng,  M. de Wergifosse,  M. Diedenhofen,  Hainam Do,  
 S. Ehlert,  Po-Tung Fang,  S. Fatehi,  Qingguo Feng,  J. Gayvert,  
 Qinghui Ge,  G. Gidofalvi,  M. Goldey,  J. Gomes,  C. Gonzalez-Espinoza,  
 S. Gulania,  A. Gunina,  M. W. D. Hanson-Heine,  P. H. P. Harbach,  
 A. W. Hauser,  M. F. Herbst,  M. Hernandez Vera,  M. Hodecker,  
 Z. C. Holden,  S. Houck,  Xunkun Huang,  Kerwin Hui,  B. C. Huynh,  
 M. Ivanov,  Hyunjun Ji,  Hanjie Jiang,  B. Kaduk,  S. Kaehler,  
 K. Khistyaev,  Jaehoon Kim,  P. Klunzinger,  Z. Koczor-Benda,  
 Joong Hoon Koh,  D. Kosenkov,  L. Koulias,  T. Kowalczyk,  C. M. Krauter,  
 K. Kue,  A. Kunitsa,  T. Kus,  A. Landau,  K. V. Lawler,  D. Lefrancois,  
 S. Lehtola,  Rain Li,  Yi-Pei Li,  Jiashu Liang,  M. Liebenthal,  
 Hung-Hsuan Lin,  You-Sheng Lin,  Fenglai Liu,  Kuan-Yu Liu,  
 M. Loipersberger,  A. Luenser,  A. Manjanath,  P. Manohar,  E. Mansoor,  
 S. F. Manzer,  Shan-Ping Mao,  A. V. Marenich,  T. Markovich,  S. Mason,  
 S. A. Maurer,  P. F. McLaughlin,  M. F. S. J. Menger,  J.-M. Mewes,  
 S. A. Mewes,  P. Morgante,  J. W. Mullinax,  T. S. Nguyen-Beck,  
 K. J. Oosterbaan,  G. Paran,  Alexander C. Paul,  Suranjan K. Paul,  
 F. Pavosevic,  Zheng Pei,  S. Prager,  E. I. Proynov,  E. Ramos,  B. Rana,  
 A. E. Rask,  A. Rettig,  R. M. Richard,  F. Rob,  E. Rossomme,  T. Scheele,  
 M. Scheurer,  M. Schneider,  N. Sergueev,  S. M. Sharada,  W. Skomorowski,  
 D. W. Small,  C. J. Stein,  Yu-Chuan Su,  E. J. Sundstrom,  Zhen Tao,  
 J. Thirman,  T. Tsuchimochi,  N. M. Tubman,  S. P. Veccham,  O. Vydrov,  
 J. Wenzel,  J. Witte,  A. Yamada,  Kun Yao,  S. Yeganeh,  S. R. Yost,  
 A. Zech,  Igor Ying Zhang,  Xing Zhang,  Yu Zhang,  D. Zuev,  
 A. Aspuru-Guzik,  A. T. Bell,  N. A. Besley,  K. B. Bravaya,  B. R. Brooks,  
 D. Casanova,  Jeng-Da Chai,  S. Coriani,  C. J. Cramer,  
 A. E. DePrince, III,  R. A. DiStasio Jr.,  A. Dreuw,  B. D. Dunietz,  
 T. R. Furlani,  W. A. Goddard III,  S. Grimme,  S. Hammes-Schiffer,  
 T. Head-Gordon,  W. J. Hehre,  Chao-Ping Hsu,  T.-C. Jagau,  Yousung Jung,  
 A. Klamt,  Jing Kong,  D. S. Lambrecht,  WanZhen Liang,  N. J. Mayhall,  
 C. W. McCurdy,  J. B. Neaton,  C. Ochsenfeld,  J. A. Parkhill,  R. Peverati,  
 V. A. Rassolov,  Yihan Shao,  L. V. Slipchenko,  T. Stauch,  R. P. Steele,  
 J. E. Subotnik,  A. J. W. Thom,  A. Tkatchenko,  D. G. Truhlar,  
 T. Van Voorhis,  T. A. Wesolowski,  K. B. Whaley,  H. L. Woodcock III,  
 P. M. Zimmerman,  S. Faraji,  P. M. W. Gill,  M. Head-Gordon,  
 J. M. Herbert,  A. I. Krylov

 Contributors to earlier versions of Q-Chem not listed above: 
 R. D. Adamson,  B. Austin,  R. Baer,  J. Baker,  G. J. O. Beran,  
 K. Brandhorst,  S. T. Brown,  E. F. C. Byrd,  A. K. Chakraborty,  
 G. K. L. Chan,  Chun-Min Chang,  Yunqing Chen,  C.-L. Cheng,  
 Siu Hung Chien,  D. M. Chipman,  D. L. Crittenden,  H. Dachsel,  
 R. J. Doerksen,  A. D. Dutoi,  R. G. Edgar,  J. Fosso-Tande,  
 L. Fusti-Molnar,  D. Ghosh,  A. Ghysels,  A. Golubeva-Zadorozhnaya,  
 J. Gonthier,  M. S. Gordon,  S. R. Gwaltney,  G. Hawkins,  J. E. Herr,  
 A. Heyden,  S. Hirata,  E. G. Hohenstein,  G. Kedziora,  F. J. Keil,  
 C. Kelley,  Jihan Kim,  R. A. King,  R. Z. Khaliullin,  P. P. Korambath,  
 W. Kurlancheek,  A. Laurent,  A. M. Lee,  M. S. Lee,  S. V. Levchenko,  
 Ching Yeh Lin,  D. Liotard,  E. Livshits,  R. C. Lochan,  I. Lotan,  
 L. A. Martinez-Martinez,  P. E. Maslen,  N. Nair,  D. P. O'Neill,  
 D. Neuhauser,  E. Neuscamman,  C. M. Oana,  R. Olivares-Amaya,  R. Olson,  
 T. M. Perrine,  B. Peters,  P. A. Pieniazek,  A. Prociuk,  Y. M. Rhee,  
 J. Ritchie,  M. A. Rohrdanz,  E. Rosta,  N. J. Russ,  H. F. Schaefer III,  
 M. W. Schmidt,  N. E. Schultz,  S. Sharma,  N. Shenvi,  C. D. Sherrill,  
 A. C. Simmonett,  A. Sodt,  T. Stein,  D. Stuck,  K. S. Thanthiriwatte,  
 V. Vanovschi,  L. Vogt,  Tao Wang,  A. Warshel,  M. A. Watson,  
 C. F. Williams,  Q. Wu,  X. Xu,  Jun Yang,  W. Zhang,  Yan Zhao

 Please cite Q-Chem as follows:
 Y. Shao et al., Mol. Phys. 113, 184-215 (2015)
 DOI: 10.1080/00268976.2014.952696

 Q-Chem 5.4.0 for Intel X86 EM64T Linux

 Parts of Q-Chem use Armadillo 9.800.1 (Horizon Scraper).
 http://arma.sourceforge.net/

 Q-Chem begins on Wed Dec 13 16:06:57 2023  

 Host: 
0

     Scratch files written to ./qchem2790561//
 May1621 |scratch|qcdevops|jenkins|workspace|build_RNUM    
 Parallel job on  1  processors
 Processing $rem in /cm/shared/apps/spack/cpu/opt/spack/linux-centos8-zen2/gcc-10.2.0/qchem-5.4-akfmr7b3t57bfs6qan3padb2wnb2i7cl/config/preferences:
 Processing $rem in /home/rramji/.qchemrc:
 Symmetry turned off for PCM/SM12/SMD calculation
 Core orbitals will be frozen

 Checking the input file for inconsistencies... 	...done.

 Q-Chem warning in module forms1/BasisType.C, line 2236:

 You are not using the predefined 5D/6D in this basis set.


--------------------------------------------------------------
User input:
--------------------------------------------------------------
$molecule
0 1
C	-0.124726	-3.887800	-0.713644
C	0.115824	-3.701456	0.650907
C	0.188844	-2.345170	1.068646
H	0.238841	-4.545233	1.346284
C	-0.000000	-1.450135	-0.000000
S	-0.264890	-2.321334	-1.504375
C	0.439816	-1.934439	2.492978
H	0.555669	-2.819799	3.147582
H	-0.394879	-1.326210	2.899931
H	1.362799	-1.325374	2.589982
H	-0.225628	-4.815326	-1.288299
C	0.000000	0.000000	0.000000
C	0.215623	0.816623	1.113020
C	0.571102	2.161411	0.820578
H	0.116470	0.441406	2.142881
C	0.634696	2.401276	-0.563588
S	0.247646	0.938489	-1.464748
C	0.843182	3.190669	1.882380
H	0.728628	2.757614	2.894974
H	0.148095	4.052998	1.808137
H	1.873652	3.596752	1.808230
H	0.879464	3.327513	-1.097114
$end

$rem
JOBTYPE		SP
EXCHANGE	HF
CORRELATION	pRIMP2
BASIS		cc-pvtz
METHOD		rimp2
AUX_BASIS	rimp2-cc-pvtz
SOLVENT_METHOD	PCM
PURECART	11111
SYMMETRY	false
MEM_TOTAL	110000
SCF_CONVERGENCE = 6
THRESH=10
GUI = 2
$end



$solvent
dielectric 4.90
$end
--------------------------------------------------------------
 ----------------------------------------------------------------
             Standard Nuclear Orientation (Angstroms)
    I     Atom           X                Y                Z
 ----------------------------------------------------------------
    1      C      -0.1247260000    -3.8878000000    -0.7136440000
    2      C       0.1158240000    -3.7014560000     0.6509070000
    3      C       0.1888440000    -2.3451700000     1.0686460000
    4      H       0.2388410000    -4.5452330000     1.3462840000
    5      C       0.0000000000    -1.4501350000     0.0000000000
    6      S      -0.2648900000    -2.3213340000    -1.5043750000
    7      C       0.4398160000    -1.9344390000     2.4929780000
    8      H       0.5556690000    -2.8197990000     3.1475820000
    9      H      -0.3948790000    -1.3262100000     2.8999310000
   10      H       1.3627990000    -1.3253740000     2.5899820000
   11      H      -0.2256280000    -4.8153260000    -1.2882990000
   12      C       0.0000000000     0.0000000000     0.0000000000
   13      C       0.2156230000     0.8166230000     1.1130200000
   14      C       0.5711020000     2.1614110000     0.8205780000
   15      H       0.1164700000     0.4414060000     2.1428810000
   16      C       0.6346960000     2.4012760000    -0.5635880000
   17      S       0.2476460000     0.9384890000    -1.4647480000
   18      C       0.8431820000     3.1906690000     1.8823800000
   19      H       0.7286280000     2.7576140000     2.8949740000
   20      H       0.1480950000     4.0529980000     1.8081370000
   21      H       1.8736520000     3.5967520000     1.8082300000
   22      H       0.8794640000     3.3275130000    -1.0971140000
 ----------------------------------------------------------------
 Nuclear Repulsion Energy =         838.00387908 hartrees
 There are       51 alpha and       51 beta electrons
 Requested basis set is cc-pVTZ
 There are 184 shells and 508 basis functions

 Total QAlloc Memory Limit 110000 MB
 Mega-Array Size       188 MB
 MEM_STATIC part       192 MB
 Discretize the solute cavity surface with Lebedev spheres
	Using 110 Lebedev grid points for each H atom
	Using 194 Lebedev grid points for other atoms
	Atomic van der Waals radii will be scaled by 1.20
 Remove points where switching function is < 1.0e-08
 Keep 1514 surface tesserae and discard 1914 interior tesserae
 Molecular Surface Area = 228.970 Angst**2
 Requested basis set is rimp2-cc-pVTZ
 There are 394 shells and 1354 basis functions
 A cutoff of  1.0D-10 yielded  12417 shell pairs
 There are     91999 function pairs (    118610 Cartesian)
 Smallest overlap matrix eigenvalue = 5.10E-05

 Scale SEOQF with 1.000000e-01/1.000000e-01/1.000000e-01

 Standard Electronic Orientation quadrupole field applied
 Nucleus-field energy     =     0.0000000197 hartrees
 Guess from superposition of atomic densities
 Warning:  Energy on first SCF cycle will be non-variational
 SAD guess density has 102.000000 electrons

 -----------------------------------------------------------------------
  General SCF calculation program by
  Eric Jon Sundstrom, Paul Horn, Yuezhi Mao, Dmitri Zuev, Alec White,
  David Stuck, Shaama M.S., Shane Yost, Joonho Lee, David Small,
  Daniel Levine, Susi Lehtola, Hugh Burton, Evgeny Epifanovsky,
  Bang C. Huynh
 -----------------------------------------------------------------------
 Hartree-Fock
 using 64 threads for integral computing
 -------------------------------------------------------
 OpenMP Integral computing Module                
 Release: version 1.0, May 2013, Q-Chem Inc. Pittsburgh 
 -------------------------------------------------------
 A restricted SCF calculation will be
 performed using DIIS
 SCF converges when DIIS error is below 1.0e-06
 ---------------------------------------
  Cycle       Energy         DIIS error
 ---------------------------------------
    1   -1184.2507039797      2.38e-02  
    2   -1179.5391997337      1.61e-03  
    3   -1179.6609372763      6.30e-04  
    4   -1179.6751048996      3.41e-04  
    5   -1179.6800267217      6.31e-05  
    6   -1179.6802882327      2.91e-05  
    7   -1179.6803653858      1.18e-05  
    8   -1179.6803887639      5.10e-06  
    9   -1179.6803928478      1.56e-06  
   10   -1179.6803932565      4.92e-07  Convergence criterion met
 ---------------------------------------
 SCF time:   CPU 1512.96s  wall 62.00s 

************** Final PCM Free Energy Summary **************
 G_electrostatic  =      -0.00871422 hartree =      -5.46825480 kcal/mol
 G_cavitation     =       0.00000000 hartree =       0.00000000 kcal/mol
 G_dispersion     =       0.00000000 hartree =       0.00000000 kcal/mol
 G_repulsion      =       0.00000000 hartree =       0.00000000 kcal/mol
 --------------------------------------------------
 Non-electrostatic Free Energy =       0.00000000 hartree =       0.00000000 kcal/mol
 Total                         =      -0.00871422 hartree =      -5.46825480 kcal/mol
 --------------------------------------------------
 SCF Energy (H0 + V/2)                       =   -1179.68039326 
 Solute Internal Energy (H0)                 =   -1179.67167904 
 Total Free Energy (H0 + V/2 + non-elec)     =   -1179.68039326 hartree
                                             = -740260.61952148 kcal/mol
***********************************************************

 SCF   energy in the final basis set =    -1179.6803932565
 Total energy in the final basis set =    -1179.6803932565


 --------------------------------------------------------------
  Generalized many-body perturbation theory program
  by Joonho Lee, Fazle Rob, Xintian Feng, Evgeny Epifanovsky

 No regularization used 
 (reg. param. = 0.0000e+00)
  (P|Q)^-1/2 Time:  CPU 27.92 s  wall 0.45 s

 In RI-MP2 calculation: 
 # of frozen core orbitals: 20

 Components of the RIMP2 correlation energy:
        aaaa    correlation energy =        -0.2531952029 a.u.
        abab    correlation energy =        -1.4748964778 a.u.
        bbbb    correlation energy =        -0.2531952029 a.u.
        non-Brillouin singles      =        -0.0000000000 a.u.
        total same-spin energy     =        -0.5063904059 a.u.
        total opposite-spin energy =        -1.4748964778 a.u.

 Total  RIMP2   correlation energy =        -1.9812868837 a.u.
        RIMP2         total energy =     -1181.6616801402 a.u.

 RI-MP2 Energy Time:  CPU 304.60 s  wall 5.18 s
 
 --------------------------------------------------------------
 
                    Orbital Energies (a.u.)
 --------------------------------------------------------------
 
 Alpha MOs
 -- Occupied --
-91.9857 -91.9852 -11.2828 -11.2795 -11.2726 -11.2655 -11.2532 -11.2523
-11.2441 -11.2397 -11.2315 -11.2296  -8.9855  -8.9851  -6.6664  -6.6660
 -6.6659  -6.6655  -6.6652  -6.6649  -1.1814  -1.1503  -1.0413  -1.0278
 -0.9956  -0.9557  -0.9151  -0.8950  -0.8019  -0.7564  -0.7271  -0.7018
 -0.6614  -0.6147  -0.5920  -0.5824  -0.5703  -0.5629  -0.5513  -0.5404
 -0.5296  -0.5233  -0.5033  -0.4924  -0.4868  -0.4760  -0.4518  -0.3692
 -0.3473  -0.3378  -0.2696
 -- Virtual --
  0.0619   0.1353   0.1425   0.1470   0.1615   0.1734   0.1802   0.1842
  0.1979   0.2035   0.2052   0.2169   0.2356   0.2362   0.2409   0.2716
  0.2727   0.2852   0.3048   0.3159   0.3246   0.3580   0.3685   0.3769
  0.3835   0.3870   0.3940   0.4019   0.4050   0.4204   0.4328   0.4409
  0.4589   0.4667   0.4752   0.4794   0.4847   0.4884   0.5083   0.5135
  0.5152   0.5236   0.5306   0.5341   0.5392   0.5502   0.5520   0.5719
  0.5853   0.5877   0.5894   0.5991   0.6106   0.6127   0.6204   0.6213
  0.6266   0.6327   0.6367   0.6407   0.6468   0.6599   0.6731   0.6772
  0.6792   0.6932   0.6953   0.7154   0.7244   0.7411   0.7503   0.7650
  0.7680   0.7751   0.7970   0.8044   0.8074   0.8214   0.8421   0.8548
  0.8614   0.8688   0.8792   0.8880   0.9074   0.9244   0.9388   0.9537
  0.9556   0.9715   0.9862   0.9984   1.0025   1.0212   1.0305   1.0432
  1.0534   1.0583   1.0610   1.0748   1.0769   1.0857   1.0910   1.0960
  1.1061   1.1185   1.1262   1.1420   1.1566   1.1691   1.1721   1.2069
  1.2092   1.2189   1.2243   1.2347   1.2367   1.2524   1.2590   1.2779
  1.2806   1.2842   1.2909   1.3105   1.3267   1.3391   1.3502   1.3692
  1.3854   1.3885   1.4012   1.4075   1.4199   1.4424   1.4535   1.4682
  1.4829   1.4918   1.5121   1.5197   1.5272   1.5366   1.5420   1.5538
  1.5637   1.5710   1.5790   1.5817   1.5905   1.6092   1.6253   1.6306
  1.6435   1.6609   1.6716   1.6880   1.6955   1.7150   1.7262   1.7398
  1.7497   1.7745   1.7813   1.8040   1.8188   1.8321   1.8432   1.8653
  1.8665   1.8963   1.8988   1.9140   1.9476   1.9644   1.9713   1.9871
  2.0110   2.0494   2.0733   2.0954   2.1365   2.1438   2.1601   2.1675
  2.1971   2.2035   2.2192   2.2277   2.2464   2.2608   2.2671   2.2724
  2.2763   2.2929   2.3039   2.3830   2.4062   2.4232   2.4476   2.4566
  2.4829   2.4902   2.5085   2.5309   2.5476   2.5741   2.5895   2.6152
  2.6236   2.6385   2.6656   2.6699   2.6981   2.7051   2.7144   2.7356
  2.7451   2.7485   2.7589   2.7643   2.7706   2.7866   2.7962   2.8042
  2.8088   2.8466   2.8537   2.8582   2.8783   2.8931   2.9167   2.9429
  2.9546   2.9595   2.9821   2.9950   3.0045   3.0183   3.0304   3.0485
  3.0609   3.0710   3.1014   3.1110   3.1150   3.1276   3.1353   3.1462
  3.1499   3.1568   3.1671   3.1817   3.1861   3.1885   3.2118   3.2262
  3.2270   3.2447   3.2568   3.2736   3.2801   3.2890   3.2959   3.3064
  3.3105   3.3155   3.3404   3.3459   3.3547   3.3629   3.3716   3.3775
  3.3821   3.3898   3.3990   3.4090   3.4190   3.4264   3.4345   3.4427
  3.4577   3.4659   3.4716   3.4865   3.4918   3.5060   3.5084   3.5178
  3.5248   3.5278   3.5328   3.5433   3.5620   3.5686   3.5862   3.5909
  3.5974   3.6127   3.6203   3.6237   3.6336   3.6462   3.6632   3.6702
  3.6811   3.6864   3.6890   3.7026   3.7091   3.7167   3.7408   3.7579
  3.7616   3.7729   3.7795   3.7958   3.8044   3.8143   3.8298   3.8464
  3.8613   3.8803   3.8980   3.9128   3.9212   3.9317   3.9475   3.9715
  3.9768   3.9876   4.0073   4.0101   4.0177   4.0332   4.0482   4.0541
  4.0626   4.0909   4.1004   4.1115   4.1268   4.1420   4.1535   4.1576
  4.1669   4.1798   4.1954   4.2025   4.2139   4.2160   4.2212   4.2365
  4.2485   4.2677   4.2762   4.2897   4.3059   4.3294   4.3335   4.3485
  4.3522   4.3651   4.3776   4.4008   4.4046   4.4069   4.4120   4.4316
  4.4420   4.4642   4.4712   4.4946   4.5245   4.5346   4.5582   4.5693
  4.5919   4.6186   4.6207   4.6293   4.6415   4.6552   4.6628   4.6860
  4.6999   4.7153   4.7645   4.7732   4.7860   4.7926   4.8484   4.8623
  4.8748   4.8850   4.9033   4.9671   4.9766   4.9917   5.0059   5.0543
  5.0975   5.1092   5.1177   5.1484   5.1769   5.1894   5.2077   5.2732
  5.2807   5.2948   5.3061   5.3177   5.3470   5.3686   5.3814   5.4013
  5.4108   5.4445   5.4671   5.4990   5.5152   5.5361   5.5510   5.5667
  5.5700   5.6068   5.6196   5.6290   5.6431   5.7014   5.7132   5.7432
  5.7852   5.8371   5.9093   5.9871   6.0596   6.1399   6.2213   6.2269
  6.2563   6.2666   6.2843   6.3307   6.3687   6.4640   6.5881   8.7810
 10.0215  11.5401  12.0260  12.8582  13.1424  13.7767  14.1536  14.3006
 14.5924
 --------------------------------------------------------------
 
          Ground-State Mulliken Net Atomic Charges

     Atom                 Charge (a.u.)
  ----------------------------------------
      1 C                    -0.214038
      2 C                    -0.251273
      3 C                     0.065937
      4 H                     0.185530
      5 C                    -0.044689
      6 S                     0.010399
      7 C                    -0.312320
      8 H                     0.118886
      9 H                     0.105777
     10 H                     0.114151
     11 H                     0.206775
     12 C                     0.039676
     13 C                    -0.266868
     14 C                     0.038085
     15 H                     0.196168
     16 C                    -0.254149
     17 S                     0.013387
     18 C                    -0.270294
     19 H                     0.101461
     20 H                     0.108592
     21 H                     0.109027
     22 H                     0.199782
  ----------------------------------------
  Sum of atomic charges =     0.000000

 -----------------------------------------------------------------
                    Cartesian Multipole Moments
 -----------------------------------------------------------------
    Charge (ESU x 10^10)
                -0.0000
    Dipole Moment (Debye)
         X       0.7620      Y       0.1824      Z       2.9893
       Tot       3.0903
    Quadrupole Moments (Debye-Ang)
        XX     -91.8443     XY       2.3418     YY     -69.1573
        XZ       1.4688     YZ      -1.1939     ZZ     -80.2349
    Octopole Moments (Debye-Ang^2)
       XXX     -56.9053    XXY      53.2577    XYY      -9.1634
       YYY      97.4554    XXZ      -5.6849    XYZ      -4.8056
       YYZ     -10.1686    XZZ     -15.8474    YZZ      37.7825
       ZZZ      -6.6535
    Hexadecapole Moments (Debye-Ang^3)
      XXXX    -210.9775   XXXY    -123.3271   XXYY    -561.6273
      XYYY     -86.6034   YYYY   -2525.5893   XXXZ     -74.4089
      XXYZ     -32.5065   XYYZ     -10.8656   YYYZ     -75.7269
      XXZZ    -222.9667   XYZZ     -35.4144   YYZZ    -595.5786
      XZZZ     -70.7837   YZZZ    -107.0288   ZZZZ   -1067.8502
 -----------------------------------------------------------------
 Total job time:  69.80s(wall), 1931.28s(cpu) 
 Wed Dec 13 16:08:06 2023

        *************************************************************
        *                                                           *
        *  Thank you very much for using Q-Chem.  Have a nice day.  *
        *                                                           *
        *************************************************************


0 sent ACK to 0 
now end server 0 ... 
cleanup process ... done
remove work dirs ./qchem2790561.0 -- ./qchem2790561.0
rm -rf ./qchem2790561.0
rm -rf ./qchem2790561
