You are running Q-Chem version: 5.4.0

#
# job setting
#
local host:  exp-4-03
current dir: /home/rramji/project-csd799/aromodel/p3ht-qchem/rotation-run
input file:  Methylthiophene_Phi_50_Theta_150_Methylthiophene.qcin
output file: 
nprocs     : 1
nthreads   : 64
#
# qchem installation setting
#
QC:          /cm/shared/apps/spack/cpu/opt/spack/linux-centos8-zen2/gcc-10.2.0/qchem-5.4-akfmr7b3t57bfs6qan3padb2wnb2i7cl
QCAUX:       /cm/shared/apps/spack/cpu/opt/spack/linux-centos8-zen2/gcc-10.2.0/qchem-5.4-akfmr7b3t57bfs6qan3padb2wnb2i7cl/qcaux
QCPROG:      /cm/shared/apps/spack/cpu/opt/spack/linux-centos8-zen2/gcc-10.2.0/qchem-5.4-akfmr7b3t57bfs6qan3padb2wnb2i7cl/exe/qcprog.exe
QCPROG_S:    /cm/shared/apps/spack/cpu/opt/spack/linux-centos8-zen2/gcc-10.2.0/qchem-5.4-akfmr7b3t57bfs6qan3padb2wnb2i7cl/exe/qcprog.exe_s
PARALLEL:    -DPARALLEL
QCMPI:       mpich
#
# qchem directory setting
#
qcrun:       qchem1336371
QCSCRATCH:   .
QCLOCALSCR:  
QCTMPDIR:    .
QCFILEPREF:  ./qchem1336371
QCSAVEDIR:   
workdirs:    ./qchem1336371
workdir0:    ./qchem1336371
partmpdirs =  
#
# parallel setting
#
QCRSH:           ssh
QCMPI:           mpich
QCMPIRUN:        /cm/shared/apps/spack/cpu/opt/spack/linux-centos8-zen2/gcc-10.2.0/qchem-5.4-akfmr7b3t57bfs6qan3padb2wnb2i7cl/bin/mpi/mpirun_qchem
QCMACHINEFILE:   ./qchem1336371/hostfile
exp-4-03

#
# env setting
#
exported envs:   QC QCAUX QCSCRATCH QCRUNNAME QCFILEPREF QCPROG QCPROG_S GUIFILE

Running Job 1 of 1 Methylthiophene_Phi_50_Theta_150_Methylthiophene.qcin
qchem Methylthiophene_Phi_50_Theta_150_Methylthiophene.qcin_1336371.0 ./qchem1336371/ 1
/cm/shared/apps/spack/cpu/opt/spack/linux-centos8-zen2/gcc-10.2.0/qchem-5.4-akfmr7b3t57bfs6qan3padb2wnb2i7cl/bin/mpi/mpirun_qchem -machinefile ./qchem1336371/hostfile -np 1 /cm/shared/apps/spack/cpu/opt/spack/linux-centos8-zen2/gcc-10.2.0/qchem-5.4-akfmr7b3t57bfs6qan3padb2wnb2i7cl/exe/qcprog.exe Methylthiophene_Phi_50_Theta_150_Methylthiophene.qcin_1336371.0 ./qchem1336371/

Process 0 of 1 is on exp-4-03 - thread support 0
initial socket setup ...start
initial socket setup ...done 
now start server 0 ... 
                  Welcome to Q-Chem
     A Quantum Leap Into The Future Of Chemistry


 Q-Chem 5.4, Q-Chem, Inc., Pleasanton, CA (2021)

 License issued to: University of California, San Diego (site)

 E. Epifanovsky,  A. T. B. Gilbert,  Xintian Feng,  Joonho Lee,  Yuezhi Mao,  
 N. Mardirossian,  P. Pokhilko,  A. White,  M. Wormit,  M. P. Coons,  
 A. L. Dempwolff,  Zhengting Gan,  D. Hait,  P. R. Horn,  L. D. Jacobson,  
 I. Kaliman,  J. Kussmann,  A. W. Lange,  Ka Un Lao,  D. S. Levine,  Jie Liu,  
 S. C. McKenzie,  A. F. Morrison,  K. Nanda,  F. Plasser,  D. R. Rehn,  
 M. L. Vidal,  Zhi-Qiang You,  Ying Zhu,  B. Alam,  B. Albrecht,  
 A. Aldossary,  E. Alguire,  J. H. Andersen,  D. Barton,  K. Begam,  A. Behn,  
 Y. A. Bernard,  E. J. Berquist,  H. Burton,  A. Carreras,  K. Carter-Fenk,  
 R. Chakraborty,  A. D. Chien,  K. D. Closser,  V. Cofer-Shabica,  
 S. Dasgupta,  Jia Deng,  M. de Wergifosse,  M. Diedenhofen,  Hainam Do,  
 S. Ehlert,  Po-Tung Fang,  S. Fatehi,  Qingguo Feng,  J. Gayvert,  
 Qinghui Ge,  G. Gidofalvi,  M. Goldey,  J. Gomes,  C. Gonzalez-Espinoza,  
 S. Gulania,  A. Gunina,  M. W. D. Hanson-Heine,  P. H. P. Harbach,  
 A. W. Hauser,  M. F. Herbst,  M. Hernandez Vera,  M. Hodecker,  
 Z. C. Holden,  S. Houck,  Xunkun Huang,  Kerwin Hui,  B. C. Huynh,  
 M. Ivanov,  Hyunjun Ji,  Hanjie Jiang,  B. Kaduk,  S. Kaehler,  
 K. Khistyaev,  Jaehoon Kim,  P. Klunzinger,  Z. Koczor-Benda,  
 Joong Hoon Koh,  D. Kosenkov,  L. Koulias,  T. Kowalczyk,  C. M. Krauter,  
 K. Kue,  A. Kunitsa,  T. Kus,  A. Landau,  K. V. Lawler,  D. Lefrancois,  
 S. Lehtola,  Rain Li,  Yi-Pei Li,  Jiashu Liang,  M. Liebenthal,  
 Hung-Hsuan Lin,  You-Sheng Lin,  Fenglai Liu,  Kuan-Yu Liu,  
 M. Loipersberger,  A. Luenser,  A. Manjanath,  P. Manohar,  E. Mansoor,  
 S. F. Manzer,  Shan-Ping Mao,  A. V. Marenich,  T. Markovich,  S. Mason,  
 S. A. Maurer,  P. F. McLaughlin,  M. F. S. J. Menger,  J.-M. Mewes,  
 S. A. Mewes,  P. Morgante,  J. W. Mullinax,  T. S. Nguyen-Beck,  
 K. J. Oosterbaan,  G. Paran,  Alexander C. Paul,  Suranjan K. Paul,  
 F. Pavosevic,  Zheng Pei,  S. Prager,  E. I. Proynov,  E. Ramos,  B. Rana,  
 A. E. Rask,  A. Rettig,  R. M. Richard,  F. Rob,  E. Rossomme,  T. Scheele,  
 M. Scheurer,  M. Schneider,  N. Sergueev,  S. M. Sharada,  W. Skomorowski,  
 D. W. Small,  C. J. Stein,  Yu-Chuan Su,  E. J. Sundstrom,  Zhen Tao,  
 J. Thirman,  T. Tsuchimochi,  N. M. Tubman,  S. P. Veccham,  O. Vydrov,  
 J. Wenzel,  J. Witte,  A. Yamada,  Kun Yao,  S. Yeganeh,  S. R. Yost,  
 A. Zech,  Igor Ying Zhang,  Xing Zhang,  Yu Zhang,  D. Zuev,  
 A. Aspuru-Guzik,  A. T. Bell,  N. A. Besley,  K. B. Bravaya,  B. R. Brooks,  
 D. Casanova,  Jeng-Da Chai,  S. Coriani,  C. J. Cramer,  
 A. E. DePrince, III,  R. A. DiStasio Jr.,  A. Dreuw,  B. D. Dunietz,  
 T. R. Furlani,  W. A. Goddard III,  S. Grimme,  S. Hammes-Schiffer,  
 T. Head-Gordon,  W. J. Hehre,  Chao-Ping Hsu,  T.-C. Jagau,  Yousung Jung,  
 A. Klamt,  Jing Kong,  D. S. Lambrecht,  WanZhen Liang,  N. J. Mayhall,  
 C. W. McCurdy,  J. B. Neaton,  C. Ochsenfeld,  J. A. Parkhill,  R. Peverati,  
 V. A. Rassolov,  Yihan Shao,  L. V. Slipchenko,  T. Stauch,  R. P. Steele,  
 J. E. Subotnik,  A. J. W. Thom,  A. Tkatchenko,  D. G. Truhlar,  
 T. Van Voorhis,  T. A. Wesolowski,  K. B. Whaley,  H. L. Woodcock III,  
 P. M. Zimmerman,  S. Faraji,  P. M. W. Gill,  M. Head-Gordon,  
 J. M. Herbert,  A. I. Krylov

 Contributors to earlier versions of Q-Chem not listed above: 
 R. D. Adamson,  B. Austin,  R. Baer,  J. Baker,  G. J. O. Beran,  
 K. Brandhorst,  S. T. Brown,  E. F. C. Byrd,  A. K. Chakraborty,  
 G. K. L. Chan,  Chun-Min Chang,  Yunqing Chen,  C.-L. Cheng,  
 Siu Hung Chien,  D. M. Chipman,  D. L. Crittenden,  H. Dachsel,  
 R. J. Doerksen,  A. D. Dutoi,  R. G. Edgar,  J. Fosso-Tande,  
 L. Fusti-Molnar,  D. Ghosh,  A. Ghysels,  A. Golubeva-Zadorozhnaya,  
 J. Gonthier,  M. S. Gordon,  S. R. Gwaltney,  G. Hawkins,  J. E. Herr,  
 A. Heyden,  S. Hirata,  E. G. Hohenstein,  G. Kedziora,  F. J. Keil,  
 C. Kelley,  Jihan Kim,  R. A. King,  R. Z. Khaliullin,  P. P. Korambath,  
 W. Kurlancheek,  A. Laurent,  A. M. Lee,  M. S. Lee,  S. V. Levchenko,  
 Ching Yeh Lin,  D. Liotard,  E. Livshits,  R. C. Lochan,  I. Lotan,  
 L. A. Martinez-Martinez,  P. E. Maslen,  N. Nair,  D. P. O'Neill,  
 D. Neuhauser,  E. Neuscamman,  C. M. Oana,  R. Olivares-Amaya,  R. Olson,  
 T. M. Perrine,  B. Peters,  P. A. Pieniazek,  A. Prociuk,  Y. M. Rhee,  
 J. Ritchie,  M. A. Rohrdanz,  E. Rosta,  N. J. Russ,  H. F. Schaefer III,  
 M. W. Schmidt,  N. E. Schultz,  S. Sharma,  N. Shenvi,  C. D. Sherrill,  
 A. C. Simmonett,  A. Sodt,  T. Stein,  D. Stuck,  K. S. Thanthiriwatte,  
 V. Vanovschi,  L. Vogt,  Tao Wang,  A. Warshel,  M. A. Watson,  
 C. F. Williams,  Q. Wu,  X. Xu,  Jun Yang,  W. Zhang,  Yan Zhao

 Please cite Q-Chem as follows:
 Y. Shao et al., Mol. Phys. 113, 184-215 (2015)
 DOI: 10.1080/00268976.2014.952696

 Q-Chem 5.4.0 for Intel X86 EM64T Linux

 Parts of Q-Chem use Armadillo 9.800.1 (Horizon Scraper).
 http://arma.sourceforge.net/

 Q-Chem begins on Wed Dec 13 16:05:30 2023  

 Host: 
0

     Scratch files written to ./qchem1336371//
 May1621 |scratch|qcdevops|jenkins|workspace|build_RNUM    
 Parallel job on  1  processors
 Processing $rem in /cm/shared/apps/spack/cpu/opt/spack/linux-centos8-zen2/gcc-10.2.0/qchem-5.4-akfmr7b3t57bfs6qan3padb2wnb2i7cl/config/preferences:
 Processing $rem in /home/rramji/.qchemrc:
 Symmetry turned off for PCM/SM12/SMD calculation
 Core orbitals will be frozen

 Checking the input file for inconsistencies... 	...done.

 Q-Chem warning in module forms1/BasisType.C, line 2236:

 You are not using the predefined 5D/6D in this basis set.


--------------------------------------------------------------
User input:
--------------------------------------------------------------
$molecule
0 1
C	-0.361285	-3.887800	-0.627947
C	0.331462	-3.701456	0.572038
C	0.542953	-2.345170	0.939610
H	0.684893	-4.545233	1.183405
C	0.000000	-1.450135	0.000000
S	-0.763441	-2.321334	-1.323052
C	1.265941	-1.934439	2.192207
H	1.598695	-2.819799	2.767709
H	0.620770	-1.326210	2.860100
H	2.166438	-1.325374	1.967682
H	-0.652645	-4.815326	-1.133436
C	0.000000	0.000000	0.000000
C	0.645024	0.545262	1.113020
C	1.707554	1.442954	0.820578
H	0.348587	0.294774	2.142881
C	1.897227	1.602964	-0.563588
S	0.741155	0.626722	-1.464748
C	2.520787	2.130014	1.882380
H	2.178559	1.840981	2.894974
H	2.446016	3.235078	1.808137
H	3.597818	1.871604	1.808230
H	2.628997	2.221299	-1.097114
$end

$rem
JOBTYPE		SP
EXCHANGE	HF
CORRELATION	pRIMP2
BASIS		cc-pvtz
METHOD		rimp2
AUX_BASIS	rimp2-cc-pvtz
SOLVENT_METHOD	PCM
PURECART	11111
SYMMETRY	false
MEM_TOTAL	110000
SCF_CONVERGENCE = 6
THRESH=10
GUI = 2
$end



$solvent
dielectric 4.90
$end
--------------------------------------------------------------
 ----------------------------------------------------------------
             Standard Nuclear Orientation (Angstroms)
    I     Atom           X                Y                Z
 ----------------------------------------------------------------
    1      C      -0.3612850000    -3.8878000000    -0.6279470000
    2      C       0.3314620000    -3.7014560000     0.5720380000
    3      C       0.5429530000    -2.3451700000     0.9396100000
    4      H       0.6848930000    -4.5452330000     1.1834050000
    5      C       0.0000000000    -1.4501350000     0.0000000000
    6      S      -0.7634410000    -2.3213340000    -1.3230520000
    7      C       1.2659410000    -1.9344390000     2.1922070000
    8      H       1.5986950000    -2.8197990000     2.7677090000
    9      H       0.6207700000    -1.3262100000     2.8601000000
   10      H       2.1664380000    -1.3253740000     1.9676820000
   11      H      -0.6526450000    -4.8153260000    -1.1334360000
   12      C       0.0000000000     0.0000000000     0.0000000000
   13      C       0.6450240000     0.5452620000     1.1130200000
   14      C       1.7075540000     1.4429540000     0.8205780000
   15      H       0.3485870000     0.2947740000     2.1428810000
   16      C       1.8972270000     1.6029640000    -0.5635880000
   17      S       0.7411550000     0.6267220000    -1.4647480000
   18      C       2.5207870000     2.1300140000     1.8823800000
   19      H       2.1785590000     1.8409810000     2.8949740000
   20      H       2.4460160000     3.2350780000     1.8081370000
   21      H       3.5978180000     1.8716040000     1.8082300000
   22      H       2.6289970000     2.2212990000    -1.0971140000
 ----------------------------------------------------------------
 Nuclear Repulsion Energy =         855.55799594 hartrees
 There are       51 alpha and       51 beta electrons
 Requested basis set is cc-pVTZ
 There are 184 shells and 508 basis functions

 Total QAlloc Memory Limit 110000 MB
 Mega-Array Size       188 MB
 MEM_STATIC part       192 MB
 Discretize the solute cavity surface with Lebedev spheres
	Using 110 Lebedev grid points for each H atom
	Using 194 Lebedev grid points for other atoms
	Atomic van der Waals radii will be scaled by 1.20
 Remove points where switching function is < 1.0e-08
 Keep 1481 surface tesserae and discard 1947 interior tesserae
 Molecular Surface Area = 226.437 Angst**2
 Requested basis set is rimp2-cc-pVTZ
 There are 394 shells and 1354 basis functions
 A cutoff of  1.0D-10 yielded  13002 shell pairs
 There are     96770 function pairs (    124825 Cartesian)
 Smallest overlap matrix eigenvalue = 6.65E-05

 Scale SEOQF with 1.000000e-01/1.000000e-01/1.000000e-01

 Standard Electronic Orientation quadrupole field applied
 Nucleus-field energy     =     0.0000000197 hartrees
 Guess from superposition of atomic densities
 Warning:  Energy on first SCF cycle will be non-variational
 SAD guess density has 102.000000 electrons

 -----------------------------------------------------------------------
  General SCF calculation program by
  Eric Jon Sundstrom, Paul Horn, Yuezhi Mao, Dmitri Zuev, Alec White,
  David Stuck, Shaama M.S., Shane Yost, Joonho Lee, David Small,
  Daniel Levine, Susi Lehtola, Hugh Burton, Evgeny Epifanovsky,
  Bang C. Huynh
 -----------------------------------------------------------------------
 Hartree-Fock
 using 64 threads for integral computing
 -------------------------------------------------------
 OpenMP Integral computing Module                
 Release: version 1.0, May 2013, Q-Chem Inc. Pittsburgh 
 -------------------------------------------------------
 A restricted SCF calculation will be
 performed using DIIS
 SCF converges when DIIS error is below 1.0e-06
 ---------------------------------------
  Cycle       Energy         DIIS error
 ---------------------------------------
    1   -1184.3416953812      2.40e-02  
    2   -1179.4907579225      1.59e-03  
    3   -1179.6125682379      5.97e-04  
    4   -1179.6261520688      3.26e-04  
    5   -1179.6307350726      6.29e-05  
    6   -1179.6310245283      2.96e-05  
    7   -1179.6311157505      1.46e-05  
    8   -1179.6311486216      5.87e-06  
    9   -1179.6311550008      2.42e-06  
   10   -1179.6311559267      1.03e-06  
   11   -1179.6311561128      4.49e-07  Convergence criterion met
 ---------------------------------------
 SCF time:   CPU 1671.96s  wall 51.00s 

************** Final PCM Free Energy Summary **************
 G_electrostatic  =      -0.01010246 hartree =      -6.33939189 kcal/mol
 G_cavitation     =       0.00000000 hartree =       0.00000000 kcal/mol
 G_dispersion     =       0.00000000 hartree =       0.00000000 kcal/mol
 G_repulsion      =       0.00000000 hartree =       0.00000000 kcal/mol
 --------------------------------------------------
 Non-electrostatic Free Energy =       0.00000000 hartree =       0.00000000 kcal/mol
 Total                         =      -0.01010246 hartree =      -6.33939189 kcal/mol
 --------------------------------------------------
 SCF Energy (H0 + V/2)                       =   -1179.63115611 
 Solute Internal Energy (H0)                 =   -1179.62105365 
 Total Free Energy (H0 + V/2 + non-elec)     =   -1179.63115611 hartree
                                             = -740229.72274744 kcal/mol
***********************************************************

 SCF   energy in the final basis set =    -1179.6311561128
 Total energy in the final basis set =    -1179.6311561128


 --------------------------------------------------------------
  Generalized many-body perturbation theory program
  by Joonho Lee, Fazle Rob, Xintian Feng, Evgeny Epifanovsky

 No regularization used 
 (reg. param. = 0.0000e+00)
  (P|Q)^-1/2 Time:  CPU 32.50 s  wall 0.54 s

 In RI-MP2 calculation: 
 # of frozen core orbitals: 20

 Components of the RIMP2 correlation energy:
        aaaa    correlation energy =        -0.2553335169 a.u.
        abab    correlation energy =        -1.4823850227 a.u.
        bbbb    correlation energy =        -0.2553335169 a.u.
        non-Brillouin singles      =        -0.0000000000 a.u.
        total same-spin energy     =        -0.5106670339 a.u.
        total opposite-spin energy =        -1.4823850227 a.u.

 Total  RIMP2   correlation energy =        -1.9930520565 a.u.
        RIMP2         total energy =     -1181.6242081693 a.u.

 RI-MP2 Energy Time:  CPU 178.28 s  wall 3.47 s
 
 --------------------------------------------------------------
 
                    Orbital Energies (a.u.)
 --------------------------------------------------------------
 
 Alpha MOs
 -- Occupied --
-91.9827 -91.9765 -11.2828 -11.2778 -11.2644 -11.2631 -11.2554 -11.2536
-11.2434 -11.2397 -11.2317 -11.2281  -8.9832  -8.9768  -6.6640  -6.6633
 -6.6628  -6.6578  -6.6572  -6.6566  -1.1872  -1.1472  -1.0444  -1.0255
 -0.9958  -0.9530  -0.9143  -0.8938  -0.7965  -0.7550  -0.7324  -0.7025
 -0.6551  -0.6175  -0.5967  -0.5839  -0.5699  -0.5594  -0.5489  -0.5410
 -0.5282  -0.5233  -0.5060  -0.4891  -0.4754  -0.4643  -0.4518  -0.3594
 -0.3447  -0.3362  -0.2698
 -- Virtual --
  0.0591   0.1175   0.1354   0.1484   0.1647   0.1729   0.1762   0.1869
  0.1934   0.2017   0.2065   0.2233   0.2307   0.2388   0.2486   0.2558
  0.2656   0.2777   0.2936   0.3179   0.3308   0.3394   0.3591   0.3670
  0.3796   0.3833   0.3923   0.4036   0.4142   0.4220   0.4401   0.4436
  0.4445   0.4557   0.4707   0.4751   0.4771   0.4841   0.4991   0.5051
  0.5122   0.5211   0.5229   0.5331   0.5390   0.5473   0.5565   0.5708
  0.5767   0.5831   0.5906   0.5943   0.6117   0.6125   0.6170   0.6197
  0.6306   0.6347   0.6400   0.6502   0.6558   0.6631   0.6726   0.6784
  0.6804   0.6894   0.7062   0.7092   0.7241   0.7384   0.7507   0.7646
  0.7688   0.7747   0.7896   0.8062   0.8105   0.8149   0.8319   0.8503
  0.8611   0.8626   0.8770   0.8973   0.9073   0.9125   0.9314   0.9466
  0.9667   0.9803   0.9850   0.9898   1.0037   1.0202   1.0299   1.0454
  1.0464   1.0483   1.0680   1.0845   1.0907   1.0941   1.1008   1.1052
  1.1186   1.1198   1.1360   1.1388   1.1633   1.1746   1.2063   1.2137
  1.2212   1.2260   1.2319   1.2493   1.2553   1.2591   1.2694   1.2802
  1.2912   1.3000   1.3254   1.3270   1.3378   1.3515   1.3721   1.3867
  1.3902   1.3966   1.4025   1.4144   1.4290   1.4350   1.4530   1.4683
  1.4733   1.4913   1.5076   1.5108   1.5180   1.5343   1.5425   1.5585
  1.5635   1.5663   1.5730   1.5783   1.6002   1.6038   1.6238   1.6423
  1.6686   1.6802   1.6856   1.6959   1.7100   1.7251   1.7358   1.7373
  1.7515   1.7725   1.7809   1.8073   1.8154   1.8193   1.8428   1.8720
  1.8806   1.8936   1.9245   1.9284   1.9471   1.9672   1.9930   2.0071
  2.0201   2.0425   2.0837   2.0894   2.1187   2.1413   2.1564   2.1726
  2.1807   2.1889   2.2033   2.2345   2.2396   2.2640   2.2673   2.2744
  2.2813   2.3067   2.3241   2.3508   2.4009   2.4334   2.4414   2.4653
  2.4752   2.4869   2.5249   2.5386   2.5427   2.5697   2.5900   2.6189
  2.6252   2.6522   2.6699   2.6776   2.6873   2.7016   2.7185   2.7379
  2.7392   2.7450   2.7555   2.7743   2.7807   2.7857   2.8051   2.8224
  2.8372   2.8435   2.8632   2.8751   2.8869   2.9091   2.9267   2.9615
  2.9711   2.9769   2.9920   3.0027   3.0093   3.0234   3.0356   3.0498
  3.0651   3.0660   3.1020   3.1098   3.1125   3.1245   3.1412   3.1437
  3.1612   3.1773   3.1834   3.1942   3.2087   3.2123   3.2171   3.2235
  3.2439   3.2559   3.2631   3.2781   3.2859   3.2971   3.3027   3.3104
  3.3160   3.3287   3.3383   3.3428   3.3640   3.3724   3.3777   3.3857
  3.3911   3.4012   3.4071   3.4223   3.4235   3.4279   3.4416   3.4463
  3.4628   3.4646   3.4844   3.4874   3.4950   3.5147   3.5190   3.5214
  3.5260   3.5335   3.5409   3.5535   3.5607   3.5758   3.5806   3.5896
  3.6043   3.6191   3.6301   3.6492   3.6581   3.6684   3.6780   3.6917
  3.7062   3.7093   3.7155   3.7297   3.7369   3.7407   3.7694   3.7792
  3.7823   3.7932   3.7979   3.8123   3.8197   3.8420   3.8554   3.8582
  3.8741   3.8997   3.9071   3.9254   3.9406   3.9479   3.9615   3.9770
  3.9833   4.0110   4.0209   4.0338   4.0362   4.0463   4.0519   4.0698
  4.0834   4.0984   4.1158   4.1241   4.1288   4.1477   4.1650   4.1763
  4.1900   4.1973   4.2042   4.2056   4.2200   4.2263   4.2401   4.2610
  4.2620   4.2769   4.2891   4.3092   4.3109   4.3217   4.3418   4.3538
  4.3613   4.3674   4.3789   4.4000   4.4200   4.4244   4.4372   4.4490
  4.4617   4.4793   4.4891   4.5259   4.5361   4.5435   4.5623   4.5875
  4.5915   4.6190   4.6217   4.6402   4.6589   4.6689   4.6888   4.6958
  4.7332   4.7477   4.7536   4.7846   4.8111   4.8211   4.8450   4.8637
  4.8788   4.8957   4.9196   4.9501   4.9709   4.9793   5.0066   5.0605
  5.0714   5.0980   5.1091   5.1365   5.1669   5.1814   5.2032   5.2320
  5.2679   5.2718   5.3093   5.3108   5.3229   5.3673   5.3902   5.4046
  5.4234   5.4490   5.4680   5.4961   5.5132   5.5281   5.5548   5.5671
  5.5941   5.6152   5.6353   5.6445   5.6661   5.6922   5.7084   5.7425
  5.7925   5.8174   5.9658   5.9831   6.0152   6.0678   6.1134   6.2254
  6.2446   6.2704   6.3005   6.3068   6.3819   6.4106   6.5393   8.6178
  9.7632  11.5797  12.2867  12.8186  13.2607  13.7089  14.1249  14.2330
 14.4940
 --------------------------------------------------------------
 
          Ground-State Mulliken Net Atomic Charges

     Atom                 Charge (a.u.)
  ----------------------------------------
      1 C                    -0.221100
      2 C                    -0.258094
      3 C                     0.042172
      4 H                     0.183599
      5 C                    -0.005919
      6 S                    -0.003516
      7 C                    -0.297463
      8 H                     0.115042
      9 H                     0.098268
     10 H                     0.115520
     11 H                     0.202576
     12 C                    -0.086886
     13 C                    -0.192623
     14 C                     0.013844
     15 H                     0.199767
     16 C                    -0.198633
     17 S                     0.037306
     18 C                    -0.273880
     19 H                     0.104206
     20 H                     0.115377
     21 H                     0.108230
     22 H                     0.202209
  ----------------------------------------
  Sum of atomic charges =     0.000000

 -----------------------------------------------------------------
                    Cartesian Multipole Moments
 -----------------------------------------------------------------
    Charge (ESU x 10^10)
                -0.0000
    Dipole Moment (Debye)
         X       2.9931      Y       0.8690      Z       3.0565
       Tot       4.3653
    Quadrupole Moments (Debye-Ang)
        XX     -83.8130     XY       4.9210     YY     -77.3603
        XZ       3.3522     YZ      -1.4091     ZZ     -81.7054
    Octopole Moments (Debye-Ang^2)
       XXX    -148.4568    XXY      87.7278    XYY     -42.7110
       YYY     156.6854    XXZ      -6.3943    XYZ     -11.6021
       YYZ      -8.0202    XZZ     -47.8650    YZZ      65.8252
       ZZZ      -5.4542
    Hexadecapole Moments (Debye-Ang^3)
      XXXX    -807.7603   XXXY    -206.5873   XXYY    -534.8276
      XYYY    -203.2688   YYYY   -2151.2951   XXXZ    -207.5511
      XXYZ     -31.0970   XYYZ     -30.2442   YYYZ     -42.7514
      XXZZ    -289.5226   XYZZ     -70.0851   YYZZ    -533.6933
      XZZZ    -195.8091   YZZZ     -68.4594   ZZZZ    -954.6441
 -----------------------------------------------------------------
 Total job time:  56.47s(wall), 1927.11s(cpu) 
 Wed Dec 13 16:06:27 2023

        *************************************************************
        *                                                           *
        *  Thank you very much for using Q-Chem.  Have a nice day.  *
        *                                                           *
        *************************************************************


0 sent ACK to 0 
now end server 0 ... 
cleanup process ... done
remove work dirs ./qchem1336371.0 -- ./qchem1336371.0
rm -rf ./qchem1336371.0
rm -rf ./qchem1336371
