You are running Q-Chem version: 5.4.0

#
# job setting
#
local host:  exp-3-44
current dir: /home/rramji/project-csd799/aromodel/p3ht-qchem/rotation-run
input file:  Methylthiophene_Phi_30_Theta_340_Methylthiophene.qcin
output file: 
nprocs     : 1
nthreads   : 64
#
# qchem installation setting
#
QC:          /cm/shared/apps/spack/cpu/opt/spack/linux-centos8-zen2/gcc-10.2.0/qchem-5.4-akfmr7b3t57bfs6qan3padb2wnb2i7cl
QCAUX:       /cm/shared/apps/spack/cpu/opt/spack/linux-centos8-zen2/gcc-10.2.0/qchem-5.4-akfmr7b3t57bfs6qan3padb2wnb2i7cl/qcaux
QCPROG:      /cm/shared/apps/spack/cpu/opt/spack/linux-centos8-zen2/gcc-10.2.0/qchem-5.4-akfmr7b3t57bfs6qan3padb2wnb2i7cl/exe/qcprog.exe
QCPROG_S:    /cm/shared/apps/spack/cpu/opt/spack/linux-centos8-zen2/gcc-10.2.0/qchem-5.4-akfmr7b3t57bfs6qan3padb2wnb2i7cl/exe/qcprog.exe_s
PARALLEL:    -DPARALLEL
QCMPI:       mpich
#
# qchem directory setting
#
qcrun:       qchem2237300
QCSCRATCH:   .
QCLOCALSCR:  
QCTMPDIR:    .
QCFILEPREF:  ./qchem2237300
QCSAVEDIR:   
workdirs:    ./qchem2237300
workdir0:    ./qchem2237300
partmpdirs =  
#
# parallel setting
#
QCRSH:           ssh
QCMPI:           mpich
QCMPIRUN:        /cm/shared/apps/spack/cpu/opt/spack/linux-centos8-zen2/gcc-10.2.0/qchem-5.4-akfmr7b3t57bfs6qan3padb2wnb2i7cl/bin/mpi/mpirun_qchem
QCMACHINEFILE:   ./qchem2237300/hostfile
exp-3-44

#
# env setting
#
exported envs:   QC QCAUX QCSCRATCH QCRUNNAME QCFILEPREF QCPROG QCPROG_S GUIFILE

Running Job 1 of 1 Methylthiophene_Phi_30_Theta_340_Methylthiophene.qcin
qchem Methylthiophene_Phi_30_Theta_340_Methylthiophene.qcin_2237300.0 ./qchem2237300/ 1
/cm/shared/apps/spack/cpu/opt/spack/linux-centos8-zen2/gcc-10.2.0/qchem-5.4-akfmr7b3t57bfs6qan3padb2wnb2i7cl/bin/mpi/mpirun_qchem -machinefile ./qchem2237300/hostfile -np 1 /cm/shared/apps/spack/cpu/opt/spack/linux-centos8-zen2/gcc-10.2.0/qchem-5.4-akfmr7b3t57bfs6qan3padb2wnb2i7cl/exe/qcprog.exe Methylthiophene_Phi_30_Theta_340_Methylthiophene.qcin_2237300.0 ./qchem2237300/

Process 0 of 1 is on exp-3-44 - thread support 0
initial socket setup ...start
initial socket setup ...done 
now start server 0 ... 
                  Welcome to Q-Chem
     A Quantum Leap Into The Future Of Chemistry


 Q-Chem 5.4, Q-Chem, Inc., Pleasanton, CA (2021)

 License issued to: University of California, San Diego (site)

 E. Epifanovsky,  A. T. B. Gilbert,  Xintian Feng,  Joonho Lee,  Yuezhi Mao,  
 N. Mardirossian,  P. Pokhilko,  A. White,  M. Wormit,  M. P. Coons,  
 A. L. Dempwolff,  Zhengting Gan,  D. Hait,  P. R. Horn,  L. D. Jacobson,  
 I. Kaliman,  J. Kussmann,  A. W. Lange,  Ka Un Lao,  D. S. Levine,  Jie Liu,  
 S. C. McKenzie,  A. F. Morrison,  K. Nanda,  F. Plasser,  D. R. Rehn,  
 M. L. Vidal,  Zhi-Qiang You,  Ying Zhu,  B. Alam,  B. Albrecht,  
 A. Aldossary,  E. Alguire,  J. H. Andersen,  D. Barton,  K. Begam,  A. Behn,  
 Y. A. Bernard,  E. J. Berquist,  H. Burton,  A. Carreras,  K. Carter-Fenk,  
 R. Chakraborty,  A. D. Chien,  K. D. Closser,  V. Cofer-Shabica,  
 S. Dasgupta,  Jia Deng,  M. de Wergifosse,  M. Diedenhofen,  Hainam Do,  
 S. Ehlert,  Po-Tung Fang,  S. Fatehi,  Qingguo Feng,  J. Gayvert,  
 Qinghui Ge,  G. Gidofalvi,  M. Goldey,  J. Gomes,  C. Gonzalez-Espinoza,  
 S. Gulania,  A. Gunina,  M. W. D. Hanson-Heine,  P. H. P. Harbach,  
 A. W. Hauser,  M. F. Herbst,  M. Hernandez Vera,  M. Hodecker,  
 Z. C. Holden,  S. Houck,  Xunkun Huang,  Kerwin Hui,  B. C. Huynh,  
 M. Ivanov,  Hyunjun Ji,  Hanjie Jiang,  B. Kaduk,  S. Kaehler,  
 K. Khistyaev,  Jaehoon Kim,  P. Klunzinger,  Z. Koczor-Benda,  
 Joong Hoon Koh,  D. Kosenkov,  L. Koulias,  T. Kowalczyk,  C. M. Krauter,  
 K. Kue,  A. Kunitsa,  T. Kus,  A. Landau,  K. V. Lawler,  D. Lefrancois,  
 S. Lehtola,  Rain Li,  Yi-Pei Li,  Jiashu Liang,  M. Liebenthal,  
 Hung-Hsuan Lin,  You-Sheng Lin,  Fenglai Liu,  Kuan-Yu Liu,  
 M. Loipersberger,  A. Luenser,  A. Manjanath,  P. Manohar,  E. Mansoor,  
 S. F. Manzer,  Shan-Ping Mao,  A. V. Marenich,  T. Markovich,  S. Mason,  
 S. A. Maurer,  P. F. McLaughlin,  M. F. S. J. Menger,  J.-M. Mewes,  
 S. A. Mewes,  P. Morgante,  J. W. Mullinax,  T. S. Nguyen-Beck,  
 K. J. Oosterbaan,  G. Paran,  Alexander C. Paul,  Suranjan K. Paul,  
 F. Pavosevic,  Zheng Pei,  S. Prager,  E. I. Proynov,  E. Ramos,  B. Rana,  
 A. E. Rask,  A. Rettig,  R. M. Richard,  F. Rob,  E. Rossomme,  T. Scheele,  
 M. Scheurer,  M. Schneider,  N. Sergueev,  S. M. Sharada,  W. Skomorowski,  
 D. W. Small,  C. J. Stein,  Yu-Chuan Su,  E. J. Sundstrom,  Zhen Tao,  
 J. Thirman,  T. Tsuchimochi,  N. M. Tubman,  S. P. Veccham,  O. Vydrov,  
 J. Wenzel,  J. Witte,  A. Yamada,  Kun Yao,  S. Yeganeh,  S. R. Yost,  
 A. Zech,  Igor Ying Zhang,  Xing Zhang,  Yu Zhang,  D. Zuev,  
 A. Aspuru-Guzik,  A. T. Bell,  N. A. Besley,  K. B. Bravaya,  B. R. Brooks,  
 D. Casanova,  Jeng-Da Chai,  S. Coriani,  C. J. Cramer,  
 A. E. DePrince, III,  R. A. DiStasio Jr.,  A. Dreuw,  B. D. Dunietz,  
 T. R. Furlani,  W. A. Goddard III,  S. Grimme,  S. Hammes-Schiffer,  
 T. Head-Gordon,  W. J. Hehre,  Chao-Ping Hsu,  T.-C. Jagau,  Yousung Jung,  
 A. Klamt,  Jing Kong,  D. S. Lambrecht,  WanZhen Liang,  N. J. Mayhall,  
 C. W. McCurdy,  J. B. Neaton,  C. Ochsenfeld,  J. A. Parkhill,  R. Peverati,  
 V. A. Rassolov,  Yihan Shao,  L. V. Slipchenko,  T. Stauch,  R. P. Steele,  
 J. E. Subotnik,  A. J. W. Thom,  A. Tkatchenko,  D. G. Truhlar,  
 T. Van Voorhis,  T. A. Wesolowski,  K. B. Whaley,  H. L. Woodcock III,  
 P. M. Zimmerman,  S. Faraji,  P. M. W. Gill,  M. Head-Gordon,  
 J. M. Herbert,  A. I. Krylov

 Contributors to earlier versions of Q-Chem not listed above: 
 R. D. Adamson,  B. Austin,  R. Baer,  J. Baker,  G. J. O. Beran,  
 K. Brandhorst,  S. T. Brown,  E. F. C. Byrd,  A. K. Chakraborty,  
 G. K. L. Chan,  Chun-Min Chang,  Yunqing Chen,  C.-L. Cheng,  
 Siu Hung Chien,  D. M. Chipman,  D. L. Crittenden,  H. Dachsel,  
 R. J. Doerksen,  A. D. Dutoi,  R. G. Edgar,  J. Fosso-Tande,  
 L. Fusti-Molnar,  D. Ghosh,  A. Ghysels,  A. Golubeva-Zadorozhnaya,  
 J. Gonthier,  M. S. Gordon,  S. R. Gwaltney,  G. Hawkins,  J. E. Herr,  
 A. Heyden,  S. Hirata,  E. G. Hohenstein,  G. Kedziora,  F. J. Keil,  
 C. Kelley,  Jihan Kim,  R. A. King,  R. Z. Khaliullin,  P. P. Korambath,  
 W. Kurlancheek,  A. Laurent,  A. M. Lee,  M. S. Lee,  S. V. Levchenko,  
 Ching Yeh Lin,  D. Liotard,  E. Livshits,  R. C. Lochan,  I. Lotan,  
 L. A. Martinez-Martinez,  P. E. Maslen,  N. Nair,  D. P. O'Neill,  
 D. Neuhauser,  E. Neuscamman,  C. M. Oana,  R. Olivares-Amaya,  R. Olson,  
 T. M. Perrine,  B. Peters,  P. A. Pieniazek,  A. Prociuk,  Y. M. Rhee,  
 J. Ritchie,  M. A. Rohrdanz,  E. Rosta,  N. J. Russ,  H. F. Schaefer III,  
 M. W. Schmidt,  N. E. Schultz,  S. Sharma,  N. Shenvi,  C. D. Sherrill,  
 A. C. Simmonett,  A. Sodt,  T. Stein,  D. Stuck,  K. S. Thanthiriwatte,  
 V. Vanovschi,  L. Vogt,  Tao Wang,  A. Warshel,  M. A. Watson,  
 C. F. Williams,  Q. Wu,  X. Xu,  Jun Yang,  W. Zhang,  Yan Zhao

 Please cite Q-Chem as follows:
 Y. Shao et al., Mol. Phys. 113, 184-215 (2015)
 DOI: 10.1080/00268976.2014.952696

 Q-Chem 5.4.0 for Intel X86 EM64T Linux

 Parts of Q-Chem use Armadillo 9.800.1 (Horizon Scraper).
 http://arma.sourceforge.net/

 Q-Chem begins on Wed Dec 13 16:20:11 2023  

 Host: 
0

     Scratch files written to ./qchem2237300//
 May1621 |scratch|qcdevops|jenkins|workspace|build_RNUM    
 Parallel job on  1  processors
 Processing $rem in /cm/shared/apps/spack/cpu/opt/spack/linux-centos8-zen2/gcc-10.2.0/qchem-5.4-akfmr7b3t57bfs6qan3padb2wnb2i7cl/config/preferences:
 Processing $rem in /home/rramji/.qchemrc:
 Symmetry turned off for PCM/SM12/SMD calculation
 Core orbitals will be frozen

 Checking the input file for inconsistencies... 	...done.

 Q-Chem warning in module forms1/BasisType.C, line 2236:

 You are not using the predefined 5D/6D in this basis set.


--------------------------------------------------------------
User input:
--------------------------------------------------------------
$molecule
0 1
C	0.246754	-3.887800	0.681143
C	-0.227093	-3.701456	-0.620906
C	-0.371543	-2.345170	-1.019618
H	-0.468992	-4.545233	-1.284357
C	0.000000	-1.450135	0.000000
S	0.522097	-2.321334	1.435522
C	-0.866035	-1.934439	-2.378731
H	-1.093799	-2.819799	-3.003272
H	-0.114688	-1.326210	-2.924444
H	-1.791841	-1.325374	-2.313987
H	0.445911	-4.815326	1.229547
C	0.000000	0.000000	0.000000
C	0.419634	0.732990	1.113020
C	1.111057	1.939951	0.820578
H	0.226746	0.396221	2.142881
C	1.234565	2.155183	-0.563588
S	0.482106	0.842416	-1.464748
C	1.640257	2.863718	1.882380
H	1.417524	2.475067	2.894974
H	1.192042	3.876565	1.808137
H	2.740717	2.989259	1.808230
H	1.710720	2.986508	-1.097114
$end

$rem
JOBTYPE		SP
EXCHANGE	HF
CORRELATION	pRIMP2
BASIS		cc-pvtz
METHOD		rimp2
AUX_BASIS	rimp2-cc-pvtz
SOLVENT_METHOD	PCM
PURECART	11111
SYMMETRY	false
MEM_TOTAL	110000
SCF_CONVERGENCE = 6
THRESH=10
GUI = 2
$end



$solvent
dielectric 4.90
$end
--------------------------------------------------------------
 ----------------------------------------------------------------
             Standard Nuclear Orientation (Angstroms)
    I     Atom           X                Y                Z
 ----------------------------------------------------------------
    1      C       0.2467540000    -3.8878000000     0.6811430000
    2      C      -0.2270930000    -3.7014560000    -0.6209060000
    3      C      -0.3715430000    -2.3451700000    -1.0196180000
    4      H      -0.4689920000    -4.5452330000    -1.2843570000
    5      C       0.0000000000    -1.4501350000     0.0000000000
    6      S       0.5220970000    -2.3213340000     1.4355220000
    7      C      -0.8660350000    -1.9344390000    -2.3787310000
    8      H      -1.0937990000    -2.8197990000    -3.0032720000
    9      H      -0.1146880000    -1.3262100000    -2.9244440000
   10      H      -1.7918410000    -1.3253740000    -2.3139870000
   11      H       0.4459110000    -4.8153260000     1.2295470000
   12      C       0.0000000000     0.0000000000     0.0000000000
   13      C       0.4196340000     0.7329900000     1.1130200000
   14      C       1.1110570000     1.9399510000     0.8205780000
   15      H       0.2267460000     0.3962210000     2.1428810000
   16      C       1.2345650000     2.1551830000    -0.5635880000
   17      S       0.4821060000     0.8424160000    -1.4647480000
   18      C       1.6402570000     2.8637180000     1.8823800000
   19      H       1.4175240000     2.4750670000     2.8949740000
   20      H       1.1920420000     3.8765650000     1.8081370000
   21      H       2.7407170000     2.9892590000     1.8082300000
   22      H       1.7107200000     2.9865080000    -1.0971140000
 ----------------------------------------------------------------
 Nuclear Repulsion Energy =         842.28387131 hartrees
 There are       51 alpha and       51 beta electrons
 Requested basis set is cc-pVTZ
 There are 184 shells and 508 basis functions

 Total QAlloc Memory Limit 110000 MB
 Mega-Array Size       188 MB
 MEM_STATIC part       192 MB
 Discretize the solute cavity surface with Lebedev spheres
	Using 110 Lebedev grid points for each H atom
	Using 194 Lebedev grid points for other atoms
	Atomic van der Waals radii will be scaled by 1.20
 Remove points where switching function is < 1.0e-08
 Keep 1514 surface tesserae and discard 1914 interior tesserae
 Molecular Surface Area = 229.465 Angst**2
 Requested basis set is rimp2-cc-pVTZ
 There are 394 shells and 1354 basis functions
 A cutoff of  1.0D-10 yielded  12283 shell pairs
 There are     91307 function pairs (    117913 Cartesian)
 Smallest overlap matrix eigenvalue = 6.92E-05

 Scale SEOQF with 1.000000e-01/1.000000e-01/1.000000e-01

 Standard Electronic Orientation quadrupole field applied
 Nucleus-field energy     =     0.0000000199 hartrees
 Guess from superposition of atomic densities
 Warning:  Energy on first SCF cycle will be non-variational
 SAD guess density has 102.000000 electrons

 -----------------------------------------------------------------------
  General SCF calculation program by
  Eric Jon Sundstrom, Paul Horn, Yuezhi Mao, Dmitri Zuev, Alec White,
  David Stuck, Shaama M.S., Shane Yost, Joonho Lee, David Small,
  Daniel Levine, Susi Lehtola, Hugh Burton, Evgeny Epifanovsky,
  Bang C. Huynh
 -----------------------------------------------------------------------
 Hartree-Fock
 using 64 threads for integral computing
 -------------------------------------------------------
 OpenMP Integral computing Module                
 Release: version 1.0, May 2013, Q-Chem Inc. Pittsburgh 
 -------------------------------------------------------
 A restricted SCF calculation will be
 performed using DIIS
 SCF converges when DIIS error is below 1.0e-06
 ---------------------------------------
  Cycle       Energy         DIIS error
 ---------------------------------------
    1   -1184.2476928138      2.38e-02  
    2   -1179.5304879019      1.60e-03  
    3   -1179.6517447688      6.03e-04  
    4   -1179.6652615396      3.25e-04  
    5   -1179.6697346299      6.31e-05  
    6   -1179.6700060702      3.03e-05  
    7   -1179.6700912092      1.26e-05  
    8   -1179.6701195164      5.14e-06  
    9   -1179.6701245931      1.73e-06  
   10   -1179.6701250682      5.25e-07  Convergence criterion met
 ---------------------------------------
 SCF time:   CPU 1471.81s  wall 42.00s 

************** Final PCM Free Energy Summary **************
 G_electrostatic  =      -0.00794729 hartree =      -4.98699724 kcal/mol
 G_cavitation     =       0.00000000 hartree =       0.00000000 kcal/mol
 G_dispersion     =       0.00000000 hartree =       0.00000000 kcal/mol
 G_repulsion      =       0.00000000 hartree =       0.00000000 kcal/mol
 --------------------------------------------------
 Non-electrostatic Free Energy =       0.00000000 hartree =       0.00000000 kcal/mol
 Total                         =      -0.00794729 hartree =      -4.98699724 kcal/mol
 --------------------------------------------------
 SCF Energy (H0 + V/2)                       =   -1179.67012507 
 Solute Internal Energy (H0)                 =   -1179.66217778 
 Total Free Energy (H0 + V/2 + non-elec)     =   -1179.67012507 hartree
                                             = -740254.17613608 kcal/mol
***********************************************************

 SCF   energy in the final basis set =    -1179.6701250682
 Total energy in the final basis set =    -1179.6701250682


 --------------------------------------------------------------
  Generalized many-body perturbation theory program
  by Joonho Lee, Fazle Rob, Xintian Feng, Evgeny Epifanovsky

 No regularization used 
 (reg. param. = 0.0000e+00)
  (P|Q)^-1/2 Time:  CPU 17.62 s  wall 0.28 s

 In RI-MP2 calculation: 
 # of frozen core orbitals: 20

 Components of the RIMP2 correlation energy:
        aaaa    correlation energy =        -0.2536673752 a.u.
        abab    correlation energy =        -1.4768396326 a.u.
        bbbb    correlation energy =        -0.2536673752 a.u.
        non-Brillouin singles      =        -0.0000000000 a.u.
        total same-spin energy     =        -0.5073347503 a.u.
        total opposite-spin energy =        -1.4768396326 a.u.

 Total  RIMP2   correlation energy =        -1.9841743829 a.u.
        RIMP2         total energy =     -1181.6542994511 a.u.

 RI-MP2 Energy Time:  CPU 151.44 s  wall 2.96 s
 
 --------------------------------------------------------------
 
                    Orbital Energies (a.u.)
 --------------------------------------------------------------
 
 Alpha MOs
 -- Occupied --
-91.9852 -91.9838 -11.2784 -11.2772 -11.2695 -11.2691 -11.2534 -11.2483
-11.2450 -11.2420 -11.2297 -11.2290  -8.9851  -8.9836  -6.6660  -6.6654
 -6.6648  -6.6645  -6.6640  -6.6633  -1.1823  -1.1494  -1.0422  -1.0239
 -0.9992  -0.9514  -0.9145  -0.8945  -0.7983  -0.7644  -0.7216  -0.6938
 -0.6613  -0.6170  -0.5837  -0.5803  -0.5785  -0.5701  -0.5518  -0.5338
 -0.5245  -0.5192  -0.5102  -0.4970  -0.4843  -0.4676  -0.4522  -0.3648
 -0.3439  -0.3402  -0.2695
 -- Virtual --
  0.0596   0.1290   0.1430   0.1533   0.1628   0.1750   0.1812   0.1880
  0.1921   0.1956   0.2106   0.2203   0.2353   0.2379   0.2421   0.2469
  0.2573   0.2771   0.3015   0.3080   0.3356   0.3569   0.3626   0.3709
  0.3813   0.3855   0.4055   0.4097   0.4159   0.4217   0.4374   0.4451
  0.4477   0.4582   0.4681   0.4730   0.4828   0.4908   0.5024   0.5074
  0.5133   0.5202   0.5244   0.5339   0.5466   0.5568   0.5577   0.5640
  0.5703   0.5841   0.6006   0.6036   0.6045   0.6139   0.6153   0.6190
  0.6212   0.6330   0.6395   0.6452   0.6484   0.6515   0.6553   0.6690
  0.6787   0.6893   0.7106   0.7154   0.7166   0.7283   0.7350   0.7580
  0.7753   0.7803   0.7965   0.8077   0.8175   0.8224   0.8362   0.8448
  0.8546   0.8654   0.8711   0.8840   0.9064   0.9161   0.9415   0.9443
  0.9488   0.9537   0.9703   0.9928   1.0034   1.0110   1.0207   1.0374
  1.0422   1.0536   1.0604   1.0733   1.0822   1.0863   1.0936   1.0954
  1.1021   1.1136   1.1339   1.1483   1.1549   1.1616   1.1730   1.1879
  1.2059   1.2255   1.2317   1.2385   1.2483   1.2646   1.2650   1.2701
  1.2725   1.2887   1.2923   1.3093   1.3345   1.3386   1.3549   1.3625
  1.3705   1.3870   1.4077   1.4174   1.4237   1.4309   1.4432   1.4550
  1.4814   1.4866   1.4986   1.5083   1.5113   1.5204   1.5364   1.5428
  1.5489   1.5568   1.5660   1.5690   1.5905   1.5976   1.6098   1.6162
  1.6487   1.6584   1.6738   1.6863   1.6919   1.7090   1.7221   1.7395
  1.7573   1.7586   1.7675   1.7851   1.7982   1.8119   1.8437   1.8570
  1.8698   1.8967   1.9260   1.9344   1.9631   1.9673   1.9791   1.9876
  1.9983   2.0447   2.0524   2.0770   2.1277   2.1386   2.1444   2.1730
  2.1827   2.1902   2.2068   2.2253   2.2486   2.2617   2.2698   2.2801
  2.2876   2.2995   2.3276   2.3737   2.4038   2.4181   2.4286   2.4461
  2.4731   2.4918   2.5011   2.5391   2.5431   2.5689   2.5929   2.6130
  2.6201   2.6312   2.6474   2.6550   2.6830   2.6981   2.7101   2.7310
  2.7323   2.7438   2.7482   2.7523   2.7771   2.7826   2.7890   2.7967
  2.8178   2.8336   2.8382   2.8579   2.8652   2.8983   2.9140   2.9512
  2.9592   2.9683   2.9817   2.9831   3.0061   3.0071   3.0314   3.0397
  3.0442   3.0808   3.0906   3.1000   3.1107   3.1223   3.1296   3.1381
  3.1420   3.1578   3.1644   3.1713   3.1897   3.1938   3.2147   3.2177
  3.2452   3.2482   3.2553   3.2699   3.2775   3.2858   3.2875   3.2993
  3.3119   3.3204   3.3289   3.3449   3.3476   3.3671   3.3704   3.3867
  3.3903   3.3993   3.4035   3.4117   3.4190   3.4249   3.4332   3.4384
  3.4474   3.4599   3.4641   3.4808   3.4866   3.5098   3.5141   3.5230
  3.5292   3.5375   3.5461   3.5550   3.5595   3.5638   3.5840   3.5952
  3.6160   3.6211   3.6269   3.6339   3.6493   3.6576   3.6717   3.6723
  3.6891   3.6965   3.7035   3.7218   3.7300   3.7371   3.7432   3.7523
  3.7603   3.7753   3.7837   3.7864   3.8072   3.8128   3.8272   3.8361
  3.8566   3.8623   3.8944   3.9024   3.9101   3.9284   3.9433   3.9618
  3.9757   3.9771   3.9833   3.9990   4.0155   4.0193   4.0322   4.0482
  4.0500   4.0797   4.0838   4.0928   4.1202   4.1291   4.1432   4.1629
  4.1688   4.1797   4.1915   4.1973   4.2029   4.2168   4.2265   4.2358
  4.2488   4.2701   4.2860   4.2954   4.3045   4.3150   4.3353   4.3371
  4.3520   4.3548   4.3590   4.3638   4.4017   4.4078   4.4155   4.4310
  4.4456   4.4558   4.4667   4.4870   4.4976   4.5227   4.5363   4.5577
  4.6003   4.6085   4.6225   4.6317   4.6421   4.6506   4.6735   4.6937
  4.7040   4.7214   4.7274   4.7428   4.7699   4.7819   4.8129   4.8371
  4.8555   4.8739   4.9036   4.9165   4.9411   4.9525   4.9616   5.0558
  5.0780   5.0937   5.1097   5.1568   5.1648   5.1721   5.1958   5.2242
  5.2771   5.2868   5.2879   5.3085   5.3182   5.3658   5.3936   5.4057
  5.4086   5.4419   5.4629   5.4715   5.5222   5.5317   5.5444   5.5594
  5.5659   5.5899   5.6232   5.6261   5.6313   5.6868   5.7031   5.7132
  5.7890   5.8262   5.9022   5.9740   6.0337   6.0572   6.1298   6.2270
  6.2283   6.2437   6.2782   6.2984   6.3458   6.4145   6.5159   8.7418
  9.7602  11.5126  12.0928  12.8678  13.0897  13.7458  13.8777  14.2186
 14.4419
 --------------------------------------------------------------
 
          Ground-State Mulliken Net Atomic Charges

     Atom                 Charge (a.u.)
  ----------------------------------------
      1 C                    -0.220704
      2 C                    -0.248568
      3 C                     0.038575
      4 H                     0.184647
      5 C                    -0.016481
      6 S                     0.009241
      7 C                    -0.315722
      8 H                     0.114278
      9 H                     0.111822
     10 H                     0.117992
     11 H                     0.204839
     12 C                     0.031794
     13 C                    -0.287820
     14 C                     0.051222
     15 H                     0.182164
     16 C                    -0.248092
     17 S                     0.038513
     18 C                    -0.267621
     19 H                     0.103313
     20 H                     0.108513
     21 H                     0.108976
     22 H                     0.199119
  ----------------------------------------
  Sum of atomic charges =     0.000000

 -----------------------------------------------------------------
                    Cartesian Multipole Moments
 -----------------------------------------------------------------
    Charge (ESU x 10^10)
                -0.0000
    Dipole Moment (Debye)
         X       0.5646      Y       0.4618      Z       0.0485
       Tot       0.7310
    Quadrupole Moments (Debye-Ang)
        XX     -89.1376     XY       5.7579     YY     -72.0295
        XZ       2.6752     YZ       3.2666     ZZ     -80.6361
    Octopole Moments (Debye-Ang^2)
       XXX     -99.6685    XXY      65.6977    XYY     -17.7573
       YYY     114.4040    XXZ      -0.4505    XYZ      -8.7998
       YYZ       0.4902    XZZ     -30.7397    YZZ      46.6542
       ZZZ       5.6548
    Hexadecapole Moments (Debye-Ang^3)
      XXXX    -436.9304   XXXY    -203.6418   XXYY    -543.1195
      XYYY    -184.2576   YYYY   -2404.3445   XXXZ    -142.6372
      XXYZ     -31.0890   XYYZ     -20.1815   YYYZ    -126.7052
      XXZZ    -245.6439   XYZZ     -55.9855   YYZZ    -573.1629
      XZZZ    -135.9371   YZZZ     -79.3448   ZZZZ   -1020.1706
 -----------------------------------------------------------------
 Total job time:  46.43s(wall), 1673.70s(cpu) 
 Wed Dec 13 16:20:58 2023

        *************************************************************
        *                                                           *
        *  Thank you very much for using Q-Chem.  Have a nice day.  *
        *                                                           *
        *************************************************************


0 sent ACK to 0 
now end server 0 ... 
cleanup process ... done
remove work dirs ./qchem2237300.0 -- ./qchem2237300.0
rm -rf ./qchem2237300.0
rm -rf ./qchem2237300
