You are running Q-Chem version: 5.4.0

#
# job setting
#
local host:  exp-2-34
current dir: /home/rramji/project-csd799/aromodel/p3ht-qchem/rotation-run
input file:  Methylthiophene_Phi_25_Theta_290_Methylthiophene.qcin
output file: 
nprocs     : 1
nthreads   : 64
#
# qchem installation setting
#
QC:          /cm/shared/apps/spack/cpu/opt/spack/linux-centos8-zen2/gcc-10.2.0/qchem-5.4-akfmr7b3t57bfs6qan3padb2wnb2i7cl
QCAUX:       /cm/shared/apps/spack/cpu/opt/spack/linux-centos8-zen2/gcc-10.2.0/qchem-5.4-akfmr7b3t57bfs6qan3padb2wnb2i7cl/qcaux
QCPROG:      /cm/shared/apps/spack/cpu/opt/spack/linux-centos8-zen2/gcc-10.2.0/qchem-5.4-akfmr7b3t57bfs6qan3padb2wnb2i7cl/exe/qcprog.exe
QCPROG_S:    /cm/shared/apps/spack/cpu/opt/spack/linux-centos8-zen2/gcc-10.2.0/qchem-5.4-akfmr7b3t57bfs6qan3padb2wnb2i7cl/exe/qcprog.exe_s
PARALLEL:    -DPARALLEL
QCMPI:       mpich
#
# qchem directory setting
#
qcrun:       qchem276217
QCSCRATCH:   .
QCLOCALSCR:  
QCTMPDIR:    .
QCFILEPREF:  ./qchem276217
QCSAVEDIR:   
workdirs:    ./qchem276217
workdir0:    ./qchem276217
partmpdirs =  
#
# parallel setting
#
QCRSH:           ssh
QCMPI:           mpich
QCMPIRUN:        /cm/shared/apps/spack/cpu/opt/spack/linux-centos8-zen2/gcc-10.2.0/qchem-5.4-akfmr7b3t57bfs6qan3padb2wnb2i7cl/bin/mpi/mpirun_qchem
QCMACHINEFILE:   ./qchem276217/hostfile
exp-2-34

#
# env setting
#
exported envs:   QC QCAUX QCSCRATCH QCRUNNAME QCFILEPREF QCPROG QCPROG_S GUIFILE

Running Job 1 of 1 Methylthiophene_Phi_25_Theta_290_Methylthiophene.qcin
qchem Methylthiophene_Phi_25_Theta_290_Methylthiophene.qcin_276217.0 ./qchem276217/ 1
/cm/shared/apps/spack/cpu/opt/spack/linux-centos8-zen2/gcc-10.2.0/qchem-5.4-akfmr7b3t57bfs6qan3padb2wnb2i7cl/bin/mpi/mpirun_qchem -machinefile ./qchem276217/hostfile -np 1 /cm/shared/apps/spack/cpu/opt/spack/linux-centos8-zen2/gcc-10.2.0/qchem-5.4-akfmr7b3t57bfs6qan3padb2wnb2i7cl/exe/qcprog.exe Methylthiophene_Phi_25_Theta_290_Methylthiophene.qcin_276217.0 ./qchem276217/

Process 0 of 1 is on exp-2-34 - thread support 0
initial socket setup ...start
initial socket setup ...done 
now start server 0 ... 
                  Welcome to Q-Chem
     A Quantum Leap Into The Future Of Chemistry


 Q-Chem 5.4, Q-Chem, Inc., Pleasanton, CA (2021)

 License issued to: University of California, San Diego (site)

 E. Epifanovsky,  A. T. B. Gilbert,  Xintian Feng,  Joonho Lee,  Yuezhi Mao,  
 N. Mardirossian,  P. Pokhilko,  A. White,  M. Wormit,  M. P. Coons,  
 A. L. Dempwolff,  Zhengting Gan,  D. Hait,  P. R. Horn,  L. D. Jacobson,  
 I. Kaliman,  J. Kussmann,  A. W. Lange,  Ka Un Lao,  D. S. Levine,  Jie Liu,  
 S. C. McKenzie,  A. F. Morrison,  K. Nanda,  F. Plasser,  D. R. Rehn,  
 M. L. Vidal,  Zhi-Qiang You,  Ying Zhu,  B. Alam,  B. Albrecht,  
 A. Aldossary,  E. Alguire,  J. H. Andersen,  D. Barton,  K. Begam,  A. Behn,  
 Y. A. Bernard,  E. J. Berquist,  H. Burton,  A. Carreras,  K. Carter-Fenk,  
 R. Chakraborty,  A. D. Chien,  K. D. Closser,  V. Cofer-Shabica,  
 S. Dasgupta,  Jia Deng,  M. de Wergifosse,  M. Diedenhofen,  Hainam Do,  
 S. Ehlert,  Po-Tung Fang,  S. Fatehi,  Qingguo Feng,  J. Gayvert,  
 Qinghui Ge,  G. Gidofalvi,  M. Goldey,  J. Gomes,  C. Gonzalez-Espinoza,  
 S. Gulania,  A. Gunina,  M. W. D. Hanson-Heine,  P. H. P. Harbach,  
 A. W. Hauser,  M. F. Herbst,  M. Hernandez Vera,  M. Hodecker,  
 Z. C. Holden,  S. Houck,  Xunkun Huang,  Kerwin Hui,  B. C. Huynh,  
 M. Ivanov,  Hyunjun Ji,  Hanjie Jiang,  B. Kaduk,  S. Kaehler,  
 K. Khistyaev,  Jaehoon Kim,  P. Klunzinger,  Z. Koczor-Benda,  
 Joong Hoon Koh,  D. Kosenkov,  L. Koulias,  T. Kowalczyk,  C. M. Krauter,  
 K. Kue,  A. Kunitsa,  T. Kus,  A. Landau,  K. V. Lawler,  D. Lefrancois,  
 S. Lehtola,  Rain Li,  Yi-Pei Li,  Jiashu Liang,  M. Liebenthal,  
 Hung-Hsuan Lin,  You-Sheng Lin,  Fenglai Liu,  Kuan-Yu Liu,  
 M. Loipersberger,  A. Luenser,  A. Manjanath,  P. Manohar,  E. Mansoor,  
 S. F. Manzer,  Shan-Ping Mao,  A. V. Marenich,  T. Markovich,  S. Mason,  
 S. A. Maurer,  P. F. McLaughlin,  M. F. S. J. Menger,  J.-M. Mewes,  
 S. A. Mewes,  P. Morgante,  J. W. Mullinax,  T. S. Nguyen-Beck,  
 K. J. Oosterbaan,  G. Paran,  Alexander C. Paul,  Suranjan K. Paul,  
 F. Pavosevic,  Zheng Pei,  S. Prager,  E. I. Proynov,  E. Ramos,  B. Rana,  
 A. E. Rask,  A. Rettig,  R. M. Richard,  F. Rob,  E. Rossomme,  T. Scheele,  
 M. Scheurer,  M. Schneider,  N. Sergueev,  S. M. Sharada,  W. Skomorowski,  
 D. W. Small,  C. J. Stein,  Yu-Chuan Su,  E. J. Sundstrom,  Zhen Tao,  
 J. Thirman,  T. Tsuchimochi,  N. M. Tubman,  S. P. Veccham,  O. Vydrov,  
 J. Wenzel,  J. Witte,  A. Yamada,  Kun Yao,  S. Yeganeh,  S. R. Yost,  
 A. Zech,  Igor Ying Zhang,  Xing Zhang,  Yu Zhang,  D. Zuev,  
 A. Aspuru-Guzik,  A. T. Bell,  N. A. Besley,  K. B. Bravaya,  B. R. Brooks,  
 D. Casanova,  Jeng-Da Chai,  S. Coriani,  C. J. Cramer,  
 A. E. DePrince, III,  R. A. DiStasio Jr.,  A. Dreuw,  B. D. Dunietz,  
 T. R. Furlani,  W. A. Goddard III,  S. Grimme,  S. Hammes-Schiffer,  
 T. Head-Gordon,  W. J. Hehre,  Chao-Ping Hsu,  T.-C. Jagau,  Yousung Jung,  
 A. Klamt,  Jing Kong,  D. S. Lambrecht,  WanZhen Liang,  N. J. Mayhall,  
 C. W. McCurdy,  J. B. Neaton,  C. Ochsenfeld,  J. A. Parkhill,  R. Peverati,  
 V. A. Rassolov,  Yihan Shao,  L. V. Slipchenko,  T. Stauch,  R. P. Steele,  
 J. E. Subotnik,  A. J. W. Thom,  A. Tkatchenko,  D. G. Truhlar,  
 T. Van Voorhis,  T. A. Wesolowski,  K. B. Whaley,  H. L. Woodcock III,  
 P. M. Zimmerman,  S. Faraji,  P. M. W. Gill,  M. Head-Gordon,  
 J. M. Herbert,  A. I. Krylov

 Contributors to earlier versions of Q-Chem not listed above: 
 R. D. Adamson,  B. Austin,  R. Baer,  J. Baker,  G. J. O. Beran,  
 K. Brandhorst,  S. T. Brown,  E. F. C. Byrd,  A. K. Chakraborty,  
 G. K. L. Chan,  Chun-Min Chang,  Yunqing Chen,  C.-L. Cheng,  
 Siu Hung Chien,  D. M. Chipman,  D. L. Crittenden,  H. Dachsel,  
 R. J. Doerksen,  A. D. Dutoi,  R. G. Edgar,  J. Fosso-Tande,  
 L. Fusti-Molnar,  D. Ghosh,  A. Ghysels,  A. Golubeva-Zadorozhnaya,  
 J. Gonthier,  M. S. Gordon,  S. R. Gwaltney,  G. Hawkins,  J. E. Herr,  
 A. Heyden,  S. Hirata,  E. G. Hohenstein,  G. Kedziora,  F. J. Keil,  
 C. Kelley,  Jihan Kim,  R. A. King,  R. Z. Khaliullin,  P. P. Korambath,  
 W. Kurlancheek,  A. Laurent,  A. M. Lee,  M. S. Lee,  S. V. Levchenko,  
 Ching Yeh Lin,  D. Liotard,  E. Livshits,  R. C. Lochan,  I. Lotan,  
 L. A. Martinez-Martinez,  P. E. Maslen,  N. Nair,  D. P. O'Neill,  
 D. Neuhauser,  E. Neuscamman,  C. M. Oana,  R. Olivares-Amaya,  R. Olson,  
 T. M. Perrine,  B. Peters,  P. A. Pieniazek,  A. Prociuk,  Y. M. Rhee,  
 J. Ritchie,  M. A. Rohrdanz,  E. Rosta,  N. J. Russ,  H. F. Schaefer III,  
 M. W. Schmidt,  N. E. Schultz,  S. Sharma,  N. Shenvi,  C. D. Sherrill,  
 A. C. Simmonett,  A. Sodt,  T. Stein,  D. Stuck,  K. S. Thanthiriwatte,  
 V. Vanovschi,  L. Vogt,  Tao Wang,  A. Warshel,  M. A. Watson,  
 C. F. Williams,  Q. Wu,  X. Xu,  Jun Yang,  W. Zhang,  Yan Zhao

 Please cite Q-Chem as follows:
 Y. Shao et al., Mol. Phys. 113, 184-215 (2015)
 DOI: 10.1080/00268976.2014.952696

 Q-Chem 5.4.0 for Intel X86 EM64T Linux

 Parts of Q-Chem use Armadillo 9.800.1 (Horizon Scraper).
 http://arma.sourceforge.net/

 Q-Chem begins on Wed Dec 13 16:18:06 2023  

 Host: 
0

     Scratch files written to ./qchem276217//
 May1621 |scratch|qcdevops|jenkins|workspace|build_RNUM    
 Parallel job on  1  processors
 Processing $rem in /cm/shared/apps/spack/cpu/opt/spack/linux-centos8-zen2/gcc-10.2.0/qchem-5.4-akfmr7b3t57bfs6qan3padb2wnb2i7cl/config/preferences:
 Processing $rem in /home/rramji/.qchemrc:
 Symmetry turned off for PCM/SM12/SMD calculation
 Core orbitals will be frozen

 Checking the input file for inconsistencies... 	...done.

 Q-Chem warning in module forms1/BasisType.C, line 2236:

 You are not using the predefined 5D/6D in this basis set.


--------------------------------------------------------------
User input:
--------------------------------------------------------------
$molecule
0 1
C	0.680396	-3.887800	0.248806
C	-0.621614	-3.701456	-0.225147
C	-1.019896	-2.345170	-0.370780
H	-1.285337	-4.545233	-0.466300
C	0.000000	-1.450135	0.000000
S	1.435271	-2.321334	0.522786
C	-2.378891	-1.934439	-0.865597
H	-3.003720	-2.819799	-1.092567
H	-2.313975	-1.326210	-1.791940
H	-2.924390	-1.325374	-0.114772
H	1.228514	-4.815326	0.448750
C	0.000000	0.000000	0.000000
C	0.354153	0.766774	1.113020
C	0.937751	2.029404	0.820578
H	0.191350	0.414475	2.142881
C	1.042030	2.254581	-0.563588
S	0.406851	0.881228	-1.464748
C	1.384426	2.995779	1.882380
H	1.196413	2.589194	2.894974
H	0.849641	3.965707	1.808137
H	2.469756	3.216753	1.808230
H	1.443919	3.124243	-1.097114
$end

$rem
JOBTYPE		SP
EXCHANGE	HF
CORRELATION	pRIMP2
BASIS		cc-pvtz
METHOD		rimp2
AUX_BASIS	rimp2-cc-pvtz
SOLVENT_METHOD	PCM
PURECART	11111
SYMMETRY	false
MEM_TOTAL	110000
SCF_CONVERGENCE = 6
THRESH=10
GUI = 2
$end



$solvent
dielectric 4.90
$end
--------------------------------------------------------------
 ----------------------------------------------------------------
             Standard Nuclear Orientation (Angstroms)
    I     Atom           X                Y                Z
 ----------------------------------------------------------------
    1      C       0.6803960000    -3.8878000000     0.2488060000
    2      C      -0.6216140000    -3.7014560000    -0.2251470000
    3      C      -1.0198960000    -2.3451700000    -0.3707800000
    4      H      -1.2853370000    -4.5452330000    -0.4663000000
    5      C       0.0000000000    -1.4501350000     0.0000000000
    6      S       1.4352710000    -2.3213340000     0.5227860000
    7      C      -2.3788910000    -1.9344390000    -0.8655970000
    8      H      -3.0037200000    -2.8197990000    -1.0925670000
    9      H      -2.3139750000    -1.3262100000    -1.7919400000
   10      H      -2.9243900000    -1.3253740000    -0.1147720000
   11      H       1.2285140000    -4.8153260000     0.4487500000
   12      C       0.0000000000     0.0000000000     0.0000000000
   13      C       0.3541530000     0.7667740000     1.1130200000
   14      C       0.9377510000     2.0294040000     0.8205780000
   15      H       0.1913500000     0.4144750000     2.1428810000
   16      C       1.0420300000     2.2545810000    -0.5635880000
   17      S       0.4068510000     0.8812280000    -1.4647480000
   18      C       1.3844260000     2.9957790000     1.8823800000
   19      H       1.1964130000     2.5891940000     2.8949740000
   20      H       0.8496410000     3.9657070000     1.8081370000
   21      H       2.4697560000     3.2167530000     1.8082300000
   22      H       1.4439190000     3.1242430000    -1.0971140000
 ----------------------------------------------------------------
 Nuclear Repulsion Energy =         836.48209562 hartrees
 There are       51 alpha and       51 beta electrons
 Requested basis set is cc-pVTZ
 There are 184 shells and 508 basis functions

 Total QAlloc Memory Limit 110000 MB
 Mega-Array Size       188 MB
 MEM_STATIC part       192 MB
 Discretize the solute cavity surface with Lebedev spheres
	Using 110 Lebedev grid points for each H atom
	Using 194 Lebedev grid points for other atoms
	Atomic van der Waals radii will be scaled by 1.20
 Remove points where switching function is < 1.0e-08
 Keep 1568 surface tesserae and discard 1860 interior tesserae
 Molecular Surface Area = 236.758 Angst**2
 Requested basis set is rimp2-cc-pVTZ
 There are 394 shells and 1354 basis functions
 A cutoff of  1.0D-10 yielded  12212 shell pairs
 There are     90450 function pairs (    116721 Cartesian)
 Smallest overlap matrix eigenvalue = 7.02E-05

 Scale SEOQF with 1.000000e-01/1.000000e-01/1.000000e-01

 Standard Electronic Orientation quadrupole field applied
 Nucleus-field energy     =     0.0000000331 hartrees
 Guess from superposition of atomic densities
 Warning:  Energy on first SCF cycle will be non-variational
 SAD guess density has 102.000000 electrons

 -----------------------------------------------------------------------
  General SCF calculation program by
  Eric Jon Sundstrom, Paul Horn, Yuezhi Mao, Dmitri Zuev, Alec White,
  David Stuck, Shaama M.S., Shane Yost, Joonho Lee, David Small,
  Daniel Levine, Susi Lehtola, Hugh Burton, Evgeny Epifanovsky,
  Bang C. Huynh
 -----------------------------------------------------------------------
 Hartree-Fock
 using 64 threads for integral computing
 -------------------------------------------------------
 OpenMP Integral computing Module                
 Release: version 1.0, May 2013, Q-Chem Inc. Pittsburgh 
 -------------------------------------------------------
 A restricted SCF calculation will be
 performed using DIIS
 SCF converges when DIIS error is below 1.0e-06
 ---------------------------------------
  Cycle       Energy         DIIS error
 ---------------------------------------
    1   -1184.1963665453      2.38e-02  
    2   -1179.5382505327      1.59e-03  
    3   -1179.6576843704      6.02e-04  
    4   -1179.6709309986      3.29e-04  
    5   -1179.6754798353      6.57e-05  
    6   -1179.6757571267      3.09e-05  
    7   -1179.6758454750      1.29e-05  
    8   -1179.6758746644      5.25e-06  
    9   -1179.6758797058      1.69e-06  
   10   -1179.6758801518      5.08e-07  Convergence criterion met
 ---------------------------------------
 SCF time:   CPU 1516.35s  wall 44.00s 

************** Final PCM Free Energy Summary **************
 G_electrostatic  =      -0.00789685 hartree =      -4.95534759 kcal/mol
 G_cavitation     =       0.00000000 hartree =       0.00000000 kcal/mol
 G_dispersion     =       0.00000000 hartree =       0.00000000 kcal/mol
 G_repulsion      =       0.00000000 hartree =       0.00000000 kcal/mol
 --------------------------------------------------
 Non-electrostatic Free Energy =       0.00000000 hartree =       0.00000000 kcal/mol
 Total                         =      -0.00789685 hartree =      -4.95534759 kcal/mol
 --------------------------------------------------
 SCF Energy (H0 + V/2)                       =   -1179.67588015 
 Solute Internal Energy (H0)                 =   -1179.66798330 
 Total Free Energy (H0 + V/2 + non-elec)     =   -1179.67588015 hartree
                                             = -740257.78750551 kcal/mol
***********************************************************

 SCF   energy in the final basis set =    -1179.6758801518
 Total energy in the final basis set =    -1179.6758801518


 --------------------------------------------------------------
  Generalized many-body perturbation theory program
  by Joonho Lee, Fazle Rob, Xintian Feng, Evgeny Epifanovsky

 No regularization used 
 (reg. param. = 0.0000e+00)
  (P|Q)^-1/2 Time:  CPU 31.45 s  wall 0.56 s

 In RI-MP2 calculation: 
 # of frozen core orbitals: 20

 Components of the RIMP2 correlation energy:
        aaaa    correlation energy =        -0.2525556648 a.u.
        abab    correlation energy =        -1.4749395203 a.u.
        bbbb    correlation energy =        -0.2525556648 a.u.
        non-Brillouin singles      =        -0.0000000000 a.u.
        total same-spin energy     =        -0.5051113296 a.u.
        total opposite-spin energy =        -1.4749395203 a.u.

 Total  RIMP2   correlation energy =        -1.9800508499 a.u.
        RIMP2         total energy =     -1181.6559310016 a.u.

 RI-MP2 Energy Time:  CPU 169.54 s  wall 3.00 s
 
 --------------------------------------------------------------
 
                    Orbital Energies (a.u.)
 --------------------------------------------------------------
 
 Alpha MOs
 -- Occupied --
-91.9846 -91.9845 -11.2747 -11.2722 -11.2715 -11.2688 -11.2514 -11.2504
-11.2445 -11.2410 -11.2293 -11.2286  -8.9842  -8.9841  -6.6650  -6.6650
 -6.6645  -6.6644  -6.6639  -6.6638  -1.1790  -1.1491  -1.0397  -1.0220
 -0.9975  -0.9523  -0.9135  -0.8920  -0.7987  -0.7558  -0.7284  -0.6925
 -0.6612  -0.6171  -0.5825  -0.5793  -0.5714  -0.5693  -0.5508  -0.5325
 -0.5273  -0.5183  -0.5077  -0.4931  -0.4833  -0.4654  -0.4616  -0.3470
 -0.3370  -0.3288  -0.2958
 -- Virtual --
  0.0799   0.1051   0.1425   0.1481   0.1620   0.1724   0.1780   0.1852
  0.1886   0.1961   0.2063   0.2188   0.2297   0.2348   0.2401   0.2491
  0.2559   0.2683   0.2946   0.3063   0.3351   0.3381   0.3570   0.3634
  0.3740   0.3832   0.3941   0.4010   0.4129   0.4150   0.4206   0.4361
  0.4491   0.4551   0.4685   0.4728   0.4745   0.4781   0.4823   0.4912
  0.5125   0.5152   0.5298   0.5362   0.5410   0.5473   0.5574   0.5610
  0.5724   0.5793   0.5940   0.5982   0.6052   0.6127   0.6160   0.6225
  0.6269   0.6335   0.6365   0.6432   0.6447   0.6490   0.6535   0.6623
  0.6757   0.6784   0.6959   0.7011   0.7161   0.7313   0.7472   0.7543
  0.7663   0.7808   0.7928   0.8027   0.8145   0.8244   0.8318   0.8348
  0.8490   0.8535   0.8689   0.8779   0.8984   0.9178   0.9353   0.9399
  0.9544   0.9728   0.9868   0.9939   0.9979   1.0101   1.0204   1.0392
  1.0425   1.0584   1.0659   1.0679   1.0703   1.0875   1.0911   1.0990
  1.1140   1.1252   1.1313   1.1436   1.1493   1.1617   1.1718   1.1903
  1.2067   1.2086   1.2224   1.2304   1.2461   1.2578   1.2624   1.2752
  1.2803   1.2902   1.2947   1.3044   1.3261   1.3493   1.3533   1.3643
  1.3696   1.3855   1.4028   1.4189   1.4252   1.4448   1.4453   1.4593
  1.4833   1.4851   1.5008   1.5055   1.5119   1.5302   1.5359   1.5426
  1.5561   1.5602   1.5686   1.5766   1.5771   1.5972   1.6068   1.6388
  1.6442   1.6538   1.6676   1.6810   1.6988   1.7075   1.7125   1.7174
  1.7392   1.7602   1.7668   1.7830   1.7896   1.8006   1.8224   1.8558
  1.8824   1.8918   1.8942   1.9119   1.9366   1.9603   1.9661   1.9920
  2.0242   2.0486   2.0635   2.0934   2.1175   2.1321   2.1456   2.1698
  2.1753   2.1911   2.2041   2.2267   2.2403   2.2478   2.2662   2.2834
  2.2859   2.3093   2.3264   2.3766   2.4037   2.4142   2.4271   2.4473
  2.4842   2.4846   2.5120   2.5262   2.5392   2.5660   2.5816   2.5823
  2.6135   2.6360   2.6479   2.6564   2.6749   2.6949   2.7185   2.7327
  2.7406   2.7492   2.7553   2.7607   2.7695   2.7834   2.7956   2.8027
  2.8259   2.8327   2.8487   2.8715   2.8801   2.8902   2.9002   2.9243
  2.9585   2.9705   2.9747   2.9862   2.9992   3.0147   3.0282   3.0332
  3.0488   3.0609   3.0938   3.1091   3.1128   3.1193   3.1242   3.1373
  3.1485   3.1516   3.1598   3.1759   3.1810   3.1903   3.2043   3.2163
  3.2389   3.2502   3.2602   3.2824   3.2835   3.2933   3.3009   3.3120
  3.3185   3.3222   3.3247   3.3480   3.3527   3.3584   3.3690   3.3746
  3.3803   3.3927   3.3949   3.4046   3.4166   3.4288   3.4345   3.4445
  3.4510   3.4649   3.4770   3.4940   3.5006   3.5054   3.5172   3.5219
  3.5306   3.5351   3.5421   3.5458   3.5545   3.5730   3.5854   3.5983
  3.6050   3.6196   3.6325   3.6366   3.6401   3.6515   3.6616   3.6760
  3.6876   3.6877   3.6957   3.7199   3.7306   3.7347   3.7376   3.7584
  3.7699   3.7751   3.7811   3.7883   3.7936   3.8089   3.8196   3.8438
  3.8608   3.8653   3.8801   3.8937   3.9014   3.9215   3.9283   3.9577
  3.9648   3.9780   3.9911   4.0080   4.0136   4.0188   4.0348   4.0443
  4.0663   4.0795   4.0899   4.1040   4.1084   4.1300   4.1352   4.1496
  4.1632   4.1781   4.1819   4.1966   4.2065   4.2118   4.2154   4.2363
  4.2641   4.2676   4.2734   4.2784   4.2943   4.3094   4.3200   4.3334
  4.3448   4.3561   4.3669   4.3732   4.3888   4.4005   4.4034   4.4204
  4.4342   4.4370   4.4668   4.4782   4.4840   4.4962   4.5302   4.5547
  4.5838   4.5853   4.6125   4.6289   4.6379   4.6528   4.6649   4.6881
  4.7029   4.7215   4.7336   4.7446   4.7782   4.7863   4.8091   4.8404
  4.8720   4.8835   4.8977   4.9197   4.9327   4.9553   4.9843   5.0564
  5.0769   5.1000   5.1079   5.1528   5.1709   5.1735   5.1836   5.2055
  5.2667   5.2781   5.2904   5.3032   5.3276   5.3645   5.3922   5.4022
  5.4211   5.4528   5.4611   5.4660   5.5178   5.5229   5.5418   5.5556
  5.5732   5.5859   5.6144   5.6244   5.6277   5.6902   5.7044   5.7180
  5.7766   5.8201   5.8828   5.9431   6.0008   6.0402   6.1208   6.2259
  6.2282   6.2358   6.2695   6.2840   6.3273   6.4271   6.5048   8.9175
  9.7475  11.6031  11.9903  12.8734  12.9541  13.7479  13.8900  14.2000
 14.3431
 --------------------------------------------------------------
 
          Ground-State Mulliken Net Atomic Charges

     Atom                 Charge (a.u.)
  ----------------------------------------
      1 C                    -0.208295
      2 C                    -0.253245
      3 C                     0.051505
      4 H                     0.183857
      5 C                    -0.049369
      6 S                     0.027148
      7 C                    -0.285164
      8 H                     0.107050
      9 H                     0.109115
     10 H                     0.110748
     11 H                     0.203986
     12 C                     0.004374
     13 C                    -0.274885
     14 C                     0.045549
     15 H                     0.187094
     16 C                    -0.235797
     17 S                     0.027449
     18 C                    -0.268923
     19 H                     0.103027
     20 H                     0.107765
     21 H                     0.108227
     22 H                     0.198781
  ----------------------------------------
  Sum of atomic charges =     0.000000

 -----------------------------------------------------------------
                    Cartesian Multipole Moments
 -----------------------------------------------------------------
    Charge (ESU x 10^10)
                -0.0000
    Dipole Moment (Debye)
         X      -0.5151      Y       0.3475      Z       0.9887
       Tot       1.1677
    Quadrupole Moments (Debye-Ang)
        XX     -84.9570     XY       6.3663     YY     -70.8792
        XZ       2.5992     YZ       1.7749     ZZ     -85.8558
    Octopole Moments (Debye-Ang^2)
       XXX     -81.9046    XXY      41.3851    XYY      -9.8040
       YYY     107.2131    XXZ      -2.8937    XYZ      -8.7630
       YYZ      -2.6030    XZZ     -23.5770    YZZ      62.6597
       ZZZ       3.1851
    Hexadecapole Moments (Debye-Ang^3)
      XXXX    -792.5582   XXXY    -177.0416   XXYY    -542.9755
      XYYY    -183.9241   YYYY   -2454.6021   XXXZ    -127.5497
      XXYZ     -29.5978   XYYZ     -17.8143   YYYZ    -114.9730
      XXZZ    -236.3516   XYZZ     -51.5489   YYZZ    -589.4530
      XZZZ    -135.1852   YZZZ     -92.0157   ZZZZ    -601.6151
 -----------------------------------------------------------------
 Total job time:  52.23s(wall), 1851.39s(cpu) 
 Wed Dec 13 16:18:59 2023

        *************************************************************
        *                                                           *
        *  Thank you very much for using Q-Chem.  Have a nice day.  *
        *                                                           *
        *************************************************************


0 sent ACK to 0 
now end server 0 ... 
cleanup process ... done
remove work dirs ./qchem276217.0 -- ./qchem276217.0
rm -rf ./qchem276217.0
rm -rf ./qchem276217
