You are running Q-Chem version: 5.4.0

#
# job setting
#
local host:  exp-3-44
current dir: /home/rramji/project-csd799/aromodel/p3ht-qchem/rotation-run
input file:  Methylthiophene_Phi_30_Theta_90_Methylthiophene.qcin
output file: 
nprocs     : 1
nthreads   : 64
#
# qchem installation setting
#
QC:          /cm/shared/apps/spack/cpu/opt/spack/linux-centos8-zen2/gcc-10.2.0/qchem-5.4-akfmr7b3t57bfs6qan3padb2wnb2i7cl
QCAUX:       /cm/shared/apps/spack/cpu/opt/spack/linux-centos8-zen2/gcc-10.2.0/qchem-5.4-akfmr7b3t57bfs6qan3padb2wnb2i7cl/qcaux
QCPROG:      /cm/shared/apps/spack/cpu/opt/spack/linux-centos8-zen2/gcc-10.2.0/qchem-5.4-akfmr7b3t57bfs6qan3padb2wnb2i7cl/exe/qcprog.exe
QCPROG_S:    /cm/shared/apps/spack/cpu/opt/spack/linux-centos8-zen2/gcc-10.2.0/qchem-5.4-akfmr7b3t57bfs6qan3padb2wnb2i7cl/exe/qcprog.exe_s
PARALLEL:    -DPARALLEL
QCMPI:       mpich
#
# qchem directory setting
#
qcrun:       qchem2228736
QCSCRATCH:   .
QCLOCALSCR:  
QCTMPDIR:    .
QCFILEPREF:  ./qchem2228736
QCSAVEDIR:   
workdirs:    ./qchem2228736
workdir0:    ./qchem2228736
partmpdirs =  
#
# parallel setting
#
QCRSH:           ssh
QCMPI:           mpich
QCMPIRUN:        /cm/shared/apps/spack/cpu/opt/spack/linux-centos8-zen2/gcc-10.2.0/qchem-5.4-akfmr7b3t57bfs6qan3padb2wnb2i7cl/bin/mpi/mpirun_qchem
QCMACHINEFILE:   ./qchem2228736/hostfile
exp-3-44

#
# env setting
#
exported envs:   QC QCAUX QCSCRATCH QCRUNNAME QCFILEPREF QCPROG QCPROG_S GUIFILE

Running Job 1 of 1 Methylthiophene_Phi_30_Theta_90_Methylthiophene.qcin
qchem Methylthiophene_Phi_30_Theta_90_Methylthiophene.qcin_2228736.0 ./qchem2228736/ 1
/cm/shared/apps/spack/cpu/opt/spack/linux-centos8-zen2/gcc-10.2.0/qchem-5.4-akfmr7b3t57bfs6qan3padb2wnb2i7cl/bin/mpi/mpirun_qchem -machinefile ./qchem2228736/hostfile -np 1 /cm/shared/apps/spack/cpu/opt/spack/linux-centos8-zen2/gcc-10.2.0/qchem-5.4-akfmr7b3t57bfs6qan3padb2wnb2i7cl/exe/qcprog.exe Methylthiophene_Phi_30_Theta_90_Methylthiophene.qcin_2228736.0 ./qchem2228736/

Process 0 of 1 is on exp-3-44 - thread support 0
initial socket setup ...start
initial socket setup ...done 
now start server 0 ... 
                  Welcome to Q-Chem
     A Quantum Leap Into The Future Of Chemistry


 Q-Chem 5.4, Q-Chem, Inc., Pleasanton, CA (2021)

 License issued to: University of California, San Diego (site)

 E. Epifanovsky,  A. T. B. Gilbert,  Xintian Feng,  Joonho Lee,  Yuezhi Mao,  
 N. Mardirossian,  P. Pokhilko,  A. White,  M. Wormit,  M. P. Coons,  
 A. L. Dempwolff,  Zhengting Gan,  D. Hait,  P. R. Horn,  L. D. Jacobson,  
 I. Kaliman,  J. Kussmann,  A. W. Lange,  Ka Un Lao,  D. S. Levine,  Jie Liu,  
 S. C. McKenzie,  A. F. Morrison,  K. Nanda,  F. Plasser,  D. R. Rehn,  
 M. L. Vidal,  Zhi-Qiang You,  Ying Zhu,  B. Alam,  B. Albrecht,  
 A. Aldossary,  E. Alguire,  J. H. Andersen,  D. Barton,  K. Begam,  A. Behn,  
 Y. A. Bernard,  E. J. Berquist,  H. Burton,  A. Carreras,  K. Carter-Fenk,  
 R. Chakraborty,  A. D. Chien,  K. D. Closser,  V. Cofer-Shabica,  
 S. Dasgupta,  Jia Deng,  M. de Wergifosse,  M. Diedenhofen,  Hainam Do,  
 S. Ehlert,  Po-Tung Fang,  S. Fatehi,  Qingguo Feng,  J. Gayvert,  
 Qinghui Ge,  G. Gidofalvi,  M. Goldey,  J. Gomes,  C. Gonzalez-Espinoza,  
 S. Gulania,  A. Gunina,  M. W. D. Hanson-Heine,  P. H. P. Harbach,  
 A. W. Hauser,  M. F. Herbst,  M. Hernandez Vera,  M. Hodecker,  
 Z. C. Holden,  S. Houck,  Xunkun Huang,  Kerwin Hui,  B. C. Huynh,  
 M. Ivanov,  Hyunjun Ji,  Hanjie Jiang,  B. Kaduk,  S. Kaehler,  
 K. Khistyaev,  Jaehoon Kim,  P. Klunzinger,  Z. Koczor-Benda,  
 Joong Hoon Koh,  D. Kosenkov,  L. Koulias,  T. Kowalczyk,  C. M. Krauter,  
 K. Kue,  A. Kunitsa,  T. Kus,  A. Landau,  K. V. Lawler,  D. Lefrancois,  
 S. Lehtola,  Rain Li,  Yi-Pei Li,  Jiashu Liang,  M. Liebenthal,  
 Hung-Hsuan Lin,  You-Sheng Lin,  Fenglai Liu,  Kuan-Yu Liu,  
 M. Loipersberger,  A. Luenser,  A. Manjanath,  P. Manohar,  E. Mansoor,  
 S. F. Manzer,  Shan-Ping Mao,  A. V. Marenich,  T. Markovich,  S. Mason,  
 S. A. Maurer,  P. F. McLaughlin,  M. F. S. J. Menger,  J.-M. Mewes,  
 S. A. Mewes,  P. Morgante,  J. W. Mullinax,  T. S. Nguyen-Beck,  
 K. J. Oosterbaan,  G. Paran,  Alexander C. Paul,  Suranjan K. Paul,  
 F. Pavosevic,  Zheng Pei,  S. Prager,  E. I. Proynov,  E. Ramos,  B. Rana,  
 A. E. Rask,  A. Rettig,  R. M. Richard,  F. Rob,  E. Rossomme,  T. Scheele,  
 M. Scheurer,  M. Schneider,  N. Sergueev,  S. M. Sharada,  W. Skomorowski,  
 D. W. Small,  C. J. Stein,  Yu-Chuan Su,  E. J. Sundstrom,  Zhen Tao,  
 J. Thirman,  T. Tsuchimochi,  N. M. Tubman,  S. P. Veccham,  O. Vydrov,  
 J. Wenzel,  J. Witte,  A. Yamada,  Kun Yao,  S. Yeganeh,  S. R. Yost,  
 A. Zech,  Igor Ying Zhang,  Xing Zhang,  Yu Zhang,  D. Zuev,  
 A. Aspuru-Guzik,  A. T. Bell,  N. A. Besley,  K. B. Bravaya,  B. R. Brooks,  
 D. Casanova,  Jeng-Da Chai,  S. Coriani,  C. J. Cramer,  
 A. E. DePrince, III,  R. A. DiStasio Jr.,  A. Dreuw,  B. D. Dunietz,  
 T. R. Furlani,  W. A. Goddard III,  S. Grimme,  S. Hammes-Schiffer,  
 T. Head-Gordon,  W. J. Hehre,  Chao-Ping Hsu,  T.-C. Jagau,  Yousung Jung,  
 A. Klamt,  Jing Kong,  D. S. Lambrecht,  WanZhen Liang,  N. J. Mayhall,  
 C. W. McCurdy,  J. B. Neaton,  C. Ochsenfeld,  J. A. Parkhill,  R. Peverati,  
 V. A. Rassolov,  Yihan Shao,  L. V. Slipchenko,  T. Stauch,  R. P. Steele,  
 J. E. Subotnik,  A. J. W. Thom,  A. Tkatchenko,  D. G. Truhlar,  
 T. Van Voorhis,  T. A. Wesolowski,  K. B. Whaley,  H. L. Woodcock III,  
 P. M. Zimmerman,  S. Faraji,  P. M. W. Gill,  M. Head-Gordon,  
 J. M. Herbert,  A. I. Krylov

 Contributors to earlier versions of Q-Chem not listed above: 
 R. D. Adamson,  B. Austin,  R. Baer,  J. Baker,  G. J. O. Beran,  
 K. Brandhorst,  S. T. Brown,  E. F. C. Byrd,  A. K. Chakraborty,  
 G. K. L. Chan,  Chun-Min Chang,  Yunqing Chen,  C.-L. Cheng,  
 Siu Hung Chien,  D. M. Chipman,  D. L. Crittenden,  H. Dachsel,  
 R. J. Doerksen,  A. D. Dutoi,  R. G. Edgar,  J. Fosso-Tande,  
 L. Fusti-Molnar,  D. Ghosh,  A. Ghysels,  A. Golubeva-Zadorozhnaya,  
 J. Gonthier,  M. S. Gordon,  S. R. Gwaltney,  G. Hawkins,  J. E. Herr,  
 A. Heyden,  S. Hirata,  E. G. Hohenstein,  G. Kedziora,  F. J. Keil,  
 C. Kelley,  Jihan Kim,  R. A. King,  R. Z. Khaliullin,  P. P. Korambath,  
 W. Kurlancheek,  A. Laurent,  A. M. Lee,  M. S. Lee,  S. V. Levchenko,  
 Ching Yeh Lin,  D. Liotard,  E. Livshits,  R. C. Lochan,  I. Lotan,  
 L. A. Martinez-Martinez,  P. E. Maslen,  N. Nair,  D. P. O'Neill,  
 D. Neuhauser,  E. Neuscamman,  C. M. Oana,  R. Olivares-Amaya,  R. Olson,  
 T. M. Perrine,  B. Peters,  P. A. Pieniazek,  A. Prociuk,  Y. M. Rhee,  
 J. Ritchie,  M. A. Rohrdanz,  E. Rosta,  N. J. Russ,  H. F. Schaefer III,  
 M. W. Schmidt,  N. E. Schultz,  S. Sharma,  N. Shenvi,  C. D. Sherrill,  
 A. C. Simmonett,  A. Sodt,  T. Stein,  D. Stuck,  K. S. Thanthiriwatte,  
 V. Vanovschi,  L. Vogt,  Tao Wang,  A. Warshel,  M. A. Watson,  
 C. F. Williams,  Q. Wu,  X. Xu,  Jun Yang,  W. Zhang,  Yan Zhao

 Please cite Q-Chem as follows:
 Y. Shao et al., Mol. Phys. 113, 184-215 (2015)
 DOI: 10.1080/00268976.2014.952696

 Q-Chem 5.4.0 for Intel X86 EM64T Linux

 Parts of Q-Chem use Armadillo 9.800.1 (Horizon Scraper).
 http://arma.sourceforge.net/

 Q-Chem begins on Wed Dec 13 15:57:59 2023  

 Host: 
0

     Scratch files written to ./qchem2228736//
 May1621 |scratch|qcdevops|jenkins|workspace|build_RNUM    
 Parallel job on  1  processors
 Processing $rem in /cm/shared/apps/spack/cpu/opt/spack/linux-centos8-zen2/gcc-10.2.0/qchem-5.4-akfmr7b3t57bfs6qan3padb2wnb2i7cl/config/preferences:
 Processing $rem in /home/rramji/.qchemrc:
 Symmetry turned off for PCM/SM12/SMD calculation
 Core orbitals will be frozen

 Checking the input file for inconsistencies... 	...done.

 Q-Chem warning in module forms1/BasisType.C, line 2236:

 You are not using the predefined 5D/6D in this basis set.


--------------------------------------------------------------
User input:
--------------------------------------------------------------
$molecule
0 1
C	-0.724460	-3.887800	-0.001092
C	0.661131	-3.701456	-0.001036
C	1.085203	-2.345170	-0.000406
H	1.367305	-4.545233	-0.001433
C	0.000000	-1.450135	0.000000
S	-1.527517	-2.321334	-0.000367
C	2.531478	-1.934439	-0.000233
H	3.196254	-2.819799	-0.000656
H	2.787305	-1.326210	0.892447
H	2.787282	-1.325374	-0.892350
H	-1.307907	-4.815326	-0.001511
C	0.000000	0.000000	0.000000
C	0.419634	0.732990	1.113020
C	1.111057	1.939951	0.820578
H	0.226746	0.396221	2.142881
C	1.234565	2.155183	-0.563588
S	0.482106	0.842416	-1.464748
C	1.640257	2.863718	1.882380
H	1.417524	2.475067	2.894974
H	1.192042	3.876565	1.808137
H	2.740717	2.989259	1.808230
H	1.710720	2.986508	-1.097114
$end

$rem
JOBTYPE		SP
EXCHANGE	HF
CORRELATION	pRIMP2
BASIS		cc-pvtz
METHOD		rimp2
AUX_BASIS	rimp2-cc-pvtz
SOLVENT_METHOD	PCM
PURECART	11111
SYMMETRY	false
MEM_TOTAL	110000
SCF_CONVERGENCE = 6
THRESH=10
GUI = 2
$end



$solvent
dielectric 4.90
$end
--------------------------------------------------------------
 ----------------------------------------------------------------
             Standard Nuclear Orientation (Angstroms)
    I     Atom           X                Y                Z
 ----------------------------------------------------------------
    1      C      -0.7244600000    -3.8878000000    -0.0010920000
    2      C       0.6611310000    -3.7014560000    -0.0010360000
    3      C       1.0852030000    -2.3451700000    -0.0004060000
    4      H       1.3673050000    -4.5452330000    -0.0014330000
    5      C       0.0000000000    -1.4501350000     0.0000000000
    6      S      -1.5275170000    -2.3213340000    -0.0003670000
    7      C       2.5314780000    -1.9344390000    -0.0002330000
    8      H       3.1962540000    -2.8197990000    -0.0006560000
    9      H       2.7873050000    -1.3262100000     0.8924470000
   10      H       2.7872820000    -1.3253740000    -0.8923500000
   11      H      -1.3079070000    -4.8153260000    -0.0015110000
   12      C       0.0000000000     0.0000000000     0.0000000000
   13      C       0.4196340000     0.7329900000     1.1130200000
   14      C       1.1110570000     1.9399510000     0.8205780000
   15      H       0.2267460000     0.3962210000     2.1428810000
   16      C       1.2345650000     2.1551830000    -0.5635880000
   17      S       0.4821060000     0.8424160000    -1.4647480000
   18      C       1.6402570000     2.8637180000     1.8823800000
   19      H       1.4175240000     2.4750670000     2.8949740000
   20      H       1.1920420000     3.8765650000     1.8081370000
   21      H       2.7407170000     2.9892590000     1.8082300000
   22      H       1.7107200000     2.9865080000    -1.0971140000
 ----------------------------------------------------------------
 Nuclear Repulsion Energy =         840.03386175 hartrees
 There are       51 alpha and       51 beta electrons
 Requested basis set is cc-pVTZ
 There are 184 shells and 508 basis functions

 Total QAlloc Memory Limit 110000 MB
 Mega-Array Size       188 MB
 MEM_STATIC part       192 MB
 Discretize the solute cavity surface with Lebedev spheres
	Using 110 Lebedev grid points for each H atom
	Using 194 Lebedev grid points for other atoms
	Atomic van der Waals radii will be scaled by 1.20
 Remove points where switching function is < 1.0e-08
 Keep 1539 surface tesserae and discard 1889 interior tesserae
 Molecular Surface Area = 235.571 Angst**2
 Requested basis set is rimp2-cc-pVTZ
 There are 394 shells and 1354 basis functions
 A cutoff of  1.0D-10 yielded  12603 shell pairs
 There are     93679 function pairs (    120906 Cartesian)
 Smallest overlap matrix eigenvalue = 6.62E-05

 Scale SEOQF with 1.000000e-01/1.000000e-01/1.000000e-01

 Standard Electronic Orientation quadrupole field applied
 Nucleus-field energy     =     0.0000000345 hartrees
 Guess from superposition of atomic densities
 Warning:  Energy on first SCF cycle will be non-variational
 SAD guess density has 102.000000 electrons

 -----------------------------------------------------------------------
  General SCF calculation program by
  Eric Jon Sundstrom, Paul Horn, Yuezhi Mao, Dmitri Zuev, Alec White,
  David Stuck, Shaama M.S., Shane Yost, Joonho Lee, David Small,
  Daniel Levine, Susi Lehtola, Hugh Burton, Evgeny Epifanovsky,
  Bang C. Huynh
 -----------------------------------------------------------------------
 Hartree-Fock
 using 64 threads for integral computing
 -------------------------------------------------------
 OpenMP Integral computing Module                
 Release: version 1.0, May 2013, Q-Chem Inc. Pittsburgh 
 -------------------------------------------------------
 A restricted SCF calculation will be
 performed using DIIS
 SCF converges when DIIS error is below 1.0e-06
 ---------------------------------------
  Cycle       Energy         DIIS error
 ---------------------------------------
    1   -1184.2045944000      2.38e-02  
    2   -1179.5319643271      1.58e-03  
    3   -1179.6514394440      5.94e-04  
    4   -1179.6645383727      3.29e-04  
    5   -1179.6691003817      6.74e-05  
    6   -1179.6693848693      3.07e-05  
    7   -1179.6694740892      1.35e-05  
    8   -1179.6695037783      5.43e-06  
    9   -1179.6695091602      1.86e-06  
   10   -1179.6695096752      6.06e-07  Convergence criterion met
 ---------------------------------------
 SCF time:   CPU 1531.45s  wall 45.00s 

************** Final PCM Free Energy Summary **************
 G_electrostatic  =      -0.00782333 hartree =      -4.90921640 kcal/mol
 G_cavitation     =       0.00000000 hartree =       0.00000000 kcal/mol
 G_dispersion     =       0.00000000 hartree =       0.00000000 kcal/mol
 G_repulsion      =       0.00000000 hartree =       0.00000000 kcal/mol
 --------------------------------------------------
 Non-electrostatic Free Energy =       0.00000000 hartree =       0.00000000 kcal/mol
 Total                         =      -0.00782333 hartree =      -4.90921640 kcal/mol
 --------------------------------------------------
 SCF Energy (H0 + V/2)                       =   -1179.66950968 
 Solute Internal Energy (H0)                 =   -1179.66168634 
 Total Free Energy (H0 + V/2 + non-elec)     =   -1179.66950968 hartree
                                             = -740253.78997111 kcal/mol
***********************************************************

 SCF   energy in the final basis set =    -1179.6695096752
 Total energy in the final basis set =    -1179.6695096752


 --------------------------------------------------------------
  Generalized many-body perturbation theory program
  by Joonho Lee, Fazle Rob, Xintian Feng, Evgeny Epifanovsky

 No regularization used 
 (reg. param. = 0.0000e+00)
  (P|Q)^-1/2 Time:  CPU 17.73 s  wall 0.28 s

 In RI-MP2 calculation: 
 # of frozen core orbitals: 20

 Components of the RIMP2 correlation energy:
        aaaa    correlation energy =        -0.2532139689 a.u.
        abab    correlation energy =        -1.4768335431 a.u.
        bbbb    correlation energy =        -0.2532139689 a.u.
        non-Brillouin singles      =        -0.0000000000 a.u.
        total same-spin energy     =        -0.5064279379 a.u.
        total opposite-spin energy =        -1.4768335431 a.u.

 Total  RIMP2   correlation energy =        -1.9832614810 a.u.
        RIMP2         total energy =     -1181.6527711562 a.u.

 RI-MP2 Energy Time:  CPU 151.67 s  wall 2.56 s
 
 --------------------------------------------------------------
 
                    Orbital Energies (a.u.)
 --------------------------------------------------------------
 
 Alpha MOs
 -- Occupied --
-91.9850 -91.9816 -11.2734 -11.2717 -11.2714 -11.2696 -11.2518 -11.2507
-11.2475 -11.2408 -11.2299 -11.2275  -8.9846  -8.9813  -6.6654  -6.6648
 -6.6643  -6.6622  -6.6616  -6.6611  -1.1795  -1.1487  -1.0404  -1.0204
 -0.9972  -0.9538  -0.9126  -0.8918  -0.7974  -0.7525  -0.7324  -0.6952
 -0.6598  -0.6172  -0.5814  -0.5802  -0.5722  -0.5689  -0.5504  -0.5310
 -0.5279  -0.5205  -0.5108  -0.4910  -0.4794  -0.4641  -0.4594  -0.3450
 -0.3405  -0.3139  -0.3075
 -- Virtual --
  0.0846   0.1009   0.1371   0.1543   0.1632   0.1736   0.1815   0.1840
  0.1886   0.1968   0.1969   0.2148   0.2312   0.2382   0.2427   0.2482
  0.2520   0.2606   0.2894   0.2951   0.3298   0.3502   0.3525   0.3651
  0.3758   0.3836   0.3923   0.4012   0.4076   0.4152   0.4186   0.4348
  0.4415   0.4541   0.4591   0.4644   0.4781   0.4829   0.4956   0.5057
  0.5068   0.5205   0.5269   0.5364   0.5394   0.5521   0.5609   0.5660
  0.5822   0.5849   0.5893   0.5978   0.5989   0.6094   0.6149   0.6170
  0.6262   0.6305   0.6391   0.6426   0.6499   0.6601   0.6626   0.6660
  0.6685   0.6714   0.6921   0.7121   0.7202   0.7353   0.7440   0.7521
  0.7613   0.7718   0.7893   0.8002   0.8154   0.8213   0.8246   0.8434
  0.8488   0.8536   0.8746   0.8943   0.8995   0.9163   0.9284   0.9397
  0.9477   0.9627   0.9920   0.9987   1.0027   1.0182   1.0279   1.0407
  1.0484   1.0509   1.0558   1.0618   1.0696   1.0831   1.0876   1.0956
  1.1038   1.1100   1.1152   1.1394   1.1651   1.1714   1.1841   1.1982
  1.2018   1.2110   1.2247   1.2426   1.2525   1.2542   1.2671   1.2705
  1.2805   1.2875   1.3009   1.3094   1.3154   1.3354   1.3424   1.3714
  1.3837   1.3878   1.4090   1.4173   1.4252   1.4311   1.4513   1.4648
  1.4755   1.4854   1.5010   1.5061   1.5239   1.5377   1.5388   1.5421
  1.5492   1.5645   1.5775   1.5792   1.5879   1.5937   1.6077   1.6256
  1.6516   1.6606   1.6768   1.6783   1.6948   1.7056   1.7102   1.7237
  1.7411   1.7493   1.7708   1.7878   1.8000   1.8234   1.8276   1.8648
  1.8809   1.8952   1.9053   1.9231   1.9305   1.9487   1.9594   1.9958
  2.0105   2.0408   2.0716   2.1123   2.1176   2.1333   2.1404   2.1728
  2.1826   2.1920   2.1950   2.2175   2.2355   2.2579   2.2725   2.2731
  2.2881   2.3164   2.3319   2.3482   2.3946   2.4005   2.4277   2.4569
  2.4732   2.4976   2.5129   2.5176   2.5394   2.5606   2.5990   2.6167
  2.6326   2.6433   2.6528   2.6587   2.6633   2.6818   2.6957   2.7310
  2.7323   2.7440   2.7522   2.7611   2.7682   2.7855   2.7944   2.8070
  2.8303   2.8414   2.8527   2.8693   2.8815   2.9025   2.9198   2.9382
  2.9459   2.9687   2.9749   2.9879   2.9938   2.9973   3.0178   3.0356
  3.0393   3.0633   3.0959   3.1083   3.1147   3.1154   3.1365   3.1401
  3.1457   3.1563   3.1611   3.1770   3.1870   3.1973   3.2232   3.2335
  3.2468   3.2523   3.2636   3.2682   3.2786   3.2961   3.3096   3.3116
  3.3197   3.3332   3.3361   3.3503   3.3553   3.3648   3.3685   3.3809
  3.3864   3.3896   3.3962   3.4093   3.4207   3.4262   3.4394   3.4404
  3.4539   3.4663   3.4751   3.4827   3.5074   3.5142   3.5178   3.5239
  3.5285   3.5386   3.5428   3.5534   3.5592   3.5780   3.5865   3.5992
  3.6063   3.6146   3.6268   3.6318   3.6360   3.6442   3.6597   3.6702
  3.6812   3.6910   3.6965   3.7174   3.7222   3.7384   3.7438   3.7527
  3.7565   3.7677   3.7826   3.7895   3.8007   3.8117   3.8240   3.8474
  3.8619   3.8779   3.8893   3.8933   3.8973   3.9263   3.9506   3.9598
  3.9751   3.9809   3.9906   4.0168   4.0199   4.0346   4.0467   4.0573
  4.0586   4.0764   4.0914   4.1061   4.1177   4.1224   4.1366   4.1435
  4.1739   4.1848   4.1946   4.1975   4.2107   4.2169   4.2236   4.2412
  4.2520   4.2710   4.2740   4.2896   4.2949   4.3094   4.3239   4.3354
  4.3461   4.3522   4.3669   4.3880   4.3936   4.3995   4.4027   4.4211
  4.4398   4.4427   4.4685   4.4842   4.4902   4.5030   4.5183   4.5474
  4.5907   4.5989   4.6158   4.6262   4.6299   4.6422   4.6595   4.6696
  4.6800   4.7161   4.7352   4.7441   4.7622   4.7851   4.8131   4.8471
  4.8778   4.8875   4.9101   4.9287   4.9487   4.9820   5.0034   5.0585
  5.0930   5.1018   5.1121   5.1333   5.1485   5.1818   5.1994   5.2098
  5.2678   5.2804   5.2896   5.3006   5.3238   5.3653   5.3821   5.4014
  5.4049   5.4460   5.4643   5.4893   5.5165   5.5296   5.5456   5.5565
  5.5710   5.5732   5.6202   5.6250   5.6308   5.6949   5.6973   5.7190
  5.7750   5.8184   5.9168   5.9723   5.9909   6.0301   6.1142   6.2265
  6.2295   6.2436   6.2795   6.2871   6.3344   6.4075   6.5209   8.7809
  9.6775  11.6492  12.1279  12.8627  13.1065  13.7533  13.9012  14.2106
 14.3133
 --------------------------------------------------------------
 
          Ground-State Mulliken Net Atomic Charges

     Atom                 Charge (a.u.)
  ----------------------------------------
      1 C                    -0.214512
      2 C                    -0.252454
      3 C                     0.071066
      4 H                     0.184529
      5 C                    -0.035315
      6 S                     0.021216
      7 C                    -0.286875
      8 H                     0.111117
      9 H                     0.109838
     10 H                     0.112270
     11 H                     0.202526
     12 C                    -0.058042
     13 C                    -0.235267
     14 C                     0.034870
     15 H                     0.186122
     16 C                    -0.229166
     17 S                     0.028953
     18 C                    -0.268945
     19 H                     0.103193
     20 H                     0.108391
     21 H                     0.107155
     22 H                     0.199330
  ----------------------------------------
  Sum of atomic charges =     0.000000

 -----------------------------------------------------------------
                    Cartesian Multipole Moments
 -----------------------------------------------------------------
    Charge (ESU x 10^10)
                -0.0000
    Dipole Moment (Debye)
         X       2.6608      Y       0.5378      Z       1.5383
       Tot       3.1201
    Quadrupole Moments (Debye-Ang)
        XX     -83.6194     XY       2.5401     YY     -72.1955
        XZ       0.5058     YZ       0.9694     ZZ     -86.5388
    Octopole Moments (Debye-Ang^2)
       XXX    -109.3761    XXY      44.7180    XYY     -24.8756
       YYY     115.2591    XXZ      -3.2580    XYZ      -1.1340
       YYZ      -4.6261    XZZ     -34.2192    YZZ      68.1831
       ZZZ       0.3808
    Hexadecapole Moments (Debye-Ang^3)
      XXXX    -924.8999   XXXY    -212.6594   XXYY    -538.7195
      XYYY    -140.3583   YYYY   -2408.0247   XXXZ     -51.1751
      XXYZ     -32.4113   XYYZ     -23.7085   YYYZ     -97.1060
      XXZZ    -249.1821   XYZZ     -58.9211   YYZZ    -580.9924
      XZZZ     -51.0314   YZZZ     -88.2688   ZZZZ    -533.9066
 -----------------------------------------------------------------
 Total job time:  49.47s(wall), 1739.93s(cpu) 
 Wed Dec 13 15:58:49 2023

        *************************************************************
        *                                                           *
        *  Thank you very much for using Q-Chem.  Have a nice day.  *
        *                                                           *
        *************************************************************


0 sent ACK to 0 
now end server 0 ... 
cleanup process ... done
remove work dirs ./qchem2228736.0 -- ./qchem2228736.0
rm -rf ./qchem2228736.0
rm -rf ./qchem2228736
