You are running Q-Chem version: 5.4.0

#
# job setting
#
local host:  exp-5-41
current dir: /home/rramji/project-csd799/aromodel/p3ht-qchem/rotation-run
input file:  Methylthiophene_Phi_60_Theta_170_Methylthiophene.qcin
output file: 
nprocs     : 1
nthreads   : 64
#
# qchem installation setting
#
QC:          /cm/shared/apps/spack/cpu/opt/spack/linux-centos8-zen2/gcc-10.2.0/qchem-5.4-akfmr7b3t57bfs6qan3padb2wnb2i7cl
QCAUX:       /cm/shared/apps/spack/cpu/opt/spack/linux-centos8-zen2/gcc-10.2.0/qchem-5.4-akfmr7b3t57bfs6qan3padb2wnb2i7cl/qcaux
QCPROG:      /cm/shared/apps/spack/cpu/opt/spack/linux-centos8-zen2/gcc-10.2.0/qchem-5.4-akfmr7b3t57bfs6qan3padb2wnb2i7cl/exe/qcprog.exe
QCPROG_S:    /cm/shared/apps/spack/cpu/opt/spack/linux-centos8-zen2/gcc-10.2.0/qchem-5.4-akfmr7b3t57bfs6qan3padb2wnb2i7cl/exe/qcprog.exe_s
PARALLEL:    -DPARALLEL
QCMPI:       mpich
#
# qchem directory setting
#
qcrun:       qchem3055839
QCSCRATCH:   .
QCLOCALSCR:  
QCTMPDIR:    .
QCFILEPREF:  ./qchem3055839
QCSAVEDIR:   
workdirs:    ./qchem3055839
workdir0:    ./qchem3055839
partmpdirs =  
#
# parallel setting
#
QCRSH:           ssh
QCMPI:           mpich
QCMPIRUN:        /cm/shared/apps/spack/cpu/opt/spack/linux-centos8-zen2/gcc-10.2.0/qchem-5.4-akfmr7b3t57bfs6qan3padb2wnb2i7cl/bin/mpi/mpirun_qchem
QCMACHINEFILE:   ./qchem3055839/hostfile
exp-5-41

#
# env setting
#
exported envs:   QC QCAUX QCSCRATCH QCRUNNAME QCFILEPREF QCPROG QCPROG_S GUIFILE

Running Job 1 of 1 Methylthiophene_Phi_60_Theta_170_Methylthiophene.qcin
qchem Methylthiophene_Phi_60_Theta_170_Methylthiophene.qcin_3055839.0 ./qchem3055839/ 1
/cm/shared/apps/spack/cpu/opt/spack/linux-centos8-zen2/gcc-10.2.0/qchem-5.4-akfmr7b3t57bfs6qan3padb2wnb2i7cl/bin/mpi/mpirun_qchem -machinefile ./qchem3055839/hostfile -np 1 /cm/shared/apps/spack/cpu/opt/spack/linux-centos8-zen2/gcc-10.2.0/qchem-5.4-akfmr7b3t57bfs6qan3padb2wnb2i7cl/exe/qcprog.exe Methylthiophene_Phi_60_Theta_170_Methylthiophene.qcin_3055839.0 ./qchem3055839/

Process 0 of 1 is on exp-5-41 - thread support 0
initial socket setup ...start
initial socket setup ...done 
now start server 0 ... 
                  Welcome to Q-Chem
     A Quantum Leap Into The Future Of Chemistry


 Q-Chem 5.4, Q-Chem, Inc., Pleasanton, CA (2021)

 License issued to: University of California, San Diego (site)

 E. Epifanovsky,  A. T. B. Gilbert,  Xintian Feng,  Joonho Lee,  Yuezhi Mao,  
 N. Mardirossian,  P. Pokhilko,  A. White,  M. Wormit,  M. P. Coons,  
 A. L. Dempwolff,  Zhengting Gan,  D. Hait,  P. R. Horn,  L. D. Jacobson,  
 I. Kaliman,  J. Kussmann,  A. W. Lange,  Ka Un Lao,  D. S. Levine,  Jie Liu,  
 S. C. McKenzie,  A. F. Morrison,  K. Nanda,  F. Plasser,  D. R. Rehn,  
 M. L. Vidal,  Zhi-Qiang You,  Ying Zhu,  B. Alam,  B. Albrecht,  
 A. Aldossary,  E. Alguire,  J. H. Andersen,  D. Barton,  K. Begam,  A. Behn,  
 Y. A. Bernard,  E. J. Berquist,  H. Burton,  A. Carreras,  K. Carter-Fenk,  
 R. Chakraborty,  A. D. Chien,  K. D. Closser,  V. Cofer-Shabica,  
 S. Dasgupta,  Jia Deng,  M. de Wergifosse,  M. Diedenhofen,  Hainam Do,  
 S. Ehlert,  Po-Tung Fang,  S. Fatehi,  Qingguo Feng,  J. Gayvert,  
 Qinghui Ge,  G. Gidofalvi,  M. Goldey,  J. Gomes,  C. Gonzalez-Espinoza,  
 S. Gulania,  A. Gunina,  M. W. D. Hanson-Heine,  P. H. P. Harbach,  
 A. W. Hauser,  M. F. Herbst,  M. Hernandez Vera,  M. Hodecker,  
 Z. C. Holden,  S. Houck,  Xunkun Huang,  Kerwin Hui,  B. C. Huynh,  
 M. Ivanov,  Hyunjun Ji,  Hanjie Jiang,  B. Kaduk,  S. Kaehler,  
 K. Khistyaev,  Jaehoon Kim,  P. Klunzinger,  Z. Koczor-Benda,  
 Joong Hoon Koh,  D. Kosenkov,  L. Koulias,  T. Kowalczyk,  C. M. Krauter,  
 K. Kue,  A. Kunitsa,  T. Kus,  A. Landau,  K. V. Lawler,  D. Lefrancois,  
 S. Lehtola,  Rain Li,  Yi-Pei Li,  Jiashu Liang,  M. Liebenthal,  
 Hung-Hsuan Lin,  You-Sheng Lin,  Fenglai Liu,  Kuan-Yu Liu,  
 M. Loipersberger,  A. Luenser,  A. Manjanath,  P. Manohar,  E. Mansoor,  
 S. F. Manzer,  Shan-Ping Mao,  A. V. Marenich,  T. Markovich,  S. Mason,  
 S. A. Maurer,  P. F. McLaughlin,  M. F. S. J. Menger,  J.-M. Mewes,  
 S. A. Mewes,  P. Morgante,  J. W. Mullinax,  T. S. Nguyen-Beck,  
 K. J. Oosterbaan,  G. Paran,  Alexander C. Paul,  Suranjan K. Paul,  
 F. Pavosevic,  Zheng Pei,  S. Prager,  E. I. Proynov,  E. Ramos,  B. Rana,  
 A. E. Rask,  A. Rettig,  R. M. Richard,  F. Rob,  E. Rossomme,  T. Scheele,  
 M. Scheurer,  M. Schneider,  N. Sergueev,  S. M. Sharada,  W. Skomorowski,  
 D. W. Small,  C. J. Stein,  Yu-Chuan Su,  E. J. Sundstrom,  Zhen Tao,  
 J. Thirman,  T. Tsuchimochi,  N. M. Tubman,  S. P. Veccham,  O. Vydrov,  
 J. Wenzel,  J. Witte,  A. Yamada,  Kun Yao,  S. Yeganeh,  S. R. Yost,  
 A. Zech,  Igor Ying Zhang,  Xing Zhang,  Yu Zhang,  D. Zuev,  
 A. Aspuru-Guzik,  A. T. Bell,  N. A. Besley,  K. B. Bravaya,  B. R. Brooks,  
 D. Casanova,  Jeng-Da Chai,  S. Coriani,  C. J. Cramer,  
 A. E. DePrince, III,  R. A. DiStasio Jr.,  A. Dreuw,  B. D. Dunietz,  
 T. R. Furlani,  W. A. Goddard III,  S. Grimme,  S. Hammes-Schiffer,  
 T. Head-Gordon,  W. J. Hehre,  Chao-Ping Hsu,  T.-C. Jagau,  Yousung Jung,  
 A. Klamt,  Jing Kong,  D. S. Lambrecht,  WanZhen Liang,  N. J. Mayhall,  
 C. W. McCurdy,  J. B. Neaton,  C. Ochsenfeld,  J. A. Parkhill,  R. Peverati,  
 V. A. Rassolov,  Yihan Shao,  L. V. Slipchenko,  T. Stauch,  R. P. Steele,  
 J. E. Subotnik,  A. J. W. Thom,  A. Tkatchenko,  D. G. Truhlar,  
 T. Van Voorhis,  T. A. Wesolowski,  K. B. Whaley,  H. L. Woodcock III,  
 P. M. Zimmerman,  S. Faraji,  P. M. W. Gill,  M. Head-Gordon,  
 J. M. Herbert,  A. I. Krylov

 Contributors to earlier versions of Q-Chem not listed above: 
 R. D. Adamson,  B. Austin,  R. Baer,  J. Baker,  G. J. O. Beran,  
 K. Brandhorst,  S. T. Brown,  E. F. C. Byrd,  A. K. Chakraborty,  
 G. K. L. Chan,  Chun-Min Chang,  Yunqing Chen,  C.-L. Cheng,  
 Siu Hung Chien,  D. M. Chipman,  D. L. Crittenden,  H. Dachsel,  
 R. J. Doerksen,  A. D. Dutoi,  R. G. Edgar,  J. Fosso-Tande,  
 L. Fusti-Molnar,  D. Ghosh,  A. Ghysels,  A. Golubeva-Zadorozhnaya,  
 J. Gonthier,  M. S. Gordon,  S. R. Gwaltney,  G. Hawkins,  J. E. Herr,  
 A. Heyden,  S. Hirata,  E. G. Hohenstein,  G. Kedziora,  F. J. Keil,  
 C. Kelley,  Jihan Kim,  R. A. King,  R. Z. Khaliullin,  P. P. Korambath,  
 W. Kurlancheek,  A. Laurent,  A. M. Lee,  M. S. Lee,  S. V. Levchenko,  
 Ching Yeh Lin,  D. Liotard,  E. Livshits,  R. C. Lochan,  I. Lotan,  
 L. A. Martinez-Martinez,  P. E. Maslen,  N. Nair,  D. P. O'Neill,  
 D. Neuhauser,  E. Neuscamman,  C. M. Oana,  R. Olivares-Amaya,  R. Olson,  
 T. M. Perrine,  B. Peters,  P. A. Pieniazek,  A. Prociuk,  Y. M. Rhee,  
 J. Ritchie,  M. A. Rohrdanz,  E. Rosta,  N. J. Russ,  H. F. Schaefer III,  
 M. W. Schmidt,  N. E. Schultz,  S. Sharma,  N. Shenvi,  C. D. Sherrill,  
 A. C. Simmonett,  A. Sodt,  T. Stein,  D. Stuck,  K. S. Thanthiriwatte,  
 V. Vanovschi,  L. Vogt,  Tao Wang,  A. Warshel,  M. A. Watson,  
 C. F. Williams,  Q. Wu,  X. Xu,  Jun Yang,  W. Zhang,  Yan Zhao

 Please cite Q-Chem as follows:
 Y. Shao et al., Mol. Phys. 113, 184-215 (2015)
 DOI: 10.1080/00268976.2014.952696

 Q-Chem 5.4.0 for Intel X86 EM64T Linux

 Parts of Q-Chem use Armadillo 9.800.1 (Horizon Scraper).
 http://arma.sourceforge.net/

 Q-Chem begins on Wed Dec 13 16:08:05 2023  

 Host: 
0

     Scratch files written to ./qchem3055839//
 May1621 |scratch|qcdevops|jenkins|workspace|build_RNUM    
 Parallel job on  1  processors
 Processing $rem in /cm/shared/apps/spack/cpu/opt/spack/linux-centos8-zen2/gcc-10.2.0/qchem-5.4-akfmr7b3t57bfs6qan3padb2wnb2i7cl/config/preferences:
 Processing $rem in /home/rramji/.qchemrc:
 Symmetry turned off for PCM/SM12/SMD calculation
 Core orbitals will be frozen

 Checking the input file for inconsistencies... 	...done.

 Q-Chem warning in module forms1/BasisType.C, line 2236:

 You are not using the predefined 5D/6D in this basis set.


--------------------------------------------------------------
User input:
--------------------------------------------------------------
$molecule
0 1
C	-0.124726	-3.887800	-0.713644
C	0.115824	-3.701456	0.650907
C	0.188844	-2.345170	1.068646
H	0.238841	-4.545233	1.346284
C	0.000000	-1.450135	0.000000
S	-0.264890	-2.321334	-1.504375
C	0.439816	-1.934439	2.492978
H	0.555669	-2.819799	3.147582
H	-0.394879	-1.326210	2.899931
H	1.362799	-1.325374	2.589982
H	-0.225628	-4.815326	-1.288299
C	0.000000	0.000000	0.000000
C	0.729909	0.424971	1.113020
C	1.932179	1.124518	0.820578
H	0.394478	0.229765	2.142881
C	2.146756	1.249161	-0.563588
S	0.838724	0.488500	-1.464748
C	2.852364	1.659924	1.882380
H	2.465145	1.434710	2.894974
H	2.970621	2.761183	1.808137
H	3.868160	1.218416	1.808230
H	2.974781	1.731032	-1.097114
$end

$rem
JOBTYPE		SP
EXCHANGE	HF
CORRELATION	pRIMP2
BASIS		cc-pvtz
METHOD		rimp2
AUX_BASIS	rimp2-cc-pvtz
SOLVENT_METHOD	PCM
PURECART	11111
SYMMETRY	false
MEM_TOTAL	110000
SCF_CONVERGENCE = 6
THRESH=10
GUI = 2
$end



$solvent
dielectric 4.90
$end
--------------------------------------------------------------
 ----------------------------------------------------------------
             Standard Nuclear Orientation (Angstroms)
    I     Atom           X                Y                Z
 ----------------------------------------------------------------
    1      C      -0.1247260000    -3.8878000000    -0.7136440000
    2      C       0.1158240000    -3.7014560000     0.6509070000
    3      C       0.1888440000    -2.3451700000     1.0686460000
    4      H       0.2388410000    -4.5452330000     1.3462840000
    5      C       0.0000000000    -1.4501350000     0.0000000000
    6      S      -0.2648900000    -2.3213340000    -1.5043750000
    7      C       0.4398160000    -1.9344390000     2.4929780000
    8      H       0.5556690000    -2.8197990000     3.1475820000
    9      H      -0.3948790000    -1.3262100000     2.8999310000
   10      H       1.3627990000    -1.3253740000     2.5899820000
   11      H      -0.2256280000    -4.8153260000    -1.2882990000
   12      C       0.0000000000     0.0000000000     0.0000000000
   13      C       0.7299090000     0.4249710000     1.1130200000
   14      C       1.9321790000     1.1245180000     0.8205780000
   15      H       0.3944780000     0.2297650000     2.1428810000
   16      C       2.1467560000     1.2491610000    -0.5635880000
   17      S       0.8387240000     0.4885000000    -1.4647480000
   18      C       2.8523640000     1.6599240000     1.8823800000
   19      H       2.4651450000     1.4347100000     2.8949740000
   20      H       2.9706210000     2.7611830000     1.8081370000
   21      H       3.8681600000     1.2184160000     1.8082300000
   22      H       2.9747810000     1.7310320000    -1.0971140000
 ----------------------------------------------------------------
 Nuclear Repulsion Energy =         864.64766423 hartrees
 There are       51 alpha and       51 beta electrons
 Requested basis set is cc-pVTZ
 There are 184 shells and 508 basis functions

 Total QAlloc Memory Limit 110000 MB
 Mega-Array Size       188 MB
 MEM_STATIC part       192 MB
 Discretize the solute cavity surface with Lebedev spheres
	Using 110 Lebedev grid points for each H atom
	Using 194 Lebedev grid points for other atoms
	Atomic van der Waals radii will be scaled by 1.20
 Remove points where switching function is < 1.0e-08
 Keep 1483 surface tesserae and discard 1945 interior tesserae
 Molecular Surface Area = 223.601 Angst**2
 Requested basis set is rimp2-cc-pVTZ
 There are 394 shells and 1354 basis functions
 A cutoff of  1.0D-10 yielded  13085 shell pairs
 There are     97285 function pairs (    125452 Cartesian)
 Smallest overlap matrix eigenvalue = 6.82E-05

 Scale SEOQF with 1.000000e-01/1.000000e-01/1.000000e-01

 Standard Electronic Orientation quadrupole field applied
 Nucleus-field energy     =     0.0000000148 hartrees
 Guess from superposition of atomic densities
 Warning:  Energy on first SCF cycle will be non-variational
 SAD guess density has 102.000000 electrons

 -----------------------------------------------------------------------
  General SCF calculation program by
  Eric Jon Sundstrom, Paul Horn, Yuezhi Mao, Dmitri Zuev, Alec White,
  David Stuck, Shaama M.S., Shane Yost, Joonho Lee, David Small,
  Daniel Levine, Susi Lehtola, Hugh Burton, Evgeny Epifanovsky,
  Bang C. Huynh
 -----------------------------------------------------------------------
 Hartree-Fock
 using 64 threads for integral computing
 -------------------------------------------------------
 OpenMP Integral computing Module                
 Release: version 1.0, May 2013, Q-Chem Inc. Pittsburgh 
 -------------------------------------------------------
 A restricted SCF calculation will be
 performed using DIIS
 SCF converges when DIIS error is below 1.0e-06
 ---------------------------------------
  Cycle       Energy         DIIS error
 ---------------------------------------
    1   -1184.4261115157      2.41e-02  
    2   -1179.4601933761      1.60e-03  
    3   -1179.5834071516      6.08e-04  
    4   -1179.5975779679      3.27e-04  
    5   -1179.6022717764      6.18e-05  
    6   -1179.6025796563      3.03e-05  
    7   -1179.6026818782      1.59e-05  
    8   -1179.6027225534      6.47e-06  
    9   -1179.6027312594      2.90e-06  
   10   -1179.6027327220      1.41e-06  
   11   -1179.6027331146      6.22e-07  Convergence criterion met
 ---------------------------------------
 SCF time:   CPU 1714.43s  wall 50.00s 

************** Final PCM Free Energy Summary **************
 G_electrostatic  =      -0.01097434 hartree =      -6.88650400 kcal/mol
 G_cavitation     =       0.00000000 hartree =       0.00000000 kcal/mol
 G_dispersion     =       0.00000000 hartree =       0.00000000 kcal/mol
 G_repulsion      =       0.00000000 hartree =       0.00000000 kcal/mol
 --------------------------------------------------
 Non-electrostatic Free Energy =       0.00000000 hartree =       0.00000000 kcal/mol
 Total                         =      -0.01097434 hartree =      -6.88650400 kcal/mol
 --------------------------------------------------
 SCF Energy (H0 + V/2)                       =   -1179.60273311 
 Solute Internal Energy (H0)                 =   -1179.59175877 
 Total Free Energy (H0 + V/2 + non-elec)     =   -1179.60273311 hartree
                                             = -740211.88704688 kcal/mol
***********************************************************

 SCF   energy in the final basis set =    -1179.6027331146
 Total energy in the final basis set =    -1179.6027331146


 --------------------------------------------------------------
  Generalized many-body perturbation theory program
  by Joonho Lee, Fazle Rob, Xintian Feng, Evgeny Epifanovsky

 No regularization used 
 (reg. param. = 0.0000e+00)
  (P|Q)^-1/2 Time:  CPU 25.75 s  wall 0.43 s

 In RI-MP2 calculation: 
 # of frozen core orbitals: 20

 Components of the RIMP2 correlation energy:
        aaaa    correlation energy =        -0.2564078653 a.u.
        abab    correlation energy =        -1.4849476401 a.u.
        bbbb    correlation energy =        -0.2564078653 a.u.
        non-Brillouin singles      =        -0.0000000000 a.u.
        total same-spin energy     =        -0.5128157306 a.u.
        total opposite-spin energy =        -1.4849476401 a.u.

 Total  RIMP2   correlation energy =        -1.9977633708 a.u.
        RIMP2         total energy =     -1181.6004964854 a.u.

 RI-MP2 Energy Time:  CPU 163.59 s  wall 2.89 s
 
 --------------------------------------------------------------
 
                    Orbital Energies (a.u.)
 --------------------------------------------------------------
 
 Alpha MOs
 -- Occupied --
-91.9836 -91.9733 -11.2936 -11.2804 -11.2641 -11.2569 -11.2566 -11.2555
-11.2376 -11.2346 -11.2328 -11.2282  -8.9846  -8.9739  -6.6653  -6.6645
 -6.6642  -6.6549  -6.6543  -6.6536  -1.1939  -1.1451  -1.0477  -1.0277
 -0.9960  -0.9527  -0.9138  -0.8952  -0.7978  -0.7580  -0.7307  -0.7037
 -0.6525  -0.6188  -0.6011  -0.5858  -0.5699  -0.5583  -0.5500  -0.5425
 -0.5332  -0.5205  -0.5040  -0.4866  -0.4809  -0.4596  -0.4443  -0.3676
 -0.3507  -0.3282  -0.2624
 -- Virtual --
  0.0503   0.1230   0.1340   0.1485   0.1646   0.1704   0.1795   0.1869
  0.1931   0.2052   0.2107   0.2182   0.2318   0.2404   0.2423   0.2487
  0.2702   0.2772   0.3035   0.3197   0.3234   0.3301   0.3595   0.3733
  0.3767   0.3813   0.3904   0.3979   0.4218   0.4239   0.4308   0.4383
  0.4505   0.4534   0.4728   0.4787   0.4824   0.4886   0.5036   0.5090
  0.5133   0.5180   0.5247   0.5333   0.5463   0.5566   0.5590   0.5660
  0.5725   0.5835   0.5950   0.5999   0.6057   0.6126   0.6172   0.6238
  0.6283   0.6309   0.6371   0.6457   0.6515   0.6608   0.6674   0.6747
  0.6829   0.7000   0.7088   0.7187   0.7279   0.7448   0.7495   0.7596
  0.7739   0.7839   0.7944   0.8000   0.8023   0.8274   0.8359   0.8550
  0.8595   0.8727   0.8766   0.8872   0.9008   0.9207   0.9330   0.9477
  0.9586   0.9660   0.9821   0.9960   1.0051   1.0260   1.0274   1.0367
  1.0489   1.0596   1.0653   1.0763   1.0811   1.0863   1.1011   1.1164
  1.1304   1.1319   1.1372   1.1481   1.1682   1.1790   1.1855   1.1957
  1.2186   1.2247   1.2324   1.2454   1.2503   1.2646   1.2684   1.2781
  1.2863   1.3112   1.3260   1.3333   1.3431   1.3571   1.3723   1.3754
  1.3893   1.3974   1.4074   1.4107   1.4143   1.4378   1.4513   1.4613
  1.4806   1.4953   1.5016   1.5201   1.5345   1.5394   1.5526   1.5590
  1.5652   1.5685   1.5763   1.5821   1.5976   1.6109   1.6317   1.6422
  1.6524   1.6695   1.6846   1.6970   1.7022   1.7261   1.7316   1.7538
  1.7587   1.7705   1.7865   1.7962   1.8108   1.8217   1.8329   1.8712
  1.8808   1.8948   1.9261   1.9327   1.9615   1.9757   1.9796   2.0048
  2.0164   2.0380   2.0434   2.0977   2.1225   2.1334   2.1578   2.1785
  2.1851   2.1899   2.2041   2.2265   2.2462   2.2590   2.2675   2.2845
  2.3001   2.3161   2.3541   2.3706   2.4096   2.4224   2.4319   2.4637
  2.4714   2.4833   2.5169   2.5300   2.5390   2.5806   2.5919   2.6176
  2.6354   2.6449   2.6566   2.6703   2.6981   2.7053   2.7128   2.7354
  2.7451   2.7483   2.7621   2.7791   2.7801   2.7980   2.8054   2.8175
  2.8459   2.8469   2.8630   2.8690   2.9096   2.9167   2.9301   2.9363
  2.9568   2.9810   2.9904   3.0053   3.0145   3.0224   3.0365   3.0494
  3.0594   3.0684   3.0946   3.1093   3.1141   3.1306   3.1350   3.1406
  3.1546   3.1662   3.1717   3.1908   3.1935   3.2113   3.2287   3.2375
  3.2408   3.2502   3.2597   3.2753   3.2818   3.2909   3.3017   3.3093
  3.3163   3.3345   3.3371   3.3516   3.3601   3.3670   3.3788   3.3925
  3.3991   3.4043   3.4105   3.4176   3.4279   3.4418   3.4477   3.4547
  3.4621   3.4762   3.4877   3.5036   3.5045   3.5103   3.5153   3.5210
  3.5280   3.5405   3.5521   3.5600   3.5643   3.5755   3.5887   3.5993
  3.6095   3.6283   3.6373   3.6377   3.6610   3.6701   3.6922   3.6976
  3.7032   3.7133   3.7214   3.7320   3.7389   3.7493   3.7667   3.7760
  3.7835   3.7870   3.7996   3.8218   3.8316   3.8397   3.8495   3.8689
  3.8856   3.8973   3.9064   3.9352   3.9417   3.9560   3.9667   3.9828
  3.9990   4.0158   4.0287   4.0334   4.0345   4.0480   4.0572   4.0685
  4.0798   4.0974   4.1113   4.1191   4.1397   4.1492   4.1764   4.1797
  4.1863   4.1969   4.2047   4.2122   4.2169   4.2209   4.2404   4.2600
  4.2759   4.2876   4.2971   4.3008   4.3135   4.3207   4.3538   4.3674
  4.3710   4.3861   4.3911   4.4023   4.4055   4.4214   4.4413   4.4551
  4.4574   4.4844   4.4966   4.5105   4.5423   4.5460   4.5651   4.5988
  4.6142   4.6173   4.6346   4.6598   4.6667   4.6745   4.6892   4.7021
  4.7160   4.7308   4.7618   4.7916   4.8107   4.8264   4.8603   4.8830
  4.9022   4.9175   4.9307   4.9499   4.9748   4.9952   5.0310   5.0568
  5.0656   5.1058   5.1090   5.1351   5.1622   5.1950   5.2123   5.2383
  5.2735   5.2811   5.3098   5.3141   5.3298   5.3691   5.3926   5.4112
  5.4147   5.4475   5.4712   5.4899   5.5136   5.5377   5.5529   5.5658
  5.5942   5.6206   5.6415   5.6572   5.6592   5.6700   5.7037   5.7468
  5.7868   5.8153   5.9309   5.9808   6.0440   6.0724   6.0985   6.2106
  6.2432   6.2654   6.3027   6.3118   6.3679   6.4015   6.5338   8.6712
  9.7414  11.5757  12.3864  12.8079  13.3004  13.8161  14.0966  14.2354
 14.5426
 --------------------------------------------------------------
 
          Ground-State Mulliken Net Atomic Charges

     Atom                 Charge (a.u.)
  ----------------------------------------
      1 C                    -0.244355
      2 C                    -0.249192
      3 C                     0.018832
      4 H                     0.181876
      5 C                    -0.010575
      6 S                    -0.007929
      7 C                    -0.291561
      8 H                     0.113899
      9 H                     0.099534
     10 H                     0.103422
     11 H                     0.200470
     12 C                    -0.116799
     13 C                    -0.122480
     14 C                    -0.014632
     15 H                     0.206402
     16 C                    -0.162715
     17 S                     0.039849
     18 C                    -0.276695
     19 H                     0.103489
     20 H                     0.115280
     21 H                     0.108923
     22 H                     0.204958
  ----------------------------------------
  Sum of atomic charges =     0.000000

 -----------------------------------------------------------------
                    Cartesian Multipole Moments
 -----------------------------------------------------------------
    Charge (ESU x 10^10)
                -0.0000
    Dipole Moment (Debye)
         X       3.2716      Y       1.3216      Z       3.1716
       Tot       4.7444
    Quadrupole Moments (Debye-Ang)
        XX     -82.3926     XY       5.3953     YY     -81.4404
        XZ       1.5790     YZ      -1.9319     ZZ     -80.0646
    Octopole Moments (Debye-Ang^2)
       XXX    -155.2241    XXY     104.7733    XYY     -51.9468
       YYY     192.8168    XXZ      -8.7041    XYZ      -5.5990
       YYZ      -7.3879    XZZ     -52.8293    YZZ      70.6790
       ZZZ      -6.4839
    Hexadecapole Moments (Debye-Ang^3)
      XXXX    -805.9554   XXXY    -167.9241   XXYY    -544.3777
      XYYY    -196.4130   YYYY   -2047.2163   XXXZ    -150.7020
      XXYZ     -25.6215   XYYZ     -33.2088   YYYZ     -27.4493
      XXZZ    -314.7031   XYZZ     -60.4589   YYZZ    -513.0166
      XZZZ    -133.1396   YZZZ     -55.1845   ZZZZ   -1070.3645
 -----------------------------------------------------------------
 Total job time:  55.32s(wall), 1947.25s(cpu) 
 Wed Dec 13 16:09:01 2023

        *************************************************************
        *                                                           *
        *  Thank you very much for using Q-Chem.  Have a nice day.  *
        *                                                           *
        *************************************************************


0 sent ACK to 0 
now end server 0 ... 
cleanup process ... done
remove work dirs ./qchem3055839.0 -- ./qchem3055839.0
rm -rf ./qchem3055839.0
rm -rf ./qchem3055839
