You are running Q-Chem version: 5.4.0

#
# job setting
#
local host:  exp-3-44
current dir: /home/rramji/project-csd799/aromodel/p3ht-qchem/rotation-run
input file:  Methylthiophene_Phi_30_Theta_60_Methylthiophene.qcin
output file: 
nprocs     : 1
nthreads   : 64
#
# qchem installation setting
#
QC:          /cm/shared/apps/spack/cpu/opt/spack/linux-centos8-zen2/gcc-10.2.0/qchem-5.4-akfmr7b3t57bfs6qan3padb2wnb2i7cl
QCAUX:       /cm/shared/apps/spack/cpu/opt/spack/linux-centos8-zen2/gcc-10.2.0/qchem-5.4-akfmr7b3t57bfs6qan3padb2wnb2i7cl/qcaux
QCPROG:      /cm/shared/apps/spack/cpu/opt/spack/linux-centos8-zen2/gcc-10.2.0/qchem-5.4-akfmr7b3t57bfs6qan3padb2wnb2i7cl/exe/qcprog.exe
QCPROG_S:    /cm/shared/apps/spack/cpu/opt/spack/linux-centos8-zen2/gcc-10.2.0/qchem-5.4-akfmr7b3t57bfs6qan3padb2wnb2i7cl/exe/qcprog.exe_s
PARALLEL:    -DPARALLEL
QCMPI:       mpich
#
# qchem directory setting
#
qcrun:       qchem2227896
QCSCRATCH:   .
QCLOCALSCR:  
QCTMPDIR:    .
QCFILEPREF:  ./qchem2227896
QCSAVEDIR:   
workdirs:    ./qchem2227896
workdir0:    ./qchem2227896
partmpdirs =  
#
# parallel setting
#
QCRSH:           ssh
QCMPI:           mpich
QCMPIRUN:        /cm/shared/apps/spack/cpu/opt/spack/linux-centos8-zen2/gcc-10.2.0/qchem-5.4-akfmr7b3t57bfs6qan3padb2wnb2i7cl/bin/mpi/mpirun_qchem
QCMACHINEFILE:   ./qchem2227896/hostfile
exp-3-44

#
# env setting
#
exported envs:   QC QCAUX QCSCRATCH QCRUNNAME QCFILEPREF QCPROG QCPROG_S GUIFILE

Running Job 1 of 1 Methylthiophene_Phi_30_Theta_60_Methylthiophene.qcin
qchem Methylthiophene_Phi_30_Theta_60_Methylthiophene.qcin_2227896.0 ./qchem2227896/ 1
/cm/shared/apps/spack/cpu/opt/spack/linux-centos8-zen2/gcc-10.2.0/qchem-5.4-akfmr7b3t57bfs6qan3padb2wnb2i7cl/bin/mpi/mpirun_qchem -machinefile ./qchem2227896/hostfile -np 1 /cm/shared/apps/spack/cpu/opt/spack/linux-centos8-zen2/gcc-10.2.0/qchem-5.4-akfmr7b3t57bfs6qan3padb2wnb2i7cl/exe/qcprog.exe Methylthiophene_Phi_30_Theta_60_Methylthiophene.qcin_2227896.0 ./qchem2227896/

Process 0 of 1 is on exp-3-44 - thread support 0
initial socket setup ...start
initial socket setup ...done 
now start server 0 ... 
                  Welcome to Q-Chem
     A Quantum Leap Into The Future Of Chemistry


 Q-Chem 5.4, Q-Chem, Inc., Pleasanton, CA (2021)

 License issued to: University of California, San Diego (site)

 E. Epifanovsky,  A. T. B. Gilbert,  Xintian Feng,  Joonho Lee,  Yuezhi Mao,  
 N. Mardirossian,  P. Pokhilko,  A. White,  M. Wormit,  M. P. Coons,  
 A. L. Dempwolff,  Zhengting Gan,  D. Hait,  P. R. Horn,  L. D. Jacobson,  
 I. Kaliman,  J. Kussmann,  A. W. Lange,  Ka Un Lao,  D. S. Levine,  Jie Liu,  
 S. C. McKenzie,  A. F. Morrison,  K. Nanda,  F. Plasser,  D. R. Rehn,  
 M. L. Vidal,  Zhi-Qiang You,  Ying Zhu,  B. Alam,  B. Albrecht,  
 A. Aldossary,  E. Alguire,  J. H. Andersen,  D. Barton,  K. Begam,  A. Behn,  
 Y. A. Bernard,  E. J. Berquist,  H. Burton,  A. Carreras,  K. Carter-Fenk,  
 R. Chakraborty,  A. D. Chien,  K. D. Closser,  V. Cofer-Shabica,  
 S. Dasgupta,  Jia Deng,  M. de Wergifosse,  M. Diedenhofen,  Hainam Do,  
 S. Ehlert,  Po-Tung Fang,  S. Fatehi,  Qingguo Feng,  J. Gayvert,  
 Qinghui Ge,  G. Gidofalvi,  M. Goldey,  J. Gomes,  C. Gonzalez-Espinoza,  
 S. Gulania,  A. Gunina,  M. W. D. Hanson-Heine,  P. H. P. Harbach,  
 A. W. Hauser,  M. F. Herbst,  M. Hernandez Vera,  M. Hodecker,  
 Z. C. Holden,  S. Houck,  Xunkun Huang,  Kerwin Hui,  B. C. Huynh,  
 M. Ivanov,  Hyunjun Ji,  Hanjie Jiang,  B. Kaduk,  S. Kaehler,  
 K. Khistyaev,  Jaehoon Kim,  P. Klunzinger,  Z. Koczor-Benda,  
 Joong Hoon Koh,  D. Kosenkov,  L. Koulias,  T. Kowalczyk,  C. M. Krauter,  
 K. Kue,  A. Kunitsa,  T. Kus,  A. Landau,  K. V. Lawler,  D. Lefrancois,  
 S. Lehtola,  Rain Li,  Yi-Pei Li,  Jiashu Liang,  M. Liebenthal,  
 Hung-Hsuan Lin,  You-Sheng Lin,  Fenglai Liu,  Kuan-Yu Liu,  
 M. Loipersberger,  A. Luenser,  A. Manjanath,  P. Manohar,  E. Mansoor,  
 S. F. Manzer,  Shan-Ping Mao,  A. V. Marenich,  T. Markovich,  S. Mason,  
 S. A. Maurer,  P. F. McLaughlin,  M. F. S. J. Menger,  J.-M. Mewes,  
 S. A. Mewes,  P. Morgante,  J. W. Mullinax,  T. S. Nguyen-Beck,  
 K. J. Oosterbaan,  G. Paran,  Alexander C. Paul,  Suranjan K. Paul,  
 F. Pavosevic,  Zheng Pei,  S. Prager,  E. I. Proynov,  E. Ramos,  B. Rana,  
 A. E. Rask,  A. Rettig,  R. M. Richard,  F. Rob,  E. Rossomme,  T. Scheele,  
 M. Scheurer,  M. Schneider,  N. Sergueev,  S. M. Sharada,  W. Skomorowski,  
 D. W. Small,  C. J. Stein,  Yu-Chuan Su,  E. J. Sundstrom,  Zhen Tao,  
 J. Thirman,  T. Tsuchimochi,  N. M. Tubman,  S. P. Veccham,  O. Vydrov,  
 J. Wenzel,  J. Witte,  A. Yamada,  Kun Yao,  S. Yeganeh,  S. R. Yost,  
 A. Zech,  Igor Ying Zhang,  Xing Zhang,  Yu Zhang,  D. Zuev,  
 A. Aspuru-Guzik,  A. T. Bell,  N. A. Besley,  K. B. Bravaya,  B. R. Brooks,  
 D. Casanova,  Jeng-Da Chai,  S. Coriani,  C. J. Cramer,  
 A. E. DePrince, III,  R. A. DiStasio Jr.,  A. Dreuw,  B. D. Dunietz,  
 T. R. Furlani,  W. A. Goddard III,  S. Grimme,  S. Hammes-Schiffer,  
 T. Head-Gordon,  W. J. Hehre,  Chao-Ping Hsu,  T.-C. Jagau,  Yousung Jung,  
 A. Klamt,  Jing Kong,  D. S. Lambrecht,  WanZhen Liang,  N. J. Mayhall,  
 C. W. McCurdy,  J. B. Neaton,  C. Ochsenfeld,  J. A. Parkhill,  R. Peverati,  
 V. A. Rassolov,  Yihan Shao,  L. V. Slipchenko,  T. Stauch,  R. P. Steele,  
 J. E. Subotnik,  A. J. W. Thom,  A. Tkatchenko,  D. G. Truhlar,  
 T. Van Voorhis,  T. A. Wesolowski,  K. B. Whaley,  H. L. Woodcock III,  
 P. M. Zimmerman,  S. Faraji,  P. M. W. Gill,  M. Head-Gordon,  
 J. M. Herbert,  A. I. Krylov

 Contributors to earlier versions of Q-Chem not listed above: 
 R. D. Adamson,  B. Austin,  R. Baer,  J. Baker,  G. J. O. Beran,  
 K. Brandhorst,  S. T. Brown,  E. F. C. Byrd,  A. K. Chakraborty,  
 G. K. L. Chan,  Chun-Min Chang,  Yunqing Chen,  C.-L. Cheng,  
 Siu Hung Chien,  D. M. Chipman,  D. L. Crittenden,  H. Dachsel,  
 R. J. Doerksen,  A. D. Dutoi,  R. G. Edgar,  J. Fosso-Tande,  
 L. Fusti-Molnar,  D. Ghosh,  A. Ghysels,  A. Golubeva-Zadorozhnaya,  
 J. Gonthier,  M. S. Gordon,  S. R. Gwaltney,  G. Hawkins,  J. E. Herr,  
 A. Heyden,  S. Hirata,  E. G. Hohenstein,  G. Kedziora,  F. J. Keil,  
 C. Kelley,  Jihan Kim,  R. A. King,  R. Z. Khaliullin,  P. P. Korambath,  
 W. Kurlancheek,  A. Laurent,  A. M. Lee,  M. S. Lee,  S. V. Levchenko,  
 Ching Yeh Lin,  D. Liotard,  E. Livshits,  R. C. Lochan,  I. Lotan,  
 L. A. Martinez-Martinez,  P. E. Maslen,  N. Nair,  D. P. O'Neill,  
 D. Neuhauser,  E. Neuscamman,  C. M. Oana,  R. Olivares-Amaya,  R. Olson,  
 T. M. Perrine,  B. Peters,  P. A. Pieniazek,  A. Prociuk,  Y. M. Rhee,  
 J. Ritchie,  M. A. Rohrdanz,  E. Rosta,  N. J. Russ,  H. F. Schaefer III,  
 M. W. Schmidt,  N. E. Schultz,  S. Sharma,  N. Shenvi,  C. D. Sherrill,  
 A. C. Simmonett,  A. Sodt,  T. Stein,  D. Stuck,  K. S. Thanthiriwatte,  
 V. Vanovschi,  L. Vogt,  Tao Wang,  A. Warshel,  M. A. Watson,  
 C. F. Williams,  Q. Wu,  X. Xu,  Jun Yang,  W. Zhang,  Yan Zhao

 Please cite Q-Chem as follows:
 Y. Shao et al., Mol. Phys. 113, 184-215 (2015)
 DOI: 10.1080/00268976.2014.952696

 Q-Chem 5.4.0 for Intel X86 EM64T Linux

 Parts of Q-Chem use Armadillo 9.800.1 (Horizon Scraper).
 http://arma.sourceforge.net/

 Q-Chem begins on Wed Dec 13 15:55:26 2023  

 Host: 
0

     Scratch files written to ./qchem2227896//
 May1621 |scratch|qcdevops|jenkins|workspace|build_RNUM    
 Parallel job on  1  processors
 Processing $rem in /cm/shared/apps/spack/cpu/opt/spack/linux-centos8-zen2/gcc-10.2.0/qchem-5.4-akfmr7b3t57bfs6qan3padb2wnb2i7cl/config/preferences:
 Processing $rem in /home/rramji/.qchemrc:
 Symmetry turned off for PCM/SM12/SMD calculation
 Core orbitals will be frozen

 Checking the input file for inconsistencies... 	...done.

 Q-Chem warning in module forms1/BasisType.C, line 2236:

 You are not using the predefined 5D/6D in this basis set.


--------------------------------------------------------------
User input:
--------------------------------------------------------------
$molecule
0 1
C	-0.627947	-3.887800	0.361285
C	0.572038	-3.701456	-0.331462
C	0.939610	-2.345170	-0.542953
H	1.183405	-4.545233	-0.684893
C	0.000000	-1.450135	0.000000
S	-1.323052	-2.321334	0.763441
C	2.192207	-1.934439	-1.265941
H	2.767709	-2.819799	-1.598695
H	2.860100	-1.326210	-0.620770
H	1.967682	-1.325374	-2.166438
H	-1.133436	-4.815326	0.652645
C	0.000000	0.000000	0.000000
C	0.419634	0.732990	1.113020
C	1.111057	1.939951	0.820578
H	0.226746	0.396221	2.142881
C	1.234565	2.155183	-0.563588
S	0.482106	0.842416	-1.464748
C	1.640257	2.863718	1.882380
H	1.417524	2.475067	2.894974
H	1.192042	3.876565	1.808137
H	2.740717	2.989259	1.808230
H	1.710720	2.986508	-1.097114
$end

$rem
JOBTYPE		SP
EXCHANGE	HF
CORRELATION	pRIMP2
BASIS		cc-pvtz
METHOD		rimp2
AUX_BASIS	rimp2-cc-pvtz
SOLVENT_METHOD	PCM
PURECART	11111
SYMMETRY	false
MEM_TOTAL	110000
SCF_CONVERGENCE = 6
THRESH=10
GUI = 2
$end



$solvent
dielectric 4.90
$end
--------------------------------------------------------------
 ----------------------------------------------------------------
             Standard Nuclear Orientation (Angstroms)
    I     Atom           X                Y                Z
 ----------------------------------------------------------------
    1      C      -0.6279470000    -3.8878000000     0.3612850000
    2      C       0.5720380000    -3.7014560000    -0.3314620000
    3      C       0.9396100000    -2.3451700000    -0.5429530000
    4      H       1.1834050000    -4.5452330000    -0.6848930000
    5      C       0.0000000000    -1.4501350000     0.0000000000
    6      S      -1.3230520000    -2.3213340000     0.7634410000
    7      C       2.1922070000    -1.9344390000    -1.2659410000
    8      H       2.7677090000    -2.8197990000    -1.5986950000
    9      H       2.8601000000    -1.3262100000    -0.6207700000
   10      H       1.9676820000    -1.3253740000    -2.1664380000
   11      H      -1.1334360000    -4.8153260000     0.6526450000
   12      C       0.0000000000     0.0000000000     0.0000000000
   13      C       0.4196340000     0.7329900000     1.1130200000
   14      C       1.1110570000     1.9399510000     0.8205780000
   15      H       0.2267460000     0.3962210000     2.1428810000
   16      C       1.2345650000     2.1551830000    -0.5635880000
   17      S       0.4821060000     0.8424160000    -1.4647480000
   18      C       1.6402570000     2.8637180000     1.8823800000
   19      H       1.4175240000     2.4750670000     2.8949740000
   20      H       1.1920420000     3.8765650000     1.8081370000
   21      H       2.7407170000     2.9892590000     1.8082300000
   22      H       1.7107200000     2.9865080000    -1.0971140000
 ----------------------------------------------------------------
 Nuclear Repulsion Energy =         841.34007659 hartrees
 There are       51 alpha and       51 beta electrons
 Requested basis set is cc-pVTZ
 There are 184 shells and 508 basis functions

 Total QAlloc Memory Limit 110000 MB
 Mega-Array Size       188 MB
 MEM_STATIC part       192 MB
 Discretize the solute cavity surface with Lebedev spheres
	Using 110 Lebedev grid points for each H atom
	Using 194 Lebedev grid points for other atoms
	Atomic van der Waals radii will be scaled by 1.20
 Remove points where switching function is < 1.0e-08
 Keep 1521 surface tesserae and discard 1907 interior tesserae
 Molecular Surface Area = 232.253 Angst**2
 Requested basis set is rimp2-cc-pVTZ
 There are 394 shells and 1354 basis functions
 A cutoff of  1.0D-10 yielded  12518 shell pairs
 There are     92926 function pairs (    119926 Cartesian)
 Smallest overlap matrix eigenvalue = 6.41E-05

 Scale SEOQF with 1.000000e-01/1.000000e-01/1.000000e-01

 Standard Electronic Orientation quadrupole field applied
 Nucleus-field energy     =     0.0000000304 hartrees
 Guess from superposition of atomic densities
 Warning:  Energy on first SCF cycle will be non-variational
 SAD guess density has 102.000000 electrons

 -----------------------------------------------------------------------
  General SCF calculation program by
  Eric Jon Sundstrom, Paul Horn, Yuezhi Mao, Dmitri Zuev, Alec White,
  David Stuck, Shaama M.S., Shane Yost, Joonho Lee, David Small,
  Daniel Levine, Susi Lehtola, Hugh Burton, Evgeny Epifanovsky,
  Bang C. Huynh
 -----------------------------------------------------------------------
 Hartree-Fock
 using 64 threads for integral computing
 -------------------------------------------------------
 OpenMP Integral computing Module                
 Release: version 1.0, May 2013, Q-Chem Inc. Pittsburgh 
 -------------------------------------------------------
 A restricted SCF calculation will be
 performed using DIIS
 SCF converges when DIIS error is below 1.0e-06
 ---------------------------------------
  Cycle       Energy         DIIS error
 ---------------------------------------
    1   -1184.2248959939      2.38e-02  
    2   -1179.5279757881      1.59e-03  
    3   -1179.6482325242      5.99e-04  
    4   -1179.6615352633      3.29e-04  
    5   -1179.6660960085      6.69e-05  
    6   -1179.6663813224      3.07e-05  
    7   -1179.6664707782      1.33e-05  
    8   -1179.6665002696      5.32e-06  
    9   -1179.6665056078      1.82e-06  
   10   -1179.6665061035      5.77e-07  Convergence criterion met
 ---------------------------------------
 SCF time:   CPU 1496.08s  wall 43.00s 

************** Final PCM Free Energy Summary **************
 G_electrostatic  =      -0.00760281 hartree =      -4.77083264 kcal/mol
 G_cavitation     =       0.00000000 hartree =       0.00000000 kcal/mol
 G_dispersion     =       0.00000000 hartree =       0.00000000 kcal/mol
 G_repulsion      =       0.00000000 hartree =       0.00000000 kcal/mol
 --------------------------------------------------
 Non-electrostatic Free Energy =       0.00000000 hartree =       0.00000000 kcal/mol
 Total                         =      -0.00760281 hartree =      -4.77083264 kcal/mol
 --------------------------------------------------
 SCF Energy (H0 + V/2)                       =   -1179.66650610 
 Solute Internal Energy (H0)                 =   -1179.65890330 
 Total Free Energy (H0 + V/2 + non-elec)     =   -1179.66650610 hartree
                                             = -740251.90520141 kcal/mol
***********************************************************

 SCF   energy in the final basis set =    -1179.6665061035
 Total energy in the final basis set =    -1179.6665061035


 --------------------------------------------------------------
  Generalized many-body perturbation theory program
  by Joonho Lee, Fazle Rob, Xintian Feng, Evgeny Epifanovsky

 No regularization used 
 (reg. param. = 0.0000e+00)
  (P|Q)^-1/2 Time:  CPU 18.91 s  wall 0.30 s

 In RI-MP2 calculation: 
 # of frozen core orbitals: 20

 Components of the RIMP2 correlation energy:
        aaaa    correlation energy =        -0.2535431267 a.u.
        abab    correlation energy =        -1.4773797105 a.u.
        bbbb    correlation energy =        -0.2535431267 a.u.
        non-Brillouin singles      =        -0.0000000000 a.u.
        total same-spin energy     =        -0.5070862533 a.u.
        total opposite-spin energy =        -1.4773797105 a.u.

 Total  RIMP2   correlation energy =        -1.9844659638 a.u.
        RIMP2         total energy =     -1181.6509720673 a.u.

 RI-MP2 Energy Time:  CPU 148.87 s  wall 2.82 s
 
 --------------------------------------------------------------
 
                    Orbital Energies (a.u.)
 --------------------------------------------------------------
 
 Alpha MOs
 -- Occupied --
-91.9843 -91.9822 -11.2758 -11.2739 -11.2713 -11.2680 -11.2521 -11.2482
-11.2477 -11.2410 -11.2298 -11.2251  -8.9842  -8.9819  -6.6650  -6.6645
 -6.6639  -6.6628  -6.6623  -6.6617  -1.1803  -1.1486  -1.0412  -1.0198
 -0.9979  -0.9534  -0.9120  -0.8926  -0.7970  -0.7573  -0.7280  -0.6950
 -0.6593  -0.6171  -0.5816  -0.5792  -0.5738  -0.5694  -0.5503  -0.5318
 -0.5273  -0.5196  -0.5112  -0.4930  -0.4781  -0.4648  -0.4567  -0.3515
 -0.3406  -0.3306  -0.2859
 -- Virtual --
  0.0742   0.1161   0.1410   0.1551   0.1617   0.1717   0.1765   0.1843
  0.1931   0.1961   0.2024   0.2118   0.2301   0.2409   0.2430   0.2441
  0.2567   0.2663   0.2933   0.3040   0.3343   0.3442   0.3547   0.3602
  0.3676   0.3845   0.3967   0.4037   0.4124   0.4184   0.4322   0.4383
  0.4436   0.4523   0.4671   0.4682   0.4764   0.4878   0.4907   0.5082
  0.5188   0.5195   0.5266   0.5357   0.5409   0.5546   0.5564   0.5665
  0.5774   0.5824   0.5850   0.5957   0.6086   0.6113   0.6131   0.6196
  0.6286   0.6369   0.6392   0.6467   0.6509   0.6539   0.6618   0.6675
  0.6765   0.6841   0.6854   0.7081   0.7140   0.7274   0.7385   0.7576
  0.7624   0.7745   0.7852   0.8011   0.8128   0.8303   0.8329   0.8413
  0.8511   0.8620   0.8742   0.8793   0.9035   0.9139   0.9165   0.9439
  0.9487   0.9564   0.9905   0.9997   1.0146   1.0215   1.0250   1.0303
  1.0491   1.0499   1.0603   1.0654   1.0700   1.0803   1.0946   1.1038
  1.1065   1.1222   1.1343   1.1459   1.1625   1.1726   1.1757   1.1915
  1.2123   1.2167   1.2284   1.2337   1.2421   1.2509   1.2589   1.2680
  1.2805   1.2890   1.2970   1.3088   1.3250   1.3335   1.3523   1.3731
  1.3784   1.3807   1.4043   1.4183   1.4259   1.4431   1.4467   1.4683
  1.4837   1.4925   1.4934   1.5076   1.5147   1.5291   1.5362   1.5441
  1.5566   1.5602   1.5669   1.5785   1.5846   1.5879   1.6227   1.6293
  1.6560   1.6693   1.6728   1.6816   1.6946   1.7012   1.7023   1.7293
  1.7469   1.7502   1.7717   1.7838   1.8009   1.8241   1.8280   1.8486
  1.8771   1.8936   1.9108   1.9358   1.9509   1.9606   1.9832   1.9933
  2.0024   2.0424   2.0672   2.0986   2.1036   2.1259   2.1394   2.1639
  2.1814   2.1890   2.2048   2.2423   2.2527   2.2601   2.2641   2.2798
  2.2970   2.3280   2.3368   2.3518   2.3787   2.4169   2.4289   2.4612
  2.4716   2.4994   2.5042   2.5204   2.5417   2.5640   2.5813   2.6154
  2.6289   2.6539   2.6613   2.6639   2.6869   2.6883   2.7089   2.7271
  2.7369   2.7476   2.7541   2.7637   2.7769   2.7809   2.7967   2.8078
  2.8193   2.8352   2.8423   2.8791   2.8812   2.9019   2.9144   2.9461
  2.9513   2.9601   2.9825   2.9973   2.9993   3.0014   3.0193   3.0330
  3.0415   3.0896   3.0933   3.1082   3.1120   3.1190   3.1284   3.1426
  3.1459   3.1600   3.1644   3.1809   3.1908   3.2011   3.2046   3.2319
  3.2396   3.2469   3.2560   3.2690   3.2773   3.2891   3.2996   3.3101
  3.3121   3.3295   3.3366   3.3449   3.3551   3.3649   3.3719   3.3763
  3.3832   3.3941   3.4096   3.4103   3.4200   3.4330   3.4375   3.4483
  3.4551   3.4666   3.4670   3.4836   3.4931   3.5018   3.5080   3.5174
  3.5226   3.5356   3.5474   3.5526   3.5556   3.5653   3.5907   3.5995
  3.6145   3.6200   3.6266   3.6350   3.6402   3.6471   3.6569   3.6709
  3.6818   3.6891   3.7027   3.7043   3.7294   3.7337   3.7392   3.7555
  3.7590   3.7759   3.7885   3.7965   3.8039   3.8177   3.8263   3.8495
  3.8659   3.8767   3.8884   3.8944   3.9089   3.9307   3.9450   3.9583
  3.9687   3.9747   3.9904   4.0160   4.0166   4.0352   4.0463   4.0528
  4.0647   4.0694   4.0930   4.1031   4.1128   4.1166   4.1444   4.1504
  4.1565   4.1842   4.1950   4.1977   4.2017   4.2186   4.2237   4.2350
  4.2582   4.2669   4.2812   4.2941   4.3024   4.3107   4.3274   4.3327
  4.3410   4.3606   4.3658   4.3750   4.4002   4.4009   4.4160   4.4204
  4.4425   4.4558   4.4594   4.4826   4.4937   4.5001   4.5162   4.5518
  4.5888   4.6023   4.6203   4.6269   4.6342   4.6416   4.6574   4.6696
  4.6904   4.7091   4.7342   4.7496   4.7582   4.7802   4.8096   4.8485
  4.8793   4.8953   4.9010   4.9277   4.9427   4.9737   5.0078   5.0564
  5.0873   5.0981   5.1131   5.1370   5.1553   5.1882   5.1971   5.2154
  5.2669   5.2771   5.2920   5.3039   5.3225   5.3621   5.3961   5.4024
  5.4137   5.4449   5.4621   5.4910   5.5197   5.5292   5.5468   5.5622
  5.5721   5.5964   5.6231   5.6269   5.6328   5.6652   5.6948   5.7141
  5.7771   5.8209   5.9229   5.9663   6.0067   6.1069   6.1511   6.2249
  6.2330   6.2479   6.2794   6.2945   6.3343   6.3858   6.5169   8.7140
  9.7063  11.6182  12.0824  12.8831  13.1129  13.7614  13.9149  14.2109
 14.3378
 --------------------------------------------------------------
 
          Ground-State Mulliken Net Atomic Charges

     Atom                 Charge (a.u.)
  ----------------------------------------
      1 C                    -0.217242
      2 C                    -0.253761
      3 C                     0.054008
      4 H                     0.184731
      5 C                    -0.024934
      6 S                     0.015949
      7 C                    -0.292216
      8 H                     0.108299
      9 H                     0.114585
     10 H                     0.114660
     11 H                     0.202803
     12 C                    -0.057315
     13 C                    -0.202139
     14 C                     0.013213
     15 H                     0.187150
     16 C                    -0.220110
     17 S                     0.023766
     18 C                    -0.268885
     19 H                     0.103194
     20 H                     0.108051
     21 H                     0.107198
     22 H                     0.198996
  ----------------------------------------
  Sum of atomic charges =     0.000000

 -----------------------------------------------------------------
                    Cartesian Multipole Moments
 -----------------------------------------------------------------
    Charge (ESU x 10^10)
                -0.0000
    Dipole Moment (Debye)
         X       2.4641      Y       0.6647      Z       0.7081
       Tot       2.6486
    Quadrupole Moments (Debye-Ang)
        XX     -85.2814     XY       3.0316     YY     -72.8052
        XZ      -2.3322     YZ       2.1057     ZZ     -84.7566
    Octopole Moments (Debye-Ang^2)
       XXX    -109.5715    XXY      51.2501    XYY     -24.5453
       YYY     117.3752    XXZ      -2.8766    XYZ       8.9222
       YYZ      -1.8640    XZZ     -32.6742    YZZ      62.4825
       ZZZ       4.0529
    Hexadecapole Moments (Debye-Ang^3)
      XXXX    -792.3481   XXXY    -207.4778   XXYY    -541.8682
      XYYY    -143.9720   YYYY   -2416.8338   XXXZ      66.1506
      XXYZ     -29.7457   XYYZ     -25.4833   YYYZ    -113.3081
      XXZZ    -243.7758   XYZZ     -60.8107   YYZZ    -580.4582
      XZZZ      71.1954   YZZZ     -87.4396   ZZZZ    -675.3431
 -----------------------------------------------------------------
 Total job time:  47.90s(wall), 1704.67s(cpu) 
 Wed Dec 13 15:56:13 2023

        *************************************************************
        *                                                           *
        *  Thank you very much for using Q-Chem.  Have a nice day.  *
        *                                                           *
        *************************************************************


0 sent ACK to 0 
now end server 0 ... 
cleanup process ... done
remove work dirs ./qchem2227896.0 -- ./qchem2227896.0
rm -rf ./qchem2227896.0
rm -rf ./qchem2227896
