You are running Q-Chem version: 5.4.0

#
# job setting
#
local host:  exp-5-41
current dir: /home/rramji/project-csd799/aromodel/p3ht-qchem/rotation-run
input file:  Methylthiophene_Phi_60_Theta_100_Methylthiophene.qcin
output file: 
nprocs     : 1
nthreads   : 64
#
# qchem installation setting
#
QC:          /cm/shared/apps/spack/cpu/opt/spack/linux-centos8-zen2/gcc-10.2.0/qchem-5.4-akfmr7b3t57bfs6qan3padb2wnb2i7cl
QCAUX:       /cm/shared/apps/spack/cpu/opt/spack/linux-centos8-zen2/gcc-10.2.0/qchem-5.4-akfmr7b3t57bfs6qan3padb2wnb2i7cl/qcaux
QCPROG:      /cm/shared/apps/spack/cpu/opt/spack/linux-centos8-zen2/gcc-10.2.0/qchem-5.4-akfmr7b3t57bfs6qan3padb2wnb2i7cl/exe/qcprog.exe
QCPROG_S:    /cm/shared/apps/spack/cpu/opt/spack/linux-centos8-zen2/gcc-10.2.0/qchem-5.4-akfmr7b3t57bfs6qan3padb2wnb2i7cl/exe/qcprog.exe_s
PARALLEL:    -DPARALLEL
QCMPI:       mpich
#
# qchem directory setting
#
qcrun:       qchem3053539
QCSCRATCH:   .
QCLOCALSCR:  
QCTMPDIR:    .
QCFILEPREF:  ./qchem3053539
QCSAVEDIR:   
workdirs:    ./qchem3053539
workdir0:    ./qchem3053539
partmpdirs =  
#
# parallel setting
#
QCRSH:           ssh
QCMPI:           mpich
QCMPIRUN:        /cm/shared/apps/spack/cpu/opt/spack/linux-centos8-zen2/gcc-10.2.0/qchem-5.4-akfmr7b3t57bfs6qan3padb2wnb2i7cl/bin/mpi/mpirun_qchem
QCMACHINEFILE:   ./qchem3053539/hostfile
exp-5-41

#
# env setting
#
exported envs:   QC QCAUX QCSCRATCH QCRUNNAME QCFILEPREF QCPROG QCPROG_S GUIFILE

Running Job 1 of 1 Methylthiophene_Phi_60_Theta_100_Methylthiophene.qcin
qchem Methylthiophene_Phi_60_Theta_100_Methylthiophene.qcin_3053539.0 ./qchem3053539/ 1
/cm/shared/apps/spack/cpu/opt/spack/linux-centos8-zen2/gcc-10.2.0/qchem-5.4-akfmr7b3t57bfs6qan3padb2wnb2i7cl/bin/mpi/mpirun_qchem -machinefile ./qchem3053539/hostfile -np 1 /cm/shared/apps/spack/cpu/opt/spack/linux-centos8-zen2/gcc-10.2.0/qchem-5.4-akfmr7b3t57bfs6qan3padb2wnb2i7cl/exe/qcprog.exe Methylthiophene_Phi_60_Theta_100_Methylthiophene.qcin_3053539.0 ./qchem3053539/

Process 0 of 1 is on exp-5-41 - thread support 0
initial socket setup ...start
initial socket setup ...done 
now start server 0 ... 
                  Welcome to Q-Chem
     A Quantum Leap Into The Future Of Chemistry


 Q-Chem 5.4, Q-Chem, Inc., Pleasanton, CA (2021)

 License issued to: University of California, San Diego (site)

 E. Epifanovsky,  A. T. B. Gilbert,  Xintian Feng,  Joonho Lee,  Yuezhi Mao,  
 N. Mardirossian,  P. Pokhilko,  A. White,  M. Wormit,  M. P. Coons,  
 A. L. Dempwolff,  Zhengting Gan,  D. Hait,  P. R. Horn,  L. D. Jacobson,  
 I. Kaliman,  J. Kussmann,  A. W. Lange,  Ka Un Lao,  D. S. Levine,  Jie Liu,  
 S. C. McKenzie,  A. F. Morrison,  K. Nanda,  F. Plasser,  D. R. Rehn,  
 M. L. Vidal,  Zhi-Qiang You,  Ying Zhu,  B. Alam,  B. Albrecht,  
 A. Aldossary,  E. Alguire,  J. H. Andersen,  D. Barton,  K. Begam,  A. Behn,  
 Y. A. Bernard,  E. J. Berquist,  H. Burton,  A. Carreras,  K. Carter-Fenk,  
 R. Chakraborty,  A. D. Chien,  K. D. Closser,  V. Cofer-Shabica,  
 S. Dasgupta,  Jia Deng,  M. de Wergifosse,  M. Diedenhofen,  Hainam Do,  
 S. Ehlert,  Po-Tung Fang,  S. Fatehi,  Qingguo Feng,  J. Gayvert,  
 Qinghui Ge,  G. Gidofalvi,  M. Goldey,  J. Gomes,  C. Gonzalez-Espinoza,  
 S. Gulania,  A. Gunina,  M. W. D. Hanson-Heine,  P. H. P. Harbach,  
 A. W. Hauser,  M. F. Herbst,  M. Hernandez Vera,  M. Hodecker,  
 Z. C. Holden,  S. Houck,  Xunkun Huang,  Kerwin Hui,  B. C. Huynh,  
 M. Ivanov,  Hyunjun Ji,  Hanjie Jiang,  B. Kaduk,  S. Kaehler,  
 K. Khistyaev,  Jaehoon Kim,  P. Klunzinger,  Z. Koczor-Benda,  
 Joong Hoon Koh,  D. Kosenkov,  L. Koulias,  T. Kowalczyk,  C. M. Krauter,  
 K. Kue,  A. Kunitsa,  T. Kus,  A. Landau,  K. V. Lawler,  D. Lefrancois,  
 S. Lehtola,  Rain Li,  Yi-Pei Li,  Jiashu Liang,  M. Liebenthal,  
 Hung-Hsuan Lin,  You-Sheng Lin,  Fenglai Liu,  Kuan-Yu Liu,  
 M. Loipersberger,  A. Luenser,  A. Manjanath,  P. Manohar,  E. Mansoor,  
 S. F. Manzer,  Shan-Ping Mao,  A. V. Marenich,  T. Markovich,  S. Mason,  
 S. A. Maurer,  P. F. McLaughlin,  M. F. S. J. Menger,  J.-M. Mewes,  
 S. A. Mewes,  P. Morgante,  J. W. Mullinax,  T. S. Nguyen-Beck,  
 K. J. Oosterbaan,  G. Paran,  Alexander C. Paul,  Suranjan K. Paul,  
 F. Pavosevic,  Zheng Pei,  S. Prager,  E. I. Proynov,  E. Ramos,  B. Rana,  
 A. E. Rask,  A. Rettig,  R. M. Richard,  F. Rob,  E. Rossomme,  T. Scheele,  
 M. Scheurer,  M. Schneider,  N. Sergueev,  S. M. Sharada,  W. Skomorowski,  
 D. W. Small,  C. J. Stein,  Yu-Chuan Su,  E. J. Sundstrom,  Zhen Tao,  
 J. Thirman,  T. Tsuchimochi,  N. M. Tubman,  S. P. Veccham,  O. Vydrov,  
 J. Wenzel,  J. Witte,  A. Yamada,  Kun Yao,  S. Yeganeh,  S. R. Yost,  
 A. Zech,  Igor Ying Zhang,  Xing Zhang,  Yu Zhang,  D. Zuev,  
 A. Aspuru-Guzik,  A. T. Bell,  N. A. Besley,  K. B. Bravaya,  B. R. Brooks,  
 D. Casanova,  Jeng-Da Chai,  S. Coriani,  C. J. Cramer,  
 A. E. DePrince, III,  R. A. DiStasio Jr.,  A. Dreuw,  B. D. Dunietz,  
 T. R. Furlani,  W. A. Goddard III,  S. Grimme,  S. Hammes-Schiffer,  
 T. Head-Gordon,  W. J. Hehre,  Chao-Ping Hsu,  T.-C. Jagau,  Yousung Jung,  
 A. Klamt,  Jing Kong,  D. S. Lambrecht,  WanZhen Liang,  N. J. Mayhall,  
 C. W. McCurdy,  J. B. Neaton,  C. Ochsenfeld,  J. A. Parkhill,  R. Peverati,  
 V. A. Rassolov,  Yihan Shao,  L. V. Slipchenko,  T. Stauch,  R. P. Steele,  
 J. E. Subotnik,  A. J. W. Thom,  A. Tkatchenko,  D. G. Truhlar,  
 T. Van Voorhis,  T. A. Wesolowski,  K. B. Whaley,  H. L. Woodcock III,  
 P. M. Zimmerman,  S. Faraji,  P. M. W. Gill,  M. Head-Gordon,  
 J. M. Herbert,  A. I. Krylov

 Contributors to earlier versions of Q-Chem not listed above: 
 R. D. Adamson,  B. Austin,  R. Baer,  J. Baker,  G. J. O. Beran,  
 K. Brandhorst,  S. T. Brown,  E. F. C. Byrd,  A. K. Chakraborty,  
 G. K. L. Chan,  Chun-Min Chang,  Yunqing Chen,  C.-L. Cheng,  
 Siu Hung Chien,  D. M. Chipman,  D. L. Crittenden,  H. Dachsel,  
 R. J. Doerksen,  A. D. Dutoi,  R. G. Edgar,  J. Fosso-Tande,  
 L. Fusti-Molnar,  D. Ghosh,  A. Ghysels,  A. Golubeva-Zadorozhnaya,  
 J. Gonthier,  M. S. Gordon,  S. R. Gwaltney,  G. Hawkins,  J. E. Herr,  
 A. Heyden,  S. Hirata,  E. G. Hohenstein,  G. Kedziora,  F. J. Keil,  
 C. Kelley,  Jihan Kim,  R. A. King,  R. Z. Khaliullin,  P. P. Korambath,  
 W. Kurlancheek,  A. Laurent,  A. M. Lee,  M. S. Lee,  S. V. Levchenko,  
 Ching Yeh Lin,  D. Liotard,  E. Livshits,  R. C. Lochan,  I. Lotan,  
 L. A. Martinez-Martinez,  P. E. Maslen,  N. Nair,  D. P. O'Neill,  
 D. Neuhauser,  E. Neuscamman,  C. M. Oana,  R. Olivares-Amaya,  R. Olson,  
 T. M. Perrine,  B. Peters,  P. A. Pieniazek,  A. Prociuk,  Y. M. Rhee,  
 J. Ritchie,  M. A. Rohrdanz,  E. Rosta,  N. J. Russ,  H. F. Schaefer III,  
 M. W. Schmidt,  N. E. Schultz,  S. Sharma,  N. Shenvi,  C. D. Sherrill,  
 A. C. Simmonett,  A. Sodt,  T. Stein,  D. Stuck,  K. S. Thanthiriwatte,  
 V. Vanovschi,  L. Vogt,  Tao Wang,  A. Warshel,  M. A. Watson,  
 C. F. Williams,  Q. Wu,  X. Xu,  Jun Yang,  W. Zhang,  Yan Zhao

 Please cite Q-Chem as follows:
 Y. Shao et al., Mol. Phys. 113, 184-215 (2015)
 DOI: 10.1080/00268976.2014.952696

 Q-Chem 5.4.0 for Intel X86 EM64T Linux

 Parts of Q-Chem use Armadillo 9.800.1 (Horizon Scraper).
 http://arma.sourceforge.net/

 Q-Chem begins on Wed Dec 13 16:00:18 2023  

 Host: 
0

     Scratch files written to ./qchem3053539//
 May1621 |scratch|qcdevops|jenkins|workspace|build_RNUM    
 Parallel job on  1  processors
 Processing $rem in /cm/shared/apps/spack/cpu/opt/spack/linux-centos8-zen2/gcc-10.2.0/qchem-5.4-akfmr7b3t57bfs6qan3padb2wnb2i7cl/config/preferences:
 Processing $rem in /home/rramji/.qchemrc:
 Symmetry turned off for PCM/SM12/SMD calculation
 Core orbitals will be frozen

 Checking the input file for inconsistencies... 	...done.

 Q-Chem warning in module forms1/BasisType.C, line 2236:

 You are not using the predefined 5D/6D in this basis set.


--------------------------------------------------------------
User input:
--------------------------------------------------------------
$molecule
0 1
C	-0.713264	-3.887800	-0.126876
C	0.651267	-3.701456	0.113784
C	1.068787	-2.345170	0.188043
H	1.346782	-4.545233	0.236019
C	0.000000	-1.450135	0.000000
S	-1.504247	-2.321334	-0.265612
C	2.493059	-1.934439	0.439357
H	3.147809	-2.819799	0.554378
H	2.589987	-1.326210	1.362899
H	2.899892	-1.325374	-0.394786
H	-1.287774	-4.815326	-0.228603
C	0.000000	0.000000	0.000000
C	0.729909	0.424971	1.113020
C	1.932179	1.124518	0.820578
H	0.394478	0.229765	2.142881
C	2.146756	1.249161	-0.563588
S	0.838724	0.488500	-1.464748
C	2.852364	1.659924	1.882380
H	2.465145	1.434710	2.894974
H	2.970621	2.761183	1.808137
H	3.868160	1.218416	1.808230
H	2.974781	1.731032	-1.097114
$end

$rem
JOBTYPE		SP
EXCHANGE	HF
CORRELATION	pRIMP2
BASIS		cc-pvtz
METHOD		rimp2
AUX_BASIS	rimp2-cc-pvtz
SOLVENT_METHOD	PCM
PURECART	11111
SYMMETRY	false
MEM_TOTAL	110000
SCF_CONVERGENCE = 6
THRESH=10
GUI = 2
$end



$solvent
dielectric 4.90
$end
--------------------------------------------------------------
 ----------------------------------------------------------------
             Standard Nuclear Orientation (Angstroms)
    I     Atom           X                Y                Z
 ----------------------------------------------------------------
    1      C      -0.7132640000    -3.8878000000    -0.1268760000
    2      C       0.6512670000    -3.7014560000     0.1137840000
    3      C       1.0687870000    -2.3451700000     0.1880430000
    4      H       1.3467820000    -4.5452330000     0.2360190000
    5      C       0.0000000000    -1.4501350000     0.0000000000
    6      S      -1.5042470000    -2.3213340000    -0.2656120000
    7      C       2.4930590000    -1.9344390000     0.4393570000
    8      H       3.1478090000    -2.8197990000     0.5543780000
    9      H       2.5899870000    -1.3262100000     1.3628990000
   10      H       2.8998920000    -1.3253740000    -0.3947860000
   11      H      -1.2877740000    -4.8153260000    -0.2286030000
   12      C       0.0000000000     0.0000000000     0.0000000000
   13      C       0.7299090000     0.4249710000     1.1130200000
   14      C       1.9321790000     1.1245180000     0.8205780000
   15      H       0.3944780000     0.2297650000     2.1428810000
   16      C       2.1467560000     1.2491610000    -0.5635880000
   17      S       0.8387240000     0.4885000000    -1.4647480000
   18      C       2.8523640000     1.6599240000     1.8823800000
   19      H       2.4651450000     1.4347100000     2.8949740000
   20      H       2.9706210000     2.7611830000     1.8081370000
   21      H       3.8681600000     1.2184160000     1.8082300000
   22      H       2.9747810000     1.7310320000    -1.0971140000
 ----------------------------------------------------------------
 Nuclear Repulsion Energy =         865.52288831 hartrees
 There are       51 alpha and       51 beta electrons
 Requested basis set is cc-pVTZ
 There are 184 shells and 508 basis functions

 Total QAlloc Memory Limit 110000 MB
 Mega-Array Size       188 MB
 MEM_STATIC part       192 MB
 Discretize the solute cavity surface with Lebedev spheres
	Using 110 Lebedev grid points for each H atom
	Using 194 Lebedev grid points for other atoms
	Atomic van der Waals radii will be scaled by 1.20
 Remove points where switching function is < 1.0e-08
 Keep 1462 surface tesserae and discard 1966 interior tesserae
 Molecular Surface Area = 223.503 Angst**2
 Requested basis set is rimp2-cc-pVTZ
 There are 394 shells and 1354 basis functions
 A cutoff of  1.0D-10 yielded  13398 shell pairs
 There are    100356 function pairs (    129695 Cartesian)
 Smallest overlap matrix eigenvalue = 7.57E-05

 Scale SEOQF with 1.000000e-01/1.000000e-01/1.000000e-01

 Standard Electronic Orientation quadrupole field applied
 Nucleus-field energy     =     0.0000000304 hartrees
 Guess from superposition of atomic densities
 Warning:  Energy on first SCF cycle will be non-variational
 SAD guess density has 102.000000 electrons

 -----------------------------------------------------------------------
  General SCF calculation program by
  Eric Jon Sundstrom, Paul Horn, Yuezhi Mao, Dmitri Zuev, Alec White,
  David Stuck, Shaama M.S., Shane Yost, Joonho Lee, David Small,
  Daniel Levine, Susi Lehtola, Hugh Burton, Evgeny Epifanovsky,
  Bang C. Huynh
 -----------------------------------------------------------------------
 Hartree-Fock
 using 64 threads for integral computing
 -------------------------------------------------------
 OpenMP Integral computing Module                
 Release: version 1.0, May 2013, Q-Chem Inc. Pittsburgh 
 -------------------------------------------------------
 A restricted SCF calculation will be
 performed using DIIS
 SCF converges when DIIS error is below 1.0e-06
 ---------------------------------------
  Cycle       Energy         DIIS error
 ---------------------------------------
    1   -1184.3476268105      2.40e-02  
    2   -1179.4734378654      1.58e-03  
    3   -1179.5946724989      5.73e-04  
    4   -1179.6080082927      3.03e-04  
    5   -1179.6120951726      6.14e-05  
    6   -1179.6124083820      2.87e-05  
    7   -1179.6125113058      1.71e-05  
    8   -1179.6125535086      6.60e-06  
    9   -1179.6125624663      2.81e-06  
   10   -1179.6125635542      1.18e-06  
   11   -1179.6125637514      4.86e-07  Convergence criterion met
 ---------------------------------------
 SCF time:   CPU 1733.34s  wall 50.00s 

************** Final PCM Free Energy Summary **************
 G_electrostatic  =      -0.00987490 hartree =      -6.19659592 kcal/mol
 G_cavitation     =       0.00000000 hartree =       0.00000000 kcal/mol
 G_dispersion     =       0.00000000 hartree =       0.00000000 kcal/mol
 G_repulsion      =       0.00000000 hartree =       0.00000000 kcal/mol
 --------------------------------------------------
 Non-electrostatic Free Energy =       0.00000000 hartree =       0.00000000 kcal/mol
 Total                         =      -0.00987490 hartree =      -6.19659592 kcal/mol
 --------------------------------------------------
 SCF Energy (H0 + V/2)                       =   -1179.61256375 
 Solute Internal Energy (H0)                 =   -1179.60268885 
 Total Free Energy (H0 + V/2 + non-elec)     =   -1179.61256375 hartree
                                             = -740218.05586462 kcal/mol
***********************************************************

 SCF   energy in the final basis set =    -1179.6125637514
 Total energy in the final basis set =    -1179.6125637514


 --------------------------------------------------------------
  Generalized many-body perturbation theory program
  by Joonho Lee, Fazle Rob, Xintian Feng, Evgeny Epifanovsky

 No regularization used 
 (reg. param. = 0.0000e+00)
  (P|Q)^-1/2 Time:  CPU 17.68 s  wall 0.28 s

 In RI-MP2 calculation: 
 # of frozen core orbitals: 20

 Components of the RIMP2 correlation energy:
        aaaa    correlation energy =        -0.2566434560 a.u.
        abab    correlation energy =        -1.4862640044 a.u.
        bbbb    correlation energy =        -0.2566434560 a.u.
        non-Brillouin singles      =        -0.0000000000 a.u.
        total same-spin energy     =        -0.5132869120 a.u.
        total opposite-spin energy =        -1.4862640044 a.u.

 Total  RIMP2   correlation energy =        -1.9995509164 a.u.
        RIMP2         total energy =     -1181.6121146678 a.u.

 RI-MP2 Energy Time:  CPU 146.49 s  wall 2.71 s
 
 --------------------------------------------------------------
 
                    Orbital Energies (a.u.)
 --------------------------------------------------------------
 
 Alpha MOs
 -- Occupied --
-91.9832 -91.9743 -11.2884 -11.2740 -11.2651 -11.2622 -11.2519 -11.2504
-11.2412 -11.2373 -11.2320 -11.2237  -8.9835  -8.9743  -6.6643  -6.6635
 -6.6632  -6.6552  -6.6546  -6.6541  -1.1905  -1.1447  -1.0452  -1.0173
 -1.0003  -0.9520  -0.9141  -0.8885  -0.7939  -0.7498  -0.7415  -0.6949
 -0.6545  -0.6215  -0.5868  -0.5845  -0.5731  -0.5658  -0.5481  -0.5347
 -0.5249  -0.5228  -0.5128  -0.4870  -0.4678  -0.4628  -0.4436  -0.3517
 -0.3367  -0.3200  -0.2910
 -- Virtual --
  0.0571   0.1086   0.1354   0.1573   0.1656   0.1724   0.1794   0.1828
  0.1930   0.1969   0.1988   0.2224   0.2337   0.2365   0.2444   0.2471
  0.2526   0.2703   0.2879   0.2959   0.3293   0.3445   0.3529   0.3723
  0.3802   0.3845   0.3891   0.4011   0.4072   0.4168   0.4309   0.4409
  0.4419   0.4489   0.4553   0.4738   0.4824   0.4894   0.5022   0.5084
  0.5109   0.5154   0.5258   0.5389   0.5443   0.5523   0.5602   0.5662
  0.5789   0.5873   0.5906   0.6023   0.6036   0.6133   0.6163   0.6206
  0.6309   0.6389   0.6466   0.6509   0.6531   0.6603   0.6641   0.6688
  0.6853   0.6957   0.7000   0.7233   0.7246   0.7401   0.7423   0.7616
  0.7730   0.7880   0.8066   0.8186   0.8255   0.8340   0.8412   0.8561
  0.8626   0.8679   0.8799   0.8895   0.9082   0.9202   0.9379   0.9504
  0.9636   0.9819   0.9872   1.0048   1.0163   1.0320   1.0341   1.0462
  1.0565   1.0721   1.0799   1.0836   1.0943   1.0960   1.1098   1.1184
  1.1253   1.1411   1.1475   1.1606   1.1784   1.1979   1.2051   1.2118
  1.2205   1.2309   1.2390   1.2506   1.2604   1.2715   1.2759   1.2843
  1.2907   1.2957   1.3148   1.3310   1.3351   1.3610   1.3645   1.3846
  1.3934   1.4131   1.4214   1.4324   1.4383   1.4528   1.4602   1.4815
  1.4935   1.5023   1.5113   1.5226   1.5275   1.5382   1.5435   1.5540
  1.5631   1.5779   1.5827   1.5885   1.5922   1.6020   1.6202   1.6381
  1.6624   1.6783   1.6882   1.7010   1.7023   1.7161   1.7239   1.7328
  1.7496   1.7623   1.7964   1.8034   1.8161   1.8345   1.8431   1.8670
  1.8849   1.9017   1.9087   1.9336   1.9432   1.9730   1.9760   1.9940
  1.9995   2.0498   2.0658   2.0780   2.1062   2.1264   2.1355   2.1703
  2.1890   2.1940   2.2051   2.2325   2.2466   2.2578   2.2788   2.2826
  2.3046   2.3283   2.3323   2.3657   2.4116   2.4325   2.4419   2.4636
  2.4801   2.4932   2.5129   2.5251   2.5420   2.5957   2.6008   2.6422
  2.6479   2.6683   2.6800   2.6888   2.6914   2.7113   2.7239   2.7377
  2.7432   2.7513   2.7610   2.7768   2.7782   2.8057   2.8197   2.8333
  2.8381   2.8478   2.8626   2.8704   2.8803   2.9175   2.9388   2.9447
  2.9691   2.9895   2.9943   3.0025   3.0071   3.0212   3.0285   3.0579
  3.0771   3.0858   3.1025   3.1135   3.1239   3.1312   3.1401   3.1540
  3.1598   3.1712   3.1796   3.1855   3.2002   3.2120   3.2291   3.2468
  3.2523   3.2641   3.2715   3.2776   3.2844   3.2982   3.3055   3.3155
  3.3273   3.3349   3.3423   3.3581   3.3597   3.3648   3.3697   3.3909
  3.3950   3.4134   3.4174   3.4236   3.4304   3.4384   3.4533   3.4591
  3.4684   3.4705   3.4913   3.5041   3.5116   3.5158   3.5250   3.5265
  3.5408   3.5421   3.5597   3.5771   3.5916   3.5931   3.6015   3.6058
  3.6224   3.6295   3.6406   3.6551   3.6592   3.6678   3.6768   3.6948
  3.7055   3.7176   3.7243   3.7292   3.7442   3.7505   3.7669   3.7806
  3.7863   3.7917   3.8007   3.8097   3.8200   3.8512   3.8631   3.8668
  3.8783   3.9014   3.9070   3.9265   3.9458   3.9572   3.9649   3.9807
  3.9892   4.0062   4.0224   4.0268   4.0291   4.0463   4.0529   4.0737
  4.0773   4.0937   4.1072   4.1179   4.1348   4.1600   4.1714   4.1760
  4.1936   4.1990   4.2092   4.2135   4.2243   4.2395   4.2512   4.2604
  4.2716   4.2815   4.3013   4.3142   4.3234   4.3287   4.3376   4.3550
  4.3644   4.3719   4.3791   4.3977   4.4092   4.4165   4.4361   4.4495
  4.4592   4.4636   4.4816   4.4995   4.5246   4.5590   4.5626   4.5950
  4.5987   4.6211   4.6291   4.6391   4.6513   4.6667   4.6714   4.6834
  4.6988   4.7160   4.7351   4.7613   4.7928   4.8131   4.8165   4.8569
  4.8959   4.9051   4.9228   4.9453   4.9588   4.9926   5.0348   5.0660
  5.0697   5.1096   5.1137   5.1259   5.1751   5.1760   5.1894   5.2154
  5.2735   5.2985   5.3094   5.3247   5.3278   5.3706   5.3965   5.4107
  5.4173   5.4634   5.4737   5.4880   5.5295   5.5456   5.5487   5.5619
  5.5913   5.6027   5.6301   5.6400   5.6695   5.6711   5.7116   5.7351
  5.7975   5.8140   5.9537   6.0055   6.0190   6.0465   6.0969   6.2284
  6.2468   6.2750   6.2881   6.3039   6.3835   6.4081   6.5154   8.9933
  9.8670  11.6804  12.6373  12.9568  13.1546  13.8140  13.8796  14.2559
 14.4695
 --------------------------------------------------------------
 
          Ground-State Mulliken Net Atomic Charges

     Atom                 Charge (a.u.)
  ----------------------------------------
      1 C                    -0.223028
      2 C                    -0.258748
      3 C                     0.049731
      4 H                     0.182967
      5 C                     0.002557
      6 S                    -0.001110
      7 C                    -0.330621
      8 H                     0.120986
      9 H                     0.112207
     10 H                     0.118911
     11 H                     0.198987
     12 C                    -0.161368
     13 C                    -0.123504
     14 C                     0.003912
     15 H                     0.194361
     16 C                    -0.190801
     17 S                     0.044191
     18 C                    -0.275891
     19 H                     0.106309
     20 H                     0.119953
     21 H                     0.106153
     22 H                     0.203847
  ----------------------------------------
  Sum of atomic charges =     0.000000

 -----------------------------------------------------------------
                    Cartesian Multipole Moments
 -----------------------------------------------------------------
    Charge (ESU x 10^10)
                -0.0000
    Dipole Moment (Debye)
         X       4.3839      Y       0.7763      Z       1.9668
       Tot       4.8672
    Quadrupole Moments (Debye-Ang)
        XX     -77.4437     XY       3.1227     YY     -80.3375
        XZ       1.5848     YZ       0.2239     ZZ     -85.6802
    Octopole Moments (Debye-Ang^2)
       XXX    -161.8545    XXY      82.9353    XYY     -56.5488
       YYY     186.0343    XXZ      -5.9010    XYZ      -5.2781
       YYZ      -4.4359    XZZ     -56.6359    YZZ      91.0204
       ZZZ      -0.1160
    Hexadecapole Moments (Debye-Ang^3)
      XXXX   -1338.3590   XXXY    -177.2757   XXYY    -545.1921
      XYYY    -174.3085   YYYY   -2021.8673   XXXZ    -147.9513
      XXYZ     -26.3358   XYYZ     -33.9295   YYYZ     -46.4034
      XXZZ    -316.9697   XYZZ     -59.6955   YYZZ    -514.1428
      XZZZ    -137.6261   YZZZ     -49.5183   ZZZZ    -547.8407
 -----------------------------------------------------------------
 Total job time:  56.19s(wall), 1978.17s(cpu) 
 Wed Dec 13 16:01:14 2023

        *************************************************************
        *                                                           *
        *  Thank you very much for using Q-Chem.  Have a nice day.  *
        *                                                           *
        *************************************************************


0 sent ACK to 0 
now end server 0 ... 
cleanup process ... done
remove work dirs ./qchem3053539.0 -- ./qchem3053539.0
rm -rf ./qchem3053539.0
rm -rf ./qchem3053539
