You are running Q-Chem version: 5.4.0

#
# job setting
#
local host:  exp-1-10
current dir: /home/rramji/project-csd799/aromodel/p3ht-qchem/rotation-run
input file:  Methylthiophene_Phi_0_Theta_330_Methylthiophene.qcin
output file: 
nprocs     : 1
nthreads   : 64
#
# qchem installation setting
#
QC:          /cm/shared/apps/spack/cpu/opt/spack/linux-centos8-zen2/gcc-10.2.0/qchem-5.4-akfmr7b3t57bfs6qan3padb2wnb2i7cl
QCAUX:       /cm/shared/apps/spack/cpu/opt/spack/linux-centos8-zen2/gcc-10.2.0/qchem-5.4-akfmr7b3t57bfs6qan3padb2wnb2i7cl/qcaux
QCPROG:      /cm/shared/apps/spack/cpu/opt/spack/linux-centos8-zen2/gcc-10.2.0/qchem-5.4-akfmr7b3t57bfs6qan3padb2wnb2i7cl/exe/qcprog.exe
QCPROG_S:    /cm/shared/apps/spack/cpu/opt/spack/linux-centos8-zen2/gcc-10.2.0/qchem-5.4-akfmr7b3t57bfs6qan3padb2wnb2i7cl/exe/qcprog.exe_s
PARALLEL:    -DPARALLEL
QCMPI:       mpich
#
# qchem directory setting
#
qcrun:       qchem1480417
QCSCRATCH:   .
QCLOCALSCR:  
QCTMPDIR:    .
QCFILEPREF:  ./qchem1480417
QCSAVEDIR:   
workdirs:    ./qchem1480417
workdir0:    ./qchem1480417
partmpdirs =  
#
# parallel setting
#
QCRSH:           ssh
QCMPI:           mpich
QCMPIRUN:        /cm/shared/apps/spack/cpu/opt/spack/linux-centos8-zen2/gcc-10.2.0/qchem-5.4-akfmr7b3t57bfs6qan3padb2wnb2i7cl/bin/mpi/mpirun_qchem
QCMACHINEFILE:   ./qchem1480417/hostfile
exp-1-10

#
# env setting
#
exported envs:   QC QCAUX QCSCRATCH QCRUNNAME QCFILEPREF QCPROG QCPROG_S GUIFILE

Running Job 1 of 1 Methylthiophene_Phi_0_Theta_330_Methylthiophene.qcin
qchem Methylthiophene_Phi_0_Theta_330_Methylthiophene.qcin_1480417.0 ./qchem1480417/ 1
/cm/shared/apps/spack/cpu/opt/spack/linux-centos8-zen2/gcc-10.2.0/qchem-5.4-akfmr7b3t57bfs6qan3padb2wnb2i7cl/bin/mpi/mpirun_qchem -machinefile ./qchem1480417/hostfile -np 1 /cm/shared/apps/spack/cpu/opt/spack/linux-centos8-zen2/gcc-10.2.0/qchem-5.4-akfmr7b3t57bfs6qan3padb2wnb2i7cl/exe/qcprog.exe Methylthiophene_Phi_0_Theta_330_Methylthiophene.qcin_1480417.0 ./qchem1480417/

Process 0 of 1 is on exp-1-10 - thread support 0
initial socket setup ...start
initial socket setup ...done 
now start server 0 ... 
                  Welcome to Q-Chem
     A Quantum Leap Into The Future Of Chemistry


 Q-Chem 5.4, Q-Chem, Inc., Pleasanton, CA (2021)

 License issued to: University of California, San Diego (site)

 E. Epifanovsky,  A. T. B. Gilbert,  Xintian Feng,  Joonho Lee,  Yuezhi Mao,  
 N. Mardirossian,  P. Pokhilko,  A. White,  M. Wormit,  M. P. Coons,  
 A. L. Dempwolff,  Zhengting Gan,  D. Hait,  P. R. Horn,  L. D. Jacobson,  
 I. Kaliman,  J. Kussmann,  A. W. Lange,  Ka Un Lao,  D. S. Levine,  Jie Liu,  
 S. C. McKenzie,  A. F. Morrison,  K. Nanda,  F. Plasser,  D. R. Rehn,  
 M. L. Vidal,  Zhi-Qiang You,  Ying Zhu,  B. Alam,  B. Albrecht,  
 A. Aldossary,  E. Alguire,  J. H. Andersen,  D. Barton,  K. Begam,  A. Behn,  
 Y. A. Bernard,  E. J. Berquist,  H. Burton,  A. Carreras,  K. Carter-Fenk,  
 R. Chakraborty,  A. D. Chien,  K. D. Closser,  V. Cofer-Shabica,  
 S. Dasgupta,  Jia Deng,  M. de Wergifosse,  M. Diedenhofen,  Hainam Do,  
 S. Ehlert,  Po-Tung Fang,  S. Fatehi,  Qingguo Feng,  J. Gayvert,  
 Qinghui Ge,  G. Gidofalvi,  M. Goldey,  J. Gomes,  C. Gonzalez-Espinoza,  
 S. Gulania,  A. Gunina,  M. W. D. Hanson-Heine,  P. H. P. Harbach,  
 A. W. Hauser,  M. F. Herbst,  M. Hernandez Vera,  M. Hodecker,  
 Z. C. Holden,  S. Houck,  Xunkun Huang,  Kerwin Hui,  B. C. Huynh,  
 M. Ivanov,  Hyunjun Ji,  Hanjie Jiang,  B. Kaduk,  S. Kaehler,  
 K. Khistyaev,  Jaehoon Kim,  P. Klunzinger,  Z. Koczor-Benda,  
 Joong Hoon Koh,  D. Kosenkov,  L. Koulias,  T. Kowalczyk,  C. M. Krauter,  
 K. Kue,  A. Kunitsa,  T. Kus,  A. Landau,  K. V. Lawler,  D. Lefrancois,  
 S. Lehtola,  Rain Li,  Yi-Pei Li,  Jiashu Liang,  M. Liebenthal,  
 Hung-Hsuan Lin,  You-Sheng Lin,  Fenglai Liu,  Kuan-Yu Liu,  
 M. Loipersberger,  A. Luenser,  A. Manjanath,  P. Manohar,  E. Mansoor,  
 S. F. Manzer,  Shan-Ping Mao,  A. V. Marenich,  T. Markovich,  S. Mason,  
 S. A. Maurer,  P. F. McLaughlin,  M. F. S. J. Menger,  J.-M. Mewes,  
 S. A. Mewes,  P. Morgante,  J. W. Mullinax,  T. S. Nguyen-Beck,  
 K. J. Oosterbaan,  G. Paran,  Alexander C. Paul,  Suranjan K. Paul,  
 F. Pavosevic,  Zheng Pei,  S. Prager,  E. I. Proynov,  E. Ramos,  B. Rana,  
 A. E. Rask,  A. Rettig,  R. M. Richard,  F. Rob,  E. Rossomme,  T. Scheele,  
 M. Scheurer,  M. Schneider,  N. Sergueev,  S. M. Sharada,  W. Skomorowski,  
 D. W. Small,  C. J. Stein,  Yu-Chuan Su,  E. J. Sundstrom,  Zhen Tao,  
 J. Thirman,  T. Tsuchimochi,  N. M. Tubman,  S. P. Veccham,  O. Vydrov,  
 J. Wenzel,  J. Witte,  A. Yamada,  Kun Yao,  S. Yeganeh,  S. R. Yost,  
 A. Zech,  Igor Ying Zhang,  Xing Zhang,  Yu Zhang,  D. Zuev,  
 A. Aspuru-Guzik,  A. T. Bell,  N. A. Besley,  K. B. Bravaya,  B. R. Brooks,  
 D. Casanova,  Jeng-Da Chai,  S. Coriani,  C. J. Cramer,  
 A. E. DePrince, III,  R. A. DiStasio Jr.,  A. Dreuw,  B. D. Dunietz,  
 T. R. Furlani,  W. A. Goddard III,  S. Grimme,  S. Hammes-Schiffer,  
 T. Head-Gordon,  W. J. Hehre,  Chao-Ping Hsu,  T.-C. Jagau,  Yousung Jung,  
 A. Klamt,  Jing Kong,  D. S. Lambrecht,  WanZhen Liang,  N. J. Mayhall,  
 C. W. McCurdy,  J. B. Neaton,  C. Ochsenfeld,  J. A. Parkhill,  R. Peverati,  
 V. A. Rassolov,  Yihan Shao,  L. V. Slipchenko,  T. Stauch,  R. P. Steele,  
 J. E. Subotnik,  A. J. W. Thom,  A. Tkatchenko,  D. G. Truhlar,  
 T. Van Voorhis,  T. A. Wesolowski,  K. B. Whaley,  H. L. Woodcock III,  
 P. M. Zimmerman,  S. Faraji,  P. M. W. Gill,  M. Head-Gordon,  
 J. M. Herbert,  A. I. Krylov

 Contributors to earlier versions of Q-Chem not listed above: 
 R. D. Adamson,  B. Austin,  R. Baer,  J. Baker,  G. J. O. Beran,  
 K. Brandhorst,  S. T. Brown,  E. F. C. Byrd,  A. K. Chakraborty,  
 G. K. L. Chan,  Chun-Min Chang,  Yunqing Chen,  C.-L. Cheng,  
 Siu Hung Chien,  D. M. Chipman,  D. L. Crittenden,  H. Dachsel,  
 R. J. Doerksen,  A. D. Dutoi,  R. G. Edgar,  J. Fosso-Tande,  
 L. Fusti-Molnar,  D. Ghosh,  A. Ghysels,  A. Golubeva-Zadorozhnaya,  
 J. Gonthier,  M. S. Gordon,  S. R. Gwaltney,  G. Hawkins,  J. E. Herr,  
 A. Heyden,  S. Hirata,  E. G. Hohenstein,  G. Kedziora,  F. J. Keil,  
 C. Kelley,  Jihan Kim,  R. A. King,  R. Z. Khaliullin,  P. P. Korambath,  
 W. Kurlancheek,  A. Laurent,  A. M. Lee,  M. S. Lee,  S. V. Levchenko,  
 Ching Yeh Lin,  D. Liotard,  E. Livshits,  R. C. Lochan,  I. Lotan,  
 L. A. Martinez-Martinez,  P. E. Maslen,  N. Nair,  D. P. O'Neill,  
 D. Neuhauser,  E. Neuscamman,  C. M. Oana,  R. Olivares-Amaya,  R. Olson,  
 T. M. Perrine,  B. Peters,  P. A. Pieniazek,  A. Prociuk,  Y. M. Rhee,  
 J. Ritchie,  M. A. Rohrdanz,  E. Rosta,  N. J. Russ,  H. F. Schaefer III,  
 M. W. Schmidt,  N. E. Schultz,  S. Sharma,  N. Shenvi,  C. D. Sherrill,  
 A. C. Simmonett,  A. Sodt,  T. Stein,  D. Stuck,  K. S. Thanthiriwatte,  
 V. Vanovschi,  L. Vogt,  Tao Wang,  A. Warshel,  M. A. Watson,  
 C. F. Williams,  Q. Wu,  X. Xu,  Jun Yang,  W. Zhang,  Yan Zhao

 Please cite Q-Chem as follows:
 Y. Shao et al., Mol. Phys. 113, 184-215 (2015)
 DOI: 10.1080/00268976.2014.952696

 Q-Chem 5.4.0 for Intel X86 EM64T Linux

 Parts of Q-Chem use Armadillo 9.800.1 (Horizon Scraper).
 http://arma.sourceforge.net/

 Q-Chem begins on Wed Dec 13 16:22:28 2023  

 Host: 
0

     Scratch files written to ./qchem1480417//
 May1621 |scratch|qcdevops|jenkins|workspace|build_RNUM    
 Parallel job on  1  processors
 Processing $rem in /cm/shared/apps/spack/cpu/opt/spack/linux-centos8-zen2/gcc-10.2.0/qchem-5.4-akfmr7b3t57bfs6qan3padb2wnb2i7cl/config/preferences:
 Processing $rem in /home/rramji/.qchemrc:
 Symmetry turned off for PCM/SM12/SMD calculation
 Core orbitals will be frozen

 Checking the input file for inconsistencies... 	...done.

 Q-Chem warning in module forms1/BasisType.C, line 2236:

 You are not using the predefined 5D/6D in this basis set.


--------------------------------------------------------------
User input:
--------------------------------------------------------------
$molecule
0 1
C	0.361285	-3.887800	0.627947
C	-0.331462	-3.701456	-0.572038
C	-0.542953	-2.345170	-0.939610
H	-0.684893	-4.545233	-1.183405
C	0.000000	-1.450135	0.000000
S	0.763441	-2.321334	1.323052
C	-1.265941	-1.934439	-2.192207
H	-1.598695	-2.819799	-2.767709
H	-0.620770	-1.326210	-2.860100
H	-2.166438	-1.325374	-1.967682
H	0.652645	-4.815326	1.133436
C	0.000000	0.000000	0.000000
C	-0.003081	0.844605	1.113020
C	-0.007772	2.235575	0.820578
H	-0.001743	0.456510	2.142881
C	-0.008427	2.483726	-0.563588
S	-0.003691	0.970607	-1.464748
C	-0.011355	3.300181	1.882380
H	-0.009922	2.852233	2.894974
H	-0.905944	3.953225	1.808137
H	0.878901	3.959133	1.808230
H	-0.011727	3.441752	-1.097114
$end

$rem
JOBTYPE		SP
EXCHANGE	HF
CORRELATION	pRIMP2
BASIS		cc-pvtz
METHOD		rimp2
AUX_BASIS	rimp2-cc-pvtz
SOLVENT_METHOD	PCM
PURECART	11111
SYMMETRY	false
MEM_TOTAL	110000
SCF_CONVERGENCE = 6
THRESH=10
GUI = 2
$end



$solvent
dielectric 4.90
$end
--------------------------------------------------------------
 ----------------------------------------------------------------
             Standard Nuclear Orientation (Angstroms)
    I     Atom           X                Y                Z
 ----------------------------------------------------------------
    1      C       0.3612850000    -3.8878000000     0.6279470000
    2      C      -0.3314620000    -3.7014560000    -0.5720380000
    3      C      -0.5429530000    -2.3451700000    -0.9396100000
    4      H      -0.6848930000    -4.5452330000    -1.1834050000
    5      C       0.0000000000    -1.4501350000     0.0000000000
    6      S       0.7634410000    -2.3213340000     1.3230520000
    7      C      -1.2659410000    -1.9344390000    -2.1922070000
    8      H      -1.5986950000    -2.8197990000    -2.7677090000
    9      H      -0.6207700000    -1.3262100000    -2.8601000000
   10      H      -2.1664380000    -1.3253740000    -1.9676820000
   11      H       0.6526450000    -4.8153260000     1.1334360000
   12      C       0.0000000000     0.0000000000     0.0000000000
   13      C      -0.0030810000     0.8446050000     1.1130200000
   14      C      -0.0077720000     2.2355750000     0.8205780000
   15      H      -0.0017430000     0.4565100000     2.1428810000
   16      C      -0.0084270000     2.4837260000    -0.5635880000
   17      S      -0.0036910000     0.9706070000    -1.4647480000
   18      C      -0.0113550000     3.3001810000     1.8823800000
   19      H      -0.0099220000     2.8522330000     2.8949740000
   20      H      -0.9059440000     3.9532250000     1.8081370000
   21      H       0.8789010000     3.9591330000     1.8082300000
   22      H      -0.0117270000     3.4417520000    -1.0971140000
 ----------------------------------------------------------------
 Nuclear Repulsion Energy =         835.56550239 hartrees
 There are       51 alpha and       51 beta electrons
 Requested basis set is cc-pVTZ
 There are 184 shells and 508 basis functions

 Total QAlloc Memory Limit 110000 MB
 Mega-Array Size       188 MB
 MEM_STATIC part       192 MB
 Discretize the solute cavity surface with Lebedev spheres
	Using 110 Lebedev grid points for each H atom
	Using 194 Lebedev grid points for other atoms
	Atomic van der Waals radii will be scaled by 1.20
 Remove points where switching function is < 1.0e-08
 Keep 1525 surface tesserae and discard 1903 interior tesserae
 Molecular Surface Area = 232.128 Angst**2
 Requested basis set is rimp2-cc-pVTZ
 There are 394 shells and 1354 basis functions
 A cutoff of  1.0D-10 yielded  12149 shell pairs
 There are     90227 function pairs (    116454 Cartesian)
 Smallest overlap matrix eigenvalue = 5.34E-05

 Scale SEOQF with 1.000000e-01/1.000000e-01/1.000000e-01

 Standard Electronic Orientation quadrupole field applied
 Nucleus-field energy     =     0.0000000239 hartrees
 Guess from superposition of atomic densities
 Warning:  Energy on first SCF cycle will be non-variational
 SAD guess density has 102.000000 electrons

 -----------------------------------------------------------------------
  General SCF calculation program by
  Eric Jon Sundstrom, Paul Horn, Yuezhi Mao, Dmitri Zuev, Alec White,
  David Stuck, Shaama M.S., Shane Yost, Joonho Lee, David Small,
  Daniel Levine, Susi Lehtola, Hugh Burton, Evgeny Epifanovsky,
  Bang C. Huynh
 -----------------------------------------------------------------------
 Hartree-Fock
 using 64 threads for integral computing
 -------------------------------------------------------
 OpenMP Integral computing Module                
 Release: version 1.0, May 2013, Q-Chem Inc. Pittsburgh 
 -------------------------------------------------------
 A restricted SCF calculation will be
 performed using DIIS
 SCF converges when DIIS error is below 1.0e-06
 ---------------------------------------
  Cycle       Energy         DIIS error
 ---------------------------------------
    1   -1184.2154208641      2.38e-02  
    2   -1179.5469031433      1.60e-03  
    3   -1179.6679391366      6.18e-04  
    4   -1179.6817290466      3.34e-04  
    5   -1179.6864340911      6.46e-05  
    6   -1179.6867096864      3.02e-05  
    7   -1179.6867950127      1.23e-05  
    8   -1179.6868223290      5.19e-06  
    9   -1179.6868271563      1.61e-06  
   10   -1179.6868275892      5.34e-07  Convergence criterion met
 ---------------------------------------
 SCF time:   CPU 1502.20s  wall 45.00s 

************** Final PCM Free Energy Summary **************
 G_electrostatic  =      -0.00774337 hartree =      -4.85903912 kcal/mol
 G_cavitation     =       0.00000000 hartree =       0.00000000 kcal/mol
 G_dispersion     =       0.00000000 hartree =       0.00000000 kcal/mol
 G_repulsion      =       0.00000000 hartree =       0.00000000 kcal/mol
 --------------------------------------------------
 Non-electrostatic Free Energy =       0.00000000 hartree =       0.00000000 kcal/mol
 Total                         =      -0.00774337 hartree =      -4.85903912 kcal/mol
 --------------------------------------------------
 SCF Energy (H0 + V/2)                       =   -1179.68682759 
 Solute Internal Energy (H0)                 =   -1179.67908422 
 Total Free Energy (H0 + V/2 + non-elec)     =   -1179.68682759 hartree
                                             = -740264.65712616 kcal/mol
***********************************************************

 SCF   energy in the final basis set =    -1179.6868275892
 Total energy in the final basis set =    -1179.6868275892


 --------------------------------------------------------------
  Generalized many-body perturbation theory program
  by Joonho Lee, Fazle Rob, Xintian Feng, Evgeny Epifanovsky

 No regularization used 
 (reg. param. = 0.0000e+00)
  (P|Q)^-1/2 Time:  CPU 31.32 s  wall 0.54 s

 In RI-MP2 calculation: 
 # of frozen core orbitals: 20

 Components of the RIMP2 correlation energy:
        aaaa    correlation energy =        -0.2527279739 a.u.
        abab    correlation energy =        -1.4738525838 a.u.
        bbbb    correlation energy =        -0.2527279739 a.u.
        non-Brillouin singles      =        -0.0000000000 a.u.
        total same-spin energy     =        -0.5054559478 a.u.
        total opposite-spin energy =        -1.4738525838 a.u.

 Total  RIMP2   correlation energy =        -1.9793085316 a.u.
        RIMP2         total energy =     -1181.6661361208 a.u.

 RI-MP2 Energy Time:  CPU 218.60 s  wall 3.93 s
 
 --------------------------------------------------------------
 
                    Orbital Energies (a.u.)
 --------------------------------------------------------------
 
 Alpha MOs
 -- Occupied --
-91.9863 -91.9854 -11.2836 -11.2777 -11.2730 -11.2632 -11.2532 -11.2518
-11.2436 -11.2397 -11.2296 -11.2290  -8.9860  -8.9851  -6.6669  -6.6664
 -6.6660  -6.6657  -6.6655  -6.6648  -1.1800  -1.1501  -1.0408  -1.0245
 -0.9984  -0.9528  -0.9145  -0.8945  -0.7997  -0.7631  -0.7212  -0.6952
 -0.6629  -0.6162  -0.5836  -0.5787  -0.5772  -0.5697  -0.5523  -0.5333
 -0.5250  -0.5198  -0.5097  -0.4967  -0.4898  -0.4680  -0.4545  -0.3629
 -0.3431  -0.3399  -0.2740
 -- Virtual --
  0.0666   0.1325   0.1437   0.1523   0.1613   0.1749   0.1794   0.1888
  0.1913   0.1985   0.2039   0.2183   0.2331   0.2380   0.2432   0.2463
  0.2641   0.2706   0.3036   0.3149   0.3403   0.3515   0.3626   0.3767
  0.3838   0.3855   0.3974   0.4070   0.4094   0.4274   0.4311   0.4459
  0.4543   0.4647   0.4682   0.4757   0.4808   0.4924   0.5002   0.5062
  0.5085   0.5293   0.5316   0.5384   0.5409   0.5476   0.5520   0.5693
  0.5785   0.5836   0.5870   0.5996   0.6033   0.6128   0.6171   0.6230
  0.6261   0.6315   0.6381   0.6424   0.6479   0.6536   0.6588   0.6665
  0.6811   0.6952   0.6978   0.7097   0.7146   0.7320   0.7447   0.7499
  0.7799   0.7905   0.7983   0.8094   0.8136   0.8346   0.8474   0.8532
  0.8605   0.8661   0.8737   0.8883   0.9012   0.9160   0.9315   0.9387
  0.9615   0.9654   0.9715   0.9882   1.0131   1.0173   1.0196   1.0265
  1.0440   1.0618   1.0673   1.0695   1.0758   1.0910   1.0939   1.0989
  1.1074   1.1174   1.1401   1.1475   1.1502   1.1625   1.1733   1.1831
  1.2048   1.2187   1.2332   1.2386   1.2479   1.2525   1.2597   1.2681
  1.2822   1.2876   1.3069   1.3266   1.3365   1.3425   1.3529   1.3661
  1.3706   1.3875   1.4053   1.4188   1.4237   1.4286   1.4517   1.4660
  1.4806   1.4897   1.5014   1.5088   1.5150   1.5331   1.5402   1.5477
  1.5578   1.5586   1.5638   1.5757   1.5769   1.5921   1.6160   1.6216
  1.6569   1.6614   1.6657   1.6869   1.6963   1.7010   1.7135   1.7320
  1.7465   1.7763   1.7886   1.7950   1.8042   1.8178   1.8385   1.8511
  1.8802   1.9006   1.9115   1.9266   1.9300   1.9600   1.9812   1.9866
  2.0030   2.0381   2.0551   2.0647   2.1208   2.1429   2.1527   2.1760
  2.1879   2.2013   2.2134   2.2382   2.2524   2.2601   2.2789   2.2874
  2.3039   2.3107   2.3270   2.3700   2.4062   2.4140   2.4300   2.4548
  2.4674   2.4916   2.5131   2.5270   2.5445   2.5734   2.6027   2.6140
  2.6235   2.6463   2.6554   2.6779   2.6821   2.7019   2.7113   2.7165
  2.7347   2.7395   2.7441   2.7546   2.7658   2.7693   2.7797   2.8066
  2.8220   2.8290   2.8505   2.8544   2.8747   2.9005   2.9136   2.9339
  2.9440   2.9617   2.9726   2.9869   2.9967   3.0141   3.0204   3.0367
  3.0491   3.0673   3.0776   3.0967   3.1122   3.1213   3.1373   3.1427
  3.1465   3.1483   3.1527   3.1682   3.1954   3.1997   3.2110   3.2262
  3.2370   3.2450   3.2593   3.2692   3.2773   3.2831   3.3055   3.3132
  3.3172   3.3290   3.3299   3.3386   3.3537   3.3570   3.3681   3.3746
  3.3840   3.3907   3.4018   3.4074   3.4117   3.4278   3.4329   3.4464
  3.4496   3.4556   3.4681   3.4791   3.4847   3.4931   3.5144   3.5211
  3.5228   3.5311   3.5359   3.5404   3.5564   3.5616   3.5697   3.5889
  3.5932   3.6137   3.6221   3.6316   3.6381   3.6527   3.6563   3.6583
  3.6712   3.6915   3.6994   3.7120   3.7286   3.7383   3.7410   3.7539
  3.7628   3.7690   3.7878   3.7947   3.7999   3.8111   3.8167   3.8361
  3.8594   3.8834   3.8876   3.9108   3.9225   3.9320   3.9352   3.9500
  3.9671   3.9906   3.9953   4.0043   4.0135   4.0193   4.0244   4.0505
  4.0621   4.0752   4.0885   4.1024   4.1106   4.1441   4.1496   4.1532
  4.1552   4.1777   4.1923   4.1944   4.2000   4.2137   4.2147   4.2340
  4.2409   4.2611   4.2862   4.2872   4.2955   4.3148   4.3290   4.3318
  4.3524   4.3577   4.3700   4.3760   4.3904   4.4008   4.4113   4.4282
  4.4329   4.4557   4.4662   4.4770   4.4954   4.5314   4.5453   4.5656
  4.5950   4.6145   4.6197   4.6228   4.6315   4.6339   4.6590   4.6808
  4.7070   4.7258   4.7409   4.7462   4.7657   4.7835   4.8217   4.8453
  4.8627   4.8647   4.8910   4.9250   4.9437   4.9594   5.0149   5.0540
  5.0790   5.0983   5.1134   5.1546   5.1844   5.1990   5.2033   5.2543
  5.2779   5.2819   5.3059   5.3063   5.3236   5.3725   5.3945   5.4024
  5.4117   5.4379   5.4640   5.4724   5.5227   5.5363   5.5489   5.5601
  5.5696   5.5743   5.6166   5.6227   5.6295   5.6951   5.7089   5.7169
  5.7936   5.8377   5.9199   5.9961   6.0344   6.1269   6.1640   6.2262
  6.2373   6.2528   6.2887   6.3124   6.3359   6.4594   6.5233   8.8492
  9.9250  11.5065  11.9716  12.9562  13.1747  13.7363  13.9967  14.2126
 14.4179
 --------------------------------------------------------------
 
          Ground-State Mulliken Net Atomic Charges

     Atom                 Charge (a.u.)
  ----------------------------------------
      1 C                    -0.213291
      2 C                    -0.250935
      3 C                     0.038183
      4 H                     0.185639
      5 C                    -0.027591
      6 S                     0.017635
      7 C                    -0.309773
      8 H                     0.112725
      9 H                     0.112177
     10 H                     0.119735
     11 H                     0.205715
     12 C                     0.042358
     13 C                    -0.260188
     14 C                     0.025354
     15 H                     0.181668
     16 C                    -0.248111
     17 S                     0.021456
     18 C                    -0.271659
     19 H                     0.103118
     20 H                     0.108197
     21 H                     0.108592
     22 H                     0.198997
  ----------------------------------------
  Sum of atomic charges =     0.000000

 -----------------------------------------------------------------
                    Cartesian Multipole Moments
 -----------------------------------------------------------------
    Charge (ESU x 10^10)
                -0.0000
    Dipole Moment (Debye)
         X      -0.7889      Y       0.1172      Z       0.0825
       Tot       0.8018
    Quadrupole Moments (Debye-Ang)
        XX     -91.0965     XY       1.1143     YY     -68.6332
        XZ       2.9785     YZ       3.1188     ZZ     -81.5629
    Octopole Moments (Debye-Ang^2)
       XXX       5.0573    XXY      42.4861    XYY       3.0886
       YYY      93.1765    XXZ      -0.7235    XYZ     -10.7662
       YYZ       0.5404    XZZ       0.3513    YZZ      40.9687
       ZZZ       5.0372
    Hexadecapole Moments (Debye-Ang^3)
      XXXX    -270.3873   XXXY       2.3745   XXYY    -568.5212
      XYYY     -16.7325   YYYY   -2575.6663   XXXZ    -121.5608
      XXYZ     -30.3931   XYYZ       4.2572   YYYZ    -145.1703
      XXZZ    -209.3070   XYZZ       4.2149   YYZZ    -607.0342
      XZZZ    -115.0780   YZZZ     -96.1544   ZZZZ    -950.0936
 -----------------------------------------------------------------
 Total job time:  51.19s(wall), 1797.06s(cpu) 
 Wed Dec 13 16:23:19 2023

        *************************************************************
        *                                                           *
        *  Thank you very much for using Q-Chem.  Have a nice day.  *
        *                                                           *
        *************************************************************


0 sent ACK to 0 
now end server 0 ... 
cleanup process ... done
remove work dirs ./qchem1480417.0 -- ./qchem1480417.0
rm -rf ./qchem1480417.0
rm -rf ./qchem1480417
