You are running Q-Chem version: 5.4.0

#
# job setting
#
local host:  exp-5-41
current dir: /home/rramji/project-csd799/aromodel/p3ht-qchem/rotation-run
input file:  Methylthiophene_Phi_60_Theta_180_Methylthiophene.qcin
output file: 
nprocs     : 1
nthreads   : 64
#
# qchem installation setting
#
QC:          /cm/shared/apps/spack/cpu/opt/spack/linux-centos8-zen2/gcc-10.2.0/qchem-5.4-akfmr7b3t57bfs6qan3padb2wnb2i7cl
QCAUX:       /cm/shared/apps/spack/cpu/opt/spack/linux-centos8-zen2/gcc-10.2.0/qchem-5.4-akfmr7b3t57bfs6qan3padb2wnb2i7cl/qcaux
QCPROG:      /cm/shared/apps/spack/cpu/opt/spack/linux-centos8-zen2/gcc-10.2.0/qchem-5.4-akfmr7b3t57bfs6qan3padb2wnb2i7cl/exe/qcprog.exe
QCPROG_S:    /cm/shared/apps/spack/cpu/opt/spack/linux-centos8-zen2/gcc-10.2.0/qchem-5.4-akfmr7b3t57bfs6qan3padb2wnb2i7cl/exe/qcprog.exe_s
PARALLEL:    -DPARALLEL
QCMPI:       mpich
#
# qchem directory setting
#
qcrun:       qchem3056157
QCSCRATCH:   .
QCLOCALSCR:  
QCTMPDIR:    .
QCFILEPREF:  ./qchem3056157
QCSAVEDIR:   
workdirs:    ./qchem3056157
workdir0:    ./qchem3056157
partmpdirs =  
#
# parallel setting
#
QCRSH:           ssh
QCMPI:           mpich
QCMPIRUN:        /cm/shared/apps/spack/cpu/opt/spack/linux-centos8-zen2/gcc-10.2.0/qchem-5.4-akfmr7b3t57bfs6qan3padb2wnb2i7cl/bin/mpi/mpirun_qchem
QCMACHINEFILE:   ./qchem3056157/hostfile
exp-5-41

#
# env setting
#
exported envs:   QC QCAUX QCSCRATCH QCRUNNAME QCFILEPREF QCPROG QCPROG_S GUIFILE

Running Job 1 of 1 Methylthiophene_Phi_60_Theta_180_Methylthiophene.qcin
qchem Methylthiophene_Phi_60_Theta_180_Methylthiophene.qcin_3056157.0 ./qchem3056157/ 1
/cm/shared/apps/spack/cpu/opt/spack/linux-centos8-zen2/gcc-10.2.0/qchem-5.4-akfmr7b3t57bfs6qan3padb2wnb2i7cl/bin/mpi/mpirun_qchem -machinefile ./qchem3056157/hostfile -np 1 /cm/shared/apps/spack/cpu/opt/spack/linux-centos8-zen2/gcc-10.2.0/qchem-5.4-akfmr7b3t57bfs6qan3padb2wnb2i7cl/exe/qcprog.exe Methylthiophene_Phi_60_Theta_180_Methylthiophene.qcin_3056157.0 ./qchem3056157/

Process 0 of 1 is on exp-5-41 - thread support 0
initial socket setup ...start
initial socket setup ...done 
now start server 0 ... 
                  Welcome to Q-Chem
     A Quantum Leap Into The Future Of Chemistry


 Q-Chem 5.4, Q-Chem, Inc., Pleasanton, CA (2021)

 License issued to: University of California, San Diego (site)

 E. Epifanovsky,  A. T. B. Gilbert,  Xintian Feng,  Joonho Lee,  Yuezhi Mao,  
 N. Mardirossian,  P. Pokhilko,  A. White,  M. Wormit,  M. P. Coons,  
 A. L. Dempwolff,  Zhengting Gan,  D. Hait,  P. R. Horn,  L. D. Jacobson,  
 I. Kaliman,  J. Kussmann,  A. W. Lange,  Ka Un Lao,  D. S. Levine,  Jie Liu,  
 S. C. McKenzie,  A. F. Morrison,  K. Nanda,  F. Plasser,  D. R. Rehn,  
 M. L. Vidal,  Zhi-Qiang You,  Ying Zhu,  B. Alam,  B. Albrecht,  
 A. Aldossary,  E. Alguire,  J. H. Andersen,  D. Barton,  K. Begam,  A. Behn,  
 Y. A. Bernard,  E. J. Berquist,  H. Burton,  A. Carreras,  K. Carter-Fenk,  
 R. Chakraborty,  A. D. Chien,  K. D. Closser,  V. Cofer-Shabica,  
 S. Dasgupta,  Jia Deng,  M. de Wergifosse,  M. Diedenhofen,  Hainam Do,  
 S. Ehlert,  Po-Tung Fang,  S. Fatehi,  Qingguo Feng,  J. Gayvert,  
 Qinghui Ge,  G. Gidofalvi,  M. Goldey,  J. Gomes,  C. Gonzalez-Espinoza,  
 S. Gulania,  A. Gunina,  M. W. D. Hanson-Heine,  P. H. P. Harbach,  
 A. W. Hauser,  M. F. Herbst,  M. Hernandez Vera,  M. Hodecker,  
 Z. C. Holden,  S. Houck,  Xunkun Huang,  Kerwin Hui,  B. C. Huynh,  
 M. Ivanov,  Hyunjun Ji,  Hanjie Jiang,  B. Kaduk,  S. Kaehler,  
 K. Khistyaev,  Jaehoon Kim,  P. Klunzinger,  Z. Koczor-Benda,  
 Joong Hoon Koh,  D. Kosenkov,  L. Koulias,  T. Kowalczyk,  C. M. Krauter,  
 K. Kue,  A. Kunitsa,  T. Kus,  A. Landau,  K. V. Lawler,  D. Lefrancois,  
 S. Lehtola,  Rain Li,  Yi-Pei Li,  Jiashu Liang,  M. Liebenthal,  
 Hung-Hsuan Lin,  You-Sheng Lin,  Fenglai Liu,  Kuan-Yu Liu,  
 M. Loipersberger,  A. Luenser,  A. Manjanath,  P. Manohar,  E. Mansoor,  
 S. F. Manzer,  Shan-Ping Mao,  A. V. Marenich,  T. Markovich,  S. Mason,  
 S. A. Maurer,  P. F. McLaughlin,  M. F. S. J. Menger,  J.-M. Mewes,  
 S. A. Mewes,  P. Morgante,  J. W. Mullinax,  T. S. Nguyen-Beck,  
 K. J. Oosterbaan,  G. Paran,  Alexander C. Paul,  Suranjan K. Paul,  
 F. Pavosevic,  Zheng Pei,  S. Prager,  E. I. Proynov,  E. Ramos,  B. Rana,  
 A. E. Rask,  A. Rettig,  R. M. Richard,  F. Rob,  E. Rossomme,  T. Scheele,  
 M. Scheurer,  M. Schneider,  N. Sergueev,  S. M. Sharada,  W. Skomorowski,  
 D. W. Small,  C. J. Stein,  Yu-Chuan Su,  E. J. Sundstrom,  Zhen Tao,  
 J. Thirman,  T. Tsuchimochi,  N. M. Tubman,  S. P. Veccham,  O. Vydrov,  
 J. Wenzel,  J. Witte,  A. Yamada,  Kun Yao,  S. Yeganeh,  S. R. Yost,  
 A. Zech,  Igor Ying Zhang,  Xing Zhang,  Yu Zhang,  D. Zuev,  
 A. Aspuru-Guzik,  A. T. Bell,  N. A. Besley,  K. B. Bravaya,  B. R. Brooks,  
 D. Casanova,  Jeng-Da Chai,  S. Coriani,  C. J. Cramer,  
 A. E. DePrince, III,  R. A. DiStasio Jr.,  A. Dreuw,  B. D. Dunietz,  
 T. R. Furlani,  W. A. Goddard III,  S. Grimme,  S. Hammes-Schiffer,  
 T. Head-Gordon,  W. J. Hehre,  Chao-Ping Hsu,  T.-C. Jagau,  Yousung Jung,  
 A. Klamt,  Jing Kong,  D. S. Lambrecht,  WanZhen Liang,  N. J. Mayhall,  
 C. W. McCurdy,  J. B. Neaton,  C. Ochsenfeld,  J. A. Parkhill,  R. Peverati,  
 V. A. Rassolov,  Yihan Shao,  L. V. Slipchenko,  T. Stauch,  R. P. Steele,  
 J. E. Subotnik,  A. J. W. Thom,  A. Tkatchenko,  D. G. Truhlar,  
 T. Van Voorhis,  T. A. Wesolowski,  K. B. Whaley,  H. L. Woodcock III,  
 P. M. Zimmerman,  S. Faraji,  P. M. W. Gill,  M. Head-Gordon,  
 J. M. Herbert,  A. I. Krylov

 Contributors to earlier versions of Q-Chem not listed above: 
 R. D. Adamson,  B. Austin,  R. Baer,  J. Baker,  G. J. O. Beran,  
 K. Brandhorst,  S. T. Brown,  E. F. C. Byrd,  A. K. Chakraborty,  
 G. K. L. Chan,  Chun-Min Chang,  Yunqing Chen,  C.-L. Cheng,  
 Siu Hung Chien,  D. M. Chipman,  D. L. Crittenden,  H. Dachsel,  
 R. J. Doerksen,  A. D. Dutoi,  R. G. Edgar,  J. Fosso-Tande,  
 L. Fusti-Molnar,  D. Ghosh,  A. Ghysels,  A. Golubeva-Zadorozhnaya,  
 J. Gonthier,  M. S. Gordon,  S. R. Gwaltney,  G. Hawkins,  J. E. Herr,  
 A. Heyden,  S. Hirata,  E. G. Hohenstein,  G. Kedziora,  F. J. Keil,  
 C. Kelley,  Jihan Kim,  R. A. King,  R. Z. Khaliullin,  P. P. Korambath,  
 W. Kurlancheek,  A. Laurent,  A. M. Lee,  M. S. Lee,  S. V. Levchenko,  
 Ching Yeh Lin,  D. Liotard,  E. Livshits,  R. C. Lochan,  I. Lotan,  
 L. A. Martinez-Martinez,  P. E. Maslen,  N. Nair,  D. P. O'Neill,  
 D. Neuhauser,  E. Neuscamman,  C. M. Oana,  R. Olivares-Amaya,  R. Olson,  
 T. M. Perrine,  B. Peters,  P. A. Pieniazek,  A. Prociuk,  Y. M. Rhee,  
 J. Ritchie,  M. A. Rohrdanz,  E. Rosta,  N. J. Russ,  H. F. Schaefer III,  
 M. W. Schmidt,  N. E. Schultz,  S. Sharma,  N. Shenvi,  C. D. Sherrill,  
 A. C. Simmonett,  A. Sodt,  T. Stein,  D. Stuck,  K. S. Thanthiriwatte,  
 V. Vanovschi,  L. Vogt,  Tao Wang,  A. Warshel,  M. A. Watson,  
 C. F. Williams,  Q. Wu,  X. Xu,  Jun Yang,  W. Zhang,  Yan Zhao

 Please cite Q-Chem as follows:
 Y. Shao et al., Mol. Phys. 113, 184-215 (2015)
 DOI: 10.1080/00268976.2014.952696

 Q-Chem 5.4.0 for Intel X86 EM64T Linux

 Parts of Q-Chem use Armadillo 9.800.1 (Horizon Scraper).
 http://arma.sourceforge.net/

 Q-Chem begins on Wed Dec 13 16:09:03 2023  

 Host: 
0

     Scratch files written to ./qchem3056157//
 May1621 |scratch|qcdevops|jenkins|workspace|build_RNUM    
 Parallel job on  1  processors
 Processing $rem in /cm/shared/apps/spack/cpu/opt/spack/linux-centos8-zen2/gcc-10.2.0/qchem-5.4-akfmr7b3t57bfs6qan3padb2wnb2i7cl/config/preferences:
 Processing $rem in /home/rramji/.qchemrc:
 Symmetry turned off for PCM/SM12/SMD calculation
 Core orbitals will be frozen

 Checking the input file for inconsistencies... 	...done.

 Q-Chem warning in module forms1/BasisType.C, line 2236:

 You are not using the predefined 5D/6D in this basis set.


--------------------------------------------------------------
User input:
--------------------------------------------------------------
$molecule
0 1
C	0.001092	-3.887800	-0.724460
C	0.001036	-3.701456	0.661131
C	0.000406	-2.345170	1.085203
H	0.001433	-4.545233	1.367305
C	0.000000	-1.450135	0.000000
S	0.000367	-2.321334	-1.527517
C	0.000233	-1.934439	2.531478
H	0.000656	-2.819799	3.196254
H	-0.892447	-1.326210	2.787305
H	0.892350	-1.325374	2.787282
H	0.001511	-4.815326	-1.307907
C	0.000000	0.000000	0.000000
C	0.729909	0.424971	1.113020
C	1.932179	1.124518	0.820578
H	0.394478	0.229765	2.142881
C	2.146756	1.249161	-0.563588
S	0.838724	0.488500	-1.464748
C	2.852364	1.659924	1.882380
H	2.465145	1.434710	2.894974
H	2.970621	2.761183	1.808137
H	3.868160	1.218416	1.808230
H	2.974781	1.731032	-1.097114
$end

$rem
JOBTYPE		SP
EXCHANGE	HF
CORRELATION	pRIMP2
BASIS		cc-pvtz
METHOD		rimp2
AUX_BASIS	rimp2-cc-pvtz
SOLVENT_METHOD	PCM
PURECART	11111
SYMMETRY	false
MEM_TOTAL	110000
SCF_CONVERGENCE = 6
THRESH=10
GUI = 2
$end



$solvent
dielectric 4.90
$end
--------------------------------------------------------------
 ----------------------------------------------------------------
             Standard Nuclear Orientation (Angstroms)
    I     Atom           X                Y                Z
 ----------------------------------------------------------------
    1      C       0.0010920000    -3.8878000000    -0.7244600000
    2      C       0.0010360000    -3.7014560000     0.6611310000
    3      C       0.0004060000    -2.3451700000     1.0852030000
    4      H       0.0014330000    -4.5452330000     1.3673050000
    5      C       0.0000000000    -1.4501350000     0.0000000000
    6      S       0.0003670000    -2.3213340000    -1.5275170000
    7      C       0.0002330000    -1.9344390000     2.5314780000
    8      H       0.0006560000    -2.8197990000     3.1962540000
    9      H      -0.8924470000    -1.3262100000     2.7873050000
   10      H       0.8923500000    -1.3253740000     2.7872820000
   11      H       0.0015110000    -4.8153260000    -1.3079070000
   12      C       0.0000000000     0.0000000000     0.0000000000
   13      C       0.7299090000     0.4249710000     1.1130200000
   14      C       1.9321790000     1.1245180000     0.8205780000
   15      H       0.3944780000     0.2297650000     2.1428810000
   16      C       2.1467560000     1.2491610000    -0.5635880000
   17      S       0.8387240000     0.4885000000    -1.4647480000
   18      C       2.8523640000     1.6599240000     1.8823800000
   19      H       2.4651450000     1.4347100000     2.8949740000
   20      H       2.9706210000     2.7611830000     1.8081370000
   21      H       3.8681600000     1.2184160000     1.8082300000
   22      H       2.9747810000     1.7310320000    -1.0971140000
 ----------------------------------------------------------------
 Nuclear Repulsion Energy =         864.43579634 hartrees
 There are       51 alpha and       51 beta electrons
 Requested basis set is cc-pVTZ
 There are 184 shells and 508 basis functions

 Total QAlloc Memory Limit 110000 MB
 Mega-Array Size       188 MB
 MEM_STATIC part       192 MB
 Discretize the solute cavity surface with Lebedev spheres
	Using 110 Lebedev grid points for each H atom
	Using 194 Lebedev grid points for other atoms
	Atomic van der Waals radii will be scaled by 1.20
 Remove points where switching function is < 1.0e-08
 Keep 1466 surface tesserae and discard 1962 interior tesserae
 Molecular Surface Area = 224.309 Angst**2
 Requested basis set is rimp2-cc-pVTZ
 There are 394 shells and 1354 basis functions
 A cutoff of  1.0D-10 yielded  13013 shell pairs
 There are     96653 function pairs (    124653 Cartesian)
 Smallest overlap matrix eigenvalue = 6.93E-05

 Scale SEOQF with 1.000000e-01/1.000000e-01/1.000000e-01

 Standard Electronic Orientation quadrupole field applied
 Nucleus-field energy     =     0.0000000143 hartrees
 Guess from superposition of atomic densities
 Warning:  Energy on first SCF cycle will be non-variational
 SAD guess density has 102.000000 electrons

 -----------------------------------------------------------------------
  General SCF calculation program by
  Eric Jon Sundstrom, Paul Horn, Yuezhi Mao, Dmitri Zuev, Alec White,
  David Stuck, Shaama M.S., Shane Yost, Joonho Lee, David Small,
  Daniel Levine, Susi Lehtola, Hugh Burton, Evgeny Epifanovsky,
  Bang C. Huynh
 -----------------------------------------------------------------------
 Hartree-Fock
 using 64 threads for integral computing
 -------------------------------------------------------
 OpenMP Integral computing Module                
 Release: version 1.0, May 2013, Q-Chem Inc. Pittsburgh 
 -------------------------------------------------------
 A restricted SCF calculation will be
 performed using DIIS
 SCF converges when DIIS error is below 1.0e-06
 ---------------------------------------
  Cycle       Energy         DIIS error
 ---------------------------------------
    1   -1184.4197744689      2.41e-02  
    2   -1179.4598216107      1.61e-03  
    3   -1179.5833593702      6.15e-04  
    4   -1179.5977564953      3.30e-04  
    5   -1179.6025193012      6.17e-05  
    6   -1179.6028248897      3.08e-05  
    7   -1179.6029282525      1.58e-05  
    8   -1179.6029697817      6.46e-06  
    9   -1179.6029787933      2.85e-06  
   10   -1179.6029802370      1.40e-06  
   11   -1179.6029806212      6.27e-07  Convergence criterion met
 ---------------------------------------
 SCF time:   CPU 1656.17s  wall 48.00s 

************** Final PCM Free Energy Summary **************
 G_electrostatic  =      -0.01081843 hartree =      -6.78866942 kcal/mol
 G_cavitation     =       0.00000000 hartree =       0.00000000 kcal/mol
 G_dispersion     =       0.00000000 hartree =       0.00000000 kcal/mol
 G_repulsion      =       0.00000000 hartree =       0.00000000 kcal/mol
 --------------------------------------------------
 Non-electrostatic Free Energy =       0.00000000 hartree =       0.00000000 kcal/mol
 Total                         =      -0.01081843 hartree =      -6.78866942 kcal/mol
 --------------------------------------------------
 SCF Energy (H0 + V/2)                       =   -1179.60298062 
 Solute Internal Energy (H0)                 =   -1179.59216219 
 Total Free Energy (H0 + V/2 + non-elec)     =   -1179.60298062 hartree
                                             = -740212.04235966 kcal/mol
***********************************************************

 SCF   energy in the final basis set =    -1179.6029806212
 Total energy in the final basis set =    -1179.6029806212


 --------------------------------------------------------------
  Generalized many-body perturbation theory program
  by Joonho Lee, Fazle Rob, Xintian Feng, Evgeny Epifanovsky

 No regularization used 
 (reg. param. = 0.0000e+00)
  (P|Q)^-1/2 Time:  CPU 18.22 s  wall 0.29 s

 In RI-MP2 calculation: 
 # of frozen core orbitals: 20

 Components of the RIMP2 correlation energy:
        aaaa    correlation energy =        -0.2563910846 a.u.
        abab    correlation energy =        -1.4847026081 a.u.
        bbbb    correlation energy =        -0.2563910846 a.u.
        non-Brillouin singles      =        -0.0000000000 a.u.
        total same-spin energy     =        -0.5127821691 a.u.
        total opposite-spin energy =        -1.4847026081 a.u.

 Total  RIMP2   correlation energy =        -1.9974847772 a.u.
        RIMP2         total energy =     -1181.6004653985 a.u.

 RI-MP2 Energy Time:  CPU 143.13 s  wall 2.34 s
 
 --------------------------------------------------------------
 
                    Orbital Energies (a.u.)
 --------------------------------------------------------------
 
 Alpha MOs
 -- Occupied --
-91.9845 -91.9740 -11.2946 -11.2808 -11.2658 -11.2577 -11.2563 -11.2543
-11.2370 -11.2330 -11.2321 -11.2271  -8.9855  -8.9745  -6.6663  -6.6655
 -6.6651  -6.6555  -6.6548  -6.6542  -1.1944  -1.1448  -1.0482  -1.0265
 -0.9964  -0.9535  -0.9124  -0.8950  -0.7991  -0.7582  -0.7302  -0.7027
 -0.6525  -0.6189  -0.6017  -0.5846  -0.5707  -0.5576  -0.5497  -0.5429
 -0.5342  -0.5191  -0.5042  -0.4861  -0.4833  -0.4597  -0.4422  -0.3705
 -0.3513  -0.3266  -0.2612
 -- Virtual --
  0.0483   0.1263   0.1332   0.1499   0.1639   0.1703   0.1803   0.1838
  0.1942   0.2064   0.2106   0.2185   0.2311   0.2413   0.2415   0.2482
  0.2693   0.2743   0.3080   0.3147   0.3224   0.3295   0.3604   0.3713
  0.3741   0.3853   0.3893   0.3963   0.4197   0.4235   0.4319   0.4371
  0.4474   0.4549   0.4719   0.4781   0.4819   0.4856   0.5031   0.5084
  0.5129   0.5168   0.5231   0.5390   0.5453   0.5574   0.5602   0.5641
  0.5728   0.5829   0.5966   0.5997   0.6040   0.6162   0.6185   0.6271
  0.6288   0.6329   0.6371   0.6426   0.6484   0.6573   0.6697   0.6728
  0.6815   0.6932   0.7102   0.7185   0.7241   0.7376   0.7469   0.7551
  0.7657   0.7856   0.7938   0.8048   0.8109   0.8286   0.8403   0.8526
  0.8557   0.8727   0.8775   0.8866   0.9043   0.9144   0.9329   0.9436
  0.9577   0.9651   0.9790   0.9887   0.9998   1.0177   1.0313   1.0424
  1.0518   1.0644   1.0661   1.0726   1.0840   1.0866   1.0989   1.1091
  1.1233   1.1329   1.1421   1.1499   1.1559   1.1852   1.1885   1.1993
  1.2162   1.2225   1.2304   1.2406   1.2440   1.2591   1.2691   1.2711
  1.2812   1.3131   1.3214   1.3375   1.3484   1.3548   1.3628   1.3693
  1.3909   1.3958   1.3991   1.4134   1.4167   1.4300   1.4442   1.4628
  1.4814   1.4910   1.5029   1.5177   1.5396   1.5416   1.5473   1.5540
  1.5590   1.5698   1.5795   1.5856   1.5960   1.6142   1.6189   1.6377
  1.6506   1.6715   1.6795   1.6962   1.7057   1.7094   1.7297   1.7407
  1.7561   1.7707   1.7895   1.7978   1.8111   1.8226   1.8324   1.8724
  1.8854   1.8898   1.9214   1.9347   1.9578   1.9724   1.9874   2.0039
  2.0210   2.0232   2.0505   2.0941   2.1085   2.1335   2.1580   2.1832
  2.1867   2.1905   2.2075   2.2228   2.2453   2.2607   2.2635   2.2871
  2.2975   2.3244   2.3432   2.3894   2.4058   2.4169   2.4392   2.4533
  2.4791   2.4885   2.5066   2.5369   2.5445   2.5790   2.6007   2.6133
  2.6211   2.6423   2.6499   2.6700   2.6873   2.6981   2.7245   2.7277
  2.7386   2.7548   2.7645   2.7750   2.7772   2.7934   2.7996   2.8122
  2.8367   2.8474   2.8551   2.8742   2.8906   2.9115   2.9269   2.9323
  2.9604   2.9782   2.9924   3.0066   3.0083   3.0266   3.0387   3.0473
  3.0589   3.0659   3.0849   3.1087   3.1176   3.1324   3.1395   3.1439
  3.1508   3.1604   3.1696   3.1795   3.1987   3.2073   3.2280   3.2339
  3.2392   3.2514   3.2647   3.2743   3.2782   3.2922   3.2939   3.3098
  3.3175   3.3262   3.3344   3.3506   3.3612   3.3692   3.3783   3.3916
  3.3976   3.4039   3.4097   3.4149   3.4270   3.4395   3.4423   3.4505
  3.4571   3.4770   3.4783   3.4938   3.5044   3.5068   3.5150   3.5180
  3.5361   3.5376   3.5510   3.5578   3.5620   3.5676   3.5818   3.5954
  3.6024   3.6302   3.6340   3.6406   3.6627   3.6658   3.6830   3.6928
  3.7003   3.7052   3.7209   3.7272   3.7353   3.7427   3.7633   3.7759
  3.7877   3.7900   3.7963   3.8078   3.8261   3.8385   3.8526   3.8727
  3.8852   3.8937   3.9101   3.9205   3.9366   3.9488   3.9776   3.9881
  3.9969   4.0159   4.0223   4.0284   4.0356   4.0409   4.0620   4.0644
  4.0774   4.0938   4.1118   4.1175   4.1395   4.1462   4.1644   4.1677
  4.1846   4.1935   4.2071   4.2090   4.2187   4.2265   4.2340   4.2573
  4.2718   4.2775   4.2938   4.3073   4.3107   4.3276   4.3492   4.3591
  4.3779   4.3819   4.3873   4.3940   4.4023   4.4061   4.4295   4.4445
  4.4572   4.4779   4.4972   4.5223   4.5422   4.5488   4.5763   4.5972
  4.6104   4.6182   4.6309   4.6445   4.6536   4.6642   4.6841   4.7035
  4.7047   4.7333   4.7683   4.7829   4.8059   4.8137   4.8577   4.8783
  4.8957   4.9256   4.9326   4.9535   4.9678   4.9961   5.0200   5.0535
  5.0700   5.0910   5.1084   5.1404   5.1623   5.1954   5.2178   5.2383
  5.2704   5.2729   5.3020   5.3146   5.3371   5.3763   5.3993   5.4079
  5.4211   5.4520   5.4756   5.4880   5.5136   5.5367   5.5478   5.5573
  5.5973   5.6170   5.6336   5.6474   5.6588   5.6677   5.7003   5.7375
  5.7927   5.8121   5.9281   5.9790   6.0351   6.0858   6.1031   6.2069
  6.2356   6.2564   6.2809   6.3101   6.3622   6.3908   6.5302   8.6993
  9.7012  11.5722  12.3862  12.8071  13.2836  13.8267  13.9908  14.2267
 14.4974
 --------------------------------------------------------------
 
          Ground-State Mulliken Net Atomic Charges

     Atom                 Charge (a.u.)
  ----------------------------------------
      1 C                    -0.254348
      2 C                    -0.244675
      3 C                     0.017367
      4 H                     0.181301
      5 C                    -0.013249
      6 S                    -0.004783
      7 C                    -0.295347
      8 H                     0.113259
      9 H                     0.104826
     10 H                     0.096153
     11 H                     0.199758
     12 C                    -0.109623
     13 C                    -0.107352
     14 C                    -0.021524
     15 H                     0.203105
     16 C                    -0.159380
     17 S                     0.036967
     18 C                    -0.270837
     19 H                     0.102674
     20 H                     0.111819
     21 H                     0.108303
     22 H                     0.205584
  ----------------------------------------
  Sum of atomic charges =     0.000000

 -----------------------------------------------------------------
                    Cartesian Multipole Moments
 -----------------------------------------------------------------
    Charge (ESU x 10^10)
                -0.0000
    Dipole Moment (Debye)
         X       3.0785      Y       1.5111      Z       3.1053
       Tot       4.6264
    Quadrupole Moments (Debye-Ang)
        XX     -82.4413     XY       5.8902     YY     -82.0355
        XZ       0.5488     YZ      -1.9253     ZZ     -79.8759
    Octopole Moments (Debye-Ang^2)
       XXX    -153.0842    XXY     105.7519    XYY     -51.1917
       YYY     195.7966    XXZ      -9.0573    XYZ      -1.7454
       YYZ      -7.2619    XZZ     -52.4162    YZZ      70.2851
       ZZZ      -7.3538
    Hexadecapole Moments (Debye-Ang^3)
      XXXX    -786.9310   XXXY    -167.4334   XXYY    -544.8160
      XYYY    -200.5268   YYYY   -2059.9322   XXXZ    -101.0043
      XXYZ     -25.2675   XYYZ     -33.7262   YYYZ     -28.7304
      XXZZ    -315.2578   XYZZ     -59.1456   YYZZ    -513.5706
      XZZZ     -87.5922   YZZZ     -54.6604   ZZZZ   -1086.1069
 -----------------------------------------------------------------
 Total job time:  69.98s(wall), 3001.06s(cpu) 
 Wed Dec 13 16:10:13 2023

        *************************************************************
        *                                                           *
        *  Thank you very much for using Q-Chem.  Have a nice day.  *
        *                                                           *
        *************************************************************


0 sent ACK to 0 
now end server 0 ... 
cleanup process ... done
remove work dirs ./qchem3056157.0 -- ./qchem3056157.0
rm -rf ./qchem3056157.0
rm -rf ./qchem3056157
