You are running Q-Chem version: 5.4.0

#
# job setting
#
local host:  exp-2-34
current dir: /home/rramji/project-csd799/aromodel/p3ht-qchem/rotation-run
input file:  Methylthiophene_Phi_25_Theta_120_Methylthiophene.qcin
output file: 
nprocs     : 1
nthreads   : 64
#
# qchem installation setting
#
QC:          /cm/shared/apps/spack/cpu/opt/spack/linux-centos8-zen2/gcc-10.2.0/qchem-5.4-akfmr7b3t57bfs6qan3padb2wnb2i7cl
QCAUX:       /cm/shared/apps/spack/cpu/opt/spack/linux-centos8-zen2/gcc-10.2.0/qchem-5.4-akfmr7b3t57bfs6qan3padb2wnb2i7cl/qcaux
QCPROG:      /cm/shared/apps/spack/cpu/opt/spack/linux-centos8-zen2/gcc-10.2.0/qchem-5.4-akfmr7b3t57bfs6qan3padb2wnb2i7cl/exe/qcprog.exe
QCPROG_S:    /cm/shared/apps/spack/cpu/opt/spack/linux-centos8-zen2/gcc-10.2.0/qchem-5.4-akfmr7b3t57bfs6qan3padb2wnb2i7cl/exe/qcprog.exe_s
PARALLEL:    -DPARALLEL
QCMPI:       mpich
#
# qchem directory setting
#
qcrun:       qchem270338
QCSCRATCH:   .
QCLOCALSCR:  
QCTMPDIR:    .
QCFILEPREF:  ./qchem270338
QCSAVEDIR:   
workdirs:    ./qchem270338
workdir0:    ./qchem270338
partmpdirs =  
#
# parallel setting
#
QCRSH:           ssh
QCMPI:           mpich
QCMPIRUN:        /cm/shared/apps/spack/cpu/opt/spack/linux-centos8-zen2/gcc-10.2.0/qchem-5.4-akfmr7b3t57bfs6qan3padb2wnb2i7cl/bin/mpi/mpirun_qchem
QCMACHINEFILE:   ./qchem270338/hostfile
exp-2-34

#
# env setting
#
exported envs:   QC QCAUX QCSCRATCH QCRUNNAME QCFILEPREF QCPROG QCPROG_S GUIFILE

Running Job 1 of 1 Methylthiophene_Phi_25_Theta_120_Methylthiophene.qcin
qchem Methylthiophene_Phi_25_Theta_120_Methylthiophene.qcin_270338.0 ./qchem270338/ 1
/cm/shared/apps/spack/cpu/opt/spack/linux-centos8-zen2/gcc-10.2.0/qchem-5.4-akfmr7b3t57bfs6qan3padb2wnb2i7cl/bin/mpi/mpirun_qchem -machinefile ./qchem270338/hostfile -np 1 /cm/shared/apps/spack/cpu/opt/spack/linux-centos8-zen2/gcc-10.2.0/qchem-5.4-akfmr7b3t57bfs6qan3padb2wnb2i7cl/exe/qcprog.exe Methylthiophene_Phi_25_Theta_120_Methylthiophene.qcin_270338.0 ./qchem270338/

Process 0 of 1 is on exp-2-34 - thread support 0
initial socket setup ...start
initial socket setup ...done 
now start server 0 ... 
                  Welcome to Q-Chem
     A Quantum Leap Into The Future Of Chemistry


 Q-Chem 5.4, Q-Chem, Inc., Pleasanton, CA (2021)

 License issued to: University of California, San Diego (site)

 E. Epifanovsky,  A. T. B. Gilbert,  Xintian Feng,  Joonho Lee,  Yuezhi Mao,  
 N. Mardirossian,  P. Pokhilko,  A. White,  M. Wormit,  M. P. Coons,  
 A. L. Dempwolff,  Zhengting Gan,  D. Hait,  P. R. Horn,  L. D. Jacobson,  
 I. Kaliman,  J. Kussmann,  A. W. Lange,  Ka Un Lao,  D. S. Levine,  Jie Liu,  
 S. C. McKenzie,  A. F. Morrison,  K. Nanda,  F. Plasser,  D. R. Rehn,  
 M. L. Vidal,  Zhi-Qiang You,  Ying Zhu,  B. Alam,  B. Albrecht,  
 A. Aldossary,  E. Alguire,  J. H. Andersen,  D. Barton,  K. Begam,  A. Behn,  
 Y. A. Bernard,  E. J. Berquist,  H. Burton,  A. Carreras,  K. Carter-Fenk,  
 R. Chakraborty,  A. D. Chien,  K. D. Closser,  V. Cofer-Shabica,  
 S. Dasgupta,  Jia Deng,  M. de Wergifosse,  M. Diedenhofen,  Hainam Do,  
 S. Ehlert,  Po-Tung Fang,  S. Fatehi,  Qingguo Feng,  J. Gayvert,  
 Qinghui Ge,  G. Gidofalvi,  M. Goldey,  J. Gomes,  C. Gonzalez-Espinoza,  
 S. Gulania,  A. Gunina,  M. W. D. Hanson-Heine,  P. H. P. Harbach,  
 A. W. Hauser,  M. F. Herbst,  M. Hernandez Vera,  M. Hodecker,  
 Z. C. Holden,  S. Houck,  Xunkun Huang,  Kerwin Hui,  B. C. Huynh,  
 M. Ivanov,  Hyunjun Ji,  Hanjie Jiang,  B. Kaduk,  S. Kaehler,  
 K. Khistyaev,  Jaehoon Kim,  P. Klunzinger,  Z. Koczor-Benda,  
 Joong Hoon Koh,  D. Kosenkov,  L. Koulias,  T. Kowalczyk,  C. M. Krauter,  
 K. Kue,  A. Kunitsa,  T. Kus,  A. Landau,  K. V. Lawler,  D. Lefrancois,  
 S. Lehtola,  Rain Li,  Yi-Pei Li,  Jiashu Liang,  M. Liebenthal,  
 Hung-Hsuan Lin,  You-Sheng Lin,  Fenglai Liu,  Kuan-Yu Liu,  
 M. Loipersberger,  A. Luenser,  A. Manjanath,  P. Manohar,  E. Mansoor,  
 S. F. Manzer,  Shan-Ping Mao,  A. V. Marenich,  T. Markovich,  S. Mason,  
 S. A. Maurer,  P. F. McLaughlin,  M. F. S. J. Menger,  J.-M. Mewes,  
 S. A. Mewes,  P. Morgante,  J. W. Mullinax,  T. S. Nguyen-Beck,  
 K. J. Oosterbaan,  G. Paran,  Alexander C. Paul,  Suranjan K. Paul,  
 F. Pavosevic,  Zheng Pei,  S. Prager,  E. I. Proynov,  E. Ramos,  B. Rana,  
 A. E. Rask,  A. Rettig,  R. M. Richard,  F. Rob,  E. Rossomme,  T. Scheele,  
 M. Scheurer,  M. Schneider,  N. Sergueev,  S. M. Sharada,  W. Skomorowski,  
 D. W. Small,  C. J. Stein,  Yu-Chuan Su,  E. J. Sundstrom,  Zhen Tao,  
 J. Thirman,  T. Tsuchimochi,  N. M. Tubman,  S. P. Veccham,  O. Vydrov,  
 J. Wenzel,  J. Witte,  A. Yamada,  Kun Yao,  S. Yeganeh,  S. R. Yost,  
 A. Zech,  Igor Ying Zhang,  Xing Zhang,  Yu Zhang,  D. Zuev,  
 A. Aspuru-Guzik,  A. T. Bell,  N. A. Besley,  K. B. Bravaya,  B. R. Brooks,  
 D. Casanova,  Jeng-Da Chai,  S. Coriani,  C. J. Cramer,  
 A. E. DePrince, III,  R. A. DiStasio Jr.,  A. Dreuw,  B. D. Dunietz,  
 T. R. Furlani,  W. A. Goddard III,  S. Grimme,  S. Hammes-Schiffer,  
 T. Head-Gordon,  W. J. Hehre,  Chao-Ping Hsu,  T.-C. Jagau,  Yousung Jung,  
 A. Klamt,  Jing Kong,  D. S. Lambrecht,  WanZhen Liang,  N. J. Mayhall,  
 C. W. McCurdy,  J. B. Neaton,  C. Ochsenfeld,  J. A. Parkhill,  R. Peverati,  
 V. A. Rassolov,  Yihan Shao,  L. V. Slipchenko,  T. Stauch,  R. P. Steele,  
 J. E. Subotnik,  A. J. W. Thom,  A. Tkatchenko,  D. G. Truhlar,  
 T. Van Voorhis,  T. A. Wesolowski,  K. B. Whaley,  H. L. Woodcock III,  
 P. M. Zimmerman,  S. Faraji,  P. M. W. Gill,  M. Head-Gordon,  
 J. M. Herbert,  A. I. Krylov

 Contributors to earlier versions of Q-Chem not listed above: 
 R. D. Adamson,  B. Austin,  R. Baer,  J. Baker,  G. J. O. Beran,  
 K. Brandhorst,  S. T. Brown,  E. F. C. Byrd,  A. K. Chakraborty,  
 G. K. L. Chan,  Chun-Min Chang,  Yunqing Chen,  C.-L. Cheng,  
 Siu Hung Chien,  D. M. Chipman,  D. L. Crittenden,  H. Dachsel,  
 R. J. Doerksen,  A. D. Dutoi,  R. G. Edgar,  J. Fosso-Tande,  
 L. Fusti-Molnar,  D. Ghosh,  A. Ghysels,  A. Golubeva-Zadorozhnaya,  
 J. Gonthier,  M. S. Gordon,  S. R. Gwaltney,  G. Hawkins,  J. E. Herr,  
 A. Heyden,  S. Hirata,  E. G. Hohenstein,  G. Kedziora,  F. J. Keil,  
 C. Kelley,  Jihan Kim,  R. A. King,  R. Z. Khaliullin,  P. P. Korambath,  
 W. Kurlancheek,  A. Laurent,  A. M. Lee,  M. S. Lee,  S. V. Levchenko,  
 Ching Yeh Lin,  D. Liotard,  E. Livshits,  R. C. Lochan,  I. Lotan,  
 L. A. Martinez-Martinez,  P. E. Maslen,  N. Nair,  D. P. O'Neill,  
 D. Neuhauser,  E. Neuscamman,  C. M. Oana,  R. Olivares-Amaya,  R. Olson,  
 T. M. Perrine,  B. Peters,  P. A. Pieniazek,  A. Prociuk,  Y. M. Rhee,  
 J. Ritchie,  M. A. Rohrdanz,  E. Rosta,  N. J. Russ,  H. F. Schaefer III,  
 M. W. Schmidt,  N. E. Schultz,  S. Sharma,  N. Shenvi,  C. D. Sherrill,  
 A. C. Simmonett,  A. Sodt,  T. Stein,  D. Stuck,  K. S. Thanthiriwatte,  
 V. Vanovschi,  L. Vogt,  Tao Wang,  A. Warshel,  M. A. Watson,  
 C. F. Williams,  Q. Wu,  X. Xu,  Jun Yang,  W. Zhang,  Yan Zhao

 Please cite Q-Chem as follows:
 Y. Shao et al., Mol. Phys. 113, 184-215 (2015)
 DOI: 10.1080/00268976.2014.952696

 Q-Chem 5.4.0 for Intel X86 EM64T Linux

 Parts of Q-Chem use Armadillo 9.800.1 (Horizon Scraper).
 http://arma.sourceforge.net/

 Q-Chem begins on Wed Dec 13 16:01:20 2023  

 Host: 
0

     Scratch files written to ./qchem270338//
 May1621 |scratch|qcdevops|jenkins|workspace|build_RNUM    
 Parallel job on  1  processors
 Processing $rem in /cm/shared/apps/spack/cpu/opt/spack/linux-centos8-zen2/gcc-10.2.0/qchem-5.4-akfmr7b3t57bfs6qan3padb2wnb2i7cl/config/preferences:
 Processing $rem in /home/rramji/.qchemrc:
 Symmetry turned off for PCM/SM12/SMD calculation
 Core orbitals will be frozen

 Checking the input file for inconsistencies... 	...done.

 Q-Chem warning in module forms1/BasisType.C, line 2236:

 You are not using the predefined 5D/6D in this basis set.


--------------------------------------------------------------
User input:
--------------------------------------------------------------
$molecule
0 1
C	-0.626855	-3.887800	-0.363176
C	0.573074	-3.701456	0.329669
C	0.940016	-2.345170	0.542250
H	1.184837	-4.545233	0.682412
C	0.000000	-1.450135	0.000000
S	-1.322686	-2.321334	-0.764076
C	2.192440	-1.934439	1.265537
H	2.768365	-2.819799	1.597559
H	1.967653	-1.326210	2.166534
H	2.860032	-1.325374	0.620843
H	-1.131925	-4.815326	-0.655262
C	0.000000	0.000000	0.000000
C	0.354153	0.766774	1.113020
C	0.937751	2.029404	0.820578
H	0.191350	0.414475	2.142881
C	1.042030	2.254581	-0.563588
S	0.406851	0.881228	-1.464748
C	1.384426	2.995779	1.882380
H	1.196413	2.589194	2.894974
H	0.849641	3.965707	1.808137
H	2.469756	3.216753	1.808230
H	1.443919	3.124243	-1.097114
$end

$rem
JOBTYPE		SP
EXCHANGE	HF
CORRELATION	pRIMP2
BASIS		cc-pvtz
METHOD		rimp2
AUX_BASIS	rimp2-cc-pvtz
SOLVENT_METHOD	PCM
PURECART	11111
SYMMETRY	false
MEM_TOTAL	110000
SCF_CONVERGENCE = 6
THRESH=10
GUI = 2
$end



$solvent
dielectric 4.90
$end
--------------------------------------------------------------
 ----------------------------------------------------------------
             Standard Nuclear Orientation (Angstroms)
    I     Atom           X                Y                Z
 ----------------------------------------------------------------
    1      C      -0.6268550000    -3.8878000000    -0.3631760000
    2      C       0.5730740000    -3.7014560000     0.3296690000
    3      C       0.9400160000    -2.3451700000     0.5422500000
    4      H       1.1848370000    -4.5452330000     0.6824120000
    5      C       0.0000000000    -1.4501350000     0.0000000000
    6      S      -1.3226860000    -2.3213340000    -0.7640760000
    7      C       2.1924400000    -1.9344390000     1.2655370000
    8      H       2.7683650000    -2.8197990000     1.5975590000
    9      H       1.9676530000    -1.3262100000     2.1665340000
   10      H       2.8600320000    -1.3253740000     0.6208430000
   11      H      -1.1319250000    -4.8153260000    -0.6552620000
   12      C       0.0000000000     0.0000000000     0.0000000000
   13      C       0.3541530000     0.7667740000     1.1130200000
   14      C       0.9377510000     2.0294040000     0.8205780000
   15      H       0.1913500000     0.4144750000     2.1428810000
   16      C       1.0420300000     2.2545810000    -0.5635880000
   17      S       0.4068510000     0.8812280000    -1.4647480000
   18      C       1.3844260000     2.9957790000     1.8823800000
   19      H       1.1964130000     2.5891940000     2.8949740000
   20      H       0.8496410000     3.9657070000     1.8081370000
   21      H       2.4697560000     3.2167530000     1.8082300000
   22      H       1.4439190000     3.1242430000    -1.0971140000
 ----------------------------------------------------------------
 Nuclear Repulsion Energy =         838.33333171 hartrees
 There are       51 alpha and       51 beta electrons
 Requested basis set is cc-pVTZ
 There are 184 shells and 508 basis functions

 Total QAlloc Memory Limit 110000 MB
 Mega-Array Size       188 MB
 MEM_STATIC part       192 MB
 Discretize the solute cavity surface with Lebedev spheres
	Using 110 Lebedev grid points for each H atom
	Using 194 Lebedev grid points for other atoms
	Atomic van der Waals radii will be scaled by 1.20
 Remove points where switching function is < 1.0e-08
 Keep 1543 surface tesserae and discard 1885 interior tesserae
 Molecular Surface Area = 234.498 Angst**2
 Requested basis set is rimp2-cc-pVTZ
 There are 394 shells and 1354 basis functions
 A cutoff of  1.0D-10 yielded  12564 shell pairs
 There are     93288 function pairs (    120368 Cartesian)
 Smallest overlap matrix eigenvalue = 6.12E-05

 Scale SEOQF with 1.000000e-01/1.000000e-01/1.000000e-01

 Standard Electronic Orientation quadrupole field applied
 Nucleus-field energy     =     0.0000000309 hartrees
 Guess from superposition of atomic densities
 Warning:  Energy on first SCF cycle will be non-variational
 SAD guess density has 102.000000 electrons

 -----------------------------------------------------------------------
  General SCF calculation program by
  Eric Jon Sundstrom, Paul Horn, Yuezhi Mao, Dmitri Zuev, Alec White,
  David Stuck, Shaama M.S., Shane Yost, Joonho Lee, David Small,
  Daniel Levine, Susi Lehtola, Hugh Burton, Evgeny Epifanovsky,
  Bang C. Huynh
 -----------------------------------------------------------------------
 Hartree-Fock
 using 64 threads for integral computing
 -------------------------------------------------------
 OpenMP Integral computing Module                
 Release: version 1.0, May 2013, Q-Chem Inc. Pittsburgh 
 -------------------------------------------------------
 A restricted SCF calculation will be
 performed using DIIS
 SCF converges when DIIS error is below 1.0e-06
 ---------------------------------------
  Cycle       Energy         DIIS error
 ---------------------------------------
    1   -1184.2073807701      2.38e-02  
    2   -1179.5367968810      1.59e-03  
    3   -1179.6565978715      6.06e-04  
    4   -1179.6699763536      3.35e-04  
    5   -1179.6746943993      6.61e-05  
    6   -1179.6749711963      3.01e-05  
    7   -1179.6750562108      1.30e-05  
    8   -1179.6750838440      5.38e-06  
    9   -1179.6750888524      1.78e-06  
   10   -1179.6750893482      5.60e-07  Convergence criterion met
 ---------------------------------------
 SCF time:   CPU 1562.37s  wall 47.00s 

************** Final PCM Free Energy Summary **************
 G_electrostatic  =      -0.00835033 hartree =      -5.23990819 kcal/mol
 G_cavitation     =       0.00000000 hartree =       0.00000000 kcal/mol
 G_dispersion     =       0.00000000 hartree =       0.00000000 kcal/mol
 G_repulsion      =       0.00000000 hartree =       0.00000000 kcal/mol
 --------------------------------------------------
 Non-electrostatic Free Energy =       0.00000000 hartree =       0.00000000 kcal/mol
 Total                         =      -0.00835033 hartree =      -5.23990819 kcal/mol
 --------------------------------------------------
 SCF Energy (H0 + V/2)                       =   -1179.67508935 
 Solute Internal Energy (H0)                 =   -1179.66673902 
 Total Free Energy (H0 + V/2 + non-elec)     =   -1179.67508935 hartree
                                             = -740257.29126880 kcal/mol
***********************************************************

 SCF   energy in the final basis set =    -1179.6750893482
 Total energy in the final basis set =    -1179.6750893482


 --------------------------------------------------------------
  Generalized many-body perturbation theory program
  by Joonho Lee, Fazle Rob, Xintian Feng, Evgeny Epifanovsky

 No regularization used 
 (reg. param. = 0.0000e+00)
  (P|Q)^-1/2 Time:  CPU 28.41 s  wall 0.47 s

 In RI-MP2 calculation: 
 # of frozen core orbitals: 20

 Components of the RIMP2 correlation energy:
        aaaa    correlation energy =        -0.2529959603 a.u.
        abab    correlation energy =        -1.4758499930 a.u.
        bbbb    correlation energy =        -0.2529959603 a.u.
        non-Brillouin singles      =        -0.0000000000 a.u.
        total same-spin energy     =        -0.5059919206 a.u.
        total opposite-spin energy =        -1.4758499930 a.u.

 Total  RIMP2   correlation energy =        -1.9818419136 a.u.
        RIMP2         total energy =     -1181.6569312618 a.u.

 RI-MP2 Energy Time:  CPU 170.00 s  wall 3.63 s
 
 --------------------------------------------------------------
 
                    Orbital Energies (a.u.)
 --------------------------------------------------------------
 
 Alpha MOs
 -- Occupied --
-91.9849 -91.9826 -11.2750 -11.2740 -11.2714 -11.2690 -11.2524 -11.2517
-11.2443 -11.2419 -11.2298 -11.2283  -8.9845  -8.9824  -6.6654  -6.6648
 -6.6642  -6.6633  -6.6628  -6.6622  -1.1794  -1.1492  -1.0402  -1.0226
 -0.9962  -0.9544  -0.9129  -0.8926  -0.7987  -0.7522  -0.7319  -0.6968
 -0.6604  -0.6164  -0.5847  -0.5801  -0.5711  -0.5655  -0.5507  -0.5338
 -0.5280  -0.5214  -0.5086  -0.4916  -0.4821  -0.4657  -0.4597  -0.3439
 -0.3414  -0.3362  -0.2891
 -- Virtual --
  0.0768   0.1113   0.1367   0.1499   0.1634   0.1770   0.1775   0.1870
  0.1932   0.1955   0.1995   0.2181   0.2322   0.2379   0.2465   0.2480
  0.2570   0.2706   0.2874   0.3100   0.3394   0.3444   0.3546   0.3758
  0.3763   0.3846   0.3993   0.4010   0.4064   0.4174   0.4195   0.4347
  0.4460   0.4510   0.4638   0.4661   0.4735   0.4849   0.4935   0.4958
  0.5056   0.5198   0.5303   0.5350   0.5411   0.5567   0.5628   0.5716
  0.5760   0.5826   0.5869   0.5980   0.6007   0.6060   0.6166   0.6216
  0.6239   0.6320   0.6366   0.6426   0.6519   0.6554   0.6619   0.6678
  0.6698   0.6819   0.6958   0.7054   0.7186   0.7396   0.7472   0.7618
  0.7646   0.7734   0.7799   0.7910   0.8062   0.8178   0.8381   0.8442
  0.8493   0.8578   0.8814   0.8835   0.9039   0.9233   0.9273   0.9376
  0.9448   0.9801   0.9911   1.0011   1.0040   1.0168   1.0236   1.0391
  1.0399   1.0545   1.0648   1.0683   1.0763   1.0876   1.0909   1.0935
  1.1063   1.1336   1.1384   1.1468   1.1604   1.1761   1.1826   1.2023
  1.2043   1.2175   1.2233   1.2319   1.2476   1.2616   1.2644   1.2680
  1.2762   1.2869   1.3034   1.3198   1.3257   1.3500   1.3555   1.3626
  1.3791   1.3938   1.4041   1.4150   1.4240   1.4421   1.4565   1.4623
  1.4804   1.4875   1.4994   1.5023   1.5306   1.5349   1.5382   1.5465
  1.5551   1.5597   1.5725   1.5791   1.5817   1.6018   1.6289   1.6318
  1.6430   1.6616   1.6734   1.6918   1.6933   1.7034   1.7116   1.7314
  1.7484   1.7573   1.7666   1.7884   1.8013   1.8227   1.8325   1.8722
  1.8827   1.8875   1.9030   1.9288   1.9410   1.9551   1.9719   1.9824
  2.0225   2.0483   2.0569   2.1053   2.1117   2.1252   2.1457   2.1714
  2.1815   2.1896   2.2014   2.2323   2.2418   2.2464   2.2642   2.2789
  2.2925   2.3154   2.3265   2.3503   2.3970   2.4087   2.4448   2.4479
  2.4830   2.4883   2.5124   2.5337   2.5558   2.5654   2.5980   2.6195
  2.6266   2.6367   2.6532   2.6658   2.6752   2.6891   2.7116   2.7262
  2.7368   2.7458   2.7519   2.7631   2.7697   2.7766   2.7917   2.8203
  2.8363   2.8417   2.8513   2.8655   2.8791   2.8967   2.9120   2.9363
  2.9565   2.9651   2.9740   2.9891   3.0000   3.0167   3.0326   3.0404
  3.0443   3.0561   3.0863   3.1008   3.1111   3.1175   3.1286   3.1421
  3.1489   3.1507   3.1606   3.1730   3.1925   3.2022   3.2170   3.2187
  3.2417   3.2512   3.2648   3.2691   3.2839   3.2896   3.3012   3.3096
  3.3161   3.3278   3.3398   3.3531   3.3580   3.3655   3.3684   3.3845
  3.3871   3.3932   3.3999   3.4069   3.4210   3.4295   3.4324   3.4453
  3.4498   3.4621   3.4776   3.4828   3.4978   3.5065   3.5159   3.5245
  3.5306   3.5396   3.5409   3.5564   3.5663   3.5733   3.5810   3.5941
  3.5950   3.6143   3.6251   3.6332   3.6448   3.6549   3.6633   3.6717
  3.6751   3.6857   3.6974   3.7081   3.7230   3.7445   3.7490   3.7602
  3.7687   3.7760   3.7786   3.7934   3.8044   3.8194   3.8412   3.8462
  3.8543   3.8703   3.8913   3.8985   3.9079   3.9284   3.9378   3.9651
  3.9692   3.9723   4.0002   4.0116   4.0129   4.0278   4.0400   4.0509
  4.0720   4.0790   4.0941   4.1023   4.1130   4.1217   4.1425   4.1522
  4.1672   4.1808   4.1909   4.1958   4.2105   4.2130   4.2249   4.2382
  4.2586   4.2642   4.2749   4.2912   4.2979   4.3157   4.3210   4.3407
  4.3508   4.3633   4.3809   4.3855   4.4020   4.4097   4.4120   4.4262
  4.4388   4.4492   4.4642   4.4790   4.4891   4.5043   4.5346   4.5578
  4.5862   4.6133   4.6172   4.6217   4.6358   4.6420   4.6612   4.6736
  4.6839   4.7200   4.7402   4.7434   4.7716   4.7813   4.8241   4.8356
  4.8684   4.9005   4.9115   4.9180   4.9345   4.9478   4.9780   5.0569
  5.0839   5.1070   5.1118   5.1441   5.1659   5.1755   5.1975   5.2387
  5.2577   5.2766   5.2906   5.3034   5.3152   5.3667   5.3740   5.3989
  5.4051   5.4437   5.4693   5.4882   5.5160   5.5200   5.5461   5.5561
  5.5694   5.5877   5.6172   5.6239   5.6413   5.6988   5.7003   5.7364
  5.7787   5.8217   5.9207   5.9439   5.9963   6.0509   6.1269   6.2274
  6.2349   6.2447   6.2833   6.2930   6.3361   6.4285   6.5559   8.7279
  9.7609  11.5885  12.0129  12.8389  13.1735  13.7442  13.9587  14.2204
 14.4082
 --------------------------------------------------------------
 
          Ground-State Mulliken Net Atomic Charges

     Atom                 Charge (a.u.)
  ----------------------------------------
      1 C                    -0.210725
      2 C                    -0.253322
      3 C                     0.066604
      4 H                     0.184926
      5 C                    -0.036305
      6 S                     0.019265
      7 C                    -0.284035
      8 H                     0.111587
      9 H                     0.107997
     10 H                     0.115714
     11 H                     0.203950
     12 C                    -0.038252
     13 C                    -0.260216
     14 C                     0.041023
     15 H                     0.191965
     16 C                    -0.236994
     17 S                     0.027697
     18 C                    -0.269553
     19 H                     0.102618
     20 H                     0.108854
     21 H                     0.107787
     22 H                     0.199414
  ----------------------------------------
  Sum of atomic charges =     0.000000

 -----------------------------------------------------------------
                    Cartesian Multipole Moments
 -----------------------------------------------------------------
    Charge (ESU x 10^10)
                -0.0000
    Dipole Moment (Debye)
         X       2.2361      Y       0.3780      Z       2.3110
       Tot       3.2379
    Quadrupole Moments (Debye-Ang)
        XX     -85.9351     XY       2.3052     YY     -70.9330
        XZ       3.2702     YZ      -0.1536     ZZ     -85.0445
    Octopole Moments (Debye-Ang^2)
       XXX     -94.6418    XXY      44.9094    XYY     -20.2591
       YYY     107.2854    XXZ      -3.3366    XYZ     -11.2497
       YYZ      -7.3546    XZZ     -28.2791    YZZ      59.5818
       ZZZ      -4.0731
    Hexadecapole Moments (Debye-Ang^3)
      XXXX    -722.3277   XXXY    -189.1476   XXYY    -545.0040
      XYYY    -119.1887   YYYY   -2453.2661   XXXZ    -159.3123
      XXYZ     -35.9782   XYYZ     -17.6485   YYYZ     -85.4265
      XXZZ    -234.5124   XYZZ     -53.8971   YYZZ    -588.9257
      XZZZ    -165.9740   YZZZ     -93.2158   ZZZZ    -677.7512
 -----------------------------------------------------------------
 Total job time:  69.04s(wall), 1842.31s(cpu) 
 Wed Dec 13 16:02:29 2023

        *************************************************************
        *                                                           *
        *  Thank you very much for using Q-Chem.  Have a nice day.  *
        *                                                           *
        *************************************************************


0 sent ACK to 0 
now end server 0 ... 
cleanup process ... done
remove work dirs ./qchem270338.0 -- ./qchem270338.0
rm -rf ./qchem270338.0
rm -rf ./qchem270338
