You are running Q-Chem version: 5.4.0

#
# job setting
#
local host:  exp-1-10
current dir: /home/rramji/project-csd799/aromodel/p3ht-qchem/rotation-run
input file:  Methylthiophene_Phi_0_Theta_110_Methylthiophene.qcin
output file: 
nprocs     : 1
nthreads   : 64
#
# qchem installation setting
#
QC:          /cm/shared/apps/spack/cpu/opt/spack/linux-centos8-zen2/gcc-10.2.0/qchem-5.4-akfmr7b3t57bfs6qan3padb2wnb2i7cl
QCAUX:       /cm/shared/apps/spack/cpu/opt/spack/linux-centos8-zen2/gcc-10.2.0/qchem-5.4-akfmr7b3t57bfs6qan3padb2wnb2i7cl/qcaux
QCPROG:      /cm/shared/apps/spack/cpu/opt/spack/linux-centos8-zen2/gcc-10.2.0/qchem-5.4-akfmr7b3t57bfs6qan3padb2wnb2i7cl/exe/qcprog.exe
QCPROG_S:    /cm/shared/apps/spack/cpu/opt/spack/linux-centos8-zen2/gcc-10.2.0/qchem-5.4-akfmr7b3t57bfs6qan3padb2wnb2i7cl/exe/qcprog.exe_s
PARALLEL:    -DPARALLEL
QCMPI:       mpich
#
# qchem directory setting
#
qcrun:       qchem1457970
QCSCRATCH:   .
QCLOCALSCR:  
QCTMPDIR:    .
QCFILEPREF:  ./qchem1457970
QCSAVEDIR:   
workdirs:    ./qchem1457970
workdir0:    ./qchem1457970
partmpdirs =  
#
# parallel setting
#
QCRSH:           ssh
QCMPI:           mpich
QCMPIRUN:        /cm/shared/apps/spack/cpu/opt/spack/linux-centos8-zen2/gcc-10.2.0/qchem-5.4-akfmr7b3t57bfs6qan3padb2wnb2i7cl/bin/mpi/mpirun_qchem
QCMACHINEFILE:   ./qchem1457970/hostfile
exp-1-10

#
# env setting
#
exported envs:   QC QCAUX QCSCRATCH QCRUNNAME QCFILEPREF QCPROG QCPROG_S GUIFILE

Running Job 1 of 1 Methylthiophene_Phi_0_Theta_110_Methylthiophene.qcin
qchem Methylthiophene_Phi_0_Theta_110_Methylthiophene.qcin_1457970.0 ./qchem1457970/ 1
/cm/shared/apps/spack/cpu/opt/spack/linux-centos8-zen2/gcc-10.2.0/qchem-5.4-akfmr7b3t57bfs6qan3padb2wnb2i7cl/bin/mpi/mpirun_qchem -machinefile ./qchem1457970/hostfile -np 1 /cm/shared/apps/spack/cpu/opt/spack/linux-centos8-zen2/gcc-10.2.0/qchem-5.4-akfmr7b3t57bfs6qan3padb2wnb2i7cl/exe/qcprog.exe Methylthiophene_Phi_0_Theta_110_Methylthiophene.qcin_1457970.0 ./qchem1457970/

Process 0 of 1 is on exp-1-10 - thread support 0
initial socket setup ...start
initial socket setup ...done 
now start server 0 ... 
                  Welcome to Q-Chem
     A Quantum Leap Into The Future Of Chemistry


 Q-Chem 5.4, Q-Chem, Inc., Pleasanton, CA (2021)

 License issued to: University of California, San Diego (site)

 E. Epifanovsky,  A. T. B. Gilbert,  Xintian Feng,  Joonho Lee,  Yuezhi Mao,  
 N. Mardirossian,  P. Pokhilko,  A. White,  M. Wormit,  M. P. Coons,  
 A. L. Dempwolff,  Zhengting Gan,  D. Hait,  P. R. Horn,  L. D. Jacobson,  
 I. Kaliman,  J. Kussmann,  A. W. Lange,  Ka Un Lao,  D. S. Levine,  Jie Liu,  
 S. C. McKenzie,  A. F. Morrison,  K. Nanda,  F. Plasser,  D. R. Rehn,  
 M. L. Vidal,  Zhi-Qiang You,  Ying Zhu,  B. Alam,  B. Albrecht,  
 A. Aldossary,  E. Alguire,  J. H. Andersen,  D. Barton,  K. Begam,  A. Behn,  
 Y. A. Bernard,  E. J. Berquist,  H. Burton,  A. Carreras,  K. Carter-Fenk,  
 R. Chakraborty,  A. D. Chien,  K. D. Closser,  V. Cofer-Shabica,  
 S. Dasgupta,  Jia Deng,  M. de Wergifosse,  M. Diedenhofen,  Hainam Do,  
 S. Ehlert,  Po-Tung Fang,  S. Fatehi,  Qingguo Feng,  J. Gayvert,  
 Qinghui Ge,  G. Gidofalvi,  M. Goldey,  J. Gomes,  C. Gonzalez-Espinoza,  
 S. Gulania,  A. Gunina,  M. W. D. Hanson-Heine,  P. H. P. Harbach,  
 A. W. Hauser,  M. F. Herbst,  M. Hernandez Vera,  M. Hodecker,  
 Z. C. Holden,  S. Houck,  Xunkun Huang,  Kerwin Hui,  B. C. Huynh,  
 M. Ivanov,  Hyunjun Ji,  Hanjie Jiang,  B. Kaduk,  S. Kaehler,  
 K. Khistyaev,  Jaehoon Kim,  P. Klunzinger,  Z. Koczor-Benda,  
 Joong Hoon Koh,  D. Kosenkov,  L. Koulias,  T. Kowalczyk,  C. M. Krauter,  
 K. Kue,  A. Kunitsa,  T. Kus,  A. Landau,  K. V. Lawler,  D. Lefrancois,  
 S. Lehtola,  Rain Li,  Yi-Pei Li,  Jiashu Liang,  M. Liebenthal,  
 Hung-Hsuan Lin,  You-Sheng Lin,  Fenglai Liu,  Kuan-Yu Liu,  
 M. Loipersberger,  A. Luenser,  A. Manjanath,  P. Manohar,  E. Mansoor,  
 S. F. Manzer,  Shan-Ping Mao,  A. V. Marenich,  T. Markovich,  S. Mason,  
 S. A. Maurer,  P. F. McLaughlin,  M. F. S. J. Menger,  J.-M. Mewes,  
 S. A. Mewes,  P. Morgante,  J. W. Mullinax,  T. S. Nguyen-Beck,  
 K. J. Oosterbaan,  G. Paran,  Alexander C. Paul,  Suranjan K. Paul,  
 F. Pavosevic,  Zheng Pei,  S. Prager,  E. I. Proynov,  E. Ramos,  B. Rana,  
 A. E. Rask,  A. Rettig,  R. M. Richard,  F. Rob,  E. Rossomme,  T. Scheele,  
 M. Scheurer,  M. Schneider,  N. Sergueev,  S. M. Sharada,  W. Skomorowski,  
 D. W. Small,  C. J. Stein,  Yu-Chuan Su,  E. J. Sundstrom,  Zhen Tao,  
 J. Thirman,  T. Tsuchimochi,  N. M. Tubman,  S. P. Veccham,  O. Vydrov,  
 J. Wenzel,  J. Witte,  A. Yamada,  Kun Yao,  S. Yeganeh,  S. R. Yost,  
 A. Zech,  Igor Ying Zhang,  Xing Zhang,  Yu Zhang,  D. Zuev,  
 A. Aspuru-Guzik,  A. T. Bell,  N. A. Besley,  K. B. Bravaya,  B. R. Brooks,  
 D. Casanova,  Jeng-Da Chai,  S. Coriani,  C. J. Cramer,  
 A. E. DePrince, III,  R. A. DiStasio Jr.,  A. Dreuw,  B. D. Dunietz,  
 T. R. Furlani,  W. A. Goddard III,  S. Grimme,  S. Hammes-Schiffer,  
 T. Head-Gordon,  W. J. Hehre,  Chao-Ping Hsu,  T.-C. Jagau,  Yousung Jung,  
 A. Klamt,  Jing Kong,  D. S. Lambrecht,  WanZhen Liang,  N. J. Mayhall,  
 C. W. McCurdy,  J. B. Neaton,  C. Ochsenfeld,  J. A. Parkhill,  R. Peverati,  
 V. A. Rassolov,  Yihan Shao,  L. V. Slipchenko,  T. Stauch,  R. P. Steele,  
 J. E. Subotnik,  A. J. W. Thom,  A. Tkatchenko,  D. G. Truhlar,  
 T. Van Voorhis,  T. A. Wesolowski,  K. B. Whaley,  H. L. Woodcock III,  
 P. M. Zimmerman,  S. Faraji,  P. M. W. Gill,  M. Head-Gordon,  
 J. M. Herbert,  A. I. Krylov

 Contributors to earlier versions of Q-Chem not listed above: 
 R. D. Adamson,  B. Austin,  R. Baer,  J. Baker,  G. J. O. Beran,  
 K. Brandhorst,  S. T. Brown,  E. F. C. Byrd,  A. K. Chakraborty,  
 G. K. L. Chan,  Chun-Min Chang,  Yunqing Chen,  C.-L. Cheng,  
 Siu Hung Chien,  D. M. Chipman,  D. L. Crittenden,  H. Dachsel,  
 R. J. Doerksen,  A. D. Dutoi,  R. G. Edgar,  J. Fosso-Tande,  
 L. Fusti-Molnar,  D. Ghosh,  A. Ghysels,  A. Golubeva-Zadorozhnaya,  
 J. Gonthier,  M. S. Gordon,  S. R. Gwaltney,  G. Hawkins,  J. E. Herr,  
 A. Heyden,  S. Hirata,  E. G. Hohenstein,  G. Kedziora,  F. J. Keil,  
 C. Kelley,  Jihan Kim,  R. A. King,  R. Z. Khaliullin,  P. P. Korambath,  
 W. Kurlancheek,  A. Laurent,  A. M. Lee,  M. S. Lee,  S. V. Levchenko,  
 Ching Yeh Lin,  D. Liotard,  E. Livshits,  R. C. Lochan,  I. Lotan,  
 L. A. Martinez-Martinez,  P. E. Maslen,  N. Nair,  D. P. O'Neill,  
 D. Neuhauser,  E. Neuscamman,  C. M. Oana,  R. Olivares-Amaya,  R. Olson,  
 T. M. Perrine,  B. Peters,  P. A. Pieniazek,  A. Prociuk,  Y. M. Rhee,  
 J. Ritchie,  M. A. Rohrdanz,  E. Rosta,  N. J. Russ,  H. F. Schaefer III,  
 M. W. Schmidt,  N. E. Schultz,  S. Sharma,  N. Shenvi,  C. D. Sherrill,  
 A. C. Simmonett,  A. Sodt,  T. Stein,  D. Stuck,  K. S. Thanthiriwatte,  
 V. Vanovschi,  L. Vogt,  Tao Wang,  A. Warshel,  M. A. Watson,  
 C. F. Williams,  Q. Wu,  X. Xu,  Jun Yang,  W. Zhang,  Yan Zhao

 Please cite Q-Chem as follows:
 Y. Shao et al., Mol. Phys. 113, 184-215 (2015)
 DOI: 10.1080/00268976.2014.952696

 Q-Chem 5.4.0 for Intel X86 EM64T Linux

 Parts of Q-Chem use Armadillo 9.800.1 (Horizon Scraper).
 http://arma.sourceforge.net/

 Q-Chem begins on Wed Dec 13 16:00:11 2023  

 Host: 
0

     Scratch files written to ./qchem1457970//
 May1621 |scratch|qcdevops|jenkins|workspace|build_RNUM    
 Parallel job on  1  processors
 Processing $rem in /cm/shared/apps/spack/cpu/opt/spack/linux-centos8-zen2/gcc-10.2.0/qchem-5.4-akfmr7b3t57bfs6qan3padb2wnb2i7cl/config/preferences:
 Processing $rem in /home/rramji/.qchemrc:
 Symmetry turned off for PCM/SM12/SMD calculation
 Core orbitals will be frozen

 Checking the input file for inconsistencies... 	...done.

 Q-Chem warning in module forms1/BasisType.C, line 2236:

 You are not using the predefined 5D/6D in this basis set.


--------------------------------------------------------------
User input:
--------------------------------------------------------------
$molecule
0 1
C	-0.680396	-3.887800	-0.248806
C	0.621614	-3.701456	0.225147
C	1.019896	-2.345170	0.370780
H	1.285337	-4.545233	0.466300
C	0.000000	-1.450135	0.000000
S	-1.435271	-2.321334	-0.522786
C	2.378891	-1.934439	0.865597
H	3.003720	-2.819799	1.092567
H	2.313975	-1.326210	1.791940
H	2.924390	-1.325374	0.114772
H	-1.228514	-4.815326	-0.448750
C	0.000000	0.000000	0.000000
C	-0.003081	0.844605	1.113020
C	-0.007772	2.235575	0.820578
H	-0.001743	0.456510	2.142881
C	-0.008427	2.483726	-0.563588
S	-0.003691	0.970607	-1.464748
C	-0.011355	3.300181	1.882380
H	-0.009922	2.852233	2.894974
H	-0.905944	3.953225	1.808137
H	0.878901	3.959133	1.808230
H	-0.011727	3.441752	-1.097114
$end

$rem
JOBTYPE		SP
EXCHANGE	HF
CORRELATION	pRIMP2
BASIS		cc-pvtz
METHOD		rimp2
AUX_BASIS	rimp2-cc-pvtz
SOLVENT_METHOD	PCM
PURECART	11111
SYMMETRY	false
MEM_TOTAL	110000
SCF_CONVERGENCE = 6
THRESH=10
GUI = 2
$end



$solvent
dielectric 4.90
$end
--------------------------------------------------------------
 ----------------------------------------------------------------
             Standard Nuclear Orientation (Angstroms)
    I     Atom           X                Y                Z
 ----------------------------------------------------------------
    1      C      -0.6803960000    -3.8878000000    -0.2488060000
    2      C       0.6216140000    -3.7014560000     0.2251470000
    3      C       1.0198960000    -2.3451700000     0.3707800000
    4      H       1.2853370000    -4.5452330000     0.4663000000
    5      C       0.0000000000    -1.4501350000     0.0000000000
    6      S      -1.4352710000    -2.3213340000    -0.5227860000
    7      C       2.3788910000    -1.9344390000     0.8655970000
    8      H       3.0037200000    -2.8197990000     1.0925670000
    9      H       2.3139750000    -1.3262100000     1.7919400000
   10      H       2.9243900000    -1.3253740000     0.1147720000
   11      H      -1.2285140000    -4.8153260000    -0.4487500000
   12      C       0.0000000000     0.0000000000     0.0000000000
   13      C      -0.0030810000     0.8446050000     1.1130200000
   14      C      -0.0077720000     2.2355750000     0.8205780000
   15      H      -0.0017430000     0.4565100000     2.1428810000
   16      C      -0.0084270000     2.4837260000    -0.5635880000
   17      S      -0.0036910000     0.9706070000    -1.4647480000
   18      C      -0.0113550000     3.3001810000     1.8823800000
   19      H      -0.0099220000     2.8522330000     2.8949740000
   20      H      -0.9059440000     3.9532250000     1.8081370000
   21      H       0.8789010000     3.9591330000     1.8082300000
   22      H      -0.0117270000     3.4417520000    -1.0971140000
 ----------------------------------------------------------------
 Nuclear Repulsion Energy =         832.22966366 hartrees
 There are       51 alpha and       51 beta electrons
 Requested basis set is cc-pVTZ
 There are 184 shells and 508 basis functions

 Total QAlloc Memory Limit 110000 MB
 Mega-Array Size       188 MB
 MEM_STATIC part       192 MB
 Discretize the solute cavity surface with Lebedev spheres
	Using 110 Lebedev grid points for each H atom
	Using 194 Lebedev grid points for other atoms
	Atomic van der Waals radii will be scaled by 1.20
 Remove points where switching function is < 1.0e-08
 Keep 1574 surface tesserae and discard 1854 interior tesserae
 Molecular Surface Area = 238.058 Angst**2
 Requested basis set is rimp2-cc-pVTZ
 There are 394 shells and 1354 basis functions
 A cutoff of  1.0D-10 yielded  12232 shell pairs
 There are     90912 function pairs (    117436 Cartesian)
 Smallest overlap matrix eigenvalue = 6.87E-05

 Scale SEOQF with 1.000000e-01/1.000000e-01/1.000000e-01

 Standard Electronic Orientation quadrupole field applied
 Nucleus-field energy     =     0.0000000344 hartrees
 Guess from superposition of atomic densities
 Warning:  Energy on first SCF cycle will be non-variational
 SAD guess density has 102.000000 electrons

 -----------------------------------------------------------------------
  General SCF calculation program by
  Eric Jon Sundstrom, Paul Horn, Yuezhi Mao, Dmitri Zuev, Alec White,
  David Stuck, Shaama M.S., Shane Yost, Joonho Lee, David Small,
  Daniel Levine, Susi Lehtola, Hugh Burton, Evgeny Epifanovsky,
  Bang C. Huynh
 -----------------------------------------------------------------------
 Hartree-Fock
 using 64 threads for integral computing
 -------------------------------------------------------
 OpenMP Integral computing Module                
 Release: version 1.0, May 2013, Q-Chem Inc. Pittsburgh 
 -------------------------------------------------------
 A restricted SCF calculation will be
 performed using DIIS
 SCF converges when DIIS error is below 1.0e-06
 ---------------------------------------
  Cycle       Energy         DIIS error
 ---------------------------------------
    1   -1184.1825499774      2.38e-02  
    2   -1179.5477970920      1.60e-03  
    3   -1179.6673253874      6.20e-04  
    4   -1179.6809267223      3.43e-04  
    5   -1179.6858368119      6.73e-05  
    6   -1179.6861166864      3.04e-05  
    7   -1179.6862022228      1.26e-05  
    8   -1179.6862293189      5.32e-06  
    9   -1179.6862341321      1.65e-06  
   10   -1179.6862345720      5.17e-07  Convergence criterion met
 ---------------------------------------
 SCF time:   CPU 1497.69s  wall 46.00s 

************** Final PCM Free Energy Summary **************
 G_electrostatic  =      -0.00795767 hartree =      -4.99351598 kcal/mol
 G_cavitation     =       0.00000000 hartree =       0.00000000 kcal/mol
 G_dispersion     =       0.00000000 hartree =       0.00000000 kcal/mol
 G_repulsion      =       0.00000000 hartree =       0.00000000 kcal/mol
 --------------------------------------------------
 Non-electrostatic Free Energy =       0.00000000 hartree =       0.00000000 kcal/mol
 Total                         =      -0.00795767 hartree =      -4.99351598 kcal/mol
 --------------------------------------------------
 SCF Energy (H0 + V/2)                       =   -1179.68623457 
 Solute Internal Energy (H0)                 =   -1179.67827690 
 Total Free Energy (H0 + V/2 + non-elec)     =   -1179.68623457 hartree
                                             = -740264.28500225 kcal/mol
***********************************************************

 SCF   energy in the final basis set =    -1179.6862345720
 Total energy in the final basis set =    -1179.6862345720


 --------------------------------------------------------------
  Generalized many-body perturbation theory program
  by Joonho Lee, Fazle Rob, Xintian Feng, Evgeny Epifanovsky

 No regularization used 
 (reg. param. = 0.0000e+00)
  (P|Q)^-1/2 Time:  CPU 35.49 s  wall 0.63 s

 In RI-MP2 calculation: 
 # of frozen core orbitals: 20

 Components of the RIMP2 correlation energy:
        aaaa    correlation energy =        -0.2521373753 a.u.
        abab    correlation energy =        -1.4733769143 a.u.
        bbbb    correlation energy =        -0.2521373753 a.u.
        non-Brillouin singles      =        -0.0000000000 a.u.
        total same-spin energy     =        -0.5042747506 a.u.
        total opposite-spin energy =        -1.4733769143 a.u.

 Total  RIMP2   correlation energy =        -1.9776516650 a.u.
        RIMP2         total energy =     -1181.6638862370 a.u.

 RI-MP2 Energy Time:  CPU 185.26 s  wall 3.92 s
 
 --------------------------------------------------------------
 
                    Orbital Energies (a.u.)
 --------------------------------------------------------------
 
 Alpha MOs
 -- Occupied --
-91.9858 -91.9853 -11.2796 -11.2741 -11.2730 -11.2648 -11.2539 -11.2511
-11.2424 -11.2413 -11.2292 -11.2292  -8.9853  -8.9849  -6.6662  -6.6658
 -6.6656  -6.6652  -6.6650  -6.6646  -1.1780  -1.1497  -1.0393  -1.0233
 -0.9963  -0.9546  -0.9129  -0.8928  -0.8004  -0.7525  -0.7308  -0.6956
 -0.6621  -0.6163  -0.5831  -0.5796  -0.5702  -0.5676  -0.5516  -0.5317
 -0.5296  -0.5201  -0.5070  -0.4919  -0.4889  -0.4663  -0.4616  -0.3470
 -0.3387  -0.3291  -0.2966
 -- Virtual --
  0.0850   0.1092   0.1411   0.1492   0.1624   0.1759   0.1769   0.1885
  0.1909   0.1954   0.2005   0.2179   0.2322   0.2336   0.2414   0.2460
  0.2515   0.2739   0.2886   0.3080   0.3386   0.3475   0.3606   0.3646
  0.3762   0.3831   0.3921   0.3957   0.4047   0.4115   0.4194   0.4332
  0.4430   0.4543   0.4683   0.4705   0.4759   0.4836   0.4919   0.4999
  0.5102   0.5116   0.5241   0.5371   0.5456   0.5518   0.5612   0.5655
  0.5712   0.5853   0.5944   0.5967   0.6033   0.6066   0.6111   0.6205
  0.6257   0.6310   0.6362   0.6451   0.6494   0.6550   0.6569   0.6608
  0.6683   0.6808   0.6910   0.7073   0.7170   0.7274   0.7387   0.7535
  0.7677   0.7788   0.7888   0.7995   0.8154   0.8353   0.8385   0.8411
  0.8464   0.8538   0.8726   0.8908   0.9028   0.9217   0.9383   0.9431
  0.9448   0.9552   0.9746   0.9881   1.0052   1.0172   1.0213   1.0265
  1.0406   1.0497   1.0599   1.0678   1.0736   1.0829   1.0905   1.0984
  1.1060   1.1167   1.1263   1.1473   1.1591   1.1703   1.1818   1.1991
  1.2027   1.2158   1.2205   1.2289   1.2467   1.2528   1.2540   1.2649
  1.2804   1.2857   1.3024   1.3250   1.3337   1.3446   1.3543   1.3721
  1.3791   1.3883   1.4039   1.4118   1.4176   1.4319   1.4520   1.4755
  1.4775   1.4808   1.4986   1.5051   1.5161   1.5308   1.5385   1.5490
  1.5570   1.5647   1.5707   1.5842   1.5882   1.6041   1.6051   1.6289
  1.6499   1.6541   1.6732   1.6921   1.6934   1.7062   1.7238   1.7299
  1.7486   1.7597   1.7667   1.7857   1.7992   1.8129   1.8232   1.8585
  1.8783   1.8928   1.9035   1.9150   1.9366   1.9459   1.9574   1.9805
  2.0188   2.0454   2.0517   2.0973   2.1256   2.1263   2.1548   2.1753
  2.1900   2.1971   2.2000   2.2125   2.2297   2.2452   2.2645   2.2824
  2.2959   2.3082   2.3311   2.3985   2.4048   2.4197   2.4377   2.4525
  2.4722   2.4931   2.5128   2.5270   2.5465   2.5586   2.5830   2.6026
  2.6096   2.6301   2.6392   2.6596   2.6733   2.6855   2.7161   2.7265
  2.7329   2.7413   2.7475   2.7579   2.7627   2.7735   2.7970   2.8028
  2.8272   2.8428   2.8515   2.8654   2.8735   2.8842   2.9077   2.9217
  2.9293   2.9644   2.9744   2.9877   2.9929   3.0147   3.0249   3.0360
  3.0442   3.0742   3.0976   3.1104   3.1171   3.1284   3.1345   3.1411
  3.1510   3.1584   3.1645   3.1814   3.1891   3.1992   3.2169   3.2249
  3.2343   3.2442   3.2552   3.2707   3.2824   3.2921   3.3007   3.3060
  3.3260   3.3309   3.3421   3.3447   3.3511   3.3575   3.3619   3.3783
  3.3816   3.3869   3.3977   3.4016   3.4228   3.4269   3.4316   3.4382
  3.4480   3.4628   3.4659   3.4753   3.4926   3.5053   3.5155   3.5226
  3.5292   3.5299   3.5436   3.5527   3.5590   3.5671   3.5841   3.5937
  3.6109   3.6164   3.6270   3.6285   3.6339   3.6406   3.6500   3.6658
  3.6694   3.6838   3.6968   3.7017   3.7170   3.7220   3.7376   3.7538
  3.7600   3.7762   3.7853   3.7972   3.8032   3.8178   3.8345   3.8400
  3.8604   3.8723   3.8812   3.9042   3.9067   3.9250   3.9475   3.9639
  3.9754   3.9884   3.9991   4.0029   4.0130   4.0238   4.0349   4.0533
  4.0746   4.0853   4.0901   4.1055   4.1161   4.1367   4.1423   4.1479
  4.1552   4.1763   4.1933   4.1956   4.1991   4.2036   4.2166   4.2353
  4.2429   4.2618   4.2650   4.2862   4.2918   4.3113   4.3242   4.3300
  4.3484   4.3622   4.3787   4.3871   4.4001   4.4043   4.4090   4.4259
  4.4298   4.4406   4.4579   4.4806   4.4884   4.4995   4.5315   4.5641
  4.5870   4.5968   4.6035   4.6170   4.6356   4.6387   4.6577   4.6685
  4.6999   4.7236   4.7415   4.7527   4.7704   4.7782   4.8117   4.8262
  4.8713   4.8879   4.9080   4.9148   4.9585   4.9793   5.0031   5.0549
  5.1022   5.1075   5.1130   5.1314   5.1680   5.1837   5.2006   5.2555
  5.2686   5.2795   5.2884   5.3017   5.3240   5.3684   5.3914   5.3963
  5.4166   5.4456   5.4672   5.4903   5.5176   5.5304   5.5461   5.5529
  5.5686   5.6123   5.6188   5.6231   5.6355   5.6684   5.6969   5.7140
  5.7737   5.8256   5.9102   5.9619   6.0061   6.0679   6.1361   6.2248
  6.2335   6.2479   6.2754   6.3052   6.3200   6.4388   6.5186   8.8469
  9.9136  11.6825  11.9611  12.9138  13.0256  13.7511  13.9794  14.2269
 14.3022
 --------------------------------------------------------------
 
          Ground-State Mulliken Net Atomic Charges

     Atom                 Charge (a.u.)
  ----------------------------------------
      1 C                    -0.212296
      2 C                    -0.248955
      3 C                     0.047040
      4 H                     0.185426
      5 C                    -0.047038
      6 S                     0.024675
      7 C                    -0.282286
      8 H                     0.108957
      9 H                     0.108893
     10 H                     0.112037
     11 H                     0.204334
     12 C                    -0.011024
     13 C                    -0.225106
     14 C                     0.015590
     15 H                     0.187811
     16 C                    -0.238567
     17 S                     0.024666
     18 C                    -0.271538
     19 H                     0.102666
     20 H                     0.108513
     21 H                     0.107838
     22 H                     0.198365
  ----------------------------------------
  Sum of atomic charges =     0.000000

 -----------------------------------------------------------------
                    Cartesian Multipole Moments
 -----------------------------------------------------------------
    Charge (ESU x 10^10)
                -0.0000
    Dipole Moment (Debye)
         X       1.4235      Y       0.2314      Z       1.9989
       Tot       2.4649
    Quadrupole Moments (Debye-Ang)
        XX     -86.9192     XY      -2.1226     YY     -68.6959
        XZ       2.1141     YZ       0.3651     ZZ     -85.9826
    Octopole Moments (Debye-Ang^2)
       XXX      -5.5420    XXY      27.1656    XYY      -5.4726
       YYY      94.3416    XXZ      -2.6258    XYZ      -7.8383
       YYZ      -6.7685    XZZ      -2.4129    YZZ      56.7361
       ZZZ      -3.2302
    Hexadecapole Moments (Debye-Ang^3)
      XXXX    -617.4783   XXXY      -5.1988   XXYY    -563.4375
      XYYY      35.6951   YYYY   -2579.2809   XXXZ     -85.0169
      XXYZ     -35.3185   XYYZ       2.5948   YYYZ    -102.9739
      XXZZ    -212.3806   XYZZ      -0.1442   YYZZ    -613.3078
      XZZZ     -91.8669   YZZZ    -102.5181   ZZZZ    -602.3717
 -----------------------------------------------------------------
 Total job time:  52.84s(wall), 1761.65s(cpu) 
 Wed Dec 13 16:01:04 2023

        *************************************************************
        *                                                           *
        *  Thank you very much for using Q-Chem.  Have a nice day.  *
        *                                                           *
        *************************************************************


0 sent ACK to 0 
now end server 0 ... 
cleanup process ... done
remove work dirs ./qchem1457970.0 -- ./qchem1457970.0
rm -rf ./qchem1457970.0
rm -rf ./qchem1457970
