You are running Q-Chem version: 5.4.0

#
# job setting
#
local host:  exp-1-10
current dir: /home/rramji/project-csd799/aromodel/p3ht-qchem/rotation-run
input file:  Methylthiophene_Phi_0_Theta_50_Methylthiophene.qcin
output file: 
nprocs     : 1
nthreads   : 64
#
# qchem installation setting
#
QC:          /cm/shared/apps/spack/cpu/opt/spack/linux-centos8-zen2/gcc-10.2.0/qchem-5.4-akfmr7b3t57bfs6qan3padb2wnb2i7cl
QCAUX:       /cm/shared/apps/spack/cpu/opt/spack/linux-centos8-zen2/gcc-10.2.0/qchem-5.4-akfmr7b3t57bfs6qan3padb2wnb2i7cl/qcaux
QCPROG:      /cm/shared/apps/spack/cpu/opt/spack/linux-centos8-zen2/gcc-10.2.0/qchem-5.4-akfmr7b3t57bfs6qan3padb2wnb2i7cl/exe/qcprog.exe
QCPROG_S:    /cm/shared/apps/spack/cpu/opt/spack/linux-centos8-zen2/gcc-10.2.0/qchem-5.4-akfmr7b3t57bfs6qan3padb2wnb2i7cl/exe/qcprog.exe_s
PARALLEL:    -DPARALLEL
QCMPI:       mpich
#
# qchem directory setting
#
qcrun:       qchem1455667
QCSCRATCH:   .
QCLOCALSCR:  
QCTMPDIR:    .
QCFILEPREF:  ./qchem1455667
QCSAVEDIR:   
workdirs:    ./qchem1455667
workdir0:    ./qchem1455667
partmpdirs =  
#
# parallel setting
#
QCRSH:           ssh
QCMPI:           mpich
QCMPIRUN:        /cm/shared/apps/spack/cpu/opt/spack/linux-centos8-zen2/gcc-10.2.0/qchem-5.4-akfmr7b3t57bfs6qan3padb2wnb2i7cl/bin/mpi/mpirun_qchem
QCMACHINEFILE:   ./qchem1455667/hostfile
exp-1-10

#
# env setting
#
exported envs:   QC QCAUX QCSCRATCH QCRUNNAME QCFILEPREF QCPROG QCPROG_S GUIFILE

Running Job 1 of 1 Methylthiophene_Phi_0_Theta_50_Methylthiophene.qcin
qchem Methylthiophene_Phi_0_Theta_50_Methylthiophene.qcin_1455667.0 ./qchem1455667/ 1
/cm/shared/apps/spack/cpu/opt/spack/linux-centos8-zen2/gcc-10.2.0/qchem-5.4-akfmr7b3t57bfs6qan3padb2wnb2i7cl/bin/mpi/mpirun_qchem -machinefile ./qchem1455667/hostfile -np 1 /cm/shared/apps/spack/cpu/opt/spack/linux-centos8-zen2/gcc-10.2.0/qchem-5.4-akfmr7b3t57bfs6qan3padb2wnb2i7cl/exe/qcprog.exe Methylthiophene_Phi_0_Theta_50_Methylthiophene.qcin_1455667.0 ./qchem1455667/

Process 0 of 1 is on exp-1-10 - thread support 0
initial socket setup ...start
initial socket setup ...done 
now start server 0 ... 
                  Welcome to Q-Chem
     A Quantum Leap Into The Future Of Chemistry


 Q-Chem 5.4, Q-Chem, Inc., Pleasanton, CA (2021)

 License issued to: University of California, San Diego (site)

 E. Epifanovsky,  A. T. B. Gilbert,  Xintian Feng,  Joonho Lee,  Yuezhi Mao,  
 N. Mardirossian,  P. Pokhilko,  A. White,  M. Wormit,  M. P. Coons,  
 A. L. Dempwolff,  Zhengting Gan,  D. Hait,  P. R. Horn,  L. D. Jacobson,  
 I. Kaliman,  J. Kussmann,  A. W. Lange,  Ka Un Lao,  D. S. Levine,  Jie Liu,  
 S. C. McKenzie,  A. F. Morrison,  K. Nanda,  F. Plasser,  D. R. Rehn,  
 M. L. Vidal,  Zhi-Qiang You,  Ying Zhu,  B. Alam,  B. Albrecht,  
 A. Aldossary,  E. Alguire,  J. H. Andersen,  D. Barton,  K. Begam,  A. Behn,  
 Y. A. Bernard,  E. J. Berquist,  H. Burton,  A. Carreras,  K. Carter-Fenk,  
 R. Chakraborty,  A. D. Chien,  K. D. Closser,  V. Cofer-Shabica,  
 S. Dasgupta,  Jia Deng,  M. de Wergifosse,  M. Diedenhofen,  Hainam Do,  
 S. Ehlert,  Po-Tung Fang,  S. Fatehi,  Qingguo Feng,  J. Gayvert,  
 Qinghui Ge,  G. Gidofalvi,  M. Goldey,  J. Gomes,  C. Gonzalez-Espinoza,  
 S. Gulania,  A. Gunina,  M. W. D. Hanson-Heine,  P. H. P. Harbach,  
 A. W. Hauser,  M. F. Herbst,  M. Hernandez Vera,  M. Hodecker,  
 Z. C. Holden,  S. Houck,  Xunkun Huang,  Kerwin Hui,  B. C. Huynh,  
 M. Ivanov,  Hyunjun Ji,  Hanjie Jiang,  B. Kaduk,  S. Kaehler,  
 K. Khistyaev,  Jaehoon Kim,  P. Klunzinger,  Z. Koczor-Benda,  
 Joong Hoon Koh,  D. Kosenkov,  L. Koulias,  T. Kowalczyk,  C. M. Krauter,  
 K. Kue,  A. Kunitsa,  T. Kus,  A. Landau,  K. V. Lawler,  D. Lefrancois,  
 S. Lehtola,  Rain Li,  Yi-Pei Li,  Jiashu Liang,  M. Liebenthal,  
 Hung-Hsuan Lin,  You-Sheng Lin,  Fenglai Liu,  Kuan-Yu Liu,  
 M. Loipersberger,  A. Luenser,  A. Manjanath,  P. Manohar,  E. Mansoor,  
 S. F. Manzer,  Shan-Ping Mao,  A. V. Marenich,  T. Markovich,  S. Mason,  
 S. A. Maurer,  P. F. McLaughlin,  M. F. S. J. Menger,  J.-M. Mewes,  
 S. A. Mewes,  P. Morgante,  J. W. Mullinax,  T. S. Nguyen-Beck,  
 K. J. Oosterbaan,  G. Paran,  Alexander C. Paul,  Suranjan K. Paul,  
 F. Pavosevic,  Zheng Pei,  S. Prager,  E. I. Proynov,  E. Ramos,  B. Rana,  
 A. E. Rask,  A. Rettig,  R. M. Richard,  F. Rob,  E. Rossomme,  T. Scheele,  
 M. Scheurer,  M. Schneider,  N. Sergueev,  S. M. Sharada,  W. Skomorowski,  
 D. W. Small,  C. J. Stein,  Yu-Chuan Su,  E. J. Sundstrom,  Zhen Tao,  
 J. Thirman,  T. Tsuchimochi,  N. M. Tubman,  S. P. Veccham,  O. Vydrov,  
 J. Wenzel,  J. Witte,  A. Yamada,  Kun Yao,  S. Yeganeh,  S. R. Yost,  
 A. Zech,  Igor Ying Zhang,  Xing Zhang,  Yu Zhang,  D. Zuev,  
 A. Aspuru-Guzik,  A. T. Bell,  N. A. Besley,  K. B. Bravaya,  B. R. Brooks,  
 D. Casanova,  Jeng-Da Chai,  S. Coriani,  C. J. Cramer,  
 A. E. DePrince, III,  R. A. DiStasio Jr.,  A. Dreuw,  B. D. Dunietz,  
 T. R. Furlani,  W. A. Goddard III,  S. Grimme,  S. Hammes-Schiffer,  
 T. Head-Gordon,  W. J. Hehre,  Chao-Ping Hsu,  T.-C. Jagau,  Yousung Jung,  
 A. Klamt,  Jing Kong,  D. S. Lambrecht,  WanZhen Liang,  N. J. Mayhall,  
 C. W. McCurdy,  J. B. Neaton,  C. Ochsenfeld,  J. A. Parkhill,  R. Peverati,  
 V. A. Rassolov,  Yihan Shao,  L. V. Slipchenko,  T. Stauch,  R. P. Steele,  
 J. E. Subotnik,  A. J. W. Thom,  A. Tkatchenko,  D. G. Truhlar,  
 T. Van Voorhis,  T. A. Wesolowski,  K. B. Whaley,  H. L. Woodcock III,  
 P. M. Zimmerman,  S. Faraji,  P. M. W. Gill,  M. Head-Gordon,  
 J. M. Herbert,  A. I. Krylov

 Contributors to earlier versions of Q-Chem not listed above: 
 R. D. Adamson,  B. Austin,  R. Baer,  J. Baker,  G. J. O. Beran,  
 K. Brandhorst,  S. T. Brown,  E. F. C. Byrd,  A. K. Chakraborty,  
 G. K. L. Chan,  Chun-Min Chang,  Yunqing Chen,  C.-L. Cheng,  
 Siu Hung Chien,  D. M. Chipman,  D. L. Crittenden,  H. Dachsel,  
 R. J. Doerksen,  A. D. Dutoi,  R. G. Edgar,  J. Fosso-Tande,  
 L. Fusti-Molnar,  D. Ghosh,  A. Ghysels,  A. Golubeva-Zadorozhnaya,  
 J. Gonthier,  M. S. Gordon,  S. R. Gwaltney,  G. Hawkins,  J. E. Herr,  
 A. Heyden,  S. Hirata,  E. G. Hohenstein,  G. Kedziora,  F. J. Keil,  
 C. Kelley,  Jihan Kim,  R. A. King,  R. Z. Khaliullin,  P. P. Korambath,  
 W. Kurlancheek,  A. Laurent,  A. M. Lee,  M. S. Lee,  S. V. Levchenko,  
 Ching Yeh Lin,  D. Liotard,  E. Livshits,  R. C. Lochan,  I. Lotan,  
 L. A. Martinez-Martinez,  P. E. Maslen,  N. Nair,  D. P. O'Neill,  
 D. Neuhauser,  E. Neuscamman,  C. M. Oana,  R. Olivares-Amaya,  R. Olson,  
 T. M. Perrine,  B. Peters,  P. A. Pieniazek,  A. Prociuk,  Y. M. Rhee,  
 J. Ritchie,  M. A. Rohrdanz,  E. Rosta,  N. J. Russ,  H. F. Schaefer III,  
 M. W. Schmidt,  N. E. Schultz,  S. Sharma,  N. Shenvi,  C. D. Sherrill,  
 A. C. Simmonett,  A. Sodt,  T. Stein,  D. Stuck,  K. S. Thanthiriwatte,  
 V. Vanovschi,  L. Vogt,  Tao Wang,  A. Warshel,  M. A. Watson,  
 C. F. Williams,  Q. Wu,  X. Xu,  Jun Yang,  W. Zhang,  Yan Zhao

 Please cite Q-Chem as follows:
 Y. Shao et al., Mol. Phys. 113, 184-215 (2015)
 DOI: 10.1080/00268976.2014.952696

 Q-Chem 5.4.0 for Intel X86 EM64T Linux

 Parts of Q-Chem use Armadillo 9.800.1 (Horizon Scraper).
 http://arma.sourceforge.net/

 Q-Chem begins on Wed Dec 13 15:53:59 2023  

 Host: 
0

     Scratch files written to ./qchem1455667//
 May1621 |scratch|qcdevops|jenkins|workspace|build_RNUM    
 Parallel job on  1  processors
 Processing $rem in /cm/shared/apps/spack/cpu/opt/spack/linux-centos8-zen2/gcc-10.2.0/qchem-5.4-akfmr7b3t57bfs6qan3padb2wnb2i7cl/config/preferences:
 Processing $rem in /home/rramji/.qchemrc:
 Symmetry turned off for PCM/SM12/SMD calculation
 Core orbitals will be frozen

 Checking the input file for inconsistencies... 	...done.

 Q-Chem warning in module forms1/BasisType.C, line 2236:

 You are not using the predefined 5D/6D in this basis set.


--------------------------------------------------------------
User input:
--------------------------------------------------------------
$molecule
0 1
C	-0.555670	-3.887800	0.464838
C	0.505790	-3.701456	-0.425760
C	0.831053	-2.345170	-0.697866
H	1.046496	-4.545233	-0.879984
C	0.000000	-1.450135	0.000000
S	-1.170382	-2.321334	0.981588
C	1.939074	-1.934439	-1.627381
H	2.448051	-2.819799	-2.055015
H	2.708853	-1.326210	-1.107991
H	1.561590	-1.325374	-2.475210
H	-1.002886	-4.815326	0.839549
C	0.000000	0.000000	0.000000
C	-0.003081	0.844605	1.113020
C	-0.007772	2.235575	0.820578
H	-0.001743	0.456510	2.142881
C	-0.008427	2.483726	-0.563588
S	-0.003691	0.970607	-1.464748
C	-0.011355	3.300181	1.882380
H	-0.009922	2.852233	2.894974
H	-0.905944	3.953225	1.808137
H	0.878901	3.959133	1.808230
H	-0.011727	3.441752	-1.097114
$end

$rem
JOBTYPE		SP
EXCHANGE	HF
CORRELATION	pRIMP2
BASIS		cc-pvtz
METHOD		rimp2
AUX_BASIS	rimp2-cc-pvtz
SOLVENT_METHOD	PCM
PURECART	11111
SYMMETRY	false
MEM_TOTAL	110000
SCF_CONVERGENCE = 6
THRESH=10
GUI = 2
$end



$solvent
dielectric 4.90
$end
--------------------------------------------------------------
 ----------------------------------------------------------------
             Standard Nuclear Orientation (Angstroms)
    I     Atom           X                Y                Z
 ----------------------------------------------------------------
    1      C      -0.5556700000    -3.8878000000     0.4648380000
    2      C       0.5057900000    -3.7014560000    -0.4257600000
    3      C       0.8310530000    -2.3451700000    -0.6978660000
    4      H       1.0464960000    -4.5452330000    -0.8799840000
    5      C       0.0000000000    -1.4501350000     0.0000000000
    6      S      -1.1703820000    -2.3213340000     0.9815880000
    7      C       1.9390740000    -1.9344390000    -1.6273810000
    8      H       2.4480510000    -2.8197990000    -2.0550150000
    9      H       2.7088530000    -1.3262100000    -1.1079910000
   10      H       1.5615900000    -1.3253740000    -2.4752100000
   11      H      -1.0028860000    -4.8153260000     0.8395490000
   12      C       0.0000000000     0.0000000000     0.0000000000
   13      C      -0.0030810000     0.8446050000     1.1130200000
   14      C      -0.0077720000     2.2355750000     0.8205780000
   15      H      -0.0017430000     0.4565100000     2.1428810000
   16      C      -0.0084270000     2.4837260000    -0.5635880000
   17      S      -0.0036910000     0.9706070000    -1.4647480000
   18      C      -0.0113550000     3.3001810000     1.8823800000
   19      H      -0.0099220000     2.8522330000     2.8949740000
   20      H      -0.9059440000     3.9532250000     1.8081370000
   21      H       0.8789010000     3.9591330000     1.8082300000
   22      H      -0.0117270000     3.4417520000    -1.0971140000
 ----------------------------------------------------------------
 Nuclear Repulsion Energy =         833.77394510 hartrees
 There are       51 alpha and       51 beta electrons
 Requested basis set is cc-pVTZ
 There are 184 shells and 508 basis functions

 Total QAlloc Memory Limit 110000 MB
 Mega-Array Size       188 MB
 MEM_STATIC part       192 MB
 Discretize the solute cavity surface with Lebedev spheres
	Using 110 Lebedev grid points for each H atom
	Using 194 Lebedev grid points for other atoms
	Atomic van der Waals radii will be scaled by 1.20
 Remove points where switching function is < 1.0e-08
 Keep 1544 surface tesserae and discard 1884 interior tesserae
 Molecular Surface Area = 234.802 Angst**2
 Requested basis set is rimp2-cc-pVTZ
 There are 394 shells and 1354 basis functions
 A cutoff of  1.0D-10 yielded  12177 shell pairs
 There are     90581 function pairs (    116987 Cartesian)
 Smallest overlap matrix eigenvalue = 6.20E-05

 Scale SEOQF with 1.000000e-01/1.000000e-01/1.000000e-01

 Standard Electronic Orientation quadrupole field applied
 Nucleus-field energy     =     0.0000000295 hartrees
 Guess from superposition of atomic densities
 Warning:  Energy on first SCF cycle will be non-variational
 SAD guess density has 102.000000 electrons

 -----------------------------------------------------------------------
  General SCF calculation program by
  Eric Jon Sundstrom, Paul Horn, Yuezhi Mao, Dmitri Zuev, Alec White,
  David Stuck, Shaama M.S., Shane Yost, Joonho Lee, David Small,
  Daniel Levine, Susi Lehtola, Hugh Burton, Evgeny Epifanovsky,
  Bang C. Huynh
 -----------------------------------------------------------------------
 Hartree-Fock
 using 64 threads for integral computing
 -------------------------------------------------------
 OpenMP Integral computing Module                
 Release: version 1.0, May 2013, Q-Chem Inc. Pittsburgh 
 -------------------------------------------------------
 A restricted SCF calculation will be
 performed using DIIS
 SCF converges when DIIS error is below 1.0e-06
 ---------------------------------------
  Cycle       Energy         DIIS error
 ---------------------------------------
    1   -1184.1955446809      2.38e-02  
    2   -1179.5479831149      1.60e-03  
    3   -1179.6681834300      6.17e-04  
    4   -1179.6818264877      3.37e-04  
    5   -1179.6865820189      6.60e-05  
    6   -1179.6868619939      3.05e-05  
    7   -1179.6869489617      1.25e-05  
    8   -1179.6869767583      5.23e-06  
    9   -1179.6869816253      1.63e-06  
   10   -1179.6869820491      5.17e-07  Convergence criterion met
 ---------------------------------------
 SCF time:   CPU 1497.20s  wall 46.00s 

************** Final PCM Free Energy Summary **************
 G_electrostatic  =      -0.00766327 hartree =      -4.80877518 kcal/mol
 G_cavitation     =       0.00000000 hartree =       0.00000000 kcal/mol
 G_dispersion     =       0.00000000 hartree =       0.00000000 kcal/mol
 G_repulsion      =       0.00000000 hartree =       0.00000000 kcal/mol
 --------------------------------------------------
 Non-electrostatic Free Energy =       0.00000000 hartree =       0.00000000 kcal/mol
 Total                         =      -0.00766327 hartree =      -4.80877518 kcal/mol
 --------------------------------------------------
 SCF Energy (H0 + V/2)                       =   -1179.68698205 
 Solute Internal Energy (H0)                 =   -1179.67931878 
 Total Free Energy (H0 + V/2 + non-elec)     =   -1179.68698205 hartree
                                             = -740264.75405121 kcal/mol
***********************************************************

 SCF   energy in the final basis set =    -1179.6869820491
 Total energy in the final basis set =    -1179.6869820491


 --------------------------------------------------------------
  Generalized many-body perturbation theory program
  by Joonho Lee, Fazle Rob, Xintian Feng, Evgeny Epifanovsky

 No regularization used 
 (reg. param. = 0.0000e+00)
  (P|Q)^-1/2 Time:  CPU 34.89 s  wall 0.59 s

 In RI-MP2 calculation: 
 # of frozen core orbitals: 20

 Components of the RIMP2 correlation energy:
        aaaa    correlation energy =        -0.2523945973 a.u.
        abab    correlation energy =        -1.4734986099 a.u.
        bbbb    correlation energy =        -0.2523945973 a.u.
        non-Brillouin singles      =        -0.0000000000 a.u.
        total same-spin energy     =        -0.5047891947 a.u.
        total opposite-spin energy =        -1.4734986099 a.u.

 Total  RIMP2   correlation energy =        -1.9782878045 a.u.
        RIMP2         total energy =     -1181.6652698536 a.u.

 RI-MP2 Energy Time:  CPU 171.11 s  wall 3.07 s
 
 --------------------------------------------------------------
 
                    Orbital Energies (a.u.)
 --------------------------------------------------------------
 
 Alpha MOs
 -- Occupied --
-91.9864 -91.9855 -11.2816 -11.2757 -11.2726 -11.2645 -11.2529 -11.2514
-11.2429 -11.2409 -11.2290 -11.2289  -8.9859  -8.9851  -6.6668  -6.6662
 -6.6660  -6.6656  -6.6655  -6.6648  -1.1789  -1.1499  -1.0400  -1.0233
 -0.9981  -0.9531  -0.9141  -0.8932  -0.7997  -0.7599  -0.7242  -0.6945
 -0.6624  -0.6164  -0.5829  -0.5780  -0.5746  -0.5696  -0.5518  -0.5327
 -0.5264  -0.5192  -0.5083  -0.4952  -0.4888  -0.4673  -0.4584  -0.3512
 -0.3431  -0.3377  -0.2832
 -- Virtual --
  0.0738   0.1240   0.1436   0.1505   0.1610   0.1732   0.1788   0.1871
  0.1903   0.1974   0.2028   0.2181   0.2302   0.2393   0.2401   0.2478
  0.2572   0.2695   0.2979   0.3134   0.3382   0.3528   0.3571   0.3642
  0.3740   0.3861   0.3975   0.3991   0.4076   0.4219   0.4280   0.4428
  0.4550   0.4641   0.4647   0.4710   0.4829   0.4874   0.4916   0.4990
  0.5119   0.5268   0.5316   0.5387   0.5436   0.5487   0.5531   0.5645
  0.5692   0.5719   0.5856   0.5953   0.6057   0.6144   0.6189   0.6221
  0.6268   0.6276   0.6384   0.6440   0.6451   0.6517   0.6586   0.6724
  0.6780   0.6867   0.7026   0.7066   0.7154   0.7193   0.7308   0.7527
  0.7774   0.7826   0.7959   0.8106   0.8157   0.8260   0.8354   0.8427
  0.8551   0.8610   0.8715   0.8895   0.8942   0.9069   0.9281   0.9347
  0.9499   0.9733   0.9744   0.9976   1.0135   1.0181   1.0255   1.0288
  1.0439   1.0588   1.0659   1.0696   1.0781   1.0850   1.0973   1.1032
  1.1066   1.1144   1.1334   1.1357   1.1521   1.1669   1.1676   1.1857
  1.2121   1.2159   1.2249   1.2378   1.2432   1.2536   1.2641   1.2698
  1.2829   1.2920   1.2999   1.3271   1.3320   1.3410   1.3423   1.3658
  1.3739   1.3824   1.4035   1.4211   1.4237   1.4394   1.4587   1.4683
  1.4825   1.4940   1.4979   1.5018   1.5120   1.5283   1.5376   1.5487
  1.5600   1.5637   1.5696   1.5743   1.5823   1.5898   1.6167   1.6298
  1.6450   1.6554   1.6667   1.6897   1.7010   1.7063   1.7153   1.7310
  1.7462   1.7615   1.7660   1.7913   1.8003   1.8208   1.8334   1.8358
  1.8789   1.8962   1.9026   1.9165   1.9373   1.9625   1.9787   1.9833
  1.9956   2.0366   2.0506   2.0808   2.1270   2.1313   2.1522   2.1731
  2.1887   2.1993   2.2076   2.2338   2.2477   2.2585   2.2706   2.2748
  2.2992   2.3143   2.3331   2.3694   2.3996   2.4184   2.4224   2.4610
  2.4693   2.4918   2.5008   2.5300   2.5404   2.5715   2.5928   2.6080
  2.6242   2.6415   2.6622   2.6643   2.6782   2.6917   2.7023   2.7235
  2.7286   2.7456   2.7459   2.7571   2.7610   2.7689   2.7832   2.7990
  2.8263   2.8390   2.8445   2.8550   2.8856   2.9024   2.9086   2.9205
  2.9322   2.9662   2.9777   2.9853   2.9894   3.0123   3.0166   3.0344
  3.0558   3.0684   3.0834   3.1018   3.1121   3.1197   3.1309   3.1382
  3.1489   3.1503   3.1569   3.1667   3.1943   3.2016   3.2074   3.2275
  3.2371   3.2450   3.2645   3.2710   3.2835   3.2851   3.3029   3.3111
  3.3157   3.3218   3.3257   3.3331   3.3518   3.3592   3.3721   3.3787
  3.3934   3.3961   3.3990   3.4055   3.4121   3.4244   3.4316   3.4490
  3.4495   3.4587   3.4676   3.4849   3.4931   3.5007   3.5125   3.5191
  3.5225   3.5292   3.5333   3.5422   3.5599   3.5674   3.5699   3.5747
  3.6016   3.6144   3.6180   3.6321   3.6400   3.6430   3.6511   3.6677
  3.6792   3.6893   3.7025   3.7070   3.7263   3.7334   3.7447   3.7602
  3.7635   3.7811   3.7835   3.7931   3.7986   3.8091   3.8280   3.8330
  3.8609   3.8754   3.8811   3.8989   3.9199   3.9244   3.9351   3.9578
  3.9710   3.9817   3.9908   4.0057   4.0119   4.0211   4.0250   4.0489
  4.0724   4.0786   4.0895   4.1072   4.1162   4.1429   4.1452   4.1490
  4.1660   4.1784   4.1868   4.1966   4.2001   4.2088   4.2155   4.2351
  4.2526   4.2668   4.2785   4.2874   4.2930   4.3075   4.3258   4.3303
  4.3490   4.3568   4.3689   4.3823   4.3908   4.4015   4.4070   4.4244
  4.4293   4.4503   4.4676   4.4698   4.4794   4.5128   4.5414   4.5731
  4.5764   4.6060   4.6095   4.6208   4.6283   4.6514   4.6536   4.6759
  4.7108   4.7254   4.7358   4.7459   4.7639   4.7936   4.8157   4.8420
  4.8672   4.8817   4.8998   4.9248   4.9311   4.9607   4.9915   5.0552
  5.0796   5.0988   5.1135   5.1549   5.1866   5.1963   5.2031   5.2379
  5.2730   5.2818   5.2925   5.3073   5.3227   5.3715   5.3944   5.4051
  5.4077   5.4447   5.4628   5.4781   5.5202   5.5307   5.5490   5.5608
  5.5715   5.5862   5.6105   5.6233   5.6269   5.6889   5.7063   5.7120
  5.7852   5.8319   5.9038   5.9839   6.0179   6.0849   6.1518   6.2261
  6.2321   6.2491   6.2763   6.3101   6.3293   6.4497   6.5106   8.8729
  9.8903  11.5515  11.9407  12.9445  13.0851  13.7466  13.9508  14.1998
 14.3533
 --------------------------------------------------------------
 
          Ground-State Mulliken Net Atomic Charges

     Atom                 Charge (a.u.)
  ----------------------------------------
      1 C                    -0.214798
      2 C                    -0.248559
      3 C                     0.030148
      4 H                     0.185533
      5 C                    -0.028523
      6 S                     0.023584
      7 C                    -0.293762
      8 H                     0.110137
      9 H                     0.114626
     10 H                     0.111869
     11 H                     0.204615
     12 C                     0.014921
     13 C                    -0.246747
     14 C                     0.021415
     15 H                     0.187197
     16 C                    -0.241369
     17 S                     0.022906
     18 C                    -0.271373
     19 H                     0.103066
     20 H                     0.108409
     21 H                     0.108057
     22 H                     0.198648
  ----------------------------------------
  Sum of atomic charges =     0.000000

 -----------------------------------------------------------------
                    Cartesian Multipole Moments
 -----------------------------------------------------------------
    Charge (ESU x 10^10)
                -0.0000
    Dipole Moment (Debye)
         X       1.1560      Y       0.2110      Z       0.4597
       Tot       1.2618
    Quadrupole Moments (Debye-Ang)
        XX     -88.8787     XY      -1.7278     YY     -68.7357
        XZ      -3.3388     YZ       2.5768     ZZ     -83.9110
    Octopole Moments (Debye-Ang^2)
       XXX      -5.0194    XXY      34.3602    XYY      -4.5209
       YYY      94.3189    XXZ      -1.8330    XYZ      12.1231
       YYZ      -0.9023    XZZ      -1.0056    YZZ      49.4557
       ZZZ       4.7471
    Hexadecapole Moments (Debye-Ang^3)
      XXXX    -457.7916   XXXY      -1.7730   XXYY    -565.7837
      XYYY      28.8455   YYYY   -2579.3044   XXXZ     134.5338
      XXYZ     -29.0349   XYYZ      -4.0441   YYYZ    -137.8519
      XXZZ    -208.0830   XYZZ      -2.5129   YYZZ    -610.6202
      XZZZ     136.9153   YZZZ    -100.3120   ZZZZ    -768.1413
 -----------------------------------------------------------------
 Total job time:  51.82s(wall), 1729.55s(cpu) 
 Wed Dec 13 15:54:51 2023

        *************************************************************
        *                                                           *
        *  Thank you very much for using Q-Chem.  Have a nice day.  *
        *                                                           *
        *************************************************************


0 sent ACK to 0 
now end server 0 ... 
cleanup process ... done
remove work dirs ./qchem1455667.0 -- ./qchem1455667.0
rm -rf ./qchem1455667.0
rm -rf ./qchem1455667
