You are running Q-Chem version: 5.4.0

#
# job setting
#
local host:  exp-1-36
current dir: /home/rramji/project-csd799/aromodel/p3ht-qchem/rotation-run
input file:  Methylthiophene_Phi_10_Theta_310_Methylthiophene.qcin
output file: 
nprocs     : 1
nthreads   : 64
#
# qchem installation setting
#
QC:          /cm/shared/apps/spack/cpu/opt/spack/linux-centos8-zen2/gcc-10.2.0/qchem-5.4-akfmr7b3t57bfs6qan3padb2wnb2i7cl
QCAUX:       /cm/shared/apps/spack/cpu/opt/spack/linux-centos8-zen2/gcc-10.2.0/qchem-5.4-akfmr7b3t57bfs6qan3padb2wnb2i7cl/qcaux
QCPROG:      /cm/shared/apps/spack/cpu/opt/spack/linux-centos8-zen2/gcc-10.2.0/qchem-5.4-akfmr7b3t57bfs6qan3padb2wnb2i7cl/exe/qcprog.exe
QCPROG_S:    /cm/shared/apps/spack/cpu/opt/spack/linux-centos8-zen2/gcc-10.2.0/qchem-5.4-akfmr7b3t57bfs6qan3padb2wnb2i7cl/exe/qcprog.exe_s
PARALLEL:    -DPARALLEL
QCMPI:       mpich
#
# qchem directory setting
#
qcrun:       qchem2942540
QCSCRATCH:   .
QCLOCALSCR:  
QCTMPDIR:    .
QCFILEPREF:  ./qchem2942540
QCSAVEDIR:   
workdirs:    ./qchem2942540
workdir0:    ./qchem2942540
partmpdirs =  
#
# parallel setting
#
QCRSH:           ssh
QCMPI:           mpich
QCMPIRUN:        /cm/shared/apps/spack/cpu/opt/spack/linux-centos8-zen2/gcc-10.2.0/qchem-5.4-akfmr7b3t57bfs6qan3padb2wnb2i7cl/bin/mpi/mpirun_qchem
QCMACHINEFILE:   ./qchem2942540/hostfile
exp-1-36

#
# env setting
#
exported envs:   QC QCAUX QCSCRATCH QCRUNNAME QCFILEPREF QCPROG QCPROG_S GUIFILE

Running Job 1 of 1 Methylthiophene_Phi_10_Theta_310_Methylthiophene.qcin
qchem Methylthiophene_Phi_10_Theta_310_Methylthiophene.qcin_2942540.0 ./qchem2942540/ 1
/cm/shared/apps/spack/cpu/opt/spack/linux-centos8-zen2/gcc-10.2.0/qchem-5.4-akfmr7b3t57bfs6qan3padb2wnb2i7cl/bin/mpi/mpirun_qchem -machinefile ./qchem2942540/hostfile -np 1 /cm/shared/apps/spack/cpu/opt/spack/linux-centos8-zen2/gcc-10.2.0/qchem-5.4-akfmr7b3t57bfs6qan3padb2wnb2i7cl/exe/qcprog.exe Methylthiophene_Phi_10_Theta_310_Methylthiophene.qcin_2942540.0 ./qchem2942540/

Process 0 of 1 is on exp-1-36 - thread support 0
initial socket setup ...start
initial socket setup ...done 
now start server 0 ... 
                  Welcome to Q-Chem
     A Quantum Leap Into The Future Of Chemistry


 Q-Chem 5.4, Q-Chem, Inc., Pleasanton, CA (2021)

 License issued to: University of California, San Diego (site)

 E. Epifanovsky,  A. T. B. Gilbert,  Xintian Feng,  Joonho Lee,  Yuezhi Mao,  
 N. Mardirossian,  P. Pokhilko,  A. White,  M. Wormit,  M. P. Coons,  
 A. L. Dempwolff,  Zhengting Gan,  D. Hait,  P. R. Horn,  L. D. Jacobson,  
 I. Kaliman,  J. Kussmann,  A. W. Lange,  Ka Un Lao,  D. S. Levine,  Jie Liu,  
 S. C. McKenzie,  A. F. Morrison,  K. Nanda,  F. Plasser,  D. R. Rehn,  
 M. L. Vidal,  Zhi-Qiang You,  Ying Zhu,  B. Alam,  B. Albrecht,  
 A. Aldossary,  E. Alguire,  J. H. Andersen,  D. Barton,  K. Begam,  A. Behn,  
 Y. A. Bernard,  E. J. Berquist,  H. Burton,  A. Carreras,  K. Carter-Fenk,  
 R. Chakraborty,  A. D. Chien,  K. D. Closser,  V. Cofer-Shabica,  
 S. Dasgupta,  Jia Deng,  M. de Wergifosse,  M. Diedenhofen,  Hainam Do,  
 S. Ehlert,  Po-Tung Fang,  S. Fatehi,  Qingguo Feng,  J. Gayvert,  
 Qinghui Ge,  G. Gidofalvi,  M. Goldey,  J. Gomes,  C. Gonzalez-Espinoza,  
 S. Gulania,  A. Gunina,  M. W. D. Hanson-Heine,  P. H. P. Harbach,  
 A. W. Hauser,  M. F. Herbst,  M. Hernandez Vera,  M. Hodecker,  
 Z. C. Holden,  S. Houck,  Xunkun Huang,  Kerwin Hui,  B. C. Huynh,  
 M. Ivanov,  Hyunjun Ji,  Hanjie Jiang,  B. Kaduk,  S. Kaehler,  
 K. Khistyaev,  Jaehoon Kim,  P. Klunzinger,  Z. Koczor-Benda,  
 Joong Hoon Koh,  D. Kosenkov,  L. Koulias,  T. Kowalczyk,  C. M. Krauter,  
 K. Kue,  A. Kunitsa,  T. Kus,  A. Landau,  K. V. Lawler,  D. Lefrancois,  
 S. Lehtola,  Rain Li,  Yi-Pei Li,  Jiashu Liang,  M. Liebenthal,  
 Hung-Hsuan Lin,  You-Sheng Lin,  Fenglai Liu,  Kuan-Yu Liu,  
 M. Loipersberger,  A. Luenser,  A. Manjanath,  P. Manohar,  E. Mansoor,  
 S. F. Manzer,  Shan-Ping Mao,  A. V. Marenich,  T. Markovich,  S. Mason,  
 S. A. Maurer,  P. F. McLaughlin,  M. F. S. J. Menger,  J.-M. Mewes,  
 S. A. Mewes,  P. Morgante,  J. W. Mullinax,  T. S. Nguyen-Beck,  
 K. J. Oosterbaan,  G. Paran,  Alexander C. Paul,  Suranjan K. Paul,  
 F. Pavosevic,  Zheng Pei,  S. Prager,  E. I. Proynov,  E. Ramos,  B. Rana,  
 A. E. Rask,  A. Rettig,  R. M. Richard,  F. Rob,  E. Rossomme,  T. Scheele,  
 M. Scheurer,  M. Schneider,  N. Sergueev,  S. M. Sharada,  W. Skomorowski,  
 D. W. Small,  C. J. Stein,  Yu-Chuan Su,  E. J. Sundstrom,  Zhen Tao,  
 J. Thirman,  T. Tsuchimochi,  N. M. Tubman,  S. P. Veccham,  O. Vydrov,  
 J. Wenzel,  J. Witte,  A. Yamada,  Kun Yao,  S. Yeganeh,  S. R. Yost,  
 A. Zech,  Igor Ying Zhang,  Xing Zhang,  Yu Zhang,  D. Zuev,  
 A. Aspuru-Guzik,  A. T. Bell,  N. A. Besley,  K. B. Bravaya,  B. R. Brooks,  
 D. Casanova,  Jeng-Da Chai,  S. Coriani,  C. J. Cramer,  
 A. E. DePrince, III,  R. A. DiStasio Jr.,  A. Dreuw,  B. D. Dunietz,  
 T. R. Furlani,  W. A. Goddard III,  S. Grimme,  S. Hammes-Schiffer,  
 T. Head-Gordon,  W. J. Hehre,  Chao-Ping Hsu,  T.-C. Jagau,  Yousung Jung,  
 A. Klamt,  Jing Kong,  D. S. Lambrecht,  WanZhen Liang,  N. J. Mayhall,  
 C. W. McCurdy,  J. B. Neaton,  C. Ochsenfeld,  J. A. Parkhill,  R. Peverati,  
 V. A. Rassolov,  Yihan Shao,  L. V. Slipchenko,  T. Stauch,  R. P. Steele,  
 J. E. Subotnik,  A. J. W. Thom,  A. Tkatchenko,  D. G. Truhlar,  
 T. Van Voorhis,  T. A. Wesolowski,  K. B. Whaley,  H. L. Woodcock III,  
 P. M. Zimmerman,  S. Faraji,  P. M. W. Gill,  M. Head-Gordon,  
 J. M. Herbert,  A. I. Krylov

 Contributors to earlier versions of Q-Chem not listed above: 
 R. D. Adamson,  B. Austin,  R. Baer,  J. Baker,  G. J. O. Beran,  
 K. Brandhorst,  S. T. Brown,  E. F. C. Byrd,  A. K. Chakraborty,  
 G. K. L. Chan,  Chun-Min Chang,  Yunqing Chen,  C.-L. Cheng,  
 Siu Hung Chien,  D. M. Chipman,  D. L. Crittenden,  H. Dachsel,  
 R. J. Doerksen,  A. D. Dutoi,  R. G. Edgar,  J. Fosso-Tande,  
 L. Fusti-Molnar,  D. Ghosh,  A. Ghysels,  A. Golubeva-Zadorozhnaya,  
 J. Gonthier,  M. S. Gordon,  S. R. Gwaltney,  G. Hawkins,  J. E. Herr,  
 A. Heyden,  S. Hirata,  E. G. Hohenstein,  G. Kedziora,  F. J. Keil,  
 C. Kelley,  Jihan Kim,  R. A. King,  R. Z. Khaliullin,  P. P. Korambath,  
 W. Kurlancheek,  A. Laurent,  A. M. Lee,  M. S. Lee,  S. V. Levchenko,  
 Ching Yeh Lin,  D. Liotard,  E. Livshits,  R. C. Lochan,  I. Lotan,  
 L. A. Martinez-Martinez,  P. E. Maslen,  N. Nair,  D. P. O'Neill,  
 D. Neuhauser,  E. Neuscamman,  C. M. Oana,  R. Olivares-Amaya,  R. Olson,  
 T. M. Perrine,  B. Peters,  P. A. Pieniazek,  A. Prociuk,  Y. M. Rhee,  
 J. Ritchie,  M. A. Rohrdanz,  E. Rosta,  N. J. Russ,  H. F. Schaefer III,  
 M. W. Schmidt,  N. E. Schultz,  S. Sharma,  N. Shenvi,  C. D. Sherrill,  
 A. C. Simmonett,  A. Sodt,  T. Stein,  D. Stuck,  K. S. Thanthiriwatte,  
 V. Vanovschi,  L. Vogt,  Tao Wang,  A. Warshel,  M. A. Watson,  
 C. F. Williams,  Q. Wu,  X. Xu,  Jun Yang,  W. Zhang,  Yan Zhao

 Please cite Q-Chem as follows:
 Y. Shao et al., Mol. Phys. 113, 184-215 (2015)
 DOI: 10.1080/00268976.2014.952696

 Q-Chem 5.4.0 for Intel X86 EM64T Linux

 Parts of Q-Chem use Armadillo 9.800.1 (Horizon Scraper).
 http://arma.sourceforge.net/

 Q-Chem begins on Wed Dec 13 16:21:26 2023  

 Host: 
0

     Scratch files written to ./qchem2942540//
 May1621 |scratch|qcdevops|jenkins|workspace|build_RNUM    
 Parallel job on  1  processors
 Processing $rem in /cm/shared/apps/spack/cpu/opt/spack/linux-centos8-zen2/gcc-10.2.0/qchem-5.4-akfmr7b3t57bfs6qan3padb2wnb2i7cl/config/preferences:
 Processing $rem in /home/rramji/.qchemrc:
 Symmetry turned off for PCM/SM12/SMD calculation
 Core orbitals will be frozen

 Checking the input file for inconsistencies... 	...done.

 Q-Chem warning in module forms1/BasisType.C, line 2236:

 You are not using the predefined 5D/6D in this basis set.


--------------------------------------------------------------
User input:
--------------------------------------------------------------
$molecule
0 1
C	0.554267	-3.887800	0.466510
C	-0.507121	-3.701456	-0.424173
C	-0.831575	-2.345170	-0.697244
H	-1.048337	-4.545233	-0.877789
C	0.000000	-1.450135	0.000000
S	1.169911	-2.321334	0.982150
C	-1.939374	-1.934439	-1.627024
H	-2.448894	-2.819799	-2.054010
H	-1.561545	-1.326210	-2.475299
H	-2.708773	-1.325374	-1.108051
H	1.000944	-4.815326	0.841863
C	0.000000	0.000000	0.000000
C	0.143630	0.832309	1.113020
C	0.380550	2.202961	0.820578
H	0.077556	0.449877	2.142881
C	0.422995	2.447456	-0.563588
S	0.164909	0.956502	-1.464748
C	0.561888	3.252016	1.882380
H	0.485513	2.810624	2.894974
H	-0.205711	4.050482	1.808137
H	1.553045	3.746365	1.808230
H	0.586105	3.391501	-1.097114
$end

$rem
JOBTYPE		SP
EXCHANGE	HF
CORRELATION	pRIMP2
BASIS		cc-pvtz
METHOD		rimp2
AUX_BASIS	rimp2-cc-pvtz
SOLVENT_METHOD	PCM
PURECART	11111
SYMMETRY	false
MEM_TOTAL	110000
SCF_CONVERGENCE = 6
THRESH=10
GUI = 2
$end



$solvent
dielectric 4.90
$end
--------------------------------------------------------------
 ----------------------------------------------------------------
             Standard Nuclear Orientation (Angstroms)
    I     Atom           X                Y                Z
 ----------------------------------------------------------------
    1      C       0.5542670000    -3.8878000000     0.4665100000
    2      C      -0.5071210000    -3.7014560000    -0.4241730000
    3      C      -0.8315750000    -2.3451700000    -0.6972440000
    4      H      -1.0483370000    -4.5452330000    -0.8777890000
    5      C       0.0000000000    -1.4501350000     0.0000000000
    6      S       1.1699110000    -2.3213340000     0.9821500000
    7      C      -1.9393740000    -1.9344390000    -1.6270240000
    8      H      -2.4488940000    -2.8197990000    -2.0540100000
    9      H      -1.5615450000    -1.3262100000    -2.4752990000
   10      H      -2.7087730000    -1.3253740000    -1.1080510000
   11      H       1.0009440000    -4.8153260000     0.8418630000
   12      C       0.0000000000     0.0000000000     0.0000000000
   13      C       0.1436300000     0.8323090000     1.1130200000
   14      C       0.3805500000     2.2029610000     0.8205780000
   15      H       0.0775560000     0.4498770000     2.1428810000
   16      C       0.4229950000     2.4474560000    -0.5635880000
   17      S       0.1649090000     0.9565020000    -1.4647480000
   18      C       0.5618880000     3.2520160000     1.8823800000
   19      H       0.4855130000     2.8106240000     2.8949740000
   20      H      -0.2057110000     4.0504820000     1.8081370000
   21      H       1.5530450000     3.7463650000     1.8082300000
   22      H       0.5861050000     3.3915010000    -1.0971140000
 ----------------------------------------------------------------
 Nuclear Repulsion Energy =         834.16637612 hartrees
 There are       51 alpha and       51 beta electrons
 Requested basis set is cc-pVTZ
 There are 184 shells and 508 basis functions

 Total QAlloc Memory Limit 110000 MB
 Mega-Array Size       188 MB
 MEM_STATIC part       192 MB
 Discretize the solute cavity surface with Lebedev spheres
	Using 110 Lebedev grid points for each H atom
	Using 194 Lebedev grid points for other atoms
	Atomic van der Waals radii will be scaled by 1.20
 Remove points where switching function is < 1.0e-08
 Keep 1546 surface tesserae and discard 1882 interior tesserae
 Molecular Surface Area = 234.469 Angst**2
 Requested basis set is rimp2-cc-pVTZ
 There are 394 shells and 1354 basis functions
 A cutoff of  1.0D-10 yielded  12140 shell pairs
 There are     90222 function pairs (    116531 Cartesian)
 Smallest overlap matrix eigenvalue = 6.54E-05

 Scale SEOQF with 1.000000e-01/1.000000e-01/1.000000e-01

 Standard Electronic Orientation quadrupole field applied
 Nucleus-field energy     =     0.0000000292 hartrees
 Guess from superposition of atomic densities
 Warning:  Energy on first SCF cycle will be non-variational
 SAD guess density has 102.000000 electrons

 -----------------------------------------------------------------------
  General SCF calculation program by
  Eric Jon Sundstrom, Paul Horn, Yuezhi Mao, Dmitri Zuev, Alec White,
  David Stuck, Shaama M.S., Shane Yost, Joonho Lee, David Small,
  Daniel Levine, Susi Lehtola, Hugh Burton, Evgeny Epifanovsky,
  Bang C. Huynh
 -----------------------------------------------------------------------
 Hartree-Fock
 using 64 threads for integral computing
 -------------------------------------------------------
 OpenMP Integral computing Module                
 Release: version 1.0, May 2013, Q-Chem Inc. Pittsburgh 
 -------------------------------------------------------
 A restricted SCF calculation will be
 performed using DIIS
 SCF converges when DIIS error is below 1.0e-06
 ---------------------------------------
  Cycle       Energy         DIIS error
 ---------------------------------------
    1   -1184.1957301630      2.38e-02  
    2   -1179.5471507334      1.60e-03  
    3   -1179.6672434041      6.15e-04  
    4   -1179.6808250219      3.35e-04  
    5   -1179.6855375269      6.57e-05  
    6   -1179.6858160542      3.06e-05  
    7   -1179.6859031265      1.26e-05  
    8   -1179.6859311583      5.24e-06  
    9   -1179.6859360669      1.64e-06  
   10   -1179.6859365037      5.23e-07  Convergence criterion met
 ---------------------------------------
 SCF time:   CPU 1575.96s  wall 48.00s 

************** Final PCM Free Energy Summary **************
 G_electrostatic  =      -0.00774009 hartree =      -4.85698027 kcal/mol
 G_cavitation     =       0.00000000 hartree =       0.00000000 kcal/mol
 G_dispersion     =       0.00000000 hartree =       0.00000000 kcal/mol
 G_repulsion      =       0.00000000 hartree =       0.00000000 kcal/mol
 --------------------------------------------------
 Non-electrostatic Free Energy =       0.00000000 hartree =       0.00000000 kcal/mol
 Total                         =      -0.00774009 hartree =      -4.85698027 kcal/mol
 --------------------------------------------------
 SCF Energy (H0 + V/2)                       =   -1179.68593650 
 Solute Internal Energy (H0)                 =   -1179.67819641 
 Total Free Energy (H0 + V/2 + non-elec)     =   -1179.68593650 hartree
                                             = -740264.09796158 kcal/mol
***********************************************************

 SCF   energy in the final basis set =    -1179.6859365037
 Total energy in the final basis set =    -1179.6859365037


 --------------------------------------------------------------
  Generalized many-body perturbation theory program
  by Joonho Lee, Fazle Rob, Xintian Feng, Evgeny Epifanovsky

 No regularization used 
 (reg. param. = 0.0000e+00)
  (P|Q)^-1/2 Time:  CPU 23.00 s  wall 0.37 s

 In RI-MP2 calculation: 
 # of frozen core orbitals: 20

 Components of the RIMP2 correlation energy:
        aaaa    correlation energy =        -0.2524051434 a.u.
        abab    correlation energy =        -1.4735916595 a.u.
        bbbb    correlation energy =        -0.2524051434 a.u.
        non-Brillouin singles      =        -0.0000000000 a.u.
        total same-spin energy     =        -0.5048102867 a.u.
        total opposite-spin energy =        -1.4735916595 a.u.

 Total  RIMP2   correlation energy =        -1.9784019462 a.u.
        RIMP2         total energy =     -1181.6643384499 a.u.

 RI-MP2 Energy Time:  CPU 171.33 s  wall 3.54 s
 
 --------------------------------------------------------------
 
                    Orbital Energies (a.u.)
 --------------------------------------------------------------
 
 Alpha MOs
 -- Occupied --
-91.9865 -91.9855 -11.2808 -11.2752 -11.2725 -11.2651 -11.2525 -11.2515
-11.2427 -11.2411 -11.2293 -11.2291  -8.9859  -8.9850  -6.6668  -6.6663
 -6.6659  -6.6656  -6.6654  -6.6648  -1.1791  -1.1499  -1.0400  -1.0234
 -0.9981  -0.9527  -0.9143  -0.8931  -0.7997  -0.7599  -0.7243  -0.6940
 -0.6625  -0.6165  -0.5830  -0.5784  -0.5743  -0.5696  -0.5518  -0.5330
 -0.5261  -0.5191  -0.5077  -0.4955  -0.4885  -0.4674  -0.4587  -0.3495
 -0.3433  -0.3388  -0.2833
 -- Virtual --
  0.0731   0.1221   0.1433   0.1498   0.1611   0.1729   0.1795   0.1867
  0.1901   0.1969   0.2038   0.2212   0.2297   0.2383   0.2400   0.2480
  0.2578   0.2711   0.2974   0.3136   0.3368   0.3532   0.3560   0.3656
  0.3758   0.3856   0.3948   0.4005   0.4097   0.4213   0.4266   0.4428
  0.4534   0.4612   0.4684   0.4712   0.4806   0.4843   0.4924   0.4977
  0.5125   0.5243   0.5347   0.5384   0.5428   0.5444   0.5545   0.5632
  0.5698   0.5718   0.5853   0.5979   0.6062   0.6138   0.6187   0.6203
  0.6255   0.6303   0.6386   0.6440   0.6459   0.6492   0.6575   0.6698
  0.6775   0.6887   0.6990   0.7071   0.7159   0.7220   0.7328   0.7524
  0.7794   0.7842   0.7975   0.8098   0.8152   0.8211   0.8373   0.8450
  0.8555   0.8631   0.8706   0.8851   0.8935   0.9075   0.9245   0.9385
  0.9547   0.9683   0.9779   0.9900   1.0148   1.0188   1.0228   1.0333
  1.0526   1.0595   1.0619   1.0659   1.0775   1.0852   1.0971   1.1031
  1.1080   1.1186   1.1316   1.1379   1.1488   1.1655   1.1702   1.1844
  1.2102   1.2129   1.2272   1.2345   1.2427   1.2543   1.2639   1.2679
  1.2847   1.2943   1.3073   1.3188   1.3295   1.3383   1.3455   1.3708
  1.3721   1.3827   1.4050   1.4191   1.4259   1.4410   1.4569   1.4654
  1.4823   1.4927   1.4986   1.5034   1.5108   1.5300   1.5395   1.5486
  1.5560   1.5614   1.5658   1.5749   1.5839   1.5937   1.6132   1.6295
  1.6469   1.6546   1.6705   1.6834   1.7016   1.7086   1.7150   1.7255
  1.7459   1.7547   1.7665   1.7903   1.7968   1.8016   1.8294   1.8401
  1.8854   1.8937   1.9097   1.9137   1.9465   1.9551   1.9691   1.9858
  2.0046   2.0384   2.0478   2.0833   2.1281   2.1331   2.1469   2.1705
  2.1835   2.1990   2.2051   2.2296   2.2525   2.2576   2.2648   2.2748
  2.2898   2.3047   2.3289   2.3692   2.3994   2.4217   2.4268   2.4584
  2.4731   2.4905   2.5040   2.5293   2.5367   2.5697   2.5929   2.6104
  2.6172   2.6493   2.6527   2.6583   2.6723   2.6930   2.7094   2.7255
  2.7345   2.7436   2.7490   2.7567   2.7621   2.7680   2.7841   2.7934
  2.8286   2.8371   2.8539   2.8653   2.8765   2.8981   2.9091   2.9232
  2.9280   2.9654   2.9799   2.9875   2.9935   3.0132   3.0239   3.0367
  3.0611   3.0661   3.0874   3.1018   3.1105   3.1171   3.1254   3.1370
  3.1462   3.1488   3.1579   3.1671   3.1854   3.2007   3.2018   3.2231
  3.2395   3.2490   3.2621   3.2786   3.2807   3.2877   3.2994   3.3127
  3.3142   3.3199   3.3252   3.3385   3.3520   3.3596   3.3715   3.3735
  3.3859   3.3922   3.3995   3.4068   3.4157   3.4232   3.4354   3.4465
  3.4481   3.4586   3.4754   3.4868   3.4958   3.5052   3.5147   3.5172
  3.5215   3.5288   3.5379   3.5402   3.5574   3.5637   3.5760   3.5799
  3.6058   3.6105   3.6200   3.6330   3.6394   3.6459   3.6549   3.6676
  3.6817   3.6901   3.7024   3.7106   3.7262   3.7372   3.7448   3.7517
  3.7584   3.7761   3.7863   3.7916   3.7974   3.8099   3.8259   3.8360
  3.8588   3.8739   3.8835   3.8936   3.9160   3.9213   3.9490   3.9575
  3.9692   3.9811   3.9880   4.0034   4.0108   4.0204   4.0228   4.0447
  4.0701   4.0794   4.0887   4.1082   4.1177   4.1347   4.1445   4.1493
  4.1715   4.1800   4.1853   4.1955   4.2006   4.2089   4.2209   4.2319
  4.2581   4.2664   4.2797   4.2841   4.2920   4.3001   4.3250   4.3322
  4.3489   4.3600   4.3666   4.3829   4.3883   4.4015   4.4065   4.4213
  4.4257   4.4499   4.4655   4.4694   4.4812   4.5163   4.5461   4.5596
  4.5820   4.5959   4.6099   4.6233   4.6293   4.6565   4.6575   4.6853
  4.7032   4.7293   4.7337   4.7477   4.7608   4.7943   4.8174   4.8405
  4.8549   4.8778   4.9025   4.9269   4.9293   4.9452   4.9869   5.0556
  5.0787   5.0960   5.1115   5.1556   5.1821   5.1887   5.2021   5.2263
  5.2719   5.2810   5.2857   5.3072   5.3216   5.3712   5.3935   5.4041
  5.4112   5.4459   5.4633   5.4698   5.5158   5.5291   5.5459   5.5590
  5.5687   5.5787   5.6089   5.6235   5.6268   5.6946   5.7071   5.7197
  5.7873   5.8306   5.8908   5.9784   6.0167   6.0684   6.1464   6.2260
  6.2304   6.2464   6.2742   6.3047   6.3286   6.4552   6.5097   8.9293
  9.8556  11.5266  11.9341  12.9323  13.0477  13.7527  13.9330  14.2000
 14.3645
 --------------------------------------------------------------
 
          Ground-State Mulliken Net Atomic Charges

     Atom                 Charge (a.u.)
  ----------------------------------------
      1 C                    -0.212379
      2 C                    -0.249038
      3 C                     0.032489
      4 H                     0.185253
      5 C                    -0.028905
      6 S                     0.023643
      7 C                    -0.291797
      8 H                     0.109626
      9 H                     0.110843
     10 H                     0.113335
     11 H                     0.204550
     12 C                     0.022882
     13 C                    -0.269565
     14 C                     0.032993
     15 H                     0.187627
     16 C                    -0.244172
     17 S                     0.025732
     18 C                    -0.271339
     19 H                     0.103031
     20 H                     0.108034
     21 H                     0.108684
     22 H                     0.198472
  ----------------------------------------
  Sum of atomic charges =     0.000000

 -----------------------------------------------------------------
                    Cartesian Multipole Moments
 -----------------------------------------------------------------
    Charge (ESU x 10^10)
                -0.0000
    Dipole Moment (Debye)
         X      -0.8321      Y       0.2099      Z       0.4802
       Tot       0.9833
    Quadrupole Moments (Debye-Ang)
        XX     -88.5317     XY       3.5556     YY     -68.9743
        XZ       3.5346     YZ       2.5578     ZZ     -83.9206
    Octopole Moments (Debye-Ang^2)
       XXX     -31.1953    XXY      36.6496    XYY      -0.6657
       YYY      95.8984    XXZ      -1.9158    XYZ     -12.5153
       YYZ      -0.8529    XZZ      -9.3462    YZZ      50.3424
       ZZZ       4.7887
    Hexadecapole Moments (Debye-Ang^3)
      XXXX    -487.0184   XXXY     -81.3986   XXYY    -561.3531
      XYYY     -90.1026   YYYY   -2557.7587   XXXZ    -150.8016
      XXYZ     -28.8166   XYYZ      -4.1311   YYYZ    -135.7419
      XXZZ    -212.0172   XYZZ     -20.0595   YYZZ    -606.4476
      XZZZ    -154.1243   YZZZ     -98.3340   ZZZZ    -768.2976
 -----------------------------------------------------------------
 Total job time:  54.04s(wall), 1838.97s(cpu) 
 Wed Dec 13 16:22:20 2023

        *************************************************************
        *                                                           *
        *  Thank you very much for using Q-Chem.  Have a nice day.  *
        *                                                           *
        *************************************************************


0 sent ACK to 0 
now end server 0 ... 
cleanup process ... done
remove work dirs ./qchem2942540.0 -- ./qchem2942540.0
rm -rf ./qchem2942540.0
rm -rf ./qchem2942540
