You are running Q-Chem version: 5.4.0

#
# job setting
#
local host:  exp-1-44
current dir: /home/rramji/project-csd799/aromodel/p3ht-qchem/rotation-run
input file:  Methylthiophene_Phi_15_Theta_230_Methylthiophene.qcin
output file: 
nprocs     : 1
nthreads   : 64
#
# qchem installation setting
#
QC:          /cm/shared/apps/spack/cpu/opt/spack/linux-centos8-zen2/gcc-10.2.0/qchem-5.4-akfmr7b3t57bfs6qan3padb2wnb2i7cl
QCAUX:       /cm/shared/apps/spack/cpu/opt/spack/linux-centos8-zen2/gcc-10.2.0/qchem-5.4-akfmr7b3t57bfs6qan3padb2wnb2i7cl/qcaux
QCPROG:      /cm/shared/apps/spack/cpu/opt/spack/linux-centos8-zen2/gcc-10.2.0/qchem-5.4-akfmr7b3t57bfs6qan3padb2wnb2i7cl/exe/qcprog.exe
QCPROG_S:    /cm/shared/apps/spack/cpu/opt/spack/linux-centos8-zen2/gcc-10.2.0/qchem-5.4-akfmr7b3t57bfs6qan3padb2wnb2i7cl/exe/qcprog.exe_s
PARALLEL:    -DPARALLEL
QCMPI:       mpich
#
# qchem directory setting
#
qcrun:       qchem2792635
QCSCRATCH:   .
QCLOCALSCR:  
QCTMPDIR:    .
QCFILEPREF:  ./qchem2792635
QCSAVEDIR:   
workdirs:    ./qchem2792635
workdir0:    ./qchem2792635
partmpdirs =  
#
# parallel setting
#
QCRSH:           ssh
QCMPI:           mpich
QCMPIRUN:        /cm/shared/apps/spack/cpu/opt/spack/linux-centos8-zen2/gcc-10.2.0/qchem-5.4-akfmr7b3t57bfs6qan3padb2wnb2i7cl/bin/mpi/mpirun_qchem
QCMACHINEFILE:   ./qchem2792635/hostfile
exp-1-44

#
# env setting
#
exported envs:   QC QCAUX QCSCRATCH QCRUNNAME QCFILEPREF QCPROG QCPROG_S GUIFILE

Running Job 1 of 1 Methylthiophene_Phi_15_Theta_230_Methylthiophene.qcin
qchem Methylthiophene_Phi_15_Theta_230_Methylthiophene.qcin_2792635.0 ./qchem2792635/ 1
/cm/shared/apps/spack/cpu/opt/spack/linux-centos8-zen2/gcc-10.2.0/qchem-5.4-akfmr7b3t57bfs6qan3padb2wnb2i7cl/bin/mpi/mpirun_qchem -machinefile ./qchem2792635/hostfile -np 1 /cm/shared/apps/spack/cpu/opt/spack/linux-centos8-zen2/gcc-10.2.0/qchem-5.4-akfmr7b3t57bfs6qan3padb2wnb2i7cl/exe/qcprog.exe Methylthiophene_Phi_15_Theta_230_Methylthiophene.qcin_2792635.0 ./qchem2792635/

Process 0 of 1 is on exp-1-44 - thread support 0
initial socket setup ...start
initial socket setup ...done 
now start server 0 ... 
                  Welcome to Q-Chem
     A Quantum Leap Into The Future Of Chemistry


 Q-Chem 5.4, Q-Chem, Inc., Pleasanton, CA (2021)

 License issued to: University of California, San Diego (site)

 E. Epifanovsky,  A. T. B. Gilbert,  Xintian Feng,  Joonho Lee,  Yuezhi Mao,  
 N. Mardirossian,  P. Pokhilko,  A. White,  M. Wormit,  M. P. Coons,  
 A. L. Dempwolff,  Zhengting Gan,  D. Hait,  P. R. Horn,  L. D. Jacobson,  
 I. Kaliman,  J. Kussmann,  A. W. Lange,  Ka Un Lao,  D. S. Levine,  Jie Liu,  
 S. C. McKenzie,  A. F. Morrison,  K. Nanda,  F. Plasser,  D. R. Rehn,  
 M. L. Vidal,  Zhi-Qiang You,  Ying Zhu,  B. Alam,  B. Albrecht,  
 A. Aldossary,  E. Alguire,  J. H. Andersen,  D. Barton,  K. Begam,  A. Behn,  
 Y. A. Bernard,  E. J. Berquist,  H. Burton,  A. Carreras,  K. Carter-Fenk,  
 R. Chakraborty,  A. D. Chien,  K. D. Closser,  V. Cofer-Shabica,  
 S. Dasgupta,  Jia Deng,  M. de Wergifosse,  M. Diedenhofen,  Hainam Do,  
 S. Ehlert,  Po-Tung Fang,  S. Fatehi,  Qingguo Feng,  J. Gayvert,  
 Qinghui Ge,  G. Gidofalvi,  M. Goldey,  J. Gomes,  C. Gonzalez-Espinoza,  
 S. Gulania,  A. Gunina,  M. W. D. Hanson-Heine,  P. H. P. Harbach,  
 A. W. Hauser,  M. F. Herbst,  M. Hernandez Vera,  M. Hodecker,  
 Z. C. Holden,  S. Houck,  Xunkun Huang,  Kerwin Hui,  B. C. Huynh,  
 M. Ivanov,  Hyunjun Ji,  Hanjie Jiang,  B. Kaduk,  S. Kaehler,  
 K. Khistyaev,  Jaehoon Kim,  P. Klunzinger,  Z. Koczor-Benda,  
 Joong Hoon Koh,  D. Kosenkov,  L. Koulias,  T. Kowalczyk,  C. M. Krauter,  
 K. Kue,  A. Kunitsa,  T. Kus,  A. Landau,  K. V. Lawler,  D. Lefrancois,  
 S. Lehtola,  Rain Li,  Yi-Pei Li,  Jiashu Liang,  M. Liebenthal,  
 Hung-Hsuan Lin,  You-Sheng Lin,  Fenglai Liu,  Kuan-Yu Liu,  
 M. Loipersberger,  A. Luenser,  A. Manjanath,  P. Manohar,  E. Mansoor,  
 S. F. Manzer,  Shan-Ping Mao,  A. V. Marenich,  T. Markovich,  S. Mason,  
 S. A. Maurer,  P. F. McLaughlin,  M. F. S. J. Menger,  J.-M. Mewes,  
 S. A. Mewes,  P. Morgante,  J. W. Mullinax,  T. S. Nguyen-Beck,  
 K. J. Oosterbaan,  G. Paran,  Alexander C. Paul,  Suranjan K. Paul,  
 F. Pavosevic,  Zheng Pei,  S. Prager,  E. I. Proynov,  E. Ramos,  B. Rana,  
 A. E. Rask,  A. Rettig,  R. M. Richard,  F. Rob,  E. Rossomme,  T. Scheele,  
 M. Scheurer,  M. Schneider,  N. Sergueev,  S. M. Sharada,  W. Skomorowski,  
 D. W. Small,  C. J. Stein,  Yu-Chuan Su,  E. J. Sundstrom,  Zhen Tao,  
 J. Thirman,  T. Tsuchimochi,  N. M. Tubman,  S. P. Veccham,  O. Vydrov,  
 J. Wenzel,  J. Witte,  A. Yamada,  Kun Yao,  S. Yeganeh,  S. R. Yost,  
 A. Zech,  Igor Ying Zhang,  Xing Zhang,  Yu Zhang,  D. Zuev,  
 A. Aspuru-Guzik,  A. T. Bell,  N. A. Besley,  K. B. Bravaya,  B. R. Brooks,  
 D. Casanova,  Jeng-Da Chai,  S. Coriani,  C. J. Cramer,  
 A. E. DePrince, III,  R. A. DiStasio Jr.,  A. Dreuw,  B. D. Dunietz,  
 T. R. Furlani,  W. A. Goddard III,  S. Grimme,  S. Hammes-Schiffer,  
 T. Head-Gordon,  W. J. Hehre,  Chao-Ping Hsu,  T.-C. Jagau,  Yousung Jung,  
 A. Klamt,  Jing Kong,  D. S. Lambrecht,  WanZhen Liang,  N. J. Mayhall,  
 C. W. McCurdy,  J. B. Neaton,  C. Ochsenfeld,  J. A. Parkhill,  R. Peverati,  
 V. A. Rassolov,  Yihan Shao,  L. V. Slipchenko,  T. Stauch,  R. P. Steele,  
 J. E. Subotnik,  A. J. W. Thom,  A. Tkatchenko,  D. G. Truhlar,  
 T. Van Voorhis,  T. A. Wesolowski,  K. B. Whaley,  H. L. Woodcock III,  
 P. M. Zimmerman,  S. Faraji,  P. M. W. Gill,  M. Head-Gordon,  
 J. M. Herbert,  A. I. Krylov

 Contributors to earlier versions of Q-Chem not listed above: 
 R. D. Adamson,  B. Austin,  R. Baer,  J. Baker,  G. J. O. Beran,  
 K. Brandhorst,  S. T. Brown,  E. F. C. Byrd,  A. K. Chakraborty,  
 G. K. L. Chan,  Chun-Min Chang,  Yunqing Chen,  C.-L. Cheng,  
 Siu Hung Chien,  D. M. Chipman,  D. L. Crittenden,  H. Dachsel,  
 R. J. Doerksen,  A. D. Dutoi,  R. G. Edgar,  J. Fosso-Tande,  
 L. Fusti-Molnar,  D. Ghosh,  A. Ghysels,  A. Golubeva-Zadorozhnaya,  
 J. Gonthier,  M. S. Gordon,  S. R. Gwaltney,  G. Hawkins,  J. E. Herr,  
 A. Heyden,  S. Hirata,  E. G. Hohenstein,  G. Kedziora,  F. J. Keil,  
 C. Kelley,  Jihan Kim,  R. A. King,  R. Z. Khaliullin,  P. P. Korambath,  
 W. Kurlancheek,  A. Laurent,  A. M. Lee,  M. S. Lee,  S. V. Levchenko,  
 Ching Yeh Lin,  D. Liotard,  E. Livshits,  R. C. Lochan,  I. Lotan,  
 L. A. Martinez-Martinez,  P. E. Maslen,  N. Nair,  D. P. O'Neill,  
 D. Neuhauser,  E. Neuscamman,  C. M. Oana,  R. Olivares-Amaya,  R. Olson,  
 T. M. Perrine,  B. Peters,  P. A. Pieniazek,  A. Prociuk,  Y. M. Rhee,  
 J. Ritchie,  M. A. Rohrdanz,  E. Rosta,  N. J. Russ,  H. F. Schaefer III,  
 M. W. Schmidt,  N. E. Schultz,  S. Sharma,  N. Shenvi,  C. D. Sherrill,  
 A. C. Simmonett,  A. Sodt,  T. Stein,  D. Stuck,  K. S. Thanthiriwatte,  
 V. Vanovschi,  L. Vogt,  Tao Wang,  A. Warshel,  M. A. Watson,  
 C. F. Williams,  Q. Wu,  X. Xu,  Jun Yang,  W. Zhang,  Yan Zhao

 Please cite Q-Chem as follows:
 Y. Shao et al., Mol. Phys. 113, 184-215 (2015)
 DOI: 10.1080/00268976.2014.952696

 Q-Chem 5.4.0 for Intel X86 EM64T Linux

 Parts of Q-Chem use Armadillo 9.800.1 (Horizon Scraper).
 http://arma.sourceforge.net/

 Q-Chem begins on Wed Dec 13 16:13:15 2023  

 Host: 
0

     Scratch files written to ./qchem2792635//
 May1621 |scratch|qcdevops|jenkins|workspace|build_RNUM    
 Parallel job on  1  processors
 Processing $rem in /cm/shared/apps/spack/cpu/opt/spack/linux-centos8-zen2/gcc-10.2.0/qchem-5.4-akfmr7b3t57bfs6qan3padb2wnb2i7cl/config/preferences:
 Processing $rem in /home/rramji/.qchemrc:
 Symmetry turned off for PCM/SM12/SMD calculation
 Core orbitals will be frozen

 Checking the input file for inconsistencies... 	...done.

 Q-Chem warning in module forms1/BasisType.C, line 2236:

 You are not using the predefined 5D/6D in this basis set.


--------------------------------------------------------------
User input:
--------------------------------------------------------------
$molecule
0 1
C	0.555670	-3.887800	-0.464838
C	-0.505790	-3.701456	0.425760
C	-0.831053	-2.345170	0.697866
H	-1.046496	-4.545233	0.879984
C	-0.000000	-1.450135	-0.000000
S	1.170382	-2.321334	-0.981588
C	-1.939074	-1.934439	1.627381
H	-2.448051	-2.819799	2.055015
H	-2.708853	-1.326210	1.107991
H	-1.561590	-1.325374	2.475210
H	1.002886	-4.815326	-0.839549
C	0.000000	0.000000	0.000000
C	0.215623	0.816623	1.113020
C	0.571102	2.161411	0.820578
H	0.116470	0.441406	2.142881
C	0.634696	2.401276	-0.563588
S	0.247646	0.938489	-1.464748
C	0.843182	3.190669	1.882380
H	0.728628	2.757614	2.894974
H	0.148095	4.052998	1.808137
H	1.873652	3.596752	1.808230
H	0.879464	3.327513	-1.097114
$end

$rem
JOBTYPE		SP
EXCHANGE	HF
CORRELATION	pRIMP2
BASIS		cc-pvtz
METHOD		rimp2
AUX_BASIS	rimp2-cc-pvtz
SOLVENT_METHOD	PCM
PURECART	11111
SYMMETRY	false
MEM_TOTAL	110000
SCF_CONVERGENCE = 6
THRESH=10
GUI = 2
$end



$solvent
dielectric 4.90
$end
--------------------------------------------------------------
 ----------------------------------------------------------------
             Standard Nuclear Orientation (Angstroms)
    I     Atom           X                Y                Z
 ----------------------------------------------------------------
    1      C       0.5556700000    -3.8878000000    -0.4648380000
    2      C      -0.5057900000    -3.7014560000     0.4257600000
    3      C      -0.8310530000    -2.3451700000     0.6978660000
    4      H      -1.0464960000    -4.5452330000     0.8799840000
    5      C       0.0000000000    -1.4501350000     0.0000000000
    6      S       1.1703820000    -2.3213340000    -0.9815880000
    7      C      -1.9390740000    -1.9344390000     1.6273810000
    8      H      -2.4480510000    -2.8197990000     2.0550150000
    9      H      -2.7088530000    -1.3262100000     1.1079910000
   10      H      -1.5615900000    -1.3253740000     2.4752100000
   11      H       1.0028860000    -4.8153260000    -0.8395490000
   12      C       0.0000000000     0.0000000000     0.0000000000
   13      C       0.2156230000     0.8166230000     1.1130200000
   14      C       0.5711020000     2.1614110000     0.8205780000
   15      H       0.1164700000     0.4414060000     2.1428810000
   16      C       0.6346960000     2.4012760000    -0.5635880000
   17      S       0.2476460000     0.9384890000    -1.4647480000
   18      C       0.8431820000     3.1906690000     1.8823800000
   19      H       0.7286280000     2.7576140000     2.8949740000
   20      H       0.1480950000     4.0529980000     1.8081370000
   21      H       1.8736520000     3.5967520000     1.8082300000
   22      H       0.8794640000     3.3275130000    -1.0971140000
 ----------------------------------------------------------------
 Nuclear Repulsion Energy =         835.05937277 hartrees
 There are       51 alpha and       51 beta electrons
 Requested basis set is cc-pVTZ
 There are 184 shells and 508 basis functions

 Total QAlloc Memory Limit 110000 MB
 Mega-Array Size       188 MB
 MEM_STATIC part       192 MB
 Discretize the solute cavity surface with Lebedev spheres
	Using 110 Lebedev grid points for each H atom
	Using 194 Lebedev grid points for other atoms
	Atomic van der Waals radii will be scaled by 1.20
 Remove points where switching function is < 1.0e-08
 Keep 1539 surface tesserae and discard 1889 interior tesserae
 Molecular Surface Area = 234.302 Angst**2
 Requested basis set is rimp2-cc-pVTZ
 There are 394 shells and 1354 basis functions
 A cutoff of  1.0D-10 yielded  12273 shell pairs
 There are     91047 function pairs (    117514 Cartesian)
 Smallest overlap matrix eigenvalue = 7.41E-05

 Scale SEOQF with 1.000000e-01/1.000000e-01/1.000000e-01

 Standard Electronic Orientation quadrupole field applied
 Nucleus-field energy     =     0.0000000290 hartrees
 Guess from superposition of atomic densities
 Warning:  Energy on first SCF cycle will be non-variational
 SAD guess density has 102.000000 electrons

 -----------------------------------------------------------------------
  General SCF calculation program by
  Eric Jon Sundstrom, Paul Horn, Yuezhi Mao, Dmitri Zuev, Alec White,
  David Stuck, Shaama M.S., Shane Yost, Joonho Lee, David Small,
  Daniel Levine, Susi Lehtola, Hugh Burton, Evgeny Epifanovsky,
  Bang C. Huynh
 -----------------------------------------------------------------------
 Hartree-Fock
 using 64 threads for integral computing
 -------------------------------------------------------
 OpenMP Integral computing Module                
 Release: version 1.0, May 2013, Q-Chem Inc. Pittsburgh 
 -------------------------------------------------------
 A restricted SCF calculation will be
 performed using DIIS
 SCF converges when DIIS error is below 1.0e-06
 ---------------------------------------
  Cycle       Energy         DIIS error
 ---------------------------------------
    1   -1184.1997337575      2.38e-02  
    2   -1179.5433935666      1.60e-03  
    3   -1179.6635745441      6.24e-04  
    4   -1179.6773874920      3.43e-04  
    5   -1179.6823173231      6.59e-05  
    6   -1179.6825926626      3.03e-05  
    7   -1179.6826767985      1.24e-05  
    8   -1179.6827034620      5.28e-06  
    9   -1179.6827081830      1.64e-06  
   10   -1179.6827086284      5.04e-07  Convergence criterion met
 ---------------------------------------
 SCF time:   CPU 1512.93s  wall 45.00s 

************** Final PCM Free Energy Summary **************
 G_electrostatic  =      -0.00832665 hartree =      -5.22505101 kcal/mol
 G_cavitation     =       0.00000000 hartree =       0.00000000 kcal/mol
 G_dispersion     =       0.00000000 hartree =       0.00000000 kcal/mol
 G_repulsion      =       0.00000000 hartree =       0.00000000 kcal/mol
 --------------------------------------------------
 Non-electrostatic Free Energy =       0.00000000 hartree =       0.00000000 kcal/mol
 Total                         =      -0.00832665 hartree =      -5.22505101 kcal/mol
 --------------------------------------------------
 SCF Energy (H0 + V/2)                       =   -1179.68270863 
 Solute Internal Energy (H0)                 =   -1179.67438198 
 Total Free Energy (H0 + V/2 + non-elec)     =   -1179.68270863 hartree
                                             = -740262.07243925 kcal/mol
***********************************************************

 SCF   energy in the final basis set =    -1179.6827086284
 Total energy in the final basis set =    -1179.6827086284


 --------------------------------------------------------------
  Generalized many-body perturbation theory program
  by Joonho Lee, Fazle Rob, Xintian Feng, Evgeny Epifanovsky

 No regularization used 
 (reg. param. = 0.0000e+00)
  (P|Q)^-1/2 Time:  CPU 23.32 s  wall 0.37 s

 In RI-MP2 calculation: 
 # of frozen core orbitals: 20

 Components of the RIMP2 correlation energy:
        aaaa    correlation energy =        -0.2525260568 a.u.
        abab    correlation energy =        -1.4740990972 a.u.
        bbbb    correlation energy =        -0.2525260568 a.u.
        non-Brillouin singles      =        -0.0000000000 a.u.
        total same-spin energy     =        -0.5050521135 a.u.
        total opposite-spin energy =        -1.4740990972 a.u.

 Total  RIMP2   correlation energy =        -1.9791512107 a.u.
        RIMP2         total energy =     -1181.6618598391 a.u.

 RI-MP2 Energy Time:  CPU 161.93 s  wall 2.98 s
 
 --------------------------------------------------------------
 
                    Orbital Energies (a.u.)
 --------------------------------------------------------------
 
 Alpha MOs
 -- Occupied --
-91.9865 -91.9856 -11.2805 -11.2762 -11.2711 -11.2660 -11.2522 -11.2512
-11.2425 -11.2425 -11.2295 -11.2293  -8.9860  -8.9852  -6.6669  -6.6664
 -6.6661  -6.6658  -6.6655  -6.6649  -1.1795  -1.1498  -1.0404  -1.0239
 -0.9961  -0.9555  -0.9125  -0.8935  -0.8012  -0.7526  -0.7306  -0.6965
 -0.6615  -0.6159  -0.5856  -0.5801  -0.5699  -0.5656  -0.5517  -0.5347
 -0.5297  -0.5203  -0.5068  -0.4916  -0.4869  -0.4711  -0.4584  -0.3548
 -0.3415  -0.3367  -0.2820
 -- Virtual --
  0.0730   0.1204   0.1416   0.1521   0.1622   0.1740   0.1782   0.1872
  0.1956   0.1995   0.2043   0.2225   0.2305   0.2365   0.2382   0.2442
  0.2570   0.2802   0.2921   0.3218   0.3389   0.3459   0.3625   0.3730
  0.3773   0.3813   0.3884   0.4017   0.4070   0.4102   0.4269   0.4351
  0.4387   0.4500   0.4698   0.4775   0.4797   0.4901   0.4936   0.5037
  0.5054   0.5130   0.5273   0.5333   0.5419   0.5510   0.5587   0.5645
  0.5720   0.5849   0.5905   0.5980   0.6013   0.6088   0.6135   0.6237
  0.6247   0.6305   0.6412   0.6448   0.6469   0.6515   0.6627   0.6667
  0.6816   0.6934   0.6976   0.7076   0.7175   0.7243   0.7306   0.7541
  0.7661   0.7826   0.7879   0.7972   0.8102   0.8275   0.8393   0.8435
  0.8558   0.8706   0.8741   0.8972   0.9021   0.9115   0.9301   0.9398
  0.9477   0.9526   0.9723   0.9977   1.0056   1.0169   1.0253   1.0339
  1.0438   1.0580   1.0642   1.0708   1.0781   1.0856   1.0867   1.1025
  1.1055   1.1250   1.1308   1.1357   1.1485   1.1632   1.1751   1.2010
  1.2038   1.2129   1.2217   1.2351   1.2376   1.2506   1.2612   1.2662
  1.2741   1.2803   1.3139   1.3188   1.3334   1.3382   1.3542   1.3740
  1.3791   1.3876   1.4034   1.4126   1.4170   1.4357   1.4486   1.4632
  1.4742   1.4824   1.5026   1.5058   1.5140   1.5195   1.5382   1.5443
  1.5541   1.5645   1.5696   1.5807   1.5839   1.5951   1.6076   1.6426
  1.6545   1.6622   1.6667   1.6859   1.6937   1.7130   1.7210   1.7286
  1.7421   1.7575   1.7651   1.7820   1.7989   1.8031   1.8416   1.8468
  1.8851   1.9021   1.9043   1.9102   1.9335   1.9572   1.9648   1.9723
  2.0055   2.0374   2.0791   2.0929   2.1238   2.1393   2.1487   2.1704
  2.1779   2.1915   2.2129   2.2246   2.2264   2.2598   2.2640   2.2721
  2.2909   2.2943   2.3221   2.3907   2.4041   2.4347   2.4391   2.4516
  2.4684   2.4929   2.5067   2.5198   2.5403   2.5600   2.5806   2.5911
  2.6040   2.6291   2.6487   2.6636   2.6715   2.6847   2.7200   2.7305
  2.7379   2.7471   2.7530   2.7603   2.7734   2.7767   2.8018   2.8105
  2.8263   2.8425   2.8468   2.8639   2.8860   2.8936   2.9112   2.9256
  2.9547   2.9668   2.9731   2.9882   3.0066   3.0194   3.0262   3.0342
  3.0355   3.0724   3.0971   3.1099   3.1137   3.1248   3.1346   3.1424
  3.1446   3.1499   3.1667   3.1690   3.1886   3.2036   3.2124   3.2166
  3.2413   3.2485   3.2527   3.2704   3.2797   3.2901   3.2942   3.3150
  3.3175   3.3190   3.3338   3.3473   3.3512   3.3560   3.3630   3.3784
  3.3912   3.3976   3.4053   3.4138   3.4153   3.4164   3.4272   3.4386
  3.4446   3.4621   3.4717   3.4757   3.4826   3.5082   3.5134   3.5191
  3.5285   3.5321   3.5401   3.5515   3.5538   3.5740   3.5848   3.5986
  3.6058   3.6142   3.6231   3.6305   3.6341   3.6394   3.6557   3.6629
  3.6718   3.6815   3.6931   3.7022   3.7214   3.7289   3.7402   3.7545
  3.7658   3.7669   3.7842   3.7909   3.7973   3.8159   3.8216   3.8400
  3.8559   3.8675   3.8822   3.8921   3.9144   3.9231   3.9426   3.9612
  3.9720   3.9880   3.9984   4.0004   4.0181   4.0339   4.0376   4.0493
  4.0580   4.0726   4.0935   4.0989   4.1073   4.1382   4.1420   4.1458
  4.1635   4.1704   4.1901   4.1958   4.1975   4.2138   4.2200   4.2283
  4.2478   4.2707   4.2785   4.2851   4.2904   4.3069   4.3217   4.3395
  4.3470   4.3544   4.3682   4.3981   4.4006   4.4089   4.4118   4.4214
  4.4380   4.4516   4.4626   4.4697   4.4921   4.5045   4.5400   4.5604
  4.5801   4.5974   4.5998   4.6137   4.6365   4.6436   4.6582   4.6685
  4.6948   4.7300   4.7371   4.7607   4.7733   4.7817   4.8198   4.8282
  4.8716   4.8977   4.9125   4.9180   4.9534   4.9812   5.0060   5.0554
  5.0935   5.0983   5.1151   5.1327   5.1753   5.1785   5.2008   5.2472
  5.2671   5.2789   5.2889   5.3074   5.3185   5.3694   5.3959   5.4004
  5.4205   5.4476   5.4661   5.4901   5.5144   5.5289   5.5454   5.5553
  5.5588   5.6131   5.6208   5.6298   5.6423   5.6671   5.6980   5.7124
  5.7774   5.8258   5.9110   5.9669   6.0222   6.0976   6.1303   6.2255
  6.2356   6.2458   6.2790   6.2921   6.3256   6.4311   6.5126   8.7775
  9.9027  11.6516  11.9882  12.9067  13.0102  13.7605  13.9789  14.2279
 14.3130
 --------------------------------------------------------------
 
          Ground-State Mulliken Net Atomic Charges

     Atom                 Charge (a.u.)
  ----------------------------------------
      1 C                    -0.214217
      2 C                    -0.250280
      3 C                     0.041051
      4 H                     0.184920
      5 C                    -0.038544
      6 S                     0.021457
      7 C                    -0.287072
      8 H                     0.109065
      9 H                     0.111894
     10 H                     0.106962
     11 H                     0.204345
     12 C                    -0.005569
     13 C                    -0.217012
     14 C                     0.013245
     15 H                     0.191838
     16 C                    -0.231935
     17 S                     0.013807
     18 C                    -0.271965
     19 H                     0.102285
     20 H                     0.108207
     21 H                     0.108633
     22 H                     0.198887
  ----------------------------------------
  Sum of atomic charges =     0.000000

 -----------------------------------------------------------------
                    Cartesian Multipole Moments
 -----------------------------------------------------------------
    Charge (ESU x 10^10)
                -0.0000
    Dipole Moment (Debye)
         X      -0.6291      Y       0.3627      Z       2.4439
       Tot       2.5495
    Quadrupole Moments (Debye-Ang)
        XX     -88.2028     XY       4.4015     YY     -69.6611
        XZ      -2.9081     YZ      -0.3665     ZZ     -83.9579
    Octopole Moments (Debye-Ang^2)
       XXX     -49.0550    XXY      39.7848    XYY      -3.7496
       YYY     100.0571    XXZ      -3.6894    XYZ      11.5062
       YYZ      -8.3193    XZZ     -14.3957    YZZ      51.9400
       ZZZ      -5.7326
    Hexadecapole Moments (Debye-Ang^3)
      XXXX    -524.2115   XXXY    -120.3725   XXYY    -557.1536
      XYYY    -120.1075   YYYY   -2536.8433   XXXZ     109.6751
      XXYZ     -35.5643   XYYZ     -16.6176   YYYZ     -87.6492
      XXZZ    -217.4300   XYZZ     -31.3018   YYZZ    -602.0178
      XZZZ     111.1153   YZZZ    -100.3282   ZZZZ    -768.9296
 -----------------------------------------------------------------
 Total job time:  50.26s(wall), 1742.36s(cpu) 
 Wed Dec 13 16:14:06 2023

        *************************************************************
        *                                                           *
        *  Thank you very much for using Q-Chem.  Have a nice day.  *
        *                                                           *
        *************************************************************


0 sent ACK to 0 
now end server 0 ... 
cleanup process ... done
remove work dirs ./qchem2792635.0 -- ./qchem2792635.0
rm -rf ./qchem2792635.0
rm -rf ./qchem2792635
