You are running Q-Chem version: 5.4.0

#
# job setting
#
local host:  exp-2-02
current dir: /home/rramji/project-csd799/aromodel/pndit-qchem/hydrogenated-rotation-run
input file:  Dimethyl_Naphthalene_Dicarboximide_Phi_10_Theta_230_Thiophene_Hydrogenated.qcin
output file: 
nprocs     : 1
nthreads   : 64
#
# qchem installation setting
#
QC:          /cm/shared/apps/spack/cpu/opt/spack/linux-centos8-zen2/gcc-10.2.0/qchem-5.4-akfmr7b3t57bfs6qan3padb2wnb2i7cl
QCAUX:       /cm/shared/apps/spack/cpu/opt/spack/linux-centos8-zen2/gcc-10.2.0/qchem-5.4-akfmr7b3t57bfs6qan3padb2wnb2i7cl/qcaux
QCPROG:      /cm/shared/apps/spack/cpu/opt/spack/linux-centos8-zen2/gcc-10.2.0/qchem-5.4-akfmr7b3t57bfs6qan3padb2wnb2i7cl/exe/qcprog.exe
QCPROG_S:    /cm/shared/apps/spack/cpu/opt/spack/linux-centos8-zen2/gcc-10.2.0/qchem-5.4-akfmr7b3t57bfs6qan3padb2wnb2i7cl/exe/qcprog.exe_s
PARALLEL:    -DPARALLEL
QCMPI:       mpich
#
# qchem directory setting
#
qcrun:       qchem1246730
QCSCRATCH:   .
QCLOCALSCR:  
QCTMPDIR:    .
QCFILEPREF:  ./qchem1246730
QCSAVEDIR:   
workdirs:    ./qchem1246730
workdir0:    ./qchem1246730
partmpdirs =  
#
# parallel setting
#
QCRSH:           ssh
QCMPI:           mpich
QCMPIRUN:        /cm/shared/apps/spack/cpu/opt/spack/linux-centos8-zen2/gcc-10.2.0/qchem-5.4-akfmr7b3t57bfs6qan3padb2wnb2i7cl/bin/mpi/mpirun_qchem
QCMACHINEFILE:   ./qchem1246730/hostfile
exp-2-02

#
# env setting
#
exported envs:   QC QCAUX QCSCRATCH QCRUNNAME QCFILEPREF QCPROG QCPROG_S GUIFILE

Running Job 1 of 1 Dimethyl_Naphthalene_Dicarboximide_Phi_10_Theta_230_Thiophene_Hydrogenated.qcin
qchem Dimethyl_Naphthalene_Dicarboximide_Phi_10_Theta_230_Thiophene_Hydrogenated.qcin_1246730.0 ./qchem1246730/ 1
/cm/shared/apps/spack/cpu/opt/spack/linux-centos8-zen2/gcc-10.2.0/qchem-5.4-akfmr7b3t57bfs6qan3padb2wnb2i7cl/bin/mpi/mpirun_qchem -machinefile ./qchem1246730/hostfile -np 1 /cm/shared/apps/spack/cpu/opt/spack/linux-centos8-zen2/gcc-10.2.0/qchem-5.4-akfmr7b3t57bfs6qan3padb2wnb2i7cl/exe/qcprog.exe Dimethyl_Naphthalene_Dicarboximide_Phi_10_Theta_230_Thiophene_Hydrogenated.qcin_1246730.0 ./qchem1246730/

Process 0 of 1 is on exp-2-02 - thread support 0
initial socket setup ...start
initial socket setup ...done 
now start server 0 ... 
                  Welcome to Q-Chem
     A Quantum Leap Into The Future Of Chemistry


 Q-Chem 5.4, Q-Chem, Inc., Pleasanton, CA (2021)

 License issued to: University of California, San Diego (site)

 E. Epifanovsky,  A. T. B. Gilbert,  Xintian Feng,  Joonho Lee,  Yuezhi Mao,  
 N. Mardirossian,  P. Pokhilko,  A. White,  M. Wormit,  M. P. Coons,  
 A. L. Dempwolff,  Zhengting Gan,  D. Hait,  P. R. Horn,  L. D. Jacobson,  
 I. Kaliman,  J. Kussmann,  A. W. Lange,  Ka Un Lao,  D. S. Levine,  Jie Liu,  
 S. C. McKenzie,  A. F. Morrison,  K. Nanda,  F. Plasser,  D. R. Rehn,  
 M. L. Vidal,  Zhi-Qiang You,  Ying Zhu,  B. Alam,  B. Albrecht,  
 A. Aldossary,  E. Alguire,  J. H. Andersen,  D. Barton,  K. Begam,  A. Behn,  
 Y. A. Bernard,  E. J. Berquist,  H. Burton,  A. Carreras,  K. Carter-Fenk,  
 R. Chakraborty,  A. D. Chien,  K. D. Closser,  V. Cofer-Shabica,  
 S. Dasgupta,  Jia Deng,  M. de Wergifosse,  M. Diedenhofen,  Hainam Do,  
 S. Ehlert,  Po-Tung Fang,  S. Fatehi,  Qingguo Feng,  J. Gayvert,  
 Qinghui Ge,  G. Gidofalvi,  M. Goldey,  J. Gomes,  C. Gonzalez-Espinoza,  
 S. Gulania,  A. Gunina,  M. W. D. Hanson-Heine,  P. H. P. Harbach,  
 A. W. Hauser,  M. F. Herbst,  M. Hernandez Vera,  M. Hodecker,  
 Z. C. Holden,  S. Houck,  Xunkun Huang,  Kerwin Hui,  B. C. Huynh,  
 M. Ivanov,  Hyunjun Ji,  Hanjie Jiang,  B. Kaduk,  S. Kaehler,  
 K. Khistyaev,  Jaehoon Kim,  P. Klunzinger,  Z. Koczor-Benda,  
 Joong Hoon Koh,  D. Kosenkov,  L. Koulias,  T. Kowalczyk,  C. M. Krauter,  
 K. Kue,  A. Kunitsa,  T. Kus,  A. Landau,  K. V. Lawler,  D. Lefrancois,  
 S. Lehtola,  Rain Li,  Yi-Pei Li,  Jiashu Liang,  M. Liebenthal,  
 Hung-Hsuan Lin,  You-Sheng Lin,  Fenglai Liu,  Kuan-Yu Liu,  
 M. Loipersberger,  A. Luenser,  A. Manjanath,  P. Manohar,  E. Mansoor,  
 S. F. Manzer,  Shan-Ping Mao,  A. V. Marenich,  T. Markovich,  S. Mason,  
 S. A. Maurer,  P. F. McLaughlin,  M. F. S. J. Menger,  J.-M. Mewes,  
 S. A. Mewes,  P. Morgante,  J. W. Mullinax,  T. S. Nguyen-Beck,  
 K. J. Oosterbaan,  G. Paran,  Alexander C. Paul,  Suranjan K. Paul,  
 F. Pavosevic,  Zheng Pei,  S. Prager,  E. I. Proynov,  E. Ramos,  B. Rana,  
 A. E. Rask,  A. Rettig,  R. M. Richard,  F. Rob,  E. Rossomme,  T. Scheele,  
 M. Scheurer,  M. Schneider,  N. Sergueev,  S. M. Sharada,  W. Skomorowski,  
 D. W. Small,  C. J. Stein,  Yu-Chuan Su,  E. J. Sundstrom,  Zhen Tao,  
 J. Thirman,  T. Tsuchimochi,  N. M. Tubman,  S. P. Veccham,  O. Vydrov,  
 J. Wenzel,  J. Witte,  A. Yamada,  Kun Yao,  S. Yeganeh,  S. R. Yost,  
 A. Zech,  Igor Ying Zhang,  Xing Zhang,  Yu Zhang,  D. Zuev,  
 A. Aspuru-Guzik,  A. T. Bell,  N. A. Besley,  K. B. Bravaya,  B. R. Brooks,  
 D. Casanova,  Jeng-Da Chai,  S. Coriani,  C. J. Cramer,  
 A. E. DePrince, III,  R. A. DiStasio Jr.,  A. Dreuw,  B. D. Dunietz,  
 T. R. Furlani,  W. A. Goddard III,  S. Grimme,  S. Hammes-Schiffer,  
 T. Head-Gordon,  W. J. Hehre,  Chao-Ping Hsu,  T.-C. Jagau,  Yousung Jung,  
 A. Klamt,  Jing Kong,  D. S. Lambrecht,  WanZhen Liang,  N. J. Mayhall,  
 C. W. McCurdy,  J. B. Neaton,  C. Ochsenfeld,  J. A. Parkhill,  R. Peverati,  
 V. A. Rassolov,  Yihan Shao,  L. V. Slipchenko,  T. Stauch,  R. P. Steele,  
 J. E. Subotnik,  A. J. W. Thom,  A. Tkatchenko,  D. G. Truhlar,  
 T. Van Voorhis,  T. A. Wesolowski,  K. B. Whaley,  H. L. Woodcock III,  
 P. M. Zimmerman,  S. Faraji,  P. M. W. Gill,  M. Head-Gordon,  
 J. M. Herbert,  A. I. Krylov

 Contributors to earlier versions of Q-Chem not listed above: 
 R. D. Adamson,  B. Austin,  R. Baer,  J. Baker,  G. J. O. Beran,  
 K. Brandhorst,  S. T. Brown,  E. F. C. Byrd,  A. K. Chakraborty,  
 G. K. L. Chan,  Chun-Min Chang,  Yunqing Chen,  C.-L. Cheng,  
 Siu Hung Chien,  D. M. Chipman,  D. L. Crittenden,  H. Dachsel,  
 R. J. Doerksen,  A. D. Dutoi,  R. G. Edgar,  J. Fosso-Tande,  
 L. Fusti-Molnar,  D. Ghosh,  A. Ghysels,  A. Golubeva-Zadorozhnaya,  
 J. Gonthier,  M. S. Gordon,  S. R. Gwaltney,  G. Hawkins,  J. E. Herr,  
 A. Heyden,  S. Hirata,  E. G. Hohenstein,  G. Kedziora,  F. J. Keil,  
 C. Kelley,  Jihan Kim,  R. A. King,  R. Z. Khaliullin,  P. P. Korambath,  
 W. Kurlancheek,  A. Laurent,  A. M. Lee,  M. S. Lee,  S. V. Levchenko,  
 Ching Yeh Lin,  D. Liotard,  E. Livshits,  R. C. Lochan,  I. Lotan,  
 L. A. Martinez-Martinez,  P. E. Maslen,  N. Nair,  D. P. O'Neill,  
 D. Neuhauser,  E. Neuscamman,  C. M. Oana,  R. Olivares-Amaya,  R. Olson,  
 T. M. Perrine,  B. Peters,  P. A. Pieniazek,  A. Prociuk,  Y. M. Rhee,  
 J. Ritchie,  M. A. Rohrdanz,  E. Rosta,  N. J. Russ,  H. F. Schaefer III,  
 M. W. Schmidt,  N. E. Schultz,  S. Sharma,  N. Shenvi,  C. D. Sherrill,  
 A. C. Simmonett,  A. Sodt,  T. Stein,  D. Stuck,  K. S. Thanthiriwatte,  
 V. Vanovschi,  L. Vogt,  Tao Wang,  A. Warshel,  M. A. Watson,  
 C. F. Williams,  Q. Wu,  X. Xu,  Jun Yang,  W. Zhang,  Yan Zhao

 Please cite Q-Chem as follows:
 Y. Shao et al., Mol. Phys. 113, 184-215 (2015)
 DOI: 10.1080/00268976.2014.952696

 Q-Chem 5.4.0 for Intel X86 EM64T Linux

 Parts of Q-Chem use Armadillo 9.800.1 (Horizon Scraper).
 http://arma.sourceforge.net/

 Q-Chem begins on Wed Dec 27 12:04:40 2023  

 Host: 
0

     Scratch files written to ./qchem1246730//
 May1621 |scratch|qcdevops|jenkins|workspace|build_RNUM    
 Parallel job on  1  processors
 Processing $rem in /cm/shared/apps/spack/cpu/opt/spack/linux-centos8-zen2/gcc-10.2.0/qchem-5.4-akfmr7b3t57bfs6qan3padb2wnb2i7cl/config/preferences:
 Processing $rem in /home/rramji/.qchemrc:
 Symmetry turned off for PCM/SM12/SMD calculation
 Core orbitals will be frozen

 Checking the input file for inconsistencies... 	...done.

 Q-Chem warning in module forms1/BasisType.C, line 2236:

 You are not using the predefined 5D/6D in this basis set.


--------------------------------------------------------------
User input:
--------------------------------------------------------------
$molecule
0 1
C	-0.195868	-6.741404	0.166281
C	-1.196048	-6.155638	1.005696
C	0.634911	-5.791452	-0.530233
C	-1.409599	-4.803786	1.184587
H	-1.868538	-6.821518	1.570232
C	0.410996	-4.378638	-0.343266
C	-0.608444	-3.838032	0.511683
C	1.211179	-3.413062	-1.015440
C	-0.830559	-2.426473	0.697165
C	0.999915	-2.059348	-0.838968
C	0.000000	-1.478216	0.000000
H	1.673009	-1.394783	-1.404302
C	1.741129	-6.187987	-1.456059
C	2.307170	-3.798164	-1.934944
N	2.494766	-5.170003	-2.090139
C	-2.508468	-4.424987	2.106725
C	-1.936893	-2.036627	1.624494
N	-2.690936	-3.049156	2.258486
O	2.042736	-7.353131	-1.705414
O	3.013823	-2.986854	-2.529122
O	-3.206857	-5.248946	2.693680
O	-2.254108	-0.878829	1.888802
C	3.577543	-5.563799	-2.997334
H	3.612920	-6.664085	-3.025519
H	4.536833	-5.147101	-2.635109
H	3.387762	-5.148785	-4.005702
C	-3.756883	-2.587487	3.152347
H	-4.248464	-3.483329	3.566218
H	-4.478763	-1.964972	2.590383
H	-3.329599	-1.962932	3.959687
C	0.000000	0.000000	0.000000
S	0.137535	0.781156	1.580530
C	0.421895	2.393994	0.904911
C	0.173134	0.982857	-0.985400
C	0.402294	2.283058	-0.493528
H	0.132237	0.750786	-2.059934
H	0.555196	3.150621	-1.152593
H	0.574741	3.261310	1.556025
H	-0.691254	-7.361589	-0.590631
H	0.463164	-7.361192	0.786357
H	-0.693804	-1.478831	-0.827669
$end

$rem
JOBTYPE		SP
EXCHANGE	HF
CORRELATION	pRIMP2
BASIS		cc-pvtz
METHOD		rimp2
AUX_BASIS	rimp2-cc-pvtz
SOLVENT_METHOD	PCM
PURECART	11111
SYMMETRY	false
MEM_TOTAL	110000
SCF_CONVERGENCE = 6
THRESH=10
GUI = 2
$end



$solvent
dielectric 4.90
$end
--------------------------------------------------------------
 ----------------------------------------------------------------
             Standard Nuclear Orientation (Angstroms)
    I     Atom           X                Y                Z
 ----------------------------------------------------------------
    1      C      -0.1958680000    -6.7414040000     0.1662810000
    2      C      -1.1960480000    -6.1556380000     1.0056960000
    3      C       0.6349110000    -5.7914520000    -0.5302330000
    4      C      -1.4095990000    -4.8037860000     1.1845870000
    5      H      -1.8685380000    -6.8215180000     1.5702320000
    6      C       0.4109960000    -4.3786380000    -0.3432660000
    7      C      -0.6084440000    -3.8380320000     0.5116830000
    8      C       1.2111790000    -3.4130620000    -1.0154400000
    9      C      -0.8305590000    -2.4264730000     0.6971650000
   10      C       0.9999150000    -2.0593480000    -0.8389680000
   11      C       0.0000000000    -1.4782160000     0.0000000000
   12      H       1.6730090000    -1.3947830000    -1.4043020000
   13      C       1.7411290000    -6.1879870000    -1.4560590000
   14      C       2.3071700000    -3.7981640000    -1.9349440000
   15      N       2.4947660000    -5.1700030000    -2.0901390000
   16      C      -2.5084680000    -4.4249870000     2.1067250000
   17      C      -1.9368930000    -2.0366270000     1.6244940000
   18      N      -2.6909360000    -3.0491560000     2.2584860000
   19      O       2.0427360000    -7.3531310000    -1.7054140000
   20      O       3.0138230000    -2.9868540000    -2.5291220000
   21      O      -3.2068570000    -5.2489460000     2.6936800000
   22      O      -2.2541080000    -0.8788290000     1.8888020000
   23      C       3.5775430000    -5.5637990000    -2.9973340000
   24      H       3.6129200000    -6.6640850000    -3.0255190000
   25      H       4.5368330000    -5.1471010000    -2.6351090000
   26      H       3.3877620000    -5.1487850000    -4.0057020000
   27      C      -3.7568830000    -2.5874870000     3.1523470000
   28      H      -4.2484640000    -3.4833290000     3.5662180000
   29      H      -4.4787630000    -1.9649720000     2.5903830000
   30      H      -3.3295990000    -1.9629320000     3.9596870000
   31      C       0.0000000000     0.0000000000     0.0000000000
   32      S       0.1375350000     0.7811560000     1.5805300000
   33      C       0.4218950000     2.3939940000     0.9049110000
   34      C       0.1731340000     0.9828570000    -0.9854000000
   35      C       0.4022940000     2.2830580000    -0.4935280000
   36      H       0.1322370000     0.7507860000    -2.0599340000
   37      H       0.5551960000     3.1506210000    -1.1525930000
   38      H       0.5747410000     3.2613100000     1.5560250000
   39      H      -0.6912540000    -7.3615890000    -0.5906310000
   40      H       0.4631640000    -7.3611920000     0.7863570000
   41      H      -0.6938040000    -1.4788310000    -0.8276690000
 ----------------------------------------------------------------
 Nuclear Repulsion Energy =        2554.56247267 hartrees
 There are       98 alpha and       98 beta electrons
 Requested basis set is cc-pVTZ
 There are 356 shells and 1010 basis functions

 Total QAlloc Memory Limit 110000 MB
 Mega-Array Size       188 MB
 MEM_STATIC part       192 MB
 Discretize the solute cavity surface with Lebedev spheres
	Using 110 Lebedev grid points for each H atom
	Using 194 Lebedev grid points for other atoms
	Atomic van der Waals radii will be scaled by 1.20
 Remove points where switching function is < 1.0e-08
 Keep 2591 surface tesserae and discard 4187 interior tesserae
 Molecular Surface Area = 367.480 Angst**2
 Requested basis set is rimp2-cc-pVTZ
 There are 770 shells and 2648 basis functions
 A cutoff of  1.0D-10 yielded  34047 shell pairs
 There are    257437 function pairs (    333175 Cartesian)
 Smallest overlap matrix eigenvalue = 9.18E-06

 Q-Chem warning in module stvman/mkSTV.C, line 323:

 Overlap eigenvalue is smaller than square root of threshold
 Use THRESH >= 12 to get rid of this warning


 Scale SEOQF with 1.000000e-01/1.000000e-02/1.000000e-01

 Standard Electronic Orientation quadrupole field applied
 Nucleus-field energy     =    -0.0000000129 hartrees
 Guess from superposition of atomic densities
 Warning:  Energy on first SCF cycle will be non-variational
 SAD guess density has 196.000000 electrons

 -----------------------------------------------------------------------
  General SCF calculation program by
  Eric Jon Sundstrom, Paul Horn, Yuezhi Mao, Dmitri Zuev, Alec White,
  David Stuck, Shaama M.S., Shane Yost, Joonho Lee, David Small,
  Daniel Levine, Susi Lehtola, Hugh Burton, Evgeny Epifanovsky,
  Bang C. Huynh
 -----------------------------------------------------------------------
 Hartree-Fock
 using 64 threads for integral computing
 -------------------------------------------------------
 OpenMP Integral computing Module                
 Release: version 1.0, May 2013, Q-Chem Inc. Pittsburgh 
 -------------------------------------------------------
 A restricted SCF calculation will be
 performed using DIIS
 SCF converges when DIIS error is below 1.0e-06
 ---------------------------------------
  Cycle       Energy         DIIS error
 ---------------------------------------
    1   -1583.0995794775      1.86e-02  
    2   -1571.1647420298      2.03e-03  
    3   -1571.5038070073      1.55e-03  
    4   -1571.7262898156      2.52e-04  
    5   -1571.7399560306      7.76e-05  
    6   -1571.7413431930      2.97e-05  
    7   -1571.7417487117      1.54e-05  
    8   -1571.7418592864      6.19e-06  
    9   -1571.7418782345      2.89e-06  
   10   -1571.7418820548      1.19e-06  
   11   -1571.7418831971      5.67e-07  Convergence criterion met
 ---------------------------------------
 SCF time:   CPU 6900.10s  wall 276.00s 

************** Final PCM Free Energy Summary **************
 G_electrostatic  =      -0.03096694 hartree =     -19.43204884 kcal/mol
 G_cavitation     =       0.00000000 hartree =       0.00000000 kcal/mol
 G_dispersion     =       0.00000000 hartree =       0.00000000 kcal/mol
 G_repulsion      =       0.00000000 hartree =       0.00000000 kcal/mol
 --------------------------------------------------
 Non-electrostatic Free Energy =       0.00000000 hartree =       0.00000000 kcal/mol
 Total                         =      -0.03096694 hartree =     -19.43204884 kcal/mol
 --------------------------------------------------
 SCF Energy (H0 + V/2)                       =   -1571.74188320 
 Solute Internal Energy (H0)                 =   -1571.71091626 
 Total Free Energy (H0 + V/2 + non-elec)     =   -1571.74188320 hartree
                                             = -986282.91767358 kcal/mol
***********************************************************

 SCF   energy in the final basis set =    -1571.7418831971
 Total energy in the final basis set =    -1571.7418831971


 --------------------------------------------------------------
  Generalized many-body perturbation theory program
  by Joonho Lee, Fazle Rob, Xintian Feng, Evgeny Epifanovsky

 No regularization used 
 (reg. param. = 0.0000e+00)
  (P|Q)^-1/2 Time:  CPU 259.57 s  wall 4.64 s

 In RI-MP2 calculation: 
 # of frozen core orbitals: 31

 Components of the RIMP2 correlation energy:
        aaaa    correlation energy =        -0.6155877423 a.u.
        abab    correlation energy =        -3.4262617137 a.u.
        bbbb    correlation energy =        -0.6155877423 a.u.
        non-Brillouin singles      =        -0.0000000000 a.u.
        total same-spin energy     =        -1.2311754846 a.u.
        total opposite-spin energy =        -3.4262617137 a.u.

 Total  RIMP2   correlation energy =        -4.6574371983 a.u.
        RIMP2         total energy =     -1576.3993203954 a.u.

 RI-MP2 Energy Time:  CPU 2098.87 s  wall 34.97 s
 
 --------------------------------------------------------------
 
                    Orbital Energies (a.u.)
 --------------------------------------------------------------
 
 Alpha MOs
 -- Occupied --
-91.9826 -20.5517 -20.5447 -20.5419 -20.5409 -15.6271 -15.6216 -11.3937
-11.3854 -11.3838 -11.3795 -11.3101 -11.3096 -11.3064 -11.3052 -11.2977
-11.2973 -11.2910 -11.2768 -11.2695 -11.2687 -11.2650 -11.2629 -11.2597
-11.2547 -11.2531 -11.2475  -8.9824  -6.6632  -6.6626  -6.6621  -1.4202
 -1.4125  -1.3977  -1.3917  -1.2625  -1.2558  -1.2304  -1.1861  -1.1511
 -1.1147  -1.0868  -1.0474  -0.9948  -0.9881  -0.9813  -0.9553  -0.9505
 -0.8967  -0.8885  -0.8774  -0.8606  -0.7937  -0.7773  -0.7717  -0.7612
 -0.7390  -0.7172  -0.7034  -0.6917  -0.6809  -0.6736  -0.6670  -0.6575
 -0.6475  -0.6457  -0.6366  -0.6330  -0.6312  -0.6285  -0.6213  -0.6050
 -0.5852  -0.5748  -0.5656  -0.5619  -0.5582  -0.5517  -0.5509  -0.5482
 -0.5474  -0.5440  -0.5199  -0.5139  -0.5103  -0.4828  -0.4745  -0.4595
 -0.4569  -0.4501  -0.4429  -0.4349  -0.4132  -0.4078  -0.3537  -0.3474
 -0.3287  -0.2844
 -- Virtual --
  0.0129   0.0428   0.0900   0.1007   0.1359   0.1498   0.1552   0.1603
  0.1633   0.1718   0.1766   0.1809   0.1825   0.1904   0.2027   0.2049
  0.2146   0.2205   0.2252   0.2293   0.2296   0.2335   0.2381   0.2440
  0.2660   0.2693   0.2986   0.3030   0.3117   0.3217   0.3241   0.3271
  0.3319   0.3435   0.3469   0.3484   0.3553   0.3628   0.3658   0.3706
  0.3732   0.3769   0.3833   0.3861   0.3900   0.3928   0.3949   0.4089
  0.4182   0.4208   0.4291   0.4334   0.4381   0.4435   0.4450   0.4498
  0.4544   0.4617   0.4625   0.4698   0.4764   0.4830   0.4839   0.4911
  0.4978   0.5011   0.5047   0.5117   0.5159   0.5185   0.5261   0.5327
  0.5331   0.5368   0.5467   0.5509   0.5517   0.5582   0.5603   0.5673
  0.5694   0.5724   0.5755   0.5828   0.5854   0.5932   0.5966   0.5998
  0.6034   0.6057   0.6068   0.6092   0.6102   0.6176   0.6208   0.6227
  0.6234   0.6312   0.6336   0.6364   0.6376   0.6384   0.6488   0.6525
  0.6560   0.6624   0.6741   0.6812   0.6873   0.6908   0.6953   0.7015
  0.7051   0.7159   0.7171   0.7318   0.7353   0.7400   0.7465   0.7600
  0.7610   0.7675   0.7734   0.7772   0.7782   0.7920   0.7999   0.8062
  0.8115   0.8158   0.8186   0.8242   0.8305   0.8347   0.8447   0.8483
  0.8497   0.8527   0.8585   0.8672   0.8687   0.8743   0.8792   0.8841
  0.8868   0.9041   0.9086   0.9108   0.9145   0.9187   0.9276   0.9284
  0.9338   0.9391   0.9442   0.9485   0.9599   0.9623   0.9726   0.9774
  0.9782   0.9820   0.9872   0.9976   1.0039   1.0092   1.0160   1.0225
  1.0254   1.0287   1.0365   1.0416   1.0476   1.0519   1.0610   1.0628
  1.0670   1.0721   1.0734   1.0835   1.0889   1.0905   1.0957   1.1054
  1.1081   1.1175   1.1207   1.1261   1.1296   1.1331   1.1394   1.1414
  1.1461   1.1558   1.1608   1.1674   1.1715   1.1761   1.1823   1.1906
  1.1949   1.1957   1.2019   1.2066   1.2088   1.2155   1.2194   1.2301
  1.2329   1.2374   1.2403   1.2451   1.2500   1.2570   1.2638   1.2782
  1.2843   1.2911   1.2951   1.3042   1.3099   1.3260   1.3305   1.3319
  1.3461   1.3505   1.3597   1.3650   1.3672   1.3777   1.3849   1.3877
  1.3910   1.3929   1.4061   1.4085   1.4162   1.4189   1.4319   1.4426
  1.4459   1.4528   1.4615   1.4681   1.4704   1.4772   1.4901   1.4923
  1.4995   1.5048   1.5113   1.5173   1.5233   1.5276   1.5322   1.5388
  1.5420   1.5465   1.5529   1.5579   1.5631   1.5664   1.5703   1.5788
  1.5865   1.5889   1.6045   1.6077   1.6219   1.6252   1.6344   1.6409
  1.6429   1.6507   1.6644   1.6701   1.6810   1.6864   1.6885   1.6905
  1.7070   1.7124   1.7221   1.7313   1.7345   1.7382   1.7513   1.7520
  1.7630   1.7703   1.7768   1.7804   1.7844   1.7975   1.8024   1.8207
  1.8234   1.8375   1.8417   1.8459   1.8528   1.8622   1.8637   1.8718
  1.8728   1.8817   1.8834   1.8962   1.9070   1.9213   1.9335   1.9393
  1.9507   1.9640   1.9703   1.9869   1.9941   2.0013   2.0164   2.0311
  2.0361   2.0408   2.0526   2.0590   2.0933   2.0949   2.1019   2.1210
  2.1360   2.1413   2.1595   2.1704   2.1852   2.1922   2.2094   2.2224
  2.2361   2.2525   2.2542   2.2652   2.2856   2.2934   2.2973   2.3124
  2.3149   2.3218   2.3341   2.3407   2.3524   2.3627   2.3712   2.3877
  2.4019   2.4243   2.4319   2.4424   2.4499   2.4574   2.4605   2.4699
  2.4788   2.4852   2.4930   2.5013   2.5072   2.5180   2.5371   2.5565
  2.5607   2.5631   2.5704   2.5842   2.5923   2.6055   2.6090   2.6117
  2.6260   2.6389   2.6395   2.6409   2.6562   2.6605   2.6638   2.6725
  2.6857   2.6874   2.6933   2.7064   2.7171   2.7230   2.7286   2.7305
  2.7427   2.7469   2.7545   2.7580   2.7658   2.7726   2.7837   2.8006
  2.8046   2.8253   2.8312   2.8391   2.8448   2.8526   2.8623   2.8701
  2.8718   2.8769   2.8827   2.8934   2.8954   2.9017   2.9044   2.9105
  2.9211   2.9253   2.9297   2.9362   2.9487   2.9603   2.9629   2.9705
  2.9736   2.9810   2.9918   2.9955   3.0021   3.0120   3.0230   3.0267
  3.0285   3.0353   3.0384   3.0508   3.0564   3.0668   3.0745   3.0828
  3.0886   3.1007   3.1027   3.1087   3.1095   3.1113   3.1174   3.1188
  3.1247   3.1362   3.1405   3.1539   3.1572   3.1606   3.1654   3.1760
  3.1821   3.1847   3.1958   3.1988   3.2068   3.2156   3.2235   3.2262
  3.2314   3.2372   3.2390   3.2437   3.2515   3.2588   3.2614   3.2639
  3.2673   3.2714   3.2794   3.2843   3.2869   3.2965   3.3065   3.3108
  3.3126   3.3148   3.3211   3.3213   3.3269   3.3325   3.3350   3.3382
  3.3390   3.3474   3.3522   3.3558   3.3631   3.3662   3.3714   3.3737
  3.3791   3.3864   3.3900   3.3910   3.3975   3.4009   3.4057   3.4139
  3.4180   3.4220   3.4255   3.4324   3.4358   3.4386   3.4447   3.4505
  3.4547   3.4603   3.4671   3.4706   3.4775   3.4777   3.4831   3.4877
  3.4936   3.4988   3.5061   3.5124   3.5155   3.5185   3.5211   3.5289
  3.5321   3.5353   3.5428   3.5476   3.5528   3.5635   3.5719   3.5747
  3.5760   3.5839   3.5918   3.6056   3.6078   3.6163   3.6210   3.6267
  3.6290   3.6338   3.6395   3.6408   3.6458   3.6502   3.6577   3.6644
  3.6689   3.6759   3.6796   3.6843   3.6898   3.6912   3.7030   3.7084
  3.7128   3.7204   3.7322   3.7383   3.7410   3.7459   3.7483   3.7528
  3.7595   3.7667   3.7672   3.7739   3.7789   3.7885   3.7946   3.7948
  3.8091   3.8126   3.8182   3.8286   3.8295   3.8363   3.8365   3.8385
  3.8550   3.8609   3.8669   3.8728   3.8808   3.8864   3.8883   3.8966
  3.9117   3.9191   3.9244   3.9344   3.9392   3.9495   3.9517   3.9549
  3.9586   3.9626   3.9679   3.9723   3.9810   3.9898   4.0054   4.0101
  4.0136   4.0318   4.0378   4.0423   4.0443   4.0624   4.0684   4.0721
  4.0888   4.0974   4.1072   4.1183   4.1236   4.1308   4.1360   4.1411
  4.1477   4.1494   4.1557   4.1661   4.1729   4.1820   4.1833   4.1997
  4.2105   4.2176   4.2261   4.2388   4.2496   4.2517   4.2537   4.2589
  4.2636   4.2685   4.2765   4.2814   4.2871   4.2980   4.3008   4.3067
  4.3115   4.3166   4.3239   4.3277   4.3381   4.3428   4.3462   4.3514
  4.3617   4.3653   4.3678   4.3705   4.3756   4.3848   4.3860   4.3957
  4.4029   4.4080   4.4107   4.4118   4.4239   4.4401   4.4470   4.4524
  4.4621   4.4778   4.4892   4.5025   4.5080   4.5140   4.5198   4.5250
  4.5297   4.5328   4.5417   4.5583   4.5737   4.5763   4.5785   4.5855
  4.5891   4.5942   4.6024   4.6152   4.6196   4.6219   4.6319   4.6426
  4.6472   4.6590   4.6688   4.6811   4.6858   4.6933   4.7005   4.7048
  4.7314   4.7373   4.7492   4.7567   4.7693   4.7839   4.7865   4.8026
  4.8094   4.8185   4.8303   4.8417   4.8539   4.8563   4.8695   4.8796
  4.8876   4.8990   4.9076   4.9248   4.9291   4.9508   4.9563   4.9764
  4.9872   5.0047   5.0144   5.0257   5.0313   5.0412   5.0421   5.0633
  5.0662   5.0973   5.1042   5.1096   5.1218   5.1240   5.1321   5.1347
  5.1452   5.1509   5.1712   5.1794   5.1866   5.2031   5.2177   5.2209
  5.2547   5.2625   5.2731   5.2854   5.2935   5.2968   5.3150   5.3256
  5.3297   5.3327   5.3409   5.3647   5.3782   5.3798   5.4036   5.4161
  5.4329   5.4457   5.4563   5.4837   5.4960   5.5108   5.5128   5.5145
  5.5171   5.5268   5.5417   5.5539   5.5574   5.5594   5.5660   5.5697
  5.5795   5.5855   5.5877   5.6063   5.6113   5.6146   5.6222   5.6359
  5.6389   5.6495   5.6578   5.6620   5.6661   5.6703   5.6932   5.6938
  5.6967   5.7066   5.7316   5.7410   5.7418   5.7590   5.7689   5.7706
  5.7838   5.7905   5.8035   5.8304   5.8402   5.8513   5.8850   5.9236
  5.9329   5.9501   5.9719   5.9926   6.0271   6.0314   6.0412   6.0430
  6.0482   6.0785   6.0952   6.1114   6.1228   6.1433   6.1628   6.1861
  6.1976   6.2195   6.2228   6.2253   6.2425   6.2566   6.2698   6.2828
  6.3043   6.3110   6.3238   6.3477   6.3649   6.3775   6.4409   6.4826
  6.5176   6.5291   6.5746   6.5825   6.6018   6.6167   6.6420   6.6589
  6.6742   6.7086   6.8452   6.8506   6.8884   6.9023   6.9054   6.9228
  6.9269   6.9438   7.1025   7.1098   7.1502   7.1947   7.2003   7.2352
  7.3473   7.3518   7.3574   7.3617   7.4753   7.5421   7.5704   7.5830
  7.5893   7.5982   7.6542   7.6832   7.6938   7.7142   8.8654  10.0653
 10.3264  11.3099  11.5105  11.7474  12.0363  12.0993  12.4164  12.4582
 12.9370  13.2377  13.3287  13.5612  13.7770  13.9226  14.0716  14.2994
 14.3566  14.3945  14.5035  14.6730  14.9903  15.6203  15.8030  16.3213
 --------------------------------------------------------------
 
          Ground-State Mulliken Net Atomic Charges

     Atom                 Charge (a.u.)
  ----------------------------------------
      1 C                    -0.084455
      2 C                    -0.029535
      3 C                    -0.111118
      4 C                    -0.126146
      5 H                     0.199388
      6 C                     0.025735
      7 C                     0.119843
      8 C                    -0.090778
      9 C                    -0.167746
     10 C                    -0.147682
     11 C                     0.212860
     12 H                     0.196548
     13 C                     0.342748
     14 C                     0.347863
     15 N                    -0.089876
     16 C                     0.357453
     17 C                     0.349297
     18 N                    -0.090691
     19 O                    -0.494415
     20 O                    -0.507743
     21 O                    -0.501496
     22 O                    -0.468260
     23 C                    -0.204724
     24 H                     0.139561
     25 H                     0.109361
     26 H                     0.108894
     27 C                    -0.197028
     28 H                     0.133259
     29 H                     0.111588
     30 H                     0.111992
     31 C                    -0.025074
     32 S                     0.041954
     33 C                    -0.220696
     34 C                    -0.213443
     35 C                    -0.209362
     36 H                     0.189865
     37 H                     0.189173
     38 H                     0.208564
     39 H                     0.137752
     40 H                     0.138301
     41 H                     0.208273
  ----------------------------------------
  Sum of atomic charges =     0.000000

 -----------------------------------------------------------------
                    Cartesian Multipole Moments
 -----------------------------------------------------------------
    Charge (ESU x 10^10)
                 0.0000
    Dipole Moment (Debye)
         X      -1.1652      Y       1.7752      Z      -0.8483
       Tot       2.2866
    Quadrupole Moments (Debye-Ang)
        XX    -181.7003     XY       9.4673     YY    -177.9892
        XZ      16.1753     YZ      -4.0999     ZZ    -169.9017
    Octopole Moments (Debye-Ang^2)
       XXX      10.3610    XXY     538.1735    XYY     -38.0629
       YYY    1681.8556    XXZ     -27.4653    XYZ     -66.9118
       YYZ      18.3861    XZZ       4.7548    YZZ     527.8057
       ZZZ     -83.0591
    Hexadecapole Moments (Debye-Ang^3)
      XXXX   -3731.9580   XXXY      89.5094   XXYY   -3730.8356
      XYYY     886.1656   YYYY  -18029.4944   XXXZ    1527.7531
      XXYZ      29.2081   XYYZ     913.4186   YYYZ    -782.7084
      XXZZ   -1179.9272   XYZZ     -16.6320   YYZZ   -3413.9501
      XZZZ    1491.8704   YZZZ    -197.4706   ZZZZ   -2910.5321
 -----------------------------------------------------------------
 Total job time:  318.61s(wall), 9302.25s(cpu) 
 Wed Dec 27 12:09:58 2023

        *************************************************************
        *                                                           *
        *  Thank you very much for using Q-Chem.  Have a nice day.  *
        *                                                           *
        *************************************************************


0 sent ACK to 0 
now end server 0 ... 
cleanup process ... done
remove work dirs ./qchem1246730.0 -- ./qchem1246730.0
rm -rf ./qchem1246730.0
rm -rf ./qchem1246730
