You are running Q-Chem version: 5.4.0

#
# job setting
#
local host:  exp-1-36
current dir: /home/rramji/project-csd799/aromodel/pndit-qchem/hydrogenated-rotation-run
input file:  Dimethyl_Naphthalene_Dicarboximide_Phi_0_Theta_20_Thiophene_Hydrogenated.qcin
output file: 
nprocs     : 1
nthreads   : 64
#
# qchem installation setting
#
QC:          /cm/shared/apps/spack/cpu/opt/spack/linux-centos8-zen2/gcc-10.2.0/qchem-5.4-akfmr7b3t57bfs6qan3padb2wnb2i7cl
QCAUX:       /cm/shared/apps/spack/cpu/opt/spack/linux-centos8-zen2/gcc-10.2.0/qchem-5.4-akfmr7b3t57bfs6qan3padb2wnb2i7cl/qcaux
QCPROG:      /cm/shared/apps/spack/cpu/opt/spack/linux-centos8-zen2/gcc-10.2.0/qchem-5.4-akfmr7b3t57bfs6qan3padb2wnb2i7cl/exe/qcprog.exe
QCPROG_S:    /cm/shared/apps/spack/cpu/opt/spack/linux-centos8-zen2/gcc-10.2.0/qchem-5.4-akfmr7b3t57bfs6qan3padb2wnb2i7cl/exe/qcprog.exe_s
PARALLEL:    -DPARALLEL
QCMPI:       mpich
#
# qchem directory setting
#
qcrun:       qchem2564447
QCSCRATCH:   .
QCLOCALSCR:  
QCTMPDIR:    .
QCFILEPREF:  ./qchem2564447
QCSAVEDIR:   
workdirs:    ./qchem2564447
workdir0:    ./qchem2564447
partmpdirs =  
#
# parallel setting
#
QCRSH:           ssh
QCMPI:           mpich
QCMPIRUN:        /cm/shared/apps/spack/cpu/opt/spack/linux-centos8-zen2/gcc-10.2.0/qchem-5.4-akfmr7b3t57bfs6qan3padb2wnb2i7cl/bin/mpi/mpirun_qchem
QCMACHINEFILE:   ./qchem2564447/hostfile
exp-1-36

#
# env setting
#
exported envs:   QC QCAUX QCSCRATCH QCRUNNAME QCFILEPREF QCPROG QCPROG_S GUIFILE

Running Job 1 of 1 Dimethyl_Naphthalene_Dicarboximide_Phi_0_Theta_20_Thiophene_Hydrogenated.qcin
qchem Dimethyl_Naphthalene_Dicarboximide_Phi_0_Theta_20_Thiophene_Hydrogenated.qcin_2564447.0 ./qchem2564447/ 1
/cm/shared/apps/spack/cpu/opt/spack/linux-centos8-zen2/gcc-10.2.0/qchem-5.4-akfmr7b3t57bfs6qan3padb2wnb2i7cl/bin/mpi/mpirun_qchem -machinefile ./qchem2564447/hostfile -np 1 /cm/shared/apps/spack/cpu/opt/spack/linux-centos8-zen2/gcc-10.2.0/qchem-5.4-akfmr7b3t57bfs6qan3padb2wnb2i7cl/exe/qcprog.exe Dimethyl_Naphthalene_Dicarboximide_Phi_0_Theta_20_Thiophene_Hydrogenated.qcin_2564447.0 ./qchem2564447/

Process 0 of 1 is on exp-1-36 - thread support 0
initial socket setup ...start
initial socket setup ...done 
now start server 0 ... 
                  Welcome to Q-Chem
     A Quantum Leap Into The Future Of Chemistry


 Q-Chem 5.4, Q-Chem, Inc., Pleasanton, CA (2021)

 License issued to: University of California, San Diego (site)

 E. Epifanovsky,  A. T. B. Gilbert,  Xintian Feng,  Joonho Lee,  Yuezhi Mao,  
 N. Mardirossian,  P. Pokhilko,  A. White,  M. Wormit,  M. P. Coons,  
 A. L. Dempwolff,  Zhengting Gan,  D. Hait,  P. R. Horn,  L. D. Jacobson,  
 I. Kaliman,  J. Kussmann,  A. W. Lange,  Ka Un Lao,  D. S. Levine,  Jie Liu,  
 S. C. McKenzie,  A. F. Morrison,  K. Nanda,  F. Plasser,  D. R. Rehn,  
 M. L. Vidal,  Zhi-Qiang You,  Ying Zhu,  B. Alam,  B. Albrecht,  
 A. Aldossary,  E. Alguire,  J. H. Andersen,  D. Barton,  K. Begam,  A. Behn,  
 Y. A. Bernard,  E. J. Berquist,  H. Burton,  A. Carreras,  K. Carter-Fenk,  
 R. Chakraborty,  A. D. Chien,  K. D. Closser,  V. Cofer-Shabica,  
 S. Dasgupta,  Jia Deng,  M. de Wergifosse,  M. Diedenhofen,  Hainam Do,  
 S. Ehlert,  Po-Tung Fang,  S. Fatehi,  Qingguo Feng,  J. Gayvert,  
 Qinghui Ge,  G. Gidofalvi,  M. Goldey,  J. Gomes,  C. Gonzalez-Espinoza,  
 S. Gulania,  A. Gunina,  M. W. D. Hanson-Heine,  P. H. P. Harbach,  
 A. W. Hauser,  M. F. Herbst,  M. Hernandez Vera,  M. Hodecker,  
 Z. C. Holden,  S. Houck,  Xunkun Huang,  Kerwin Hui,  B. C. Huynh,  
 M. Ivanov,  Hyunjun Ji,  Hanjie Jiang,  B. Kaduk,  S. Kaehler,  
 K. Khistyaev,  Jaehoon Kim,  P. Klunzinger,  Z. Koczor-Benda,  
 Joong Hoon Koh,  D. Kosenkov,  L. Koulias,  T. Kowalczyk,  C. M. Krauter,  
 K. Kue,  A. Kunitsa,  T. Kus,  A. Landau,  K. V. Lawler,  D. Lefrancois,  
 S. Lehtola,  Rain Li,  Yi-Pei Li,  Jiashu Liang,  M. Liebenthal,  
 Hung-Hsuan Lin,  You-Sheng Lin,  Fenglai Liu,  Kuan-Yu Liu,  
 M. Loipersberger,  A. Luenser,  A. Manjanath,  P. Manohar,  E. Mansoor,  
 S. F. Manzer,  Shan-Ping Mao,  A. V. Marenich,  T. Markovich,  S. Mason,  
 S. A. Maurer,  P. F. McLaughlin,  M. F. S. J. Menger,  J.-M. Mewes,  
 S. A. Mewes,  P. Morgante,  J. W. Mullinax,  T. S. Nguyen-Beck,  
 K. J. Oosterbaan,  G. Paran,  Alexander C. Paul,  Suranjan K. Paul,  
 F. Pavosevic,  Zheng Pei,  S. Prager,  E. I. Proynov,  E. Ramos,  B. Rana,  
 A. E. Rask,  A. Rettig,  R. M. Richard,  F. Rob,  E. Rossomme,  T. Scheele,  
 M. Scheurer,  M. Schneider,  N. Sergueev,  S. M. Sharada,  W. Skomorowski,  
 D. W. Small,  C. J. Stein,  Yu-Chuan Su,  E. J. Sundstrom,  Zhen Tao,  
 J. Thirman,  T. Tsuchimochi,  N. M. Tubman,  S. P. Veccham,  O. Vydrov,  
 J. Wenzel,  J. Witte,  A. Yamada,  Kun Yao,  S. Yeganeh,  S. R. Yost,  
 A. Zech,  Igor Ying Zhang,  Xing Zhang,  Yu Zhang,  D. Zuev,  
 A. Aspuru-Guzik,  A. T. Bell,  N. A. Besley,  K. B. Bravaya,  B. R. Brooks,  
 D. Casanova,  Jeng-Da Chai,  S. Coriani,  C. J. Cramer,  
 A. E. DePrince, III,  R. A. DiStasio Jr.,  A. Dreuw,  B. D. Dunietz,  
 T. R. Furlani,  W. A. Goddard III,  S. Grimme,  S. Hammes-Schiffer,  
 T. Head-Gordon,  W. J. Hehre,  Chao-Ping Hsu,  T.-C. Jagau,  Yousung Jung,  
 A. Klamt,  Jing Kong,  D. S. Lambrecht,  WanZhen Liang,  N. J. Mayhall,  
 C. W. McCurdy,  J. B. Neaton,  C. Ochsenfeld,  J. A. Parkhill,  R. Peverati,  
 V. A. Rassolov,  Yihan Shao,  L. V. Slipchenko,  T. Stauch,  R. P. Steele,  
 J. E. Subotnik,  A. J. W. Thom,  A. Tkatchenko,  D. G. Truhlar,  
 T. Van Voorhis,  T. A. Wesolowski,  K. B. Whaley,  H. L. Woodcock III,  
 P. M. Zimmerman,  S. Faraji,  P. M. W. Gill,  M. Head-Gordon,  
 J. M. Herbert,  A. I. Krylov

 Contributors to earlier versions of Q-Chem not listed above: 
 R. D. Adamson,  B. Austin,  R. Baer,  J. Baker,  G. J. O. Beran,  
 K. Brandhorst,  S. T. Brown,  E. F. C. Byrd,  A. K. Chakraborty,  
 G. K. L. Chan,  Chun-Min Chang,  Yunqing Chen,  C.-L. Cheng,  
 Siu Hung Chien,  D. M. Chipman,  D. L. Crittenden,  H. Dachsel,  
 R. J. Doerksen,  A. D. Dutoi,  R. G. Edgar,  J. Fosso-Tande,  
 L. Fusti-Molnar,  D. Ghosh,  A. Ghysels,  A. Golubeva-Zadorozhnaya,  
 J. Gonthier,  M. S. Gordon,  S. R. Gwaltney,  G. Hawkins,  J. E. Herr,  
 A. Heyden,  S. Hirata,  E. G. Hohenstein,  G. Kedziora,  F. J. Keil,  
 C. Kelley,  Jihan Kim,  R. A. King,  R. Z. Khaliullin,  P. P. Korambath,  
 W. Kurlancheek,  A. Laurent,  A. M. Lee,  M. S. Lee,  S. V. Levchenko,  
 Ching Yeh Lin,  D. Liotard,  E. Livshits,  R. C. Lochan,  I. Lotan,  
 L. A. Martinez-Martinez,  P. E. Maslen,  N. Nair,  D. P. O'Neill,  
 D. Neuhauser,  E. Neuscamman,  C. M. Oana,  R. Olivares-Amaya,  R. Olson,  
 T. M. Perrine,  B. Peters,  P. A. Pieniazek,  A. Prociuk,  Y. M. Rhee,  
 J. Ritchie,  M. A. Rohrdanz,  E. Rosta,  N. J. Russ,  H. F. Schaefer III,  
 M. W. Schmidt,  N. E. Schultz,  S. Sharma,  N. Shenvi,  C. D. Sherrill,  
 A. C. Simmonett,  A. Sodt,  T. Stein,  D. Stuck,  K. S. Thanthiriwatte,  
 V. Vanovschi,  L. Vogt,  Tao Wang,  A. Warshel,  M. A. Watson,  
 C. F. Williams,  Q. Wu,  X. Xu,  Jun Yang,  W. Zhang,  Yan Zhao

 Please cite Q-Chem as follows:
 Y. Shao et al., Mol. Phys. 113, 184-215 (2015)
 DOI: 10.1080/00268976.2014.952696

 Q-Chem 5.4.0 for Intel X86 EM64T Linux

 Parts of Q-Chem use Armadillo 9.800.1 (Horizon Scraper).
 http://arma.sourceforge.net/

 Q-Chem begins on Wed Dec 27 10:01:36 2023  

 Host: 
0

     Scratch files written to ./qchem2564447//
 May1621 |scratch|qcdevops|jenkins|workspace|build_RNUM    
 Parallel job on  1  processors
 Processing $rem in /cm/shared/apps/spack/cpu/opt/spack/linux-centos8-zen2/gcc-10.2.0/qchem-5.4-akfmr7b3t57bfs6qan3padb2wnb2i7cl/config/preferences:
 Processing $rem in /home/rramji/.qchemrc:
 Symmetry turned off for PCM/SM12/SMD calculation
 Core orbitals will be frozen

 Checking the input file for inconsistencies... 	...done.

 Q-Chem warning in module forms1/BasisType.C, line 2236:

 You are not using the predefined 5D/6D in this basis set.


--------------------------------------------------------------
User input:
--------------------------------------------------------------
$molecule
0 1
C	0.086486	-6.741404	-0.241938
C	0.532960	-6.155638	-1.468983
C	-0.284733	-5.791452	0.776651
C	0.628455	-4.803786	-1.730681
H	0.833086	-6.821518	-2.294130
C	-0.184300	-4.378638	0.502775
C	0.271086	-3.838032	-0.747353
C	-0.541191	-3.413062	1.484986
C	0.370703	-2.426473	-1.019042
C	-0.446468	-2.059348	1.226525
C	-0.000000	-1.478216	-0.000000
H	-0.746717	-1.394783	2.052666
C	-0.779832	-6.187987	2.131549
C	-1.030596	-3.798164	2.829295
N	-1.115461	-5.170003	3.057496
C	1.119034	-4.424987	-3.078712
C	0.865151	-2.036627	-2.375300
N	1.201176	-3.049156	-3.301374
O	-0.916355	-7.353131	2.498300
O	-1.345486	-2.986854	3.697195
O	1.430379	-5.248946	-3.936224
O	1.007714	-0.878829	-2.762805
C	-1.599576	-5.563799	4.384539
H	-1.616121	-6.664085	4.426636
H	-2.611458	-5.147101	4.550487
H	-0.931037	-5.148785	5.162921
C	1.677382	-2.587487	-4.608454
H	1.896168	-3.483329	-5.212668
H	2.583531	-1.964972	-4.482719
H	0.903674	-1.962932	-5.093988
C	0.000000	0.000000	0.000000
S	-0.000201	0.793171	1.580530
C	-0.000228	2.430885	0.904911
C	-0.000168	0.997990	-0.985400
C	-0.000267	2.318231	-0.493528
H	-0.000145	0.762343	-2.059934
H	-0.000339	3.199164	-1.152593
H	-0.000311	3.311566	1.556025
H	0.893959	-7.361589	0.165874
H	-0.794290	-7.361192	-0.449423
H	1.014686	-1.478831	0.369880
$end

$rem
JOBTYPE		SP
EXCHANGE	HF
CORRELATION	pRIMP2
BASIS		cc-pvtz
METHOD		rimp2
AUX_BASIS	rimp2-cc-pvtz
SOLVENT_METHOD	PCM
PURECART	11111
SYMMETRY	false
MEM_TOTAL	110000
SCF_CONVERGENCE = 6
THRESH=10
GUI = 2
$end



$solvent
dielectric 4.90
$end
--------------------------------------------------------------
 ----------------------------------------------------------------
             Standard Nuclear Orientation (Angstroms)
    I     Atom           X                Y                Z
 ----------------------------------------------------------------
    1      C       0.0864860000    -6.7414040000    -0.2419380000
    2      C       0.5329600000    -6.1556380000    -1.4689830000
    3      C      -0.2847330000    -5.7914520000     0.7766510000
    4      C       0.6284550000    -4.8037860000    -1.7306810000
    5      H       0.8330860000    -6.8215180000    -2.2941300000
    6      C      -0.1843000000    -4.3786380000     0.5027750000
    7      C       0.2710860000    -3.8380320000    -0.7473530000
    8      C      -0.5411910000    -3.4130620000     1.4849860000
    9      C       0.3707030000    -2.4264730000    -1.0190420000
   10      C      -0.4464680000    -2.0593480000     1.2265250000
   11      C       0.0000000000    -1.4782160000     0.0000000000
   12      H      -0.7467170000    -1.3947830000     2.0526660000
   13      C      -0.7798320000    -6.1879870000     2.1315490000
   14      C      -1.0305960000    -3.7981640000     2.8292950000
   15      N      -1.1154610000    -5.1700030000     3.0574960000
   16      C       1.1190340000    -4.4249870000    -3.0787120000
   17      C       0.8651510000    -2.0366270000    -2.3753000000
   18      N       1.2011760000    -3.0491560000    -3.3013740000
   19      O      -0.9163550000    -7.3531310000     2.4983000000
   20      O      -1.3454860000    -2.9868540000     3.6971950000
   21      O       1.4303790000    -5.2489460000    -3.9362240000
   22      O       1.0077140000    -0.8788290000    -2.7628050000
   23      C      -1.5995760000    -5.5637990000     4.3845390000
   24      H      -1.6161210000    -6.6640850000     4.4266360000
   25      H      -2.6114580000    -5.1471010000     4.5504870000
   26      H      -0.9310370000    -5.1487850000     5.1629210000
   27      C       1.6773820000    -2.5874870000    -4.6084540000
   28      H       1.8961680000    -3.4833290000    -5.2126680000
   29      H       2.5835310000    -1.9649720000    -4.4827190000
   30      H       0.9036740000    -1.9629320000    -5.0939880000
   31      C       0.0000000000     0.0000000000     0.0000000000
   32      S      -0.0002010000     0.7931710000     1.5805300000
   33      C      -0.0002280000     2.4308850000     0.9049110000
   34      C      -0.0001680000     0.9979900000    -0.9854000000
   35      C      -0.0002670000     2.3182310000    -0.4935280000
   36      H      -0.0001450000     0.7623430000    -2.0599340000
   37      H      -0.0003390000     3.1991640000    -1.1525930000
   38      H      -0.0003110000     3.3115660000     1.5560250000
   39      H       0.8939590000    -7.3615890000     0.1658740000
   40      H      -0.7942900000    -7.3611920000    -0.4494230000
   41      H       1.0146860000    -1.4788310000     0.3698800000
 ----------------------------------------------------------------
 Nuclear Repulsion Energy =        2552.03105986 hartrees
 There are       98 alpha and       98 beta electrons
 Requested basis set is cc-pVTZ
 There are 356 shells and 1010 basis functions

 Total QAlloc Memory Limit 110000 MB
 Mega-Array Size       188 MB
 MEM_STATIC part       192 MB
 Discretize the solute cavity surface with Lebedev spheres
	Using 110 Lebedev grid points for each H atom
	Using 194 Lebedev grid points for other atoms
	Atomic van der Waals radii will be scaled by 1.20
 Remove points where switching function is < 1.0e-08
 Keep 2574 surface tesserae and discard 4204 interior tesserae
 Molecular Surface Area = 363.975 Angst**2
 Requested basis set is rimp2-cc-pVTZ
 There are 770 shells and 2648 basis functions
 A cutoff of  1.0D-10 yielded  34147 shell pairs
 There are    258387 function pairs (    334418 Cartesian)
 Smallest overlap matrix eigenvalue = 9.20E-06

 Q-Chem warning in module stvman/mkSTV.C, line 323:

 Overlap eigenvalue is smaller than square root of threshold
 Use THRESH >= 12 to get rid of this warning


 Scale SEOQF with 1.000000e-01/1.000000e-02/1.000000e-01

 Standard Electronic Orientation quadrupole field applied
 Nucleus-field energy     =    -0.0000000971 hartrees
 Guess from superposition of atomic densities
 Warning:  Energy on first SCF cycle will be non-variational
 SAD guess density has 196.000000 electrons

 -----------------------------------------------------------------------
  General SCF calculation program by
  Eric Jon Sundstrom, Paul Horn, Yuezhi Mao, Dmitri Zuev, Alec White,
  David Stuck, Shaama M.S., Shane Yost, Joonho Lee, David Small,
  Daniel Levine, Susi Lehtola, Hugh Burton, Evgeny Epifanovsky,
  Bang C. Huynh
 -----------------------------------------------------------------------
 Hartree-Fock
 using 64 threads for integral computing
 -------------------------------------------------------
 OpenMP Integral computing Module                
 Release: version 1.0, May 2013, Q-Chem Inc. Pittsburgh 
 -------------------------------------------------------
 A restricted SCF calculation will be
 performed using DIIS
 SCF converges when DIIS error is below 1.0e-06
 ---------------------------------------
  Cycle       Energy         DIIS error
 ---------------------------------------
    1   -1583.1678270023      1.86e-02  
    2   -1571.1568376075      2.03e-03  
    3   -1571.4993783362      1.55e-03  
    4   -1571.7223557807      2.53e-04  
    5   -1571.7362037798      7.87e-05  
    6   -1571.7376414186      3.04e-05  
    7   -1571.7380674565      1.56e-05  
    8   -1571.7381846878      6.16e-06  
    9   -1571.7382046038      2.89e-06  
   10   -1571.7382085177      1.23e-06  
   11   -1571.7382097728      5.90e-07  Convergence criterion met
 ---------------------------------------
 SCF time:   CPU 6863.81s  wall 267.00s 

************** Final PCM Free Energy Summary **************
 G_electrostatic  =      -0.02764067 hartree =     -17.34478124 kcal/mol
 G_cavitation     =       0.00000000 hartree =       0.00000000 kcal/mol
 G_dispersion     =       0.00000000 hartree =       0.00000000 kcal/mol
 G_repulsion      =       0.00000000 hartree =       0.00000000 kcal/mol
 --------------------------------------------------
 Non-electrostatic Free Energy =       0.00000000 hartree =       0.00000000 kcal/mol
 Total                         =      -0.02764067 hartree =     -17.34478124 kcal/mol
 --------------------------------------------------
 SCF Energy (H0 + V/2)                       =   -1571.73820977 
 Solute Internal Energy (H0)                 =   -1571.71056910 
 Total Free Energy (H0 + V/2 + non-elec)     =   -1571.73820977 hartree
                                             = -986280.61256500 kcal/mol
***********************************************************

 SCF   energy in the final basis set =    -1571.7382097728
 Total energy in the final basis set =    -1571.7382097728


 --------------------------------------------------------------
  Generalized many-body perturbation theory program
  by Joonho Lee, Fazle Rob, Xintian Feng, Evgeny Epifanovsky

 No regularization used 
 (reg. param. = 0.0000e+00)
  (P|Q)^-1/2 Time:  CPU 310.69 s  wall 5.45 s

 In RI-MP2 calculation: 
 # of frozen core orbitals: 31

 Components of the RIMP2 correlation energy:
        aaaa    correlation energy =        -0.6156225448 a.u.
        abab    correlation energy =        -3.4260303878 a.u.
        bbbb    correlation energy =        -0.6156225448 a.u.
        non-Brillouin singles      =        -0.0000000000 a.u.
        total same-spin energy     =        -1.2312450897 a.u.
        total opposite-spin energy =        -3.4260303878 a.u.

 Total  RIMP2   correlation energy =        -4.6572754775 a.u.
        RIMP2         total energy =     -1576.3954852503 a.u.

 RI-MP2 Energy Time:  CPU 2432.29 s  wall 40.43 s
 
 --------------------------------------------------------------
 
                    Orbital Energies (a.u.)
 --------------------------------------------------------------
 
 Alpha MOs
 -- Occupied --
-91.9901 -20.5530 -20.5456 -20.5426 -20.5416 -15.6286 -15.6220 -11.3964
-11.3863 -11.3844 -11.3802 -11.3101 -11.3097 -11.3066 -11.3056 -11.2979
-11.2977 -11.2924 -11.2761 -11.2707 -11.2691 -11.2674 -11.2641 -11.2597
-11.2537 -11.2473 -11.2400  -8.9901  -6.6710  -6.6705  -6.6698  -1.4224
 -1.4130  -1.3993  -1.3922  -1.2640  -1.2563  -1.2320  -1.1877  -1.1508
 -1.1155  -1.0879  -1.0487  -0.9958  -0.9887  -0.9817  -0.9559  -0.9498
 -0.8981  -0.8905  -0.8782  -0.8615  -0.7951  -0.7799  -0.7724  -0.7607
 -0.7411  -0.7174  -0.7025  -0.6903  -0.6798  -0.6752  -0.6683  -0.6582
 -0.6488  -0.6468  -0.6391  -0.6323  -0.6317  -0.6289  -0.6237  -0.6058
 -0.5913  -0.5722  -0.5643  -0.5595  -0.5585  -0.5526  -0.5509  -0.5488
 -0.5484  -0.5432  -0.5174  -0.5157  -0.5127  -0.4864  -0.4754  -0.4622
 -0.4583  -0.4512  -0.4435  -0.4362  -0.4151  -0.4084  -0.3566  -0.3505
 -0.3314  -0.2796
 -- Virtual --
  0.0119   0.0395   0.0881   0.1015   0.1425   0.1502   0.1554   0.1608
  0.1640   0.1708   0.1780   0.1805   0.1896   0.1974   0.2031   0.2075
  0.2103   0.2214   0.2252   0.2282   0.2318   0.2345   0.2492   0.2561
  0.2643   0.2709   0.3024   0.3036   0.3206   0.3214   0.3285   0.3338
  0.3361   0.3400   0.3435   0.3509   0.3540   0.3589   0.3637   0.3705
  0.3717   0.3828   0.3864   0.3874   0.3952   0.3974   0.4068   0.4135
  0.4194   0.4244   0.4282   0.4341   0.4416   0.4433   0.4485   0.4529
  0.4555   0.4595   0.4619   0.4701   0.4767   0.4822   0.4903   0.4919
  0.4983   0.4998   0.5111   0.5138   0.5159   0.5201   0.5206   0.5313
  0.5355   0.5402   0.5424   0.5500   0.5513   0.5577   0.5621   0.5663
  0.5763   0.5781   0.5826   0.5836   0.5898   0.5921   0.5952   0.5992
  0.6042   0.6070   0.6093   0.6105   0.6123   0.6159   0.6222   0.6288
  0.6302   0.6337   0.6358   0.6387   0.6405   0.6479   0.6549   0.6633
  0.6639   0.6707   0.6819   0.6831   0.6887   0.6968   0.6977   0.7023
  0.7090   0.7160   0.7214   0.7362   0.7377   0.7406   0.7589   0.7613
  0.7669   0.7706   0.7747   0.7787   0.7853   0.7969   0.8000   0.8056
  0.8100   0.8143   0.8195   0.8317   0.8340   0.8413   0.8436   0.8446
  0.8497   0.8568   0.8644   0.8664   0.8706   0.8749   0.8830   0.8903
  0.8942   0.8963   0.8993   0.9105   0.9200   0.9213   0.9248   0.9298
  0.9383   0.9448   0.9509   0.9594   0.9621   0.9651   0.9700   0.9742
  0.9851   0.9903   0.9947   1.0025   1.0054   1.0132   1.0163   1.0186
  1.0243   1.0364   1.0416   1.0469   1.0495   1.0554   1.0568   1.0634
  1.0680   1.0712   1.0753   1.0771   1.0838   1.0932   1.1001   1.1057
  1.1129   1.1145   1.1234   1.1269   1.1303   1.1333   1.1359   1.1474
  1.1521   1.1558   1.1633   1.1653   1.1729   1.1786   1.1829   1.1856
  1.1904   1.2007   1.2032   1.2098   1.2167   1.2223   1.2233   1.2267
  1.2324   1.2332   1.2375   1.2441   1.2471   1.2562   1.2626   1.2723
  1.2797   1.2919   1.2956   1.3022   1.3165   1.3189   1.3239   1.3371
  1.3452   1.3537   1.3587   1.3680   1.3731   1.3776   1.3834   1.3876
  1.3883   1.3932   1.3965   1.4044   1.4168   1.4183   1.4324   1.4446
  1.4458   1.4535   1.4616   1.4682   1.4802   1.4807   1.4847   1.4908
  1.4984   1.5033   1.5056   1.5150   1.5201   1.5270   1.5333   1.5419
  1.5479   1.5527   1.5573   1.5616   1.5673   1.5684   1.5695   1.5854
  1.5885   1.5958   1.6032   1.6050   1.6221   1.6337   1.6410   1.6446
  1.6480   1.6559   1.6607   1.6710   1.6822   1.6940   1.6967   1.6991
  1.7091   1.7222   1.7293   1.7430   1.7445   1.7554   1.7580   1.7614
  1.7648   1.7701   1.7719   1.7886   1.7919   1.8025   1.8100   1.8129
  1.8235   1.8353   1.8416   1.8477   1.8602   1.8642   1.8661   1.8684
  1.8750   1.8812   1.8890   1.8955   1.9142   1.9271   1.9392   1.9449
  1.9597   1.9677   1.9713   1.9802   1.9873   2.0001   2.0150   2.0169
  2.0316   2.0473   2.0689   2.0733   2.0780   2.0959   2.1074   2.1226
  2.1366   2.1449   2.1603   2.1705   2.1796   2.1997   2.2171   2.2178
  2.2408   2.2452   2.2527   2.2789   2.2907   2.2915   2.3054   2.3177
  2.3196   2.3301   2.3346   2.3541   2.3624   2.3664   2.3823   2.3863
  2.4032   2.4183   2.4293   2.4374   2.4501   2.4537   2.4594   2.4717
  2.4885   2.4951   2.4996   2.5088   2.5154   2.5344   2.5441   2.5530
  2.5629   2.5677   2.5784   2.5859   2.5889   2.5968   2.6057   2.6155
  2.6237   2.6331   2.6379   2.6451   2.6612   2.6639   2.6698   2.6744
  2.6863   2.6920   2.7004   2.7059   2.7156   2.7292   2.7321   2.7372
  2.7444   2.7530   2.7571   2.7622   2.7713   2.7768   2.7877   2.7997
  2.8037   2.8309   2.8339   2.8378   2.8549   2.8563   2.8586   2.8616
  2.8757   2.8801   2.8825   2.8927   2.8978   2.9029   2.9061   2.9185
  2.9226   2.9322   2.9375   2.9404   2.9594   2.9605   2.9662   2.9716
  2.9732   2.9860   2.9921   3.0004   3.0041   3.0099   3.0215   3.0286
  3.0341   3.0360   3.0429   3.0519   3.0585   3.0663   3.0767   3.0848
  3.0919   3.0942   3.1008   3.1018   3.1062   3.1090   3.1178   3.1208
  3.1345   3.1358   3.1417   3.1510   3.1605   3.1646   3.1681   3.1771
  3.1844   3.1927   3.1980   3.2028   3.2067   3.2087   3.2178   3.2227
  3.2301   3.2371   3.2449   3.2482   3.2523   3.2605   3.2615   3.2646
  3.2684   3.2746   3.2813   3.2882   3.2935   3.2994   3.3057   3.3080
  3.3098   3.3132   3.3148   3.3247   3.3274   3.3314   3.3349   3.3373
  3.3447   3.3493   3.3528   3.3569   3.3613   3.3681   3.3701   3.3722
  3.3783   3.3836   3.3904   3.3942   3.3992   3.4040   3.4085   3.4109
  3.4188   3.4269   3.4275   3.4327   3.4344   3.4404   3.4448   3.4503
  3.4547   3.4598   3.4664   3.4716   3.4733   3.4778   3.4849   3.4943
  3.4953   3.5004   3.5054   3.5091   3.5182   3.5220   3.5245   3.5321
  3.5335   3.5399   3.5441   3.5468   3.5598   3.5705   3.5755   3.5769
  3.5841   3.5876   3.5949   3.6047   3.6066   3.6182   3.6238   3.6270
  3.6326   3.6352   3.6390   3.6446   3.6494   3.6512   3.6551   3.6627
  3.6679   3.6797   3.6850   3.6878   3.6897   3.6998   3.7031   3.7112
  3.7149   3.7250   3.7290   3.7341   3.7402   3.7427   3.7471   3.7582
  3.7610   3.7629   3.7660   3.7715   3.7824   3.7907   3.7970   3.8041
  3.8100   3.8133   3.8189   3.8280   3.8356   3.8375   3.8439   3.8462
  3.8524   3.8596   3.8638   3.8787   3.8810   3.8875   3.8941   3.9034
  3.9174   3.9207   3.9239   3.9275   3.9306   3.9480   3.9524   3.9560
  3.9601   3.9692   3.9701   3.9805   3.9872   3.9929   4.0122   4.0167
  4.0257   4.0374   4.0413   4.0503   4.0539   4.0582   4.0675   4.0733
  4.0839   4.1065   4.1133   4.1218   4.1280   4.1371   4.1408   4.1465
  4.1530   4.1562   4.1605   4.1660   4.1717   4.1759   4.1855   4.2020
  4.2165   4.2216   4.2328   4.2385   4.2413   4.2480   4.2561   4.2638
  4.2726   4.2786   4.2800   4.2891   4.2938   4.2965   4.3010   4.3108
  4.3173   4.3199   4.3247   4.3306   4.3378   4.3427   4.3465   4.3583
  4.3665   4.3679   4.3690   4.3739   4.3791   4.3841   4.3991   4.4011
  4.4052   4.4063   4.4150   4.4193   4.4343   4.4407   4.4490   4.4596
  4.4689   4.4868   4.4951   4.4984   4.5099   4.5163   4.5195   4.5299
  4.5377   4.5430   4.5552   4.5593   4.5634   4.5755   4.5789   4.5891
  4.5951   4.6050   4.6062   4.6172   4.6200   4.6304   4.6349   4.6455
  4.6578   4.6626   4.6828   4.6858   4.6954   4.6973   4.7039   4.7092
  4.7167   4.7328   4.7442   4.7545   4.7799   4.7866   4.7969   4.8057
  4.8209   4.8234   4.8381   4.8420   4.8513   4.8705   4.8791   4.8822
  4.8868   4.9001   4.9037   4.9215   4.9278   4.9608   4.9675   4.9713
  4.9874   5.0044   5.0105   5.0192   5.0326   5.0405   5.0520   5.0570
  5.0777   5.0966   5.1120   5.1187   5.1274   5.1327   5.1376   5.1462
  5.1600   5.1720   5.1756   5.1839   5.1930   5.2049   5.2185   5.2309
  5.2623   5.2651   5.2841   5.2933   5.3057   5.3126   5.3282   5.3303
  5.3336   5.3414   5.3522   5.3768   5.3791   5.3864   5.4028   5.4158
  5.4361   5.4488   5.4741   5.4902   5.4982   5.5125   5.5138   5.5166
  5.5174   5.5346   5.5456   5.5544   5.5592   5.5628   5.5663   5.5684
  5.5792   5.5853   5.5910   5.6039   5.6067   5.6183   5.6233   5.6347
  5.6440   5.6503   5.6593   5.6612   5.6658   5.6718   5.6813   5.6934
  5.7010   5.7090   5.7214   5.7458   5.7530   5.7664   5.7724   5.7810
  5.7845   5.7888   5.8170   5.8310   5.8450   5.8570   5.9044   5.9202
  5.9447   5.9589   5.9661   5.9862   6.0117   6.0382   6.0458   6.0474
  6.0842   6.1053   6.1089   6.1144   6.1260   6.1445   6.1645   6.1905
  6.2061   6.2210   6.2253   6.2287   6.2475   6.2688   6.2823   6.2852
  6.3092   6.3157   6.3238   6.3524   6.3689   6.3972   6.4608   6.4875
  6.5224   6.5321   6.5765   6.5823   6.6033   6.6266   6.6584   6.6657
  6.6741   6.7546   6.8501   6.8523   6.8901   6.9015   6.9055   6.9264
  6.9288   6.9887   7.1039   7.1211   7.1521   7.1981   7.2037   7.2416
  7.3470   7.3513   7.3577   7.3681   7.4773   7.5439   7.5706   7.5829
  7.5929   7.6136   7.6541   7.6917   7.6981   7.7319   8.9349  10.0905
 10.4209  11.2693  11.5567  11.7701  12.0874  12.1586  12.4314  12.4928
 12.9926  13.2726  13.3869  13.5829  13.7999  13.9319  14.1535  14.3075
 14.3289  14.3742  14.5680  14.7489  15.0723  15.6317  15.8524  16.3612
 --------------------------------------------------------------
 
          Ground-State Mulliken Net Atomic Charges

     Atom                 Charge (a.u.)
  ----------------------------------------
      1 C                    -0.084028
      2 C                    -0.030341
      3 C                    -0.106041
      4 C                    -0.125601
      5 H                     0.199391
      6 C                     0.022503
      7 C                     0.117618
      8 C                    -0.050813
      9 C                    -0.178336
     10 C                    -0.185422
     11 C                     0.230499
     12 H                     0.179981
     13 C                     0.342203
     14 C                     0.351046
     15 N                    -0.090417
     16 C                     0.358327
     17 C                     0.376847
     18 N                    -0.088372
     19 O                    -0.493136
     20 O                    -0.506077
     21 O                    -0.500791
     22 O                    -0.480248
     23 C                    -0.204602
     24 H                     0.139514
     25 H                     0.109587
     26 H                     0.109528
     27 C                    -0.198020
     28 H                     0.134141
     29 H                     0.111746
     30 H                     0.111820
     31 C                    -0.076483
     32 S                    -0.007249
     33 C                    -0.223648
     34 C                    -0.138650
     35 C                    -0.227943
     36 H                     0.206624
     37 H                     0.188852
     38 H                     0.213841
     39 H                     0.138154
     40 H                     0.138583
     41 H                     0.215412
  ----------------------------------------
  Sum of atomic charges =     0.000000

 -----------------------------------------------------------------
                    Cartesian Multipole Moments
 -----------------------------------------------------------------
    Charge (ESU x 10^10)
                 0.0000
    Dipole Moment (Debye)
         X       1.1892      Y       1.5394      Z      -1.8054
       Tot       2.6540
    Quadrupole Moments (Debye-Ang)
        XX    -166.2905     XY      -4.1878     YY    -175.9327
        XZ      10.3314     YZ       8.1641     ZZ    -185.1411
    Octopole Moments (Debye-Ang^2)
       XXX     -16.1376    XXY     470.4295    XYY      17.1558
       YYY    1671.7774    XXZ      -2.3647    XYZ     -43.5509
       YYZ     -51.6536    XZZ      -6.2757    YZZ     589.8449
       ZZZ     -10.8892
    Hexadecapole Moments (Debye-Ang^3)
      XXXX    -873.5248   XXXY    -117.8544   XXYY   -2862.4769
      XYYY    -406.3738   YYYY  -17972.3430   XXXZ     937.7177
      XXYZ      62.5781   XYYZ     591.9768   YYYZ    1067.7408
      XXZZ   -1117.1913   XYZZ      58.6476   YYZZ   -4272.4768
      XZZZ    1041.0985   YZZZ      31.9586   ZZZZ   -5859.8418
 -----------------------------------------------------------------
 Total job time:  322.40s(wall), 9974.63s(cpu) 
 Wed Dec 27 10:06:59 2023

        *************************************************************
        *                                                           *
        *  Thank you very much for using Q-Chem.  Have a nice day.  *
        *                                                           *
        *************************************************************


0 sent ACK to 0 
now end server 0 ... 
cleanup process ... done
remove work dirs ./qchem2564447.0 -- ./qchem2564447.0
rm -rf ./qchem2564447.0
rm -rf ./qchem2564447
