You are running Q-Chem version: 5.4.0

#
# job setting
#
local host:  exp-2-23
current dir: /home/rramji/project-csd799/aromodel/pndit-qchem/hydrogenated-rotation-run
input file:  Dimethyl_Naphthalene_Dicarboximide_Phi_30_Theta_20_Thiophene_Hydrogenated.qcin
output file: 
nprocs     : 1
nthreads   : 64
#
# qchem installation setting
#
QC:          /cm/shared/apps/spack/cpu/opt/spack/linux-centos8-zen2/gcc-10.2.0/qchem-5.4-akfmr7b3t57bfs6qan3padb2wnb2i7cl
QCAUX:       /cm/shared/apps/spack/cpu/opt/spack/linux-centos8-zen2/gcc-10.2.0/qchem-5.4-akfmr7b3t57bfs6qan3padb2wnb2i7cl/qcaux
QCPROG:      /cm/shared/apps/spack/cpu/opt/spack/linux-centos8-zen2/gcc-10.2.0/qchem-5.4-akfmr7b3t57bfs6qan3padb2wnb2i7cl/exe/qcprog.exe
QCPROG_S:    /cm/shared/apps/spack/cpu/opt/spack/linux-centos8-zen2/gcc-10.2.0/qchem-5.4-akfmr7b3t57bfs6qan3padb2wnb2i7cl/exe/qcprog.exe_s
PARALLEL:    -DPARALLEL
QCMPI:       mpich
#
# qchem directory setting
#
qcrun:       qchem1324456
QCSCRATCH:   .
QCLOCALSCR:  
QCTMPDIR:    .
QCFILEPREF:  ./qchem1324456
QCSAVEDIR:   
workdirs:    ./qchem1324456
workdir0:    ./qchem1324456
partmpdirs =  
#
# parallel setting
#
QCRSH:           ssh
QCMPI:           mpich
QCMPIRUN:        /cm/shared/apps/spack/cpu/opt/spack/linux-centos8-zen2/gcc-10.2.0/qchem-5.4-akfmr7b3t57bfs6qan3padb2wnb2i7cl/bin/mpi/mpirun_qchem
QCMACHINEFILE:   ./qchem1324456/hostfile
exp-2-23

#
# env setting
#
exported envs:   QC QCAUX QCSCRATCH QCRUNNAME QCFILEPREF QCPROG QCPROG_S GUIFILE

Running Job 1 of 1 Dimethyl_Naphthalene_Dicarboximide_Phi_30_Theta_20_Thiophene_Hydrogenated.qcin
qchem Dimethyl_Naphthalene_Dicarboximide_Phi_30_Theta_20_Thiophene_Hydrogenated.qcin_1324456.0 ./qchem1324456/ 1
/cm/shared/apps/spack/cpu/opt/spack/linux-centos8-zen2/gcc-10.2.0/qchem-5.4-akfmr7b3t57bfs6qan3padb2wnb2i7cl/bin/mpi/mpirun_qchem -machinefile ./qchem1324456/hostfile -np 1 /cm/shared/apps/spack/cpu/opt/spack/linux-centos8-zen2/gcc-10.2.0/qchem-5.4-akfmr7b3t57bfs6qan3padb2wnb2i7cl/exe/qcprog.exe Dimethyl_Naphthalene_Dicarboximide_Phi_30_Theta_20_Thiophene_Hydrogenated.qcin_1324456.0 ./qchem1324456/

Process 0 of 1 is on exp-2-23 - thread support 0
initial socket setup ...start
initial socket setup ...done 
now start server 0 ... 
                  Welcome to Q-Chem
     A Quantum Leap Into The Future Of Chemistry


 Q-Chem 5.4, Q-Chem, Inc., Pleasanton, CA (2021)

 License issued to: University of California, San Diego (site)

 E. Epifanovsky,  A. T. B. Gilbert,  Xintian Feng,  Joonho Lee,  Yuezhi Mao,  
 N. Mardirossian,  P. Pokhilko,  A. White,  M. Wormit,  M. P. Coons,  
 A. L. Dempwolff,  Zhengting Gan,  D. Hait,  P. R. Horn,  L. D. Jacobson,  
 I. Kaliman,  J. Kussmann,  A. W. Lange,  Ka Un Lao,  D. S. Levine,  Jie Liu,  
 S. C. McKenzie,  A. F. Morrison,  K. Nanda,  F. Plasser,  D. R. Rehn,  
 M. L. Vidal,  Zhi-Qiang You,  Ying Zhu,  B. Alam,  B. Albrecht,  
 A. Aldossary,  E. Alguire,  J. H. Andersen,  D. Barton,  K. Begam,  A. Behn,  
 Y. A. Bernard,  E. J. Berquist,  H. Burton,  A. Carreras,  K. Carter-Fenk,  
 R. Chakraborty,  A. D. Chien,  K. D. Closser,  V. Cofer-Shabica,  
 S. Dasgupta,  Jia Deng,  M. de Wergifosse,  M. Diedenhofen,  Hainam Do,  
 S. Ehlert,  Po-Tung Fang,  S. Fatehi,  Qingguo Feng,  J. Gayvert,  
 Qinghui Ge,  G. Gidofalvi,  M. Goldey,  J. Gomes,  C. Gonzalez-Espinoza,  
 S. Gulania,  A. Gunina,  M. W. D. Hanson-Heine,  P. H. P. Harbach,  
 A. W. Hauser,  M. F. Herbst,  M. Hernandez Vera,  M. Hodecker,  
 Z. C. Holden,  S. Houck,  Xunkun Huang,  Kerwin Hui,  B. C. Huynh,  
 M. Ivanov,  Hyunjun Ji,  Hanjie Jiang,  B. Kaduk,  S. Kaehler,  
 K. Khistyaev,  Jaehoon Kim,  P. Klunzinger,  Z. Koczor-Benda,  
 Joong Hoon Koh,  D. Kosenkov,  L. Koulias,  T. Kowalczyk,  C. M. Krauter,  
 K. Kue,  A. Kunitsa,  T. Kus,  A. Landau,  K. V. Lawler,  D. Lefrancois,  
 S. Lehtola,  Rain Li,  Yi-Pei Li,  Jiashu Liang,  M. Liebenthal,  
 Hung-Hsuan Lin,  You-Sheng Lin,  Fenglai Liu,  Kuan-Yu Liu,  
 M. Loipersberger,  A. Luenser,  A. Manjanath,  P. Manohar,  E. Mansoor,  
 S. F. Manzer,  Shan-Ping Mao,  A. V. Marenich,  T. Markovich,  S. Mason,  
 S. A. Maurer,  P. F. McLaughlin,  M. F. S. J. Menger,  J.-M. Mewes,  
 S. A. Mewes,  P. Morgante,  J. W. Mullinax,  T. S. Nguyen-Beck,  
 K. J. Oosterbaan,  G. Paran,  Alexander C. Paul,  Suranjan K. Paul,  
 F. Pavosevic,  Zheng Pei,  S. Prager,  E. I. Proynov,  E. Ramos,  B. Rana,  
 A. E. Rask,  A. Rettig,  R. M. Richard,  F. Rob,  E. Rossomme,  T. Scheele,  
 M. Scheurer,  M. Schneider,  N. Sergueev,  S. M. Sharada,  W. Skomorowski,  
 D. W. Small,  C. J. Stein,  Yu-Chuan Su,  E. J. Sundstrom,  Zhen Tao,  
 J. Thirman,  T. Tsuchimochi,  N. M. Tubman,  S. P. Veccham,  O. Vydrov,  
 J. Wenzel,  J. Witte,  A. Yamada,  Kun Yao,  S. Yeganeh,  S. R. Yost,  
 A. Zech,  Igor Ying Zhang,  Xing Zhang,  Yu Zhang,  D. Zuev,  
 A. Aspuru-Guzik,  A. T. Bell,  N. A. Besley,  K. B. Bravaya,  B. R. Brooks,  
 D. Casanova,  Jeng-Da Chai,  S. Coriani,  C. J. Cramer,  
 A. E. DePrince, III,  R. A. DiStasio Jr.,  A. Dreuw,  B. D. Dunietz,  
 T. R. Furlani,  W. A. Goddard III,  S. Grimme,  S. Hammes-Schiffer,  
 T. Head-Gordon,  W. J. Hehre,  Chao-Ping Hsu,  T.-C. Jagau,  Yousung Jung,  
 A. Klamt,  Jing Kong,  D. S. Lambrecht,  WanZhen Liang,  N. J. Mayhall,  
 C. W. McCurdy,  J. B. Neaton,  C. Ochsenfeld,  J. A. Parkhill,  R. Peverati,  
 V. A. Rassolov,  Yihan Shao,  L. V. Slipchenko,  T. Stauch,  R. P. Steele,  
 J. E. Subotnik,  A. J. W. Thom,  A. Tkatchenko,  D. G. Truhlar,  
 T. Van Voorhis,  T. A. Wesolowski,  K. B. Whaley,  H. L. Woodcock III,  
 P. M. Zimmerman,  S. Faraji,  P. M. W. Gill,  M. Head-Gordon,  
 J. M. Herbert,  A. I. Krylov

 Contributors to earlier versions of Q-Chem not listed above: 
 R. D. Adamson,  B. Austin,  R. Baer,  J. Baker,  G. J. O. Beran,  
 K. Brandhorst,  S. T. Brown,  E. F. C. Byrd,  A. K. Chakraborty,  
 G. K. L. Chan,  Chun-Min Chang,  Yunqing Chen,  C.-L. Cheng,  
 Siu Hung Chien,  D. M. Chipman,  D. L. Crittenden,  H. Dachsel,  
 R. J. Doerksen,  A. D. Dutoi,  R. G. Edgar,  J. Fosso-Tande,  
 L. Fusti-Molnar,  D. Ghosh,  A. Ghysels,  A. Golubeva-Zadorozhnaya,  
 J. Gonthier,  M. S. Gordon,  S. R. Gwaltney,  G. Hawkins,  J. E. Herr,  
 A. Heyden,  S. Hirata,  E. G. Hohenstein,  G. Kedziora,  F. J. Keil,  
 C. Kelley,  Jihan Kim,  R. A. King,  R. Z. Khaliullin,  P. P. Korambath,  
 W. Kurlancheek,  A. Laurent,  A. M. Lee,  M. S. Lee,  S. V. Levchenko,  
 Ching Yeh Lin,  D. Liotard,  E. Livshits,  R. C. Lochan,  I. Lotan,  
 L. A. Martinez-Martinez,  P. E. Maslen,  N. Nair,  D. P. O'Neill,  
 D. Neuhauser,  E. Neuscamman,  C. M. Oana,  R. Olivares-Amaya,  R. Olson,  
 T. M. Perrine,  B. Peters,  P. A. Pieniazek,  A. Prociuk,  Y. M. Rhee,  
 J. Ritchie,  M. A. Rohrdanz,  E. Rosta,  N. J. Russ,  H. F. Schaefer III,  
 M. W. Schmidt,  N. E. Schultz,  S. Sharma,  N. Shenvi,  C. D. Sherrill,  
 A. C. Simmonett,  A. Sodt,  T. Stein,  D. Stuck,  K. S. Thanthiriwatte,  
 V. Vanovschi,  L. Vogt,  Tao Wang,  A. Warshel,  M. A. Watson,  
 C. F. Williams,  Q. Wu,  X. Xu,  Jun Yang,  W. Zhang,  Yan Zhao

 Please cite Q-Chem as follows:
 Y. Shao et al., Mol. Phys. 113, 184-215 (2015)
 DOI: 10.1080/00268976.2014.952696

 Q-Chem 5.4.0 for Intel X86 EM64T Linux

 Parts of Q-Chem use Armadillo 9.800.1 (Horizon Scraper).
 http://arma.sourceforge.net/

 Q-Chem begins on Wed Dec 27 10:01:46 2023  

 Host: 
0

     Scratch files written to ./qchem1324456//
 May1621 |scratch|qcdevops|jenkins|workspace|build_RNUM    
 Parallel job on  1  processors
 Processing $rem in /cm/shared/apps/spack/cpu/opt/spack/linux-centos8-zen2/gcc-10.2.0/qchem-5.4-akfmr7b3t57bfs6qan3padb2wnb2i7cl/config/preferences:
 Processing $rem in /home/rramji/.qchemrc:
 Symmetry turned off for PCM/SM12/SMD calculation
 Core orbitals will be frozen

 Checking the input file for inconsistencies... 	...done.

 Q-Chem warning in module forms1/BasisType.C, line 2236:

 You are not using the predefined 5D/6D in this basis set.


--------------------------------------------------------------
User input:
--------------------------------------------------------------
$molecule
0 1
C	0.086486	-6.741404	-0.241938
C	0.532960	-6.155638	-1.468983
C	-0.284733	-5.791452	0.776651
C	0.628455	-4.803786	-1.730681
H	0.833086	-6.821518	-2.294130
C	-0.184300	-4.378638	0.502775
C	0.271086	-3.838032	-0.747353
C	-0.541191	-3.413062	1.484986
C	0.370703	-2.426473	-1.019042
C	-0.446468	-2.059348	1.226525
C	0.000000	-1.478216	0.000000
H	-0.746717	-1.394783	2.052666
C	-0.779832	-6.187987	2.131549
C	-1.030596	-3.798164	2.829295
N	-1.115461	-5.170003	3.057496
C	1.119034	-4.424987	-3.078712
C	0.865151	-2.036627	-2.375300
N	1.201176	-3.049156	-3.301374
O	-0.916355	-7.353131	2.498300
O	-1.345486	-2.986854	3.697195
O	1.430379	-5.248946	-3.936224
O	1.007714	-0.878829	-2.762805
C	-1.599576	-5.563799	4.384539
H	-1.616121	-6.664085	4.426636
H	-2.611458	-5.147101	4.550487
H	-0.931037	-5.148785	5.162921
C	1.677382	-2.587487	-4.608454
H	1.896168	-3.483329	-5.212668
H	2.583531	-1.964972	-4.482719
H	0.903674	-1.962932	-5.093988
C	0.000000	0.000000	0.000000
S	0.396411	0.687007	1.580530
C	1.215245	2.105322	0.904911
C	0.498850	0.864369	-0.985400
C	1.158885	2.007781	-0.493528
H	0.381046	0.660280	-2.059934
H	1.599289	2.770727	-1.152593
H	1.655514	2.868056	1.556025
H	0.893959	-7.361589	0.165874
H	-0.794290	-7.361192	-0.449423
H	1.014686	-1.478831	0.369880
$end

$rem
JOBTYPE		SP
EXCHANGE	HF
CORRELATION	pRIMP2
BASIS		cc-pvtz
METHOD		rimp2
AUX_BASIS	rimp2-cc-pvtz
SOLVENT_METHOD	PCM
PURECART	11111
SYMMETRY	false
MEM_TOTAL	110000
SCF_CONVERGENCE = 6
THRESH=10
GUI = 2
$end



$solvent
dielectric 4.90
$end
--------------------------------------------------------------
 ----------------------------------------------------------------
             Standard Nuclear Orientation (Angstroms)
    I     Atom           X                Y                Z
 ----------------------------------------------------------------
    1      C       0.0864860000    -6.7414040000    -0.2419380000
    2      C       0.5329600000    -6.1556380000    -1.4689830000
    3      C      -0.2847330000    -5.7914520000     0.7766510000
    4      C       0.6284550000    -4.8037860000    -1.7306810000
    5      H       0.8330860000    -6.8215180000    -2.2941300000
    6      C      -0.1843000000    -4.3786380000     0.5027750000
    7      C       0.2710860000    -3.8380320000    -0.7473530000
    8      C      -0.5411910000    -3.4130620000     1.4849860000
    9      C       0.3707030000    -2.4264730000    -1.0190420000
   10      C      -0.4464680000    -2.0593480000     1.2265250000
   11      C       0.0000000000    -1.4782160000     0.0000000000
   12      H      -0.7467170000    -1.3947830000     2.0526660000
   13      C      -0.7798320000    -6.1879870000     2.1315490000
   14      C      -1.0305960000    -3.7981640000     2.8292950000
   15      N      -1.1154610000    -5.1700030000     3.0574960000
   16      C       1.1190340000    -4.4249870000    -3.0787120000
   17      C       0.8651510000    -2.0366270000    -2.3753000000
   18      N       1.2011760000    -3.0491560000    -3.3013740000
   19      O      -0.9163550000    -7.3531310000     2.4983000000
   20      O      -1.3454860000    -2.9868540000     3.6971950000
   21      O       1.4303790000    -5.2489460000    -3.9362240000
   22      O       1.0077140000    -0.8788290000    -2.7628050000
   23      C      -1.5995760000    -5.5637990000     4.3845390000
   24      H      -1.6161210000    -6.6640850000     4.4266360000
   25      H      -2.6114580000    -5.1471010000     4.5504870000
   26      H      -0.9310370000    -5.1487850000     5.1629210000
   27      C       1.6773820000    -2.5874870000    -4.6084540000
   28      H       1.8961680000    -3.4833290000    -5.2126680000
   29      H       2.5835310000    -1.9649720000    -4.4827190000
   30      H       0.9036740000    -1.9629320000    -5.0939880000
   31      C       0.0000000000     0.0000000000     0.0000000000
   32      S       0.3964110000     0.6870070000     1.5805300000
   33      C       1.2152450000     2.1053220000     0.9049110000
   34      C       0.4988500000     0.8643690000    -0.9854000000
   35      C       1.1588850000     2.0077810000    -0.4935280000
   36      H       0.3810460000     0.6602800000    -2.0599340000
   37      H       1.5992890000     2.7707270000    -1.1525930000
   38      H       1.6555140000     2.8680560000     1.5560250000
   39      H       0.8939590000    -7.3615890000     0.1658740000
   40      H      -0.7942900000    -7.3611920000    -0.4494230000
   41      H       1.0146860000    -1.4788310000     0.3698800000
 ----------------------------------------------------------------
 Nuclear Repulsion Energy =        2564.25282577 hartrees
 There are       98 alpha and       98 beta electrons
 Requested basis set is cc-pVTZ
 There are 356 shells and 1010 basis functions

 Total QAlloc Memory Limit 110000 MB
 Mega-Array Size       188 MB
 MEM_STATIC part       192 MB
 Discretize the solute cavity surface with Lebedev spheres
	Using 110 Lebedev grid points for each H atom
	Using 194 Lebedev grid points for other atoms
	Atomic van der Waals radii will be scaled by 1.20
 Remove points where switching function is < 1.0e-08
 Keep 2556 surface tesserae and discard 4222 interior tesserae
 Molecular Surface Area = 361.351 Angst**2
 Requested basis set is rimp2-cc-pVTZ
 There are 770 shells and 2648 basis functions
 A cutoff of  1.0D-10 yielded  34524 shell pairs
 There are    261200 function pairs (    338043 Cartesian)
 Smallest overlap matrix eigenvalue = 9.26E-06

 Q-Chem warning in module stvman/mkSTV.C, line 323:

 Overlap eigenvalue is smaller than square root of threshold
 Use THRESH >= 12 to get rid of this warning


 Scale SEOQF with 1.000000e-01/1.000000e-02/1.000000e-01

 Standard Electronic Orientation quadrupole field applied
 Nucleus-field energy     =    -0.0000000964 hartrees
 Guess from superposition of atomic densities
 Warning:  Energy on first SCF cycle will be non-variational
 SAD guess density has 196.000000 electrons

 -----------------------------------------------------------------------
  General SCF calculation program by
  Eric Jon Sundstrom, Paul Horn, Yuezhi Mao, Dmitri Zuev, Alec White,
  David Stuck, Shaama M.S., Shane Yost, Joonho Lee, David Small,
  Daniel Levine, Susi Lehtola, Hugh Burton, Evgeny Epifanovsky,
  Bang C. Huynh
 -----------------------------------------------------------------------
 Hartree-Fock
 using 64 threads for integral computing
 -------------------------------------------------------
 OpenMP Integral computing Module                
 Release: version 1.0, May 2013, Q-Chem Inc. Pittsburgh 
 -------------------------------------------------------
 A restricted SCF calculation will be
 performed using DIIS
 SCF converges when DIIS error is below 1.0e-06
 ---------------------------------------
  Cycle       Energy         DIIS error
 ---------------------------------------
    1   -1583.2363319917      1.87e-02  
    2   -1571.1337605294      2.03e-03  
    3   -1571.4755233075      1.54e-03  
    4   -1571.6964533669      2.54e-04  
    5   -1571.7104975754      7.90e-05  
    6   -1571.7119622802      3.07e-05  
    7   -1571.7124047081      1.56e-05  
    8   -1571.7125236675      6.23e-06  
    9   -1571.7125435793      2.81e-06  
   10   -1571.7125473675      1.21e-06  
   11   -1571.7125485215      5.70e-07  Convergence criterion met
 ---------------------------------------
 SCF time:   CPU 6931.85s  wall 259.00s 

************** Final PCM Free Energy Summary **************
 G_electrostatic  =      -0.02669756 hartree =     -16.75297301 kcal/mol
 G_cavitation     =       0.00000000 hartree =       0.00000000 kcal/mol
 G_dispersion     =       0.00000000 hartree =       0.00000000 kcal/mol
 G_repulsion      =       0.00000000 hartree =       0.00000000 kcal/mol
 --------------------------------------------------
 Non-electrostatic Free Energy =       0.00000000 hartree =       0.00000000 kcal/mol
 Total                         =      -0.02669756 hartree =     -16.75297301 kcal/mol
 --------------------------------------------------
 SCF Energy (H0 + V/2)                       =   -1571.71254852 
 Solute Internal Energy (H0)                 =   -1571.68585096 
 Total Free Energy (H0 + V/2 + non-elec)     =   -1571.71254852 hartree
                                             = -986264.50988679 kcal/mol
***********************************************************

 SCF   energy in the final basis set =    -1571.7125485215
 Total energy in the final basis set =    -1571.7125485215


 --------------------------------------------------------------
  Generalized many-body perturbation theory program
  by Joonho Lee, Fazle Rob, Xintian Feng, Evgeny Epifanovsky

 No regularization used 
 (reg. param. = 0.0000e+00)
  (P|Q)^-1/2 Time:  CPU 192.16 s  wall 3.62 s

 In RI-MP2 calculation: 
 # of frozen core orbitals: 31

 Components of the RIMP2 correlation energy:
        aaaa    correlation energy =        -0.6167552966 a.u.
        abab    correlation energy =        -3.4291105526 a.u.
        bbbb    correlation energy =        -0.6167552966 a.u.
        non-Brillouin singles      =        -0.0000000000 a.u.
        total same-spin energy     =        -1.2335105931 a.u.
        total opposite-spin energy =        -3.4291105526 a.u.

 Total  RIMP2   correlation energy =        -4.6626211457 a.u.
        RIMP2         total energy =     -1576.3751696672 a.u.

 RI-MP2 Energy Time:  CPU 2109.57 s  wall 34.87 s
 
 --------------------------------------------------------------
 
                    Orbital Energies (a.u.)
 --------------------------------------------------------------
 
 Alpha MOs
 -- Occupied --
-91.9862 -20.5517 -20.5457 -20.5419 -20.5409 -15.6292 -15.6214 -11.3978
-11.3864 -11.3837 -11.3793 -11.3089 -11.3078 -11.3058 -11.3049 -11.2971
-11.2892 -11.2875 -11.2814 -11.2697 -11.2687 -11.2662 -11.2645 -11.2593
-11.2531 -11.2462 -11.2391  -8.9867  -6.6676  -6.6671  -6.6664  -1.4242
 -1.4124  -1.4002  -1.3916  -1.2648  -1.2557  -1.2314  -1.1883  -1.1500
 -1.1145  -1.0862  -1.0480  -0.9959  -0.9886  -0.9824  -0.9557  -0.9486
 -0.8974  -0.8892  -0.8780  -0.8612  -0.7929  -0.7798  -0.7728  -0.7608
 -0.7402  -0.7234  -0.7027  -0.6886  -0.6799  -0.6750  -0.6677  -0.6580
 -0.6486  -0.6472  -0.6377  -0.6319  -0.6313  -0.6297  -0.6237  -0.6050
 -0.5909  -0.5702  -0.5649  -0.5610  -0.5574  -0.5522  -0.5512  -0.5485
 -0.5478  -0.5425  -0.5181  -0.5139  -0.5082  -0.4833  -0.4735  -0.4620
 -0.4568  -0.4480  -0.4422  -0.4357  -0.4160  -0.4079  -0.3566  -0.3480
 -0.3311  -0.2772
 -- Virtual --
  0.0121   0.0395   0.0840   0.0930   0.1454   0.1502   0.1584   0.1602
  0.1637   0.1698   0.1778   0.1794   0.1881   0.1950   0.2040   0.2058
  0.2141   0.2224   0.2275   0.2283   0.2325   0.2351   0.2493   0.2623
  0.2641   0.2731   0.3029   0.3072   0.3202   0.3220   0.3249   0.3311
  0.3381   0.3393   0.3460   0.3531   0.3557   0.3606   0.3640   0.3657
  0.3734   0.3829   0.3849   0.3867   0.3910   0.4021   0.4082   0.4093
  0.4179   0.4251   0.4292   0.4326   0.4391   0.4433   0.4481   0.4502
  0.4524   0.4545   0.4619   0.4659   0.4683   0.4851   0.4901   0.4977
  0.4991   0.5022   0.5060   0.5128   0.5157   0.5222   0.5250   0.5289
  0.5325   0.5346   0.5461   0.5492   0.5515   0.5605   0.5625   0.5662
  0.5722   0.5789   0.5797   0.5872   0.5899   0.5960   0.5981   0.5999
  0.6057   0.6071   0.6088   0.6133   0.6158   0.6228   0.6244   0.6292
  0.6322   0.6335   0.6354   0.6401   0.6431   0.6467   0.6516   0.6609
  0.6632   0.6693   0.6761   0.6821   0.6855   0.6878   0.6971   0.7008
  0.7123   0.7218   0.7267   0.7362   0.7387   0.7462   0.7588   0.7619
  0.7671   0.7715   0.7776   0.7811   0.7904   0.7955   0.7986   0.8015
  0.8061   0.8125   0.8195   0.8275   0.8344   0.8386   0.8423   0.8456
  0.8552   0.8552   0.8583   0.8705   0.8719   0.8767   0.8824   0.8910
  0.8940   0.9019   0.9058   0.9121   0.9188   0.9191   0.9251   0.9287
  0.9342   0.9443   0.9489   0.9519   0.9580   0.9656   0.9705   0.9775
  0.9855   0.9913   0.9951   0.9995   1.0041   1.0080   1.0114   1.0235
  1.0275   1.0290   1.0410   1.0440   1.0531   1.0574   1.0608   1.0641
  1.0697   1.0715   1.0745   1.0847   1.0870   1.0932   1.0979   1.0987
  1.1125   1.1130   1.1162   1.1295   1.1311   1.1339   1.1409   1.1486
  1.1524   1.1616   1.1640   1.1707   1.1753   1.1821   1.1844   1.1901
  1.1976   1.2027   1.2076   1.2088   1.2130   1.2209   1.2249   1.2294
  1.2365   1.2397   1.2421   1.2472   1.2563   1.2669   1.2685   1.2717
  1.2775   1.2867   1.2967   1.3048   1.3078   1.3239   1.3389   1.3446
  1.3453   1.3516   1.3562   1.3676   1.3718   1.3826   1.3876   1.3915
  1.3949   1.4003   1.4012   1.4041   1.4206   1.4228   1.4300   1.4433
  1.4528   1.4622   1.4690   1.4706   1.4784   1.4830   1.4920   1.5001
  1.5023   1.5048   1.5117   1.5164   1.5256   1.5297   1.5318   1.5407
  1.5431   1.5506   1.5555   1.5607   1.5660   1.5698   1.5757   1.5855
  1.5877   1.5957   1.6038   1.6074   1.6171   1.6297   1.6393   1.6453
  1.6521   1.6587   1.6655   1.6697   1.6810   1.6854   1.6950   1.7022
  1.7048   1.7215   1.7249   1.7342   1.7385   1.7453   1.7486   1.7615
  1.7673   1.7742   1.7855   1.7896   1.7974   1.8008   1.8123   1.8162
  1.8268   1.8427   1.8473   1.8500   1.8604   1.8680   1.8703   1.8747
  1.8768   1.8870   1.8921   1.8992   1.9192   1.9233   1.9251   1.9494
  1.9595   1.9686   1.9769   1.9878   1.9922   2.0027   2.0182   2.0244
  2.0332   2.0417   2.0610   2.0872   2.0945   2.1046   2.1156   2.1297
  2.1431   2.1541   2.1666   2.1700   2.1897   2.1915   2.2115   2.2267
  2.2322   2.2448   2.2602   2.2765   2.2878   2.2919   2.3050   2.3123
  2.3252   2.3324   2.3384   2.3425   2.3579   2.3661   2.3781   2.3870
  2.4064   2.4136   2.4221   2.4382   2.4461   2.4549   2.4638   2.4696
  2.4805   2.4861   2.4992   2.5091   2.5137   2.5330   2.5355   2.5526
  2.5604   2.5684   2.5830   2.5850   2.5948   2.6035   2.6142   2.6182
  2.6240   2.6384   2.6390   2.6486   2.6549   2.6640   2.6676   2.6794
  2.6810   2.6902   2.6919   2.7041   2.7180   2.7289   2.7349   2.7392
  2.7428   2.7458   2.7552   2.7624   2.7666   2.7810   2.7866   2.8012
  2.8112   2.8292   2.8397   2.8438   2.8524   2.8568   2.8696   2.8763
  2.8774   2.8878   2.8879   2.8979   2.9009   2.9101   2.9151   2.9179
  2.9212   2.9283   2.9414   2.9471   2.9565   2.9588   2.9670   2.9784
  2.9822   2.9849   2.9930   3.0052   3.0096   3.0154   3.0239   3.0289
  3.0305   3.0414   3.0478   3.0554   3.0674   3.0773   3.0815   3.0876
  3.0954   3.0989   3.1032   3.1053   3.1058   3.1094   3.1135   3.1244
  3.1351   3.1402   3.1420   3.1575   3.1608   3.1642   3.1722   3.1775
  3.1835   3.1910   3.1937   3.1983   3.2099   3.2129   3.2164   3.2254
  3.2334   3.2397   3.2439   3.2465   3.2536   3.2574   3.2608   3.2628
  3.2674   3.2762   3.2812   3.2851   3.2871   3.2982   3.3069   3.3082
  3.3123   3.3186   3.3226   3.3274   3.3305   3.3345   3.3371   3.3395
  3.3426   3.3498   3.3535   3.3572   3.3652   3.3686   3.3743   3.3779
  3.3812   3.3838   3.3881   3.3959   3.4014   3.4051   3.4081   3.4141
  3.4194   3.4231   3.4264   3.4324   3.4360   3.4407   3.4428   3.4531
  3.4594   3.4628   3.4685   3.4722   3.4777   3.4833   3.4891   3.4924
  3.4984   3.5042   3.5071   3.5106   3.5129   3.5228   3.5275   3.5321
  3.5354   3.5490   3.5561   3.5583   3.5637   3.5735   3.5770   3.5815
  3.5893   3.5929   3.6047   3.6098   3.6137   3.6192   3.6236   3.6266
  3.6308   3.6344   3.6389   3.6410   3.6499   3.6557   3.6599   3.6641
  3.6728   3.6842   3.6868   3.6937   3.6983   3.7063   3.7094   3.7138
  3.7180   3.7316   3.7370   3.7442   3.7486   3.7546   3.7548   3.7585
  3.7688   3.7698   3.7778   3.7826   3.7871   3.7901   3.7931   3.8055
  3.8121   3.8154   3.8247   3.8291   3.8305   3.8367   3.8434   3.8544
  3.8562   3.8581   3.8730   3.8784   3.8798   3.8882   3.9030   3.9122
  3.9138   3.9235   3.9306   3.9354   3.9391   3.9447   3.9496   3.9559
  3.9618   3.9697   3.9828   3.9856   3.9910   3.9974   4.0059   4.0140
  4.0222   4.0336   4.0423   4.0504   4.0547   4.0613   4.0700   4.0899
  4.0993   4.1093   4.1127   4.1193   4.1268   4.1340   4.1438   4.1519
  4.1568   4.1640   4.1688   4.1724   4.1772   4.1861   4.1936   4.2007
  4.2148   4.2282   4.2394   4.2452   4.2473   4.2540   4.2598   4.2671
  4.2740   4.2813   4.2869   4.2903   4.2918   4.3007   4.3067   4.3094
  4.3196   4.3281   4.3336   4.3339   4.3396   4.3431   4.3495   4.3604
  4.3653   4.3695   4.3721   4.3756   4.3808   4.3877   4.3963   4.4032
  4.4068   4.4144   4.4194   4.4248   4.4376   4.4501   4.4510   4.4625
  4.4831   4.4885   4.4971   4.5058   4.5098   4.5197   4.5228   4.5356
  4.5405   4.5485   4.5561   4.5676   4.5749   4.5795   4.5847   4.5917
  4.5992   4.6004   4.6109   4.6186   4.6239   4.6281   4.6376   4.6481
  4.6570   4.6719   4.6765   4.6808   4.6905   4.6939   4.7098   4.7123
  4.7185   4.7358   4.7502   4.7618   4.7786   4.7876   4.7941   4.8060
  4.8084   4.8164   4.8340   4.8400   4.8481   4.8591   4.8750   4.8769
  4.8968   4.8975   4.9089   4.9267   4.9306   4.9583   4.9627   4.9840
  4.9906   5.0110   5.0209   5.0238   5.0395   5.0411   5.0537   5.0701
  5.0771   5.1064   5.1083   5.1188   5.1200   5.1317   5.1346   5.1550
  5.1594   5.1609   5.1740   5.1847   5.1974   5.2061   5.2186   5.2375
  5.2627   5.2658   5.2817   5.2865   5.3016   5.3095   5.3228   5.3305
  5.3328   5.3354   5.3593   5.3680   5.3775   5.3867   5.4029   5.4154
  5.4334   5.4481   5.4710   5.4837   5.4941   5.5121   5.5138   5.5171
  5.5191   5.5382   5.5417   5.5546   5.5619   5.5663   5.5670   5.5731
  5.5798   5.5861   5.5924   5.6046   5.6105   5.6172   5.6274   5.6316
  5.6441   5.6498   5.6603   5.6663   5.6673   5.6718   5.6900   5.6944
  5.7044   5.7124   5.7176   5.7500   5.7614   5.7638   5.7741   5.7831
  5.7897   5.8036   5.8287   5.8422   5.8502   5.8543   5.8784   5.9090
  5.9354   5.9586   5.9672   5.9796   6.0009   6.0183   6.0397   6.0458
  6.0591   6.0647   6.1046   6.1138   6.1273   6.1428   6.1617   6.1885
  6.2017   6.2203   6.2237   6.2257   6.2515   6.2766   6.2832   6.2893
  6.3125   6.3141   6.3241   6.3581   6.3679   6.3853   6.4263   6.4875
  6.5215   6.5362   6.5793   6.5835   6.6020   6.6349   6.6592   6.6601
  6.6755   6.6839   6.8510   6.8551   6.8923   6.9020   6.9058   6.9270
  6.9278   6.9975   7.1050   7.1395   7.1553   7.2015   7.2145   7.2752
  7.3475   7.3517   7.3586   7.3791   7.4777   7.5461   7.5720   7.5840
  7.5928   7.6285   7.6554   7.6918   7.7079   7.8161   8.9194  10.0370
 10.3918  11.3318  11.5649  11.7825  11.9937  12.1696  12.4295  12.5173
 12.9254  13.2270  13.3528  13.5597  13.7983  13.9370  14.1291  14.2910
 14.3228  14.3789  14.5385  14.7318  15.0199  15.6154  15.8180  16.2894
 --------------------------------------------------------------
 
          Ground-State Mulliken Net Atomic Charges

     Atom                 Charge (a.u.)
  ----------------------------------------
      1 C                    -0.084138
      2 C                    -0.031130
      3 C                    -0.109561
      4 C                    -0.122704
      5 H                     0.198809
      6 C                     0.020418
      7 C                     0.126015
      8 C                    -0.065250
      9 C                    -0.197199
     10 C                    -0.154592
     11 C                     0.189942
     12 H                     0.180767
     13 C                     0.343015
     14 C                     0.346631
     15 N                    -0.090130
     16 C                     0.357942
     17 C                     0.388644
     18 N                    -0.087685
     19 O                    -0.493992
     20 O                    -0.506295
     21 O                    -0.500396
     22 O                    -0.477133
     23 C                    -0.204833
     24 H                     0.139402
     25 H                     0.109424
     26 H                     0.109380
     27 C                    -0.199043
     28 H                     0.134610
     29 H                     0.111537
     30 H                     0.112100
     31 C                    -0.011418
     32 S                    -0.006856
     33 C                    -0.227489
     34 C                    -0.208306
     35 C                    -0.197172
     36 H                     0.209814
     37 H                     0.191903
     38 H                     0.213676
     39 H                     0.137746
     40 H                     0.138164
     41 H                     0.215383
  ----------------------------------------
  Sum of atomic charges =     0.000000

 -----------------------------------------------------------------
                    Cartesian Multipole Moments
 -----------------------------------------------------------------
    Charge (ESU x 10^10)
                 0.0000
    Dipole Moment (Debye)
         X       2.2819      Y       1.6492      Z      -2.1934
       Tot       3.5690
    Quadrupole Moments (Debye-Ang)
        XX    -163.4716     XY       0.4370     YY    -179.5914
        XZ      10.3854     YZ       8.4674     ZZ    -184.9232
    Octopole Moments (Debye-Ang^2)
       XXX     -86.8034    XXY     487.6856    XYY       9.1103
       YYY    1685.6107    XXZ      -1.1842    XYZ     -40.4411
       YYZ     -54.2811    XZZ     -23.7053    YZZ     595.6762
       ZZZ     -13.7466
    Hexadecapole Moments (Debye-Ang^3)
      XXXX   -1011.1949   XXXY    -227.8446   XXYY   -2829.7329
      XYYY    -480.5520   YYYY  -17956.2255   XXXZ     913.5823
      XXYZ      71.8666   XYYZ     594.9166   YYYZ    1075.4595
      XXZZ   -1129.3440   XYZZ      35.9079   YYZZ   -4265.0428
      XZZZ    1019.1176   YZZZ      41.3887   ZZZZ   -5860.5529
 -----------------------------------------------------------------
 Total job time:  307.45s(wall), 9170.56s(cpu) 
 Wed Dec 27 10:06:53 2023

        *************************************************************
        *                                                           *
        *  Thank you very much for using Q-Chem.  Have a nice day.  *
        *                                                           *
        *************************************************************


0 sent ACK to 0 
now end server 0 ... 
cleanup process ... done
remove work dirs ./qchem1324456.0 -- ./qchem1324456.0
rm -rf ./qchem1324456.0
rm -rf ./qchem1324456
