You are running Q-Chem version: 5.4.0

#
# job setting
#
local host:  exp-2-17
current dir: /home/rramji/project-csd799/aromodel/pndit-qchem/hydrogenated-rotation-run
input file:  Dimethyl_Naphthalene_Dicarboximide_Phi_20_Theta_330_Thiophene_Hydrogenated.qcin
output file: 
nprocs     : 1
nthreads   : 64
#
# qchem installation setting
#
QC:          /cm/shared/apps/spack/cpu/opt/spack/linux-centos8-zen2/gcc-10.2.0/qchem-5.4-akfmr7b3t57bfs6qan3padb2wnb2i7cl
QCAUX:       /cm/shared/apps/spack/cpu/opt/spack/linux-centos8-zen2/gcc-10.2.0/qchem-5.4-akfmr7b3t57bfs6qan3padb2wnb2i7cl/qcaux
QCPROG:      /cm/shared/apps/spack/cpu/opt/spack/linux-centos8-zen2/gcc-10.2.0/qchem-5.4-akfmr7b3t57bfs6qan3padb2wnb2i7cl/exe/qcprog.exe
QCPROG_S:    /cm/shared/apps/spack/cpu/opt/spack/linux-centos8-zen2/gcc-10.2.0/qchem-5.4-akfmr7b3t57bfs6qan3padb2wnb2i7cl/exe/qcprog.exe_s
PARALLEL:    -DPARALLEL
QCMPI:       mpich
#
# qchem directory setting
#
qcrun:       qchem48888
QCSCRATCH:   .
QCLOCALSCR:  
QCTMPDIR:    .
QCFILEPREF:  ./qchem48888
QCSAVEDIR:   
workdirs:    ./qchem48888
workdir0:    ./qchem48888
partmpdirs =  
#
# parallel setting
#
QCRSH:           ssh
QCMPI:           mpich
QCMPIRUN:        /cm/shared/apps/spack/cpu/opt/spack/linux-centos8-zen2/gcc-10.2.0/qchem-5.4-akfmr7b3t57bfs6qan3padb2wnb2i7cl/bin/mpi/mpirun_qchem
QCMACHINEFILE:   ./qchem48888/hostfile
exp-2-17

#
# env setting
#
exported envs:   QC QCAUX QCSCRATCH QCRUNNAME QCFILEPREF QCPROG QCPROG_S GUIFILE

Running Job 1 of 1 Dimethyl_Naphthalene_Dicarboximide_Phi_20_Theta_330_Thiophene_Hydrogenated.qcin
qchem Dimethyl_Naphthalene_Dicarboximide_Phi_20_Theta_330_Thiophene_Hydrogenated.qcin_48888.0 ./qchem48888/ 1
/cm/shared/apps/spack/cpu/opt/spack/linux-centos8-zen2/gcc-10.2.0/qchem-5.4-akfmr7b3t57bfs6qan3padb2wnb2i7cl/bin/mpi/mpirun_qchem -machinefile ./qchem48888/hostfile -np 1 /cm/shared/apps/spack/cpu/opt/spack/linux-centos8-zen2/gcc-10.2.0/qchem-5.4-akfmr7b3t57bfs6qan3padb2wnb2i7cl/exe/qcprog.exe Dimethyl_Naphthalene_Dicarboximide_Phi_20_Theta_330_Thiophene_Hydrogenated.qcin_48888.0 ./qchem48888/

Process 0 of 1 is on exp-2-17 - thread support 0
initial socket setup ...start
initial socket setup ...done 
now start server 0 ... 
                  Welcome to Q-Chem
     A Quantum Leap Into The Future Of Chemistry


 Q-Chem 5.4, Q-Chem, Inc., Pleasanton, CA (2021)

 License issued to: University of California, San Diego (site)

 E. Epifanovsky,  A. T. B. Gilbert,  Xintian Feng,  Joonho Lee,  Yuezhi Mao,  
 N. Mardirossian,  P. Pokhilko,  A. White,  M. Wormit,  M. P. Coons,  
 A. L. Dempwolff,  Zhengting Gan,  D. Hait,  P. R. Horn,  L. D. Jacobson,  
 I. Kaliman,  J. Kussmann,  A. W. Lange,  Ka Un Lao,  D. S. Levine,  Jie Liu,  
 S. C. McKenzie,  A. F. Morrison,  K. Nanda,  F. Plasser,  D. R. Rehn,  
 M. L. Vidal,  Zhi-Qiang You,  Ying Zhu,  B. Alam,  B. Albrecht,  
 A. Aldossary,  E. Alguire,  J. H. Andersen,  D. Barton,  K. Begam,  A. Behn,  
 Y. A. Bernard,  E. J. Berquist,  H. Burton,  A. Carreras,  K. Carter-Fenk,  
 R. Chakraborty,  A. D. Chien,  K. D. Closser,  V. Cofer-Shabica,  
 S. Dasgupta,  Jia Deng,  M. de Wergifosse,  M. Diedenhofen,  Hainam Do,  
 S. Ehlert,  Po-Tung Fang,  S. Fatehi,  Qingguo Feng,  J. Gayvert,  
 Qinghui Ge,  G. Gidofalvi,  M. Goldey,  J. Gomes,  C. Gonzalez-Espinoza,  
 S. Gulania,  A. Gunina,  M. W. D. Hanson-Heine,  P. H. P. Harbach,  
 A. W. Hauser,  M. F. Herbst,  M. Hernandez Vera,  M. Hodecker,  
 Z. C. Holden,  S. Houck,  Xunkun Huang,  Kerwin Hui,  B. C. Huynh,  
 M. Ivanov,  Hyunjun Ji,  Hanjie Jiang,  B. Kaduk,  S. Kaehler,  
 K. Khistyaev,  Jaehoon Kim,  P. Klunzinger,  Z. Koczor-Benda,  
 Joong Hoon Koh,  D. Kosenkov,  L. Koulias,  T. Kowalczyk,  C. M. Krauter,  
 K. Kue,  A. Kunitsa,  T. Kus,  A. Landau,  K. V. Lawler,  D. Lefrancois,  
 S. Lehtola,  Rain Li,  Yi-Pei Li,  Jiashu Liang,  M. Liebenthal,  
 Hung-Hsuan Lin,  You-Sheng Lin,  Fenglai Liu,  Kuan-Yu Liu,  
 M. Loipersberger,  A. Luenser,  A. Manjanath,  P. Manohar,  E. Mansoor,  
 S. F. Manzer,  Shan-Ping Mao,  A. V. Marenich,  T. Markovich,  S. Mason,  
 S. A. Maurer,  P. F. McLaughlin,  M. F. S. J. Menger,  J.-M. Mewes,  
 S. A. Mewes,  P. Morgante,  J. W. Mullinax,  T. S. Nguyen-Beck,  
 K. J. Oosterbaan,  G. Paran,  Alexander C. Paul,  Suranjan K. Paul,  
 F. Pavosevic,  Zheng Pei,  S. Prager,  E. I. Proynov,  E. Ramos,  B. Rana,  
 A. E. Rask,  A. Rettig,  R. M. Richard,  F. Rob,  E. Rossomme,  T. Scheele,  
 M. Scheurer,  M. Schneider,  N. Sergueev,  S. M. Sharada,  W. Skomorowski,  
 D. W. Small,  C. J. Stein,  Yu-Chuan Su,  E. J. Sundstrom,  Zhen Tao,  
 J. Thirman,  T. Tsuchimochi,  N. M. Tubman,  S. P. Veccham,  O. Vydrov,  
 J. Wenzel,  J. Witte,  A. Yamada,  Kun Yao,  S. Yeganeh,  S. R. Yost,  
 A. Zech,  Igor Ying Zhang,  Xing Zhang,  Yu Zhang,  D. Zuev,  
 A. Aspuru-Guzik,  A. T. Bell,  N. A. Besley,  K. B. Bravaya,  B. R. Brooks,  
 D. Casanova,  Jeng-Da Chai,  S. Coriani,  C. J. Cramer,  
 A. E. DePrince, III,  R. A. DiStasio Jr.,  A. Dreuw,  B. D. Dunietz,  
 T. R. Furlani,  W. A. Goddard III,  S. Grimme,  S. Hammes-Schiffer,  
 T. Head-Gordon,  W. J. Hehre,  Chao-Ping Hsu,  T.-C. Jagau,  Yousung Jung,  
 A. Klamt,  Jing Kong,  D. S. Lambrecht,  WanZhen Liang,  N. J. Mayhall,  
 C. W. McCurdy,  J. B. Neaton,  C. Ochsenfeld,  J. A. Parkhill,  R. Peverati,  
 V. A. Rassolov,  Yihan Shao,  L. V. Slipchenko,  T. Stauch,  R. P. Steele,  
 J. E. Subotnik,  A. J. W. Thom,  A. Tkatchenko,  D. G. Truhlar,  
 T. Van Voorhis,  T. A. Wesolowski,  K. B. Whaley,  H. L. Woodcock III,  
 P. M. Zimmerman,  S. Faraji,  P. M. W. Gill,  M. Head-Gordon,  
 J. M. Herbert,  A. I. Krylov

 Contributors to earlier versions of Q-Chem not listed above: 
 R. D. Adamson,  B. Austin,  R. Baer,  J. Baker,  G. J. O. Beran,  
 K. Brandhorst,  S. T. Brown,  E. F. C. Byrd,  A. K. Chakraborty,  
 G. K. L. Chan,  Chun-Min Chang,  Yunqing Chen,  C.-L. Cheng,  
 Siu Hung Chien,  D. M. Chipman,  D. L. Crittenden,  H. Dachsel,  
 R. J. Doerksen,  A. D. Dutoi,  R. G. Edgar,  J. Fosso-Tande,  
 L. Fusti-Molnar,  D. Ghosh,  A. Ghysels,  A. Golubeva-Zadorozhnaya,  
 J. Gonthier,  M. S. Gordon,  S. R. Gwaltney,  G. Hawkins,  J. E. Herr,  
 A. Heyden,  S. Hirata,  E. G. Hohenstein,  G. Kedziora,  F. J. Keil,  
 C. Kelley,  Jihan Kim,  R. A. King,  R. Z. Khaliullin,  P. P. Korambath,  
 W. Kurlancheek,  A. Laurent,  A. M. Lee,  M. S. Lee,  S. V. Levchenko,  
 Ching Yeh Lin,  D. Liotard,  E. Livshits,  R. C. Lochan,  I. Lotan,  
 L. A. Martinez-Martinez,  P. E. Maslen,  N. Nair,  D. P. O'Neill,  
 D. Neuhauser,  E. Neuscamman,  C. M. Oana,  R. Olivares-Amaya,  R. Olson,  
 T. M. Perrine,  B. Peters,  P. A. Pieniazek,  A. Prociuk,  Y. M. Rhee,  
 J. Ritchie,  M. A. Rohrdanz,  E. Rosta,  N. J. Russ,  H. F. Schaefer III,  
 M. W. Schmidt,  N. E. Schultz,  S. Sharma,  N. Shenvi,  C. D. Sherrill,  
 A. C. Simmonett,  A. Sodt,  T. Stein,  D. Stuck,  K. S. Thanthiriwatte,  
 V. Vanovschi,  L. Vogt,  Tao Wang,  A. Warshel,  M. A. Watson,  
 C. F. Williams,  Q. Wu,  X. Xu,  Jun Yang,  W. Zhang,  Yan Zhao

 Please cite Q-Chem as follows:
 Y. Shao et al., Mol. Phys. 113, 184-215 (2015)
 DOI: 10.1080/00268976.2014.952696

 Q-Chem 5.4.0 for Intel X86 EM64T Linux

 Parts of Q-Chem use Armadillo 9.800.1 (Horizon Scraper).
 http://arma.sourceforge.net/

 Q-Chem begins on Wed Dec 27 12:38:14 2023  

 Host: 
0

     Scratch files written to ./qchem48888//
 May1621 |scratch|qcdevops|jenkins|workspace|build_RNUM    
 Parallel job on  1  processors
 Processing $rem in /cm/shared/apps/spack/cpu/opt/spack/linux-centos8-zen2/gcc-10.2.0/qchem-5.4-akfmr7b3t57bfs6qan3padb2wnb2i7cl/config/preferences:
 Processing $rem in /home/rramji/.qchemrc:
 Symmetry turned off for PCM/SM12/SMD calculation
 Core orbitals will be frozen

 Checking the input file for inconsistencies... 	...done.

 Q-Chem warning in module forms1/BasisType.C, line 2236:

 You are not using the predefined 5D/6D in this basis set.


--------------------------------------------------------------
User input:
--------------------------------------------------------------
$molecule
0 1
C	-0.129743	-6.741404	-0.221766
C	-0.782726	-6.155638	-1.352515
C	0.411926	-5.791452	0.717339
C	-0.921816	-4.803786	-1.593885
H	-1.221908	-6.821518	-2.112819
C	0.266682	-4.378638	0.464360
C	-0.398255	-3.838032	-0.688053
C	0.789694	-3.413062	1.369108
C	-0.542349	-2.426473	-0.939002
C	0.652589	-2.059348	1.130409
C	-0.000000	-1.478216	-0.000000
H	1.092453	-1.394783	1.891446
C	1.131595	-6.187987	1.967519
C	1.504912	-3.798164	2.608118
N	1.625174	-5.170003	2.819813
C	-1.639129	-4.424987	-2.836188
C	-1.263477	-2.036627	-2.189558
N	-1.756898	-3.049156	-3.042237
O	1.324787	-7.353131	2.307845
O	1.967354	-2.986854	3.407213
O	-2.095892	-5.248946	-3.625890
O	-1.468685	-0.878829	-2.547850
C	2.330564	-5.563799	4.043674
H	2.352178	-6.664085	4.083407
H	1.807263	-5.147101	4.925490
H	3.356568	-5.148785	4.031877
C	-2.452080	-2.587487	-4.247206
H	-2.774302	-3.483329	-4.803187
H	-1.773301	-1.964972	-4.860536
H	-3.321351	-1.962932	-3.966607
C	0.000000	0.000000	0.000000
S	0.271091	0.745405	1.580530
C	0.831198	2.284363	0.904911
C	0.341175	0.937861	-0.985400
C	0.792631	2.178516	-0.493528
H	0.260601	0.716417	-2.059934
H	1.093860	3.006347	-1.152593
H	1.132330	3.111961	1.556025
H	0.701693	-7.361589	-0.578191
H	-0.854838	-7.361192	0.319578
H	0.935572	-1.478831	-0.539540
$end

$rem
JOBTYPE		SP
EXCHANGE	HF
CORRELATION	pRIMP2
BASIS		cc-pvtz
METHOD		rimp2
AUX_BASIS	rimp2-cc-pvtz
SOLVENT_METHOD	PCM
PURECART	11111
SYMMETRY	false
MEM_TOTAL	110000
SCF_CONVERGENCE = 6
THRESH=10
GUI = 2
$end



$solvent
dielectric 4.90
$end
--------------------------------------------------------------
 ----------------------------------------------------------------
             Standard Nuclear Orientation (Angstroms)
    I     Atom           X                Y                Z
 ----------------------------------------------------------------
    1      C      -0.1297430000    -6.7414040000    -0.2217660000
    2      C      -0.7827260000    -6.1556380000    -1.3525150000
    3      C       0.4119260000    -5.7914520000     0.7173390000
    4      C      -0.9218160000    -4.8037860000    -1.5938850000
    5      H      -1.2219080000    -6.8215180000    -2.1128190000
    6      C       0.2666820000    -4.3786380000     0.4643600000
    7      C      -0.3982550000    -3.8380320000    -0.6880530000
    8      C       0.7896940000    -3.4130620000     1.3691080000
    9      C      -0.5423490000    -2.4264730000    -0.9390020000
   10      C       0.6525890000    -2.0593480000     1.1304090000
   11      C       0.0000000000    -1.4782160000     0.0000000000
   12      H       1.0924530000    -1.3947830000     1.8914460000
   13      C       1.1315950000    -6.1879870000     1.9675190000
   14      C       1.5049120000    -3.7981640000     2.6081180000
   15      N       1.6251740000    -5.1700030000     2.8198130000
   16      C      -1.6391290000    -4.4249870000    -2.8361880000
   17      C      -1.2634770000    -2.0366270000    -2.1895580000
   18      N      -1.7568980000    -3.0491560000    -3.0422370000
   19      O       1.3247870000    -7.3531310000     2.3078450000
   20      O       1.9673540000    -2.9868540000     3.4072130000
   21      O      -2.0958920000    -5.2489460000    -3.6258900000
   22      O      -1.4686850000    -0.8788290000    -2.5478500000
   23      C       2.3305640000    -5.5637990000     4.0436740000
   24      H       2.3521780000    -6.6640850000     4.0834070000
   25      H       1.8072630000    -5.1471010000     4.9254900000
   26      H       3.3565680000    -5.1487850000     4.0318770000
   27      C      -2.4520800000    -2.5874870000    -4.2472060000
   28      H      -2.7743020000    -3.4833290000    -4.8031870000
   29      H      -1.7733010000    -1.9649720000    -4.8605360000
   30      H      -3.3213510000    -1.9629320000    -3.9666070000
   31      C       0.0000000000     0.0000000000     0.0000000000
   32      S       0.2710910000     0.7454050000     1.5805300000
   33      C       0.8311980000     2.2843630000     0.9049110000
   34      C       0.3411750000     0.9378610000    -0.9854000000
   35      C       0.7926310000     2.1785160000    -0.4935280000
   36      H       0.2606010000     0.7164170000    -2.0599340000
   37      H       1.0938600000     3.0063470000    -1.1525930000
   38      H       1.1323300000     3.1119610000     1.5560250000
   39      H       0.7016930000    -7.3615890000    -0.5781910000
   40      H      -0.8548380000    -7.3611920000     0.3195780000
   41      H       0.9355720000    -1.4788310000    -0.5395400000
 ----------------------------------------------------------------
 Nuclear Repulsion Energy =        2553.73058278 hartrees
 There are       98 alpha and       98 beta electrons
 Requested basis set is cc-pVTZ
 There are 356 shells and 1010 basis functions

 Total QAlloc Memory Limit 110000 MB
 Mega-Array Size       188 MB
 MEM_STATIC part       192 MB
 Discretize the solute cavity surface with Lebedev spheres
	Using 110 Lebedev grid points for each H atom
	Using 194 Lebedev grid points for other atoms
	Atomic van der Waals radii will be scaled by 1.20
 Remove points where switching function is < 1.0e-08
 Keep 2587 surface tesserae and discard 4191 interior tesserae
 Molecular Surface Area = 366.250 Angst**2
 Requested basis set is rimp2-cc-pVTZ
 There are 770 shells and 2648 basis functions
 A cutoff of  1.0D-10 yielded  34176 shell pairs
 There are    258742 function pairs (    334956 Cartesian)
 Smallest overlap matrix eigenvalue = 8.96E-06

 Q-Chem warning in module stvman/mkSTV.C, line 323:

 Overlap eigenvalue is smaller than square root of threshold
 Use THRESH >= 12 to get rid of this warning


 Scale SEOQF with 1.000000e-01/1.000000e-02/1.000000e-01

 Standard Electronic Orientation quadrupole field applied
 Nucleus-field energy     =    -0.0000000730 hartrees
 Guess from superposition of atomic densities
 Warning:  Energy on first SCF cycle will be non-variational
 SAD guess density has 196.000000 electrons

 -----------------------------------------------------------------------
  General SCF calculation program by
  Eric Jon Sundstrom, Paul Horn, Yuezhi Mao, Dmitri Zuev, Alec White,
  David Stuck, Shaama M.S., Shane Yost, Joonho Lee, David Small,
  Daniel Levine, Susi Lehtola, Hugh Burton, Evgeny Epifanovsky,
  Bang C. Huynh
 -----------------------------------------------------------------------
 Hartree-Fock
 using 64 threads for integral computing
 -------------------------------------------------------
 OpenMP Integral computing Module                
 Release: version 1.0, May 2013, Q-Chem Inc. Pittsburgh 
 -------------------------------------------------------
 A restricted SCF calculation will be
 performed using DIIS
 SCF converges when DIIS error is below 1.0e-06
 ---------------------------------------
  Cycle       Energy         DIIS error
 ---------------------------------------
    1   -1583.1608614260      1.86e-02  
    2   -1571.1554649116      2.03e-03  
    3   -1571.4966360740      1.55e-03  
    4   -1571.7182523704      2.53e-04  
    5   -1571.7320804989      7.81e-05  
    6   -1571.7335054568      3.01e-05  
    7   -1571.7339281658      1.55e-05  
    8   -1571.7340424247      6.15e-06  
    9   -1571.7340619327      2.87e-06  
   10   -1571.7340657471      1.21e-06  
   11   -1571.7340669474      5.81e-07  Convergence criterion met
 ---------------------------------------
 SCF time:   CPU 6865.14s  wall 255.00s 

************** Final PCM Free Energy Summary **************
 G_electrostatic  =      -0.02895713 hartree =     -18.17087396 kcal/mol
 G_cavitation     =       0.00000000 hartree =       0.00000000 kcal/mol
 G_dispersion     =       0.00000000 hartree =       0.00000000 kcal/mol
 G_repulsion      =       0.00000000 hartree =       0.00000000 kcal/mol
 --------------------------------------------------
 Non-electrostatic Free Energy =       0.00000000 hartree =       0.00000000 kcal/mol
 Total                         =      -0.02895713 hartree =     -18.17087396 kcal/mol
 --------------------------------------------------
 SCF Energy (H0 + V/2)                       =   -1571.73406695 
 Solute Internal Energy (H0)                 =   -1571.70510982 
 Total Free Energy (H0 + V/2 + non-elec)     =   -1571.73406695 hartree
                                             = -986278.01290281 kcal/mol
***********************************************************

 SCF   energy in the final basis set =    -1571.7340669474
 Total energy in the final basis set =    -1571.7340669474


 --------------------------------------------------------------
  Generalized many-body perturbation theory program
  by Joonho Lee, Fazle Rob, Xintian Feng, Evgeny Epifanovsky

 No regularization used 
 (reg. param. = 0.0000e+00)
  (P|Q)^-1/2 Time:  CPU 123.19 s  wall 2.60 s

 In RI-MP2 calculation: 
 # of frozen core orbitals: 31

 Components of the RIMP2 correlation energy:
        aaaa    correlation energy =        -0.6160319036 a.u.
        abab    correlation energy =        -3.4271450128 a.u.
        bbbb    correlation energy =        -0.6160319036 a.u.
        non-Brillouin singles      =        -0.0000000000 a.u.
        total same-spin energy     =        -1.2320638072 a.u.
        total opposite-spin energy =        -3.4271450128 a.u.

 Total  RIMP2   correlation energy =        -4.6592088200 a.u.
        RIMP2         total energy =     -1576.3932757673 a.u.

 RI-MP2 Energy Time:  CPU 2002.39 s  wall 32.94 s
 
 --------------------------------------------------------------
 
                    Orbital Energies (a.u.)
 --------------------------------------------------------------
 
 Alpha MOs
 -- Occupied --
-91.9908 -20.5534 -20.5450 -20.5416 -20.5407 -15.6278 -15.6213 -11.3950
-11.3857 -11.3835 -11.3793 -11.3090 -11.3070 -11.3053 -11.3046 -11.2986
-11.2970 -11.2916 -11.2786 -11.2690 -11.2684 -11.2654 -11.2636 -11.2594
-11.2529 -11.2499 -11.2475  -8.9908  -6.6717  -6.6711  -6.6706  -1.4210
 -1.4122  -1.3983  -1.3914  -1.2630  -1.2555  -1.2315  -1.1885  -1.1514
 -1.1145  -1.0868  -1.0476  -0.9960  -0.9882  -0.9853  -0.9554  -0.9496
 -0.8973  -0.8891  -0.8771  -0.8602  -0.7958  -0.7800  -0.7714  -0.7596
 -0.7399  -0.7163  -0.7019  -0.6918  -0.6831  -0.6723  -0.6675  -0.6575
 -0.6477  -0.6463  -0.6374  -0.6319  -0.6310  -0.6283  -0.6228  -0.6048
 -0.5900  -0.5738  -0.5653  -0.5609  -0.5580  -0.5520  -0.5505  -0.5496
 -0.5478  -0.5434  -0.5176  -0.5136  -0.5111  -0.4861  -0.4760  -0.4639
 -0.4576  -0.4516  -0.4429  -0.4350  -0.4142  -0.4077  -0.3545  -0.3521
 -0.3318  -0.2799
 -- Virtual --
  0.0129   0.0408   0.0874   0.0938   0.1408   0.1500   0.1556   0.1593
  0.1636   0.1709   0.1781   0.1826   0.1893   0.1965   0.2032   0.2104
  0.2121   0.2201   0.2240   0.2284   0.2317   0.2342   0.2427   0.2473
  0.2646   0.2702   0.3027   0.3062   0.3149   0.3206   0.3275   0.3312
  0.3385   0.3407   0.3434   0.3469   0.3544   0.3553   0.3636   0.3660
  0.3717   0.3791   0.3840   0.3894   0.3904   0.3976   0.4041   0.4091
  0.4204   0.4212   0.4278   0.4346   0.4415   0.4427   0.4472   0.4497
  0.4595   0.4607   0.4621   0.4708   0.4737   0.4826   0.4862   0.4918
  0.4960   0.5027   0.5069   0.5087   0.5160   0.5201   0.5227   0.5261
  0.5304   0.5372   0.5436   0.5460   0.5549   0.5575   0.5604   0.5653
  0.5762   0.5777   0.5806   0.5821   0.5868   0.5924   0.5957   0.5993
  0.6032   0.6065   0.6072   0.6086   0.6135   0.6176   0.6213   0.6299
  0.6314   0.6326   0.6355   0.6395   0.6430   0.6491   0.6531   0.6562
  0.6631   0.6666   0.6717   0.6738   0.6911   0.6928   0.6978   0.7030
  0.7049   0.7099   0.7156   0.7356   0.7382   0.7425   0.7545   0.7616
  0.7631   0.7657   0.7671   0.7785   0.7817   0.7899   0.7908   0.7996
  0.8065   0.8116   0.8219   0.8278   0.8301   0.8371   0.8445   0.8482
  0.8525   0.8565   0.8611   0.8694   0.8723   0.8764   0.8788   0.8806
  0.8883   0.8931   0.9034   0.9138   0.9186   0.9217   0.9276   0.9321
  0.9386   0.9388   0.9406   0.9543   0.9605   0.9645   0.9686   0.9733
  0.9782   0.9891   0.9953   1.0000   1.0059   1.0091   1.0111   1.0220
  1.0232   1.0272   1.0365   1.0488   1.0509   1.0534   1.0579   1.0612
  1.0648   1.0728   1.0737   1.0764   1.0829   1.0916   1.0955   1.1014
  1.1102   1.1197   1.1224   1.1263   1.1298   1.1327   1.1380   1.1401
  1.1475   1.1547   1.1573   1.1639   1.1682   1.1738   1.1802   1.1877
  1.1923   1.1965   1.2015   1.2056   1.2097   1.2154   1.2211   1.2260
  1.2293   1.2354   1.2418   1.2454   1.2502   1.2602   1.2649   1.2718
  1.2749   1.2855   1.2965   1.3042   1.3058   1.3252   1.3303   1.3399
  1.3423   1.3509   1.3525   1.3613   1.3686   1.3781   1.3841   1.3870
  1.3915   1.3967   1.4014   1.4051   1.4111   1.4177   1.4224   1.4430
  1.4475   1.4525   1.4620   1.4666   1.4763   1.4808   1.4895   1.4898
  1.4989   1.5035   1.5137   1.5157   1.5199   1.5295   1.5320   1.5378
  1.5460   1.5483   1.5555   1.5631   1.5647   1.5714   1.5755   1.5776
  1.5858   1.5942   1.6018   1.6050   1.6138   1.6286   1.6397   1.6458
  1.6504   1.6612   1.6624   1.6807   1.6857   1.6913   1.6939   1.6997
  1.7103   1.7168   1.7284   1.7296   1.7355   1.7480   1.7485   1.7591
  1.7622   1.7715   1.7778   1.7863   1.7960   1.7985   1.8006   1.8110
  1.8178   1.8280   1.8421   1.8457   1.8480   1.8611   1.8644   1.8700
  1.8762   1.8791   1.8905   1.8989   1.9037   1.9146   1.9334   1.9537
  1.9585   1.9661   1.9767   1.9787   1.9893   1.9961   2.0124   2.0295
  2.0316   2.0401   2.0487   2.0672   2.0745   2.1001   2.1115   2.1159
  2.1338   2.1460   2.1604   2.1679   2.1785   2.1938   2.2087   2.2177
  2.2273   2.2383   2.2484   2.2686   2.2830   2.2919   2.3060   2.3070
  2.3212   2.3246   2.3298   2.3377   2.3580   2.3635   2.3670   2.3857
  2.4060   2.4198   2.4252   2.4328   2.4515   2.4570   2.4615   2.4723
  2.4847   2.4914   2.5026   2.5146   2.5247   2.5317   2.5404   2.5552
  2.5600   2.5681   2.5819   2.5899   2.5965   2.6000   2.6062   2.6097
  2.6223   2.6356   2.6399   2.6478   2.6534   2.6647   2.6742   2.6784
  2.6920   2.6955   2.7000   2.7109   2.7194   2.7218   2.7279   2.7321
  2.7410   2.7471   2.7595   2.7633   2.7659   2.7727   2.7800   2.7903
  2.8094   2.8195   2.8402   2.8472   2.8494   2.8539   2.8609   2.8658
  2.8769   2.8799   2.8819   2.8957   2.8987   2.9053   2.9078   2.9110
  2.9193   2.9260   2.9287   2.9394   2.9450   2.9488   2.9606   2.9733
  2.9771   2.9851   2.9916   3.0051   3.0063   3.0085   3.0259   3.0319
  3.0335   3.0417   3.0465   3.0497   3.0685   3.0743   3.0813   3.0870
  3.0954   3.0995   3.1017   3.1080   3.1095   3.1148   3.1175   3.1264
  3.1362   3.1417   3.1466   3.1536   3.1570   3.1615   3.1657   3.1791
  3.1836   3.1887   3.1938   3.2016   3.2085   3.2118   3.2149   3.2259
  3.2267   3.2391   3.2421   3.2473   3.2534   3.2565   3.2610   3.2641
  3.2656   3.2710   3.2735   3.2813   3.2868   3.3031   3.3047   3.3081
  3.3099   3.3132   3.3181   3.3231   3.3278   3.3343   3.3373   3.3389
  3.3414   3.3481   3.3518   3.3577   3.3626   3.3667   3.3704   3.3744
  3.3774   3.3833   3.3850   3.3920   3.3967   3.3997   3.4081   3.4129
  3.4190   3.4227   3.4284   3.4324   3.4365   3.4396   3.4423   3.4502
  3.4593   3.4619   3.4689   3.4723   3.4734   3.4759   3.4838   3.4888
  3.4924   3.4996   3.5032   3.5086   3.5118   3.5195   3.5257   3.5269
  3.5353   3.5402   3.5423   3.5510   3.5564   3.5624   3.5700   3.5792
  3.5841   3.5866   3.5920   3.6054   3.6106   3.6159   3.6202   3.6267
  3.6308   3.6335   3.6359   3.6403   3.6428   3.6500   3.6529   3.6567
  3.6658   3.6695   3.6757   3.6903   3.6928   3.6995   3.7041   3.7119
  3.7216   3.7300   3.7316   3.7355   3.7434   3.7468   3.7499   3.7537
  3.7604   3.7656   3.7714   3.7725   3.7802   3.7899   3.7932   3.7990
  3.8124   3.8132   3.8176   3.8209   3.8286   3.8362   3.8422   3.8443
  3.8541   3.8597   3.8670   3.8747   3.8834   3.8876   3.8994   3.9039
  3.9123   3.9168   3.9260   3.9342   3.9392   3.9521   3.9543   3.9567
  3.9612   3.9652   3.9724   3.9740   3.9853   3.9914   3.9930   4.0133
  4.0215   4.0274   4.0349   4.0459   4.0471   4.0556   4.0581   4.0711
  4.0855   4.1027   4.1135   4.1212   4.1259   4.1332   4.1404   4.1448
  4.1476   4.1535   4.1608   4.1711   4.1725   4.1764   4.1850   4.1952
  4.2127   4.2247   4.2318   4.2420   4.2489   4.2515   4.2623   4.2696
  4.2732   4.2786   4.2818   4.2898   4.2976   4.2999   4.3053   4.3080
  4.3121   4.3193   4.3210   4.3288   4.3385   4.3433   4.3461   4.3557
  4.3623   4.3636   4.3686   4.3733   4.3748   4.3844   4.3895   4.3940
  4.4035   4.4083   4.4127   4.4217   4.4317   4.4404   4.4459   4.4637
  4.4735   4.4836   4.4874   4.4974   4.5010   4.5147   4.5219   4.5318
  4.5360   4.5439   4.5486   4.5602   4.5698   4.5793   4.5869   4.5906
  4.5938   4.5997   4.6048   4.6111   4.6178   4.6210   4.6295   4.6385
  4.6531   4.6560   4.6751   4.6769   4.6973   4.7004   4.7070   4.7135
  4.7232   4.7266   4.7480   4.7580   4.7662   4.7847   4.7935   4.8002
  4.8136   4.8275   4.8362   4.8547   4.8564   4.8663   4.8785   4.8825
  4.8884   4.8970   4.9045   4.9291   4.9448   4.9503   4.9563   4.9749
  4.9932   4.9955   5.0223   5.0249   5.0313   5.0408   5.0519   5.0553
  5.0833   5.0893   5.1115   5.1151   5.1216   5.1270   5.1331   5.1424
  5.1519   5.1539   5.1758   5.1814   5.1909   5.2015   5.2175   5.2371
  5.2620   5.2663   5.2731   5.2856   5.2973   5.3132   5.3236   5.3297
  5.3353   5.3397   5.3547   5.3637   5.3779   5.3885   5.4028   5.4152
  5.4361   5.4437   5.4791   5.4839   5.4932   5.5106   5.5139   5.5171
  5.5195   5.5327   5.5410   5.5519   5.5533   5.5597   5.5647   5.5674
  5.5778   5.5859   5.5917   5.6035   5.6101   5.6204   5.6248   5.6300
  5.6435   5.6497   5.6608   5.6615   5.6664   5.6724   5.6888   5.6941
  5.6997   5.7071   5.7185   5.7391   5.7475   5.7583   5.7707   5.7777
  5.7852   5.7898   5.8169   5.8360   5.8437   5.8582   5.8873   5.9097
  5.9427   5.9629   5.9708   5.9894   6.0126   6.0281   6.0409   6.0459
  6.0568   6.0838   6.0949   6.1118   6.1232   6.1421   6.1515   6.1866
  6.2031   6.2196   6.2256   6.2262   6.2411   6.2631   6.2726   6.2831
  6.3091   6.3170   6.3236   6.3500   6.3672   6.3880   6.4253   6.4852
  6.5215   6.5324   6.5736   6.5827   6.6029   6.6171   6.6531   6.6583
  6.6732   6.6768   6.8482   6.8504   6.8899   6.9023   6.9057   6.9245
  6.9273   6.9553   7.1020   7.1079   7.1486   7.1917   7.1996   7.2353
  7.3471   7.3518   7.3573   7.3617   7.4760   7.5421   7.5711   7.5830
  7.5913   7.6006   7.6546   7.6871   7.6923   7.7156   8.8948   9.9846
 10.3621  11.2938  11.5271  11.7730  12.0189  12.1140  12.4191  12.4712
 12.9736  13.2378  13.3823  13.5773  13.7822  13.9274  14.0757  14.2886
 14.3194  14.3664  14.5347  14.6751  15.0160  15.6206  15.8155  16.3332
 --------------------------------------------------------------
 
          Ground-State Mulliken Net Atomic Charges

     Atom                 Charge (a.u.)
  ----------------------------------------
      1 C                    -0.084655
      2 C                    -0.030809
      3 C                    -0.109280
      4 C                    -0.124455
      5 H                     0.199043
      6 C                     0.022480
      7 C                     0.118614
      8 C                    -0.061014
      9 C                    -0.187509
     10 C                    -0.166404
     11 C                     0.173462
     12 H                     0.188099
     13 C                     0.341658
     14 C                     0.346576
     15 N                    -0.089822
     16 C                     0.357285
     17 C                     0.355816
     18 N                    -0.090153
     19 O                    -0.494625
     20 O                    -0.507214
     21 O                    -0.501118
     22 O                    -0.475460
     23 C                    -0.204925
     24 H                     0.139449
     25 H                     0.109449
     26 H                     0.109113
     27 C                    -0.197957
     28 H                     0.133790
     29 H                     0.110857
     30 H                     0.112353
     31 C                     0.010324
     32 S                     0.003809
     33 C                    -0.205810
     34 C                    -0.161964
     35 C                    -0.227626
     36 H                     0.193728
     37 H                     0.190351
     38 H                     0.212618
     39 H                     0.137578
     40 H                     0.137852
     41 H                     0.216496
  ----------------------------------------
  Sum of atomic charges =     0.000000

 -----------------------------------------------------------------
                    Cartesian Multipole Moments
 -----------------------------------------------------------------
    Charge (ESU x 10^10)
                 0.0000
    Dipole Moment (Debye)
         X       0.9256      Y       1.8544      Z      -2.2667
       Tot       3.0714
    Quadrupole Moments (Debye-Ang)
        XX    -169.5636     XY       6.6420     YY    -178.9680
        XZ     -14.2176     YZ       8.9627     ZZ    -180.9787
    Octopole Moments (Debye-Ang^2)
       XXX     -27.7796    XXY     497.3979    XYY     -25.6377
       YYY    1687.3370    XXZ      -3.1939    XYZ      61.8687
       YYZ     -52.0344    XZZ      -4.1243    YZZ     575.8769
       ZZZ     -12.0445
    Hexadecapole Moments (Debye-Ang^3)
      XXXX   -1723.7718   XXXY      56.9246   XXYY   -3091.3097
      XYYY     540.4349   YYYY  -18026.8635   XXXZ   -1305.8757
      XXYZ      24.0980   XYYZ    -799.4277   YYYZ     995.1325
      XXZZ   -1160.2052   XYZZ     -78.8875   YYZZ   -4033.6939
      XZZZ   -1396.0924   YZZZ      69.8792   ZZZZ   -5013.0926
 -----------------------------------------------------------------
 Total job time:  297.30s(wall), 9260.26s(cpu) 
 Wed Dec 27 12:43:11 2023

        *************************************************************
        *                                                           *
        *  Thank you very much for using Q-Chem.  Have a nice day.  *
        *                                                           *
        *************************************************************


0 sent ACK to 0 
now end server 0 ... 
cleanup process ... done
remove work dirs ./qchem48888.0 -- ./qchem48888.0
rm -rf ./qchem48888.0
rm -rf ./qchem48888
