You are running Q-Chem version: 5.4.0

#
# job setting
#
local host:  exp-2-47
current dir: /home/rramji/project-csd799/aromodel/pndit-qchem/hydrogenated-rotation-run
input file:  Dimethyl_Naphthalene_Dicarboximide_Phi_40_Theta_330_Thiophene_Hydrogenated.qcin
output file: 
nprocs     : 1
nthreads   : 64
#
# qchem installation setting
#
QC:          /cm/shared/apps/spack/cpu/opt/spack/linux-centos8-zen2/gcc-10.2.0/qchem-5.4-akfmr7b3t57bfs6qan3padb2wnb2i7cl
QCAUX:       /cm/shared/apps/spack/cpu/opt/spack/linux-centos8-zen2/gcc-10.2.0/qchem-5.4-akfmr7b3t57bfs6qan3padb2wnb2i7cl/qcaux
QCPROG:      /cm/shared/apps/spack/cpu/opt/spack/linux-centos8-zen2/gcc-10.2.0/qchem-5.4-akfmr7b3t57bfs6qan3padb2wnb2i7cl/exe/qcprog.exe
QCPROG_S:    /cm/shared/apps/spack/cpu/opt/spack/linux-centos8-zen2/gcc-10.2.0/qchem-5.4-akfmr7b3t57bfs6qan3padb2wnb2i7cl/exe/qcprog.exe_s
PARALLEL:    -DPARALLEL
QCMPI:       mpich
#
# qchem directory setting
#
qcrun:       qchem3795901
QCSCRATCH:   .
QCLOCALSCR:  
QCTMPDIR:    .
QCFILEPREF:  ./qchem3795901
QCSAVEDIR:   
workdirs:    ./qchem3795901
workdir0:    ./qchem3795901
partmpdirs =  
#
# parallel setting
#
QCRSH:           ssh
QCMPI:           mpich
QCMPIRUN:        /cm/shared/apps/spack/cpu/opt/spack/linux-centos8-zen2/gcc-10.2.0/qchem-5.4-akfmr7b3t57bfs6qan3padb2wnb2i7cl/bin/mpi/mpirun_qchem
QCMACHINEFILE:   ./qchem3795901/hostfile
exp-2-47

#
# env setting
#
exported envs:   QC QCAUX QCSCRATCH QCRUNNAME QCFILEPREF QCPROG QCPROG_S GUIFILE

Running Job 1 of 1 Dimethyl_Naphthalene_Dicarboximide_Phi_40_Theta_330_Thiophene_Hydrogenated.qcin
qchem Dimethyl_Naphthalene_Dicarboximide_Phi_40_Theta_330_Thiophene_Hydrogenated.qcin_3795901.0 ./qchem3795901/ 1
/cm/shared/apps/spack/cpu/opt/spack/linux-centos8-zen2/gcc-10.2.0/qchem-5.4-akfmr7b3t57bfs6qan3padb2wnb2i7cl/bin/mpi/mpirun_qchem -machinefile ./qchem3795901/hostfile -np 1 /cm/shared/apps/spack/cpu/opt/spack/linux-centos8-zen2/gcc-10.2.0/qchem-5.4-akfmr7b3t57bfs6qan3padb2wnb2i7cl/exe/qcprog.exe Dimethyl_Naphthalene_Dicarboximide_Phi_40_Theta_330_Thiophene_Hydrogenated.qcin_3795901.0 ./qchem3795901/

Process 0 of 1 is on exp-2-47 - thread support 0
initial socket setup ...start
initial socket setup ...done 
now start server 0 ... 
                  Welcome to Q-Chem
     A Quantum Leap Into The Future Of Chemistry


 Q-Chem 5.4, Q-Chem, Inc., Pleasanton, CA (2021)

 License issued to: University of California, San Diego (site)

 E. Epifanovsky,  A. T. B. Gilbert,  Xintian Feng,  Joonho Lee,  Yuezhi Mao,  
 N. Mardirossian,  P. Pokhilko,  A. White,  M. Wormit,  M. P. Coons,  
 A. L. Dempwolff,  Zhengting Gan,  D. Hait,  P. R. Horn,  L. D. Jacobson,  
 I. Kaliman,  J. Kussmann,  A. W. Lange,  Ka Un Lao,  D. S. Levine,  Jie Liu,  
 S. C. McKenzie,  A. F. Morrison,  K. Nanda,  F. Plasser,  D. R. Rehn,  
 M. L. Vidal,  Zhi-Qiang You,  Ying Zhu,  B. Alam,  B. Albrecht,  
 A. Aldossary,  E. Alguire,  J. H. Andersen,  D. Barton,  K. Begam,  A. Behn,  
 Y. A. Bernard,  E. J. Berquist,  H. Burton,  A. Carreras,  K. Carter-Fenk,  
 R. Chakraborty,  A. D. Chien,  K. D. Closser,  V. Cofer-Shabica,  
 S. Dasgupta,  Jia Deng,  M. de Wergifosse,  M. Diedenhofen,  Hainam Do,  
 S. Ehlert,  Po-Tung Fang,  S. Fatehi,  Qingguo Feng,  J. Gayvert,  
 Qinghui Ge,  G. Gidofalvi,  M. Goldey,  J. Gomes,  C. Gonzalez-Espinoza,  
 S. Gulania,  A. Gunina,  M. W. D. Hanson-Heine,  P. H. P. Harbach,  
 A. W. Hauser,  M. F. Herbst,  M. Hernandez Vera,  M. Hodecker,  
 Z. C. Holden,  S. Houck,  Xunkun Huang,  Kerwin Hui,  B. C. Huynh,  
 M. Ivanov,  Hyunjun Ji,  Hanjie Jiang,  B. Kaduk,  S. Kaehler,  
 K. Khistyaev,  Jaehoon Kim,  P. Klunzinger,  Z. Koczor-Benda,  
 Joong Hoon Koh,  D. Kosenkov,  L. Koulias,  T. Kowalczyk,  C. M. Krauter,  
 K. Kue,  A. Kunitsa,  T. Kus,  A. Landau,  K. V. Lawler,  D. Lefrancois,  
 S. Lehtola,  Rain Li,  Yi-Pei Li,  Jiashu Liang,  M. Liebenthal,  
 Hung-Hsuan Lin,  You-Sheng Lin,  Fenglai Liu,  Kuan-Yu Liu,  
 M. Loipersberger,  A. Luenser,  A. Manjanath,  P. Manohar,  E. Mansoor,  
 S. F. Manzer,  Shan-Ping Mao,  A. V. Marenich,  T. Markovich,  S. Mason,  
 S. A. Maurer,  P. F. McLaughlin,  M. F. S. J. Menger,  J.-M. Mewes,  
 S. A. Mewes,  P. Morgante,  J. W. Mullinax,  T. S. Nguyen-Beck,  
 K. J. Oosterbaan,  G. Paran,  Alexander C. Paul,  Suranjan K. Paul,  
 F. Pavosevic,  Zheng Pei,  S. Prager,  E. I. Proynov,  E. Ramos,  B. Rana,  
 A. E. Rask,  A. Rettig,  R. M. Richard,  F. Rob,  E. Rossomme,  T. Scheele,  
 M. Scheurer,  M. Schneider,  N. Sergueev,  S. M. Sharada,  W. Skomorowski,  
 D. W. Small,  C. J. Stein,  Yu-Chuan Su,  E. J. Sundstrom,  Zhen Tao,  
 J. Thirman,  T. Tsuchimochi,  N. M. Tubman,  S. P. Veccham,  O. Vydrov,  
 J. Wenzel,  J. Witte,  A. Yamada,  Kun Yao,  S. Yeganeh,  S. R. Yost,  
 A. Zech,  Igor Ying Zhang,  Xing Zhang,  Yu Zhang,  D. Zuev,  
 A. Aspuru-Guzik,  A. T. Bell,  N. A. Besley,  K. B. Bravaya,  B. R. Brooks,  
 D. Casanova,  Jeng-Da Chai,  S. Coriani,  C. J. Cramer,  
 A. E. DePrince, III,  R. A. DiStasio Jr.,  A. Dreuw,  B. D. Dunietz,  
 T. R. Furlani,  W. A. Goddard III,  S. Grimme,  S. Hammes-Schiffer,  
 T. Head-Gordon,  W. J. Hehre,  Chao-Ping Hsu,  T.-C. Jagau,  Yousung Jung,  
 A. Klamt,  Jing Kong,  D. S. Lambrecht,  WanZhen Liang,  N. J. Mayhall,  
 C. W. McCurdy,  J. B. Neaton,  C. Ochsenfeld,  J. A. Parkhill,  R. Peverati,  
 V. A. Rassolov,  Yihan Shao,  L. V. Slipchenko,  T. Stauch,  R. P. Steele,  
 J. E. Subotnik,  A. J. W. Thom,  A. Tkatchenko,  D. G. Truhlar,  
 T. Van Voorhis,  T. A. Wesolowski,  K. B. Whaley,  H. L. Woodcock III,  
 P. M. Zimmerman,  S. Faraji,  P. M. W. Gill,  M. Head-Gordon,  
 J. M. Herbert,  A. I. Krylov

 Contributors to earlier versions of Q-Chem not listed above: 
 R. D. Adamson,  B. Austin,  R. Baer,  J. Baker,  G. J. O. Beran,  
 K. Brandhorst,  S. T. Brown,  E. F. C. Byrd,  A. K. Chakraborty,  
 G. K. L. Chan,  Chun-Min Chang,  Yunqing Chen,  C.-L. Cheng,  
 Siu Hung Chien,  D. M. Chipman,  D. L. Crittenden,  H. Dachsel,  
 R. J. Doerksen,  A. D. Dutoi,  R. G. Edgar,  J. Fosso-Tande,  
 L. Fusti-Molnar,  D. Ghosh,  A. Ghysels,  A. Golubeva-Zadorozhnaya,  
 J. Gonthier,  M. S. Gordon,  S. R. Gwaltney,  G. Hawkins,  J. E. Herr,  
 A. Heyden,  S. Hirata,  E. G. Hohenstein,  G. Kedziora,  F. J. Keil,  
 C. Kelley,  Jihan Kim,  R. A. King,  R. Z. Khaliullin,  P. P. Korambath,  
 W. Kurlancheek,  A. Laurent,  A. M. Lee,  M. S. Lee,  S. V. Levchenko,  
 Ching Yeh Lin,  D. Liotard,  E. Livshits,  R. C. Lochan,  I. Lotan,  
 L. A. Martinez-Martinez,  P. E. Maslen,  N. Nair,  D. P. O'Neill,  
 D. Neuhauser,  E. Neuscamman,  C. M. Oana,  R. Olivares-Amaya,  R. Olson,  
 T. M. Perrine,  B. Peters,  P. A. Pieniazek,  A. Prociuk,  Y. M. Rhee,  
 J. Ritchie,  M. A. Rohrdanz,  E. Rosta,  N. J. Russ,  H. F. Schaefer III,  
 M. W. Schmidt,  N. E. Schultz,  S. Sharma,  N. Shenvi,  C. D. Sherrill,  
 A. C. Simmonett,  A. Sodt,  T. Stein,  D. Stuck,  K. S. Thanthiriwatte,  
 V. Vanovschi,  L. Vogt,  Tao Wang,  A. Warshel,  M. A. Watson,  
 C. F. Williams,  Q. Wu,  X. Xu,  Jun Yang,  W. Zhang,  Yan Zhao

 Please cite Q-Chem as follows:
 Y. Shao et al., Mol. Phys. 113, 184-215 (2015)
 DOI: 10.1080/00268976.2014.952696

 Q-Chem 5.4.0 for Intel X86 EM64T Linux

 Parts of Q-Chem use Armadillo 9.800.1 (Horizon Scraper).
 http://arma.sourceforge.net/

 Q-Chem begins on Wed Dec 27 12:42:08 2023  

 Host: 
0

     Scratch files written to ./qchem3795901//
 May1621 |scratch|qcdevops|jenkins|workspace|build_RNUM    
 Parallel job on  1  processors
 Processing $rem in /cm/shared/apps/spack/cpu/opt/spack/linux-centos8-zen2/gcc-10.2.0/qchem-5.4-akfmr7b3t57bfs6qan3padb2wnb2i7cl/config/preferences:
 Processing $rem in /home/rramji/.qchemrc:
 Symmetry turned off for PCM/SM12/SMD calculation
 Core orbitals will be frozen

 Checking the input file for inconsistencies... 	...done.

 Q-Chem warning in module forms1/BasisType.C, line 2236:

 You are not using the predefined 5D/6D in this basis set.


--------------------------------------------------------------
User input:
--------------------------------------------------------------
$molecule
0 1
C	-0.129743	-6.741404	-0.221766
C	-0.782726	-6.155638	-1.352515
C	0.411926	-5.791452	0.717339
C	-0.921816	-4.803786	-1.593885
H	-1.221908	-6.821518	-2.112819
C	0.266682	-4.378638	0.464360
C	-0.398255	-3.838032	-0.688053
C	0.789694	-3.413062	1.369108
C	-0.542349	-2.426473	-0.939002
C	0.652589	-2.059348	1.130409
C	0.000000	-1.478216	0.000000
H	1.092453	-1.394783	1.891446
C	1.131595	-6.187987	1.967519
C	1.504912	-3.798164	2.608118
N	1.625174	-5.170003	2.819813
C	-1.639129	-4.424987	-2.836188
C	-1.263477	-2.036627	-2.189558
N	-1.756898	-3.049156	-3.042237
O	1.324787	-7.353131	2.307845
O	1.967354	-2.986854	3.407213
O	-2.095892	-5.248946	-3.625890
O	-1.468685	-0.878829	-2.547850
C	2.330564	-5.563799	4.043674
H	2.352178	-6.664085	4.083407
H	1.807263	-5.147101	4.925490
H	3.356568	-5.148785	4.031877
C	-2.452080	-2.587487	-4.247206
H	-2.774302	-3.483329	-4.803187
H	-1.773301	-1.964972	-4.860536
H	-3.321351	-1.962932	-3.966607
C	0.000000	0.000000	0.000000
S	0.509686	0.607733	1.580530
C	1.562368	1.862312	0.904911
C	0.641367	0.764613	-0.985400
C	1.489926	1.776040	-0.493528
H	0.489914	0.584081	-2.059934
H	2.056124	2.450920	-1.152593
H	2.128395	2.537007	1.556025
H	0.701693	-7.361589	-0.578191
H	-0.854838	-7.361192	0.319578
H	0.935572	-1.478831	-0.539540
$end

$rem
JOBTYPE		SP
EXCHANGE	HF
CORRELATION	pRIMP2
BASIS		cc-pvtz
METHOD		rimp2
AUX_BASIS	rimp2-cc-pvtz
SOLVENT_METHOD	PCM
PURECART	11111
SYMMETRY	false
MEM_TOTAL	110000
SCF_CONVERGENCE = 6
THRESH=10
GUI = 2
$end



$solvent
dielectric 4.90
$end
--------------------------------------------------------------
 ----------------------------------------------------------------
             Standard Nuclear Orientation (Angstroms)
    I     Atom           X                Y                Z
 ----------------------------------------------------------------
    1      C      -0.1297430000    -6.7414040000    -0.2217660000
    2      C      -0.7827260000    -6.1556380000    -1.3525150000
    3      C       0.4119260000    -5.7914520000     0.7173390000
    4      C      -0.9218160000    -4.8037860000    -1.5938850000
    5      H      -1.2219080000    -6.8215180000    -2.1128190000
    6      C       0.2666820000    -4.3786380000     0.4643600000
    7      C      -0.3982550000    -3.8380320000    -0.6880530000
    8      C       0.7896940000    -3.4130620000     1.3691080000
    9      C      -0.5423490000    -2.4264730000    -0.9390020000
   10      C       0.6525890000    -2.0593480000     1.1304090000
   11      C       0.0000000000    -1.4782160000     0.0000000000
   12      H       1.0924530000    -1.3947830000     1.8914460000
   13      C       1.1315950000    -6.1879870000     1.9675190000
   14      C       1.5049120000    -3.7981640000     2.6081180000
   15      N       1.6251740000    -5.1700030000     2.8198130000
   16      C      -1.6391290000    -4.4249870000    -2.8361880000
   17      C      -1.2634770000    -2.0366270000    -2.1895580000
   18      N      -1.7568980000    -3.0491560000    -3.0422370000
   19      O       1.3247870000    -7.3531310000     2.3078450000
   20      O       1.9673540000    -2.9868540000     3.4072130000
   21      O      -2.0958920000    -5.2489460000    -3.6258900000
   22      O      -1.4686850000    -0.8788290000    -2.5478500000
   23      C       2.3305640000    -5.5637990000     4.0436740000
   24      H       2.3521780000    -6.6640850000     4.0834070000
   25      H       1.8072630000    -5.1471010000     4.9254900000
   26      H       3.3565680000    -5.1487850000     4.0318770000
   27      C      -2.4520800000    -2.5874870000    -4.2472060000
   28      H      -2.7743020000    -3.4833290000    -4.8031870000
   29      H      -1.7733010000    -1.9649720000    -4.8605360000
   30      H      -3.3213510000    -1.9629320000    -3.9666070000
   31      C       0.0000000000     0.0000000000     0.0000000000
   32      S       0.5096860000     0.6077330000     1.5805300000
   33      C       1.5623680000     1.8623120000     0.9049110000
   34      C       0.6413670000     0.7646130000    -0.9854000000
   35      C       1.4899260000     1.7760400000    -0.4935280000
   36      H       0.4899140000     0.5840810000    -2.0599340000
   37      H       2.0561240000     2.4509200000    -1.1525930000
   38      H       2.1283950000     2.5370070000     1.5560250000
   39      H       0.7016930000    -7.3615890000    -0.5781910000
   40      H      -0.8548380000    -7.3611920000     0.3195780000
   41      H       0.9355720000    -1.4788310000    -0.5395400000
 ----------------------------------------------------------------
 Nuclear Repulsion Energy =        2566.56502670 hartrees
 There are       98 alpha and       98 beta electrons
 Requested basis set is cc-pVTZ
 There are 356 shells and 1010 basis functions

 Total QAlloc Memory Limit 110000 MB
 Mega-Array Size       188 MB
 MEM_STATIC part       192 MB
 Discretize the solute cavity surface with Lebedev spheres
	Using 110 Lebedev grid points for each H atom
	Using 194 Lebedev grid points for other atoms
	Atomic van der Waals radii will be scaled by 1.20
 Remove points where switching function is < 1.0e-08
 Keep 2568 surface tesserae and discard 4210 interior tesserae
 Molecular Surface Area = 364.949 Angst**2
 Requested basis set is rimp2-cc-pVTZ
 There are 770 shells and 2648 basis functions
 A cutoff of  1.0D-10 yielded  34461 shell pairs
 There are    260749 function pairs (    337565 Cartesian)
 Smallest overlap matrix eigenvalue = 8.67E-06

 Q-Chem warning in module stvman/mkSTV.C, line 323:

 Overlap eigenvalue is smaller than square root of threshold
 Use THRESH >= 12 to get rid of this warning


 Scale SEOQF with 1.000000e-01/1.000000e-02/1.000000e-01

 Standard Electronic Orientation quadrupole field applied
 Nucleus-field energy     =    -0.0000000721 hartrees
 Guess from superposition of atomic densities
 Warning:  Energy on first SCF cycle will be non-variational
 SAD guess density has 196.000000 electrons

 -----------------------------------------------------------------------
  General SCF calculation program by
  Eric Jon Sundstrom, Paul Horn, Yuezhi Mao, Dmitri Zuev, Alec White,
  David Stuck, Shaama M.S., Shane Yost, Joonho Lee, David Small,
  Daniel Levine, Susi Lehtola, Hugh Burton, Evgeny Epifanovsky,
  Bang C. Huynh
 -----------------------------------------------------------------------
 Hartree-Fock
 using 64 threads for integral computing
 -------------------------------------------------------
 OpenMP Integral computing Module                
 Release: version 1.0, May 2013, Q-Chem Inc. Pittsburgh 
 -------------------------------------------------------
 A restricted SCF calculation will be
 performed using DIIS
 SCF converges when DIIS error is below 1.0e-06
 ---------------------------------------
  Cycle       Energy         DIIS error
 ---------------------------------------
    1   -1583.2401283026      1.87e-02  
    2   -1571.1263068281      2.02e-03  
    3   -1571.4674711560      1.54e-03  
    4   -1571.6855447098      2.54e-04  
    5   -1571.6996044029      7.88e-05  
    6   -1571.7010912412      3.06e-05  
    7   -1571.7015494498      1.56e-05  
    8   -1571.7016721233      6.41e-06  
    9   -1571.7016932861      2.89e-06  
   10   -1571.7016973985      1.24e-06  
   11   -1571.7016986171      5.81e-07  Convergence criterion met
 ---------------------------------------
 SCF time:   CPU 6799.80s  wall 267.00s 

************** Final PCM Free Energy Summary **************
 G_electrostatic  =      -0.02929114 hartree =     -18.38046852 kcal/mol
 G_cavitation     =       0.00000000 hartree =       0.00000000 kcal/mol
 G_dispersion     =       0.00000000 hartree =       0.00000000 kcal/mol
 G_repulsion      =       0.00000000 hartree =       0.00000000 kcal/mol
 --------------------------------------------------
 Non-electrostatic Free Energy =       0.00000000 hartree =       0.00000000 kcal/mol
 Total                         =      -0.02929114 hartree =     -18.38046852 kcal/mol
 --------------------------------------------------
 SCF Energy (H0 + V/2)                       =   -1571.70169862 
 Solute Internal Energy (H0)                 =   -1571.67240748 
 Total Free Energy (H0 + V/2 + non-elec)     =   -1571.70169862 hartree
                                             = -986257.70146900 kcal/mol
***********************************************************

 SCF   energy in the final basis set =    -1571.7016986171
 Total energy in the final basis set =    -1571.7016986171


 --------------------------------------------------------------
  Generalized many-body perturbation theory program
  by Joonho Lee, Fazle Rob, Xintian Feng, Evgeny Epifanovsky

 No regularization used 
 (reg. param. = 0.0000e+00)
  (P|Q)^-1/2 Time:  CPU 121.22 s  wall 2.41 s

 In RI-MP2 calculation: 
 # of frozen core orbitals: 31

 Components of the RIMP2 correlation energy:
        aaaa    correlation energy =        -0.6177680976 a.u.
        abab    correlation energy =        -3.4317957083 a.u.
        bbbb    correlation energy =        -0.6177680976 a.u.
        non-Brillouin singles      =        -0.0000000000 a.u.
        total same-spin energy     =        -1.2355361952 a.u.
        total opposite-spin energy =        -3.4317957083 a.u.

 Total  RIMP2   correlation energy =        -4.6673319035 a.u.
        RIMP2         total energy =     -1576.3690305206 a.u.

 RI-MP2 Energy Time:  CPU 1938.23 s  wall 31.99 s
 
 --------------------------------------------------------------
 
                    Orbital Energies (a.u.)
 --------------------------------------------------------------
 
 Alpha MOs
 -- Occupied --
-91.9910 -20.5537 -20.5445 -20.5396 -20.5392 -15.6275 -15.6200 -11.3946
-11.3851 -11.3816 -11.3775 -11.3071 -11.3035 -11.3027 -11.3013 -11.2958
-11.2919 -11.2888 -11.2882 -11.2673 -11.2657 -11.2634 -11.2618 -11.2587
-11.2551 -11.2517 -11.2514  -8.9918  -6.6725  -6.6719  -6.6715  -1.4207
 -1.4107  -1.3979  -1.3898  -1.2626  -1.2542  -1.2321  -1.1914  -1.1513
 -1.1127  -1.0851  -1.0464  -0.9973  -0.9916  -0.9871  -0.9547  -0.9481
 -0.8963  -0.8877  -0.8757  -0.8582  -0.7964  -0.7805  -0.7702  -0.7609
 -0.7387  -0.7174  -0.7008  -0.6926  -0.6839  -0.6712  -0.6667  -0.6566
 -0.6474  -0.6465  -0.6359  -0.6312  -0.6298  -0.6271  -0.6219  -0.6041
 -0.5907  -0.5749  -0.5693  -0.5612  -0.5576  -0.5516  -0.5496  -0.5494
 -0.5467  -0.5428  -0.5198  -0.5128  -0.5021  -0.4847  -0.4758  -0.4643
 -0.4562  -0.4511  -0.4415  -0.4335  -0.4138  -0.4066  -0.3531  -0.3509
 -0.3337  -0.2773
 -- Virtual --
  0.0142   0.0423   0.0716   0.0913   0.1420   0.1506   0.1544   0.1581
  0.1639   0.1713   0.1782   0.1834   0.1898   0.1922   0.2032   0.2075
  0.2148   0.2186   0.2257   0.2285   0.2307   0.2357   0.2406   0.2461
  0.2649   0.2712   0.3028   0.3055   0.3154   0.3186   0.3216   0.3266
  0.3363   0.3392   0.3445   0.3478   0.3531   0.3557   0.3642   0.3683
  0.3730   0.3752   0.3815   0.3892   0.3907   0.3966   0.4035   0.4053
  0.4168   0.4231   0.4253   0.4342   0.4360   0.4416   0.4443   0.4502
  0.4553   0.4611   0.4634   0.4686   0.4782   0.4839   0.4897   0.4954
  0.4979   0.5019   0.5068   0.5088   0.5160   0.5190   0.5220   0.5265
  0.5307   0.5411   0.5447   0.5501   0.5556   0.5579   0.5626   0.5711
  0.5740   0.5765   0.5809   0.5839   0.5887   0.5902   0.5956   0.6001
  0.6019   0.6077   0.6090   0.6118   0.6163   0.6185   0.6214   0.6317
  0.6332   0.6346   0.6364   0.6373   0.6440   0.6458   0.6530   0.6546
  0.6596   0.6659   0.6750   0.6789   0.6940   0.6949   0.6992   0.7005
  0.7047   0.7180   0.7188   0.7292   0.7391   0.7400   0.7487   0.7565
  0.7599   0.7661   0.7683   0.7759   0.7795   0.7862   0.7934   0.8043
  0.8084   0.8120   0.8214   0.8238   0.8303   0.8340   0.8446   0.8507
  0.8520   0.8572   0.8613   0.8674   0.8693   0.8741   0.8782   0.8823
  0.8862   0.8991   0.9041   0.9092   0.9161   0.9206   0.9265   0.9281
  0.9366   0.9407   0.9446   0.9508   0.9566   0.9669   0.9734   0.9774
  0.9804   0.9837   0.9969   0.9995   1.0057   1.0088   1.0111   1.0211
  1.0257   1.0303   1.0361   1.0459   1.0531   1.0562   1.0613   1.0637
  1.0684   1.0715   1.0769   1.0827   1.0870   1.0904   1.1003   1.1081
  1.1159   1.1193   1.1219   1.1326   1.1342   1.1353   1.1392   1.1442
  1.1502   1.1572   1.1592   1.1649   1.1663   1.1770   1.1780   1.1855
  1.1916   1.1973   1.2023   1.2064   1.2081   1.2109   1.2252   1.2270
  1.2303   1.2396   1.2475   1.2519   1.2558   1.2669   1.2683   1.2742
  1.2753   1.2831   1.2904   1.3059   1.3153   1.3293   1.3330   1.3426
  1.3484   1.3518   1.3540   1.3615   1.3701   1.3828   1.3850   1.3888
  1.3905   1.4008   1.4035   1.4108   1.4183   1.4204   1.4280   1.4409
  1.4496   1.4520   1.4633   1.4665   1.4737   1.4751   1.4912   1.4975
  1.5022   1.5087   1.5160   1.5199   1.5222   1.5242   1.5374   1.5428
  1.5468   1.5525   1.5569   1.5640   1.5651   1.5706   1.5759   1.5788
  1.5863   1.5920   1.6075   1.6117   1.6134   1.6309   1.6375   1.6472
  1.6513   1.6559   1.6723   1.6768   1.6826   1.6904   1.6946   1.7065
  1.7099   1.7139   1.7180   1.7357   1.7372   1.7454   1.7501   1.7580
  1.7642   1.7728   1.7789   1.7808   1.7896   1.7943   1.8054   1.8092
  1.8152   1.8298   1.8392   1.8464   1.8481   1.8557   1.8673   1.8715
  1.8754   1.8790   1.8914   1.8991   1.9057   1.9313   1.9414   1.9543
  1.9588   1.9639   1.9695   1.9790   1.9924   2.0070   2.0127   2.0244
  2.0352   2.0364   2.0605   2.0709   2.0784   2.0996   2.1145   2.1244
  2.1339   2.1484   2.1603   2.1811   2.1859   2.1934   2.2000   2.2141
  2.2253   2.2325   2.2490   2.2706   2.2797   2.2936   2.3036   2.3124
  2.3156   2.3283   2.3325   2.3403   2.3576   2.3634   2.3681   2.3880
  2.4128   2.4217   2.4335   2.4444   2.4553   2.4594   2.4627   2.4740
  2.4847   2.4980   2.5029   2.5143   2.5272   2.5362   2.5420   2.5523
  2.5619   2.5688   2.5807   2.5860   2.5907   2.5954   2.6089   2.6222
  2.6257   2.6404   2.6430   2.6470   2.6611   2.6724   2.6787   2.6826
  2.6869   2.6922   2.6989   2.7081   2.7123   2.7213   2.7343   2.7387
  2.7460   2.7538   2.7618   2.7669   2.7706   2.7759   2.7929   2.8021
  2.8270   2.8302   2.8409   2.8487   2.8550   2.8611   2.8652   2.8720
  2.8755   2.8766   2.8850   2.8966   2.8999   2.9095   2.9109   2.9200
  2.9207   2.9250   2.9363   2.9511   2.9568   2.9625   2.9680   2.9764
  2.9811   2.9863   2.9952   3.0039   3.0115   3.0173   3.0260   3.0314
  3.0349   3.0392   3.0495   3.0604   3.0746   3.0801   3.0854   3.0916
  3.0962   3.0991   3.1032   3.1061   3.1104   3.1129   3.1229   3.1286
  3.1349   3.1438   3.1505   3.1555   3.1634   3.1684   3.1717   3.1736
  3.1816   3.1831   3.1974   3.2023   3.2100   3.2183   3.2231   3.2282
  3.2343   3.2401   3.2441   3.2453   3.2529   3.2581   3.2614   3.2661
  3.2664   3.2733   3.2801   3.2856   3.2904   3.2964   3.3021   3.3071
  3.3105   3.3124   3.3176   3.3240   3.3280   3.3298   3.3379   3.3408
  3.3462   3.3506   3.3530   3.3537   3.3585   3.3629   3.3705   3.3768
  3.3822   3.3834   3.3880   3.3938   3.3975   3.3997   3.4033   3.4125
  3.4196   3.4243   3.4267   3.4311   3.4374   3.4405   3.4476   3.4512
  3.4554   3.4623   3.4656   3.4700   3.4748   3.4790   3.4839   3.4913
  3.4956   3.4995   3.5051   3.5082   3.5129   3.5221   3.5243   3.5297
  3.5373   3.5379   3.5461   3.5550   3.5593   3.5720   3.5783   3.5823
  3.5877   3.5916   3.5955   3.6081   3.6136   3.6222   3.6270   3.6290
  3.6331   3.6374   3.6387   3.6406   3.6448   3.6521   3.6578   3.6659
  3.6692   3.6712   3.6871   3.6918   3.6958   3.7055   3.7117   3.7193
  3.7249   3.7299   3.7372   3.7380   3.7469   3.7515   3.7548   3.7597
  3.7619   3.7705   3.7722   3.7817   3.7826   3.7918   3.8029   3.8057
  3.8104   3.8201   3.8212   3.8238   3.8298   3.8361   3.8444   3.8470
  3.8588   3.8620   3.8755   3.8836   3.8853   3.8944   3.9010   3.9081
  3.9124   3.9222   3.9273   3.9324   3.9440   3.9489   3.9498   3.9575
  3.9680   3.9731   3.9776   3.9813   3.9861   3.9950   3.9991   4.0111
  4.0193   4.0290   4.0364   4.0418   4.0574   4.0590   4.0671   4.0793
  4.0967   4.1019   4.1153   4.1295   4.1329   4.1386   4.1428   4.1447
  4.1541   4.1625   4.1629   4.1702   4.1715   4.1848   4.1978   4.2115
  4.2147   4.2328   4.2420   4.2451   4.2469   4.2547   4.2593   4.2713
  4.2753   4.2788   4.2869   4.2925   4.2990   4.3019   4.3098   4.3119
  4.3144   4.3203   4.3235   4.3291   4.3389   4.3429   4.3498   4.3564
  4.3624   4.3688   4.3716   4.3724   4.3803   4.3884   4.3907   4.3974
  4.4064   4.4087   4.4174   4.4259   4.4415   4.4430   4.4484   4.4570
  4.4746   4.4840   4.4917   4.5028   4.5075   4.5171   4.5210   4.5354
  4.5387   4.5467   4.5571   4.5638   4.5706   4.5796   4.5849   4.5883
  4.5979   4.6063   4.6091   4.6114   4.6159   4.6227   4.6343   4.6419
  4.6513   4.6559   4.6713   4.6762   4.6934   4.7035   4.7133   4.7166
  4.7275   4.7329   4.7523   4.7587   4.7692   4.7837   4.7962   4.8084
  4.8209   4.8283   4.8446   4.8501   4.8582   4.8655   4.8780   4.8832
  4.8912   4.9033   4.9080   4.9348   4.9464   4.9599   4.9692   4.9906
  4.9988   5.0061   5.0176   5.0264   5.0353   5.0440   5.0560   5.0633
  5.0799   5.0923   5.1153   5.1174   5.1219   5.1250   5.1352   5.1419
  5.1499   5.1581   5.1817   5.1850   5.1980   5.2000   5.2224   5.2292
  5.2604   5.2658   5.2740   5.2867   5.2924   5.3114   5.3218   5.3303
  5.3342   5.3372   5.3550   5.3686   5.3794   5.3919   5.4037   5.4168
  5.4345   5.4494   5.4682   5.4933   5.4956   5.5128   5.5143   5.5173
  5.5185   5.5315   5.5423   5.5523   5.5571   5.5620   5.5680   5.5743
  5.5816   5.5876   5.5970   5.6039   5.6122   5.6153   5.6302   5.6373
  5.6507   5.6517   5.6623   5.6648   5.6677   5.6706   5.6937   5.6956
  5.7012   5.7052   5.7119   5.7398   5.7477   5.7594   5.7711   5.7753
  5.7859   5.7910   5.8238   5.8358   5.8472   5.8644   5.8834   5.9004
  5.9448   5.9616   5.9694   5.9880   6.0028   6.0274   6.0371   6.0429
  6.0487   6.0820   6.1089   6.1133   6.1235   6.1428   6.1509   6.1851
  6.2001   6.2195   6.2246   6.2263   6.2412   6.2646   6.2741   6.2844
  6.3096   6.3189   6.3245   6.3480   6.3683   6.3887   6.3999   6.4861
  6.5249   6.5365   6.5737   6.5826   6.5862   6.6066   6.6193   6.6589
  6.6755   6.6759   6.8485   6.8520   6.8915   6.9033   6.9067   6.9246
  6.9287   6.9494   7.1018   7.1096   7.1484   7.1914   7.1994   7.2359
  7.3482   7.3530   7.3589   7.3633   7.4772   7.5423   7.5728   7.5840
  7.5909   7.5985   7.6561   7.6870   7.6943   7.7159   8.9347   9.9929
 10.3443  11.3261  11.5410  11.7944  12.0264  12.1998  12.4232  12.4709
 13.0020  13.2119  13.3840  13.5670  13.7708  13.9285  14.0619  14.2792
 14.3224  14.3688  14.5179  14.6154  15.0096  15.6183  15.8231  16.3757
 --------------------------------------------------------------
 
          Ground-State Mulliken Net Atomic Charges

     Atom                 Charge (a.u.)
  ----------------------------------------
      1 C                    -0.084607
      2 C                    -0.032517
      3 C                    -0.112623
      4 C                    -0.119998
      5 H                     0.198343
      6 C                     0.017159
      7 C                     0.117805
      8 C                    -0.046434
      9 C                    -0.195894
     10 C                    -0.183431
     11 C                     0.179831
     12 H                     0.192757
     13 C                     0.339665
     14 C                     0.346678
     15 N                    -0.089035
     16 C                     0.356890
     17 C                     0.357297
     18 N                    -0.090169
     19 O                    -0.497517
     20 O                    -0.510604
     21 O                    -0.501476
     22 O                    -0.475935
     23 C                    -0.205426
     24 H                     0.139275
     25 H                     0.109004
     26 H                     0.108612
     27 C                    -0.198239
     28 H                     0.133725
     29 H                     0.110616
     30 H                     0.112368
     31 C                    -0.017795
     32 S                     0.014477
     33 C                    -0.185444
     34 C                    -0.143188
     35 C                    -0.237803
     36 H                     0.198949
     37 H                     0.192269
     38 H                     0.214820
     39 H                     0.136378
     40 H                     0.136684
     41 H                     0.214536
  ----------------------------------------
  Sum of atomic charges =     0.000000

 -----------------------------------------------------------------
                    Cartesian Multipole Moments
 -----------------------------------------------------------------
    Charge (ESU x 10^10)
                 0.0000
    Dipole Moment (Debye)
         X       1.7215      Y       2.3944      Z      -2.2086
       Tot       3.6843
    Quadrupole Moments (Debye-Ang)
        XX    -166.2308     XY       9.2599     YY    -185.2664
        XZ     -14.1477     YZ       9.6250     ZZ    -180.9944
    Octopole Moments (Debye-Ang^2)
       XXX     -62.9530    XXY     517.7510    XYY     -38.8731
       YYY    1722.3580    XXZ      -0.8521    XYZ      64.8636
       YYZ     -57.1051    XZZ     -15.1191    YZZ     585.2464
       ZZZ     -12.5842
    Hexadecapole Moments (Debye-Ang^3)
      XXXX   -1871.0980   XXXY      40.0820   XXYY   -3072.3633
      XYYY     505.0798   YYYY  -18085.5643   XXXZ   -1316.7317
      XXYZ      35.8755   XYYZ    -809.1356   YYYZ    1019.2528
      XXZZ   -1176.4979   XYZZ     -83.5331   YYZZ   -4034.5484
      XZZZ   -1412.7688   YZZZ      83.5993   ZZZZ   -5018.8390
 -----------------------------------------------------------------
 Total job time:  303.60s(wall), 8847.72s(cpu) 
 Wed Dec 27 12:47:11 2023

        *************************************************************
        *                                                           *
        *  Thank you very much for using Q-Chem.  Have a nice day.  *
        *                                                           *
        *************************************************************


0 sent ACK to 0 
now end server 0 ... 
cleanup process ... done
remove work dirs ./qchem3795901.0 -- ./qchem3795901.0
rm -rf ./qchem3795901.0
rm -rf ./qchem3795901
