You are running Q-Chem version: 5.4.0

#
# job setting
#
local host:  exp-3-54
current dir: /home/rramji/project-csd799/aromodel/pndit-qchem/hydrogenated-rotation-run
input file:  Dimethyl_Naphthalene_Dicarboximide_Phi_60_Theta_170_Thiophene_Hydrogenated.qcin
output file: 
nprocs     : 1
nthreads   : 64
#
# qchem installation setting
#
QC:          /cm/shared/apps/spack/cpu/opt/spack/linux-centos8-zen2/gcc-10.2.0/qchem-5.4-akfmr7b3t57bfs6qan3padb2wnb2i7cl
QCAUX:       /cm/shared/apps/spack/cpu/opt/spack/linux-centos8-zen2/gcc-10.2.0/qchem-5.4-akfmr7b3t57bfs6qan3padb2wnb2i7cl/qcaux
QCPROG:      /cm/shared/apps/spack/cpu/opt/spack/linux-centos8-zen2/gcc-10.2.0/qchem-5.4-akfmr7b3t57bfs6qan3padb2wnb2i7cl/exe/qcprog.exe
QCPROG_S:    /cm/shared/apps/spack/cpu/opt/spack/linux-centos8-zen2/gcc-10.2.0/qchem-5.4-akfmr7b3t57bfs6qan3padb2wnb2i7cl/exe/qcprog.exe_s
PARALLEL:    -DPARALLEL
QCMPI:       mpich
#
# qchem directory setting
#
qcrun:       qchem1957419
QCSCRATCH:   .
QCLOCALSCR:  
QCTMPDIR:    .
QCFILEPREF:  ./qchem1957419
QCSAVEDIR:   
workdirs:    ./qchem1957419
workdir0:    ./qchem1957419
partmpdirs =  
#
# parallel setting
#
QCRSH:           ssh
QCMPI:           mpich
QCMPIRUN:        /cm/shared/apps/spack/cpu/opt/spack/linux-centos8-zen2/gcc-10.2.0/qchem-5.4-akfmr7b3t57bfs6qan3padb2wnb2i7cl/bin/mpi/mpirun_qchem
QCMACHINEFILE:   ./qchem1957419/hostfile
exp-3-54

#
# env setting
#
exported envs:   QC QCAUX QCSCRATCH QCRUNNAME QCFILEPREF QCPROG QCPROG_S GUIFILE

Running Job 1 of 1 Dimethyl_Naphthalene_Dicarboximide_Phi_60_Theta_170_Thiophene_Hydrogenated.qcin
qchem Dimethyl_Naphthalene_Dicarboximide_Phi_60_Theta_170_Thiophene_Hydrogenated.qcin_1957419.0 ./qchem1957419/ 1
/cm/shared/apps/spack/cpu/opt/spack/linux-centos8-zen2/gcc-10.2.0/qchem-5.4-akfmr7b3t57bfs6qan3padb2wnb2i7cl/bin/mpi/mpirun_qchem -machinefile ./qchem1957419/hostfile -np 1 /cm/shared/apps/spack/cpu/opt/spack/linux-centos8-zen2/gcc-10.2.0/qchem-5.4-akfmr7b3t57bfs6qan3padb2wnb2i7cl/exe/qcprog.exe Dimethyl_Naphthalene_Dicarboximide_Phi_60_Theta_170_Thiophene_Hydrogenated.qcin_1957419.0 ./qchem1957419/

Process 0 of 1 is on exp-3-54 - thread support 0
initial socket setup ...start
initial socket setup ...done 
now start server 0 ... 
                  Welcome to Q-Chem
     A Quantum Leap Into The Future Of Chemistry


 Q-Chem 5.4, Q-Chem, Inc., Pleasanton, CA (2021)

 License issued to: University of California, San Diego (site)

 E. Epifanovsky,  A. T. B. Gilbert,  Xintian Feng,  Joonho Lee,  Yuezhi Mao,  
 N. Mardirossian,  P. Pokhilko,  A. White,  M. Wormit,  M. P. Coons,  
 A. L. Dempwolff,  Zhengting Gan,  D. Hait,  P. R. Horn,  L. D. Jacobson,  
 I. Kaliman,  J. Kussmann,  A. W. Lange,  Ka Un Lao,  D. S. Levine,  Jie Liu,  
 S. C. McKenzie,  A. F. Morrison,  K. Nanda,  F. Plasser,  D. R. Rehn,  
 M. L. Vidal,  Zhi-Qiang You,  Ying Zhu,  B. Alam,  B. Albrecht,  
 A. Aldossary,  E. Alguire,  J. H. Andersen,  D. Barton,  K. Begam,  A. Behn,  
 Y. A. Bernard,  E. J. Berquist,  H. Burton,  A. Carreras,  K. Carter-Fenk,  
 R. Chakraborty,  A. D. Chien,  K. D. Closser,  V. Cofer-Shabica,  
 S. Dasgupta,  Jia Deng,  M. de Wergifosse,  M. Diedenhofen,  Hainam Do,  
 S. Ehlert,  Po-Tung Fang,  S. Fatehi,  Qingguo Feng,  J. Gayvert,  
 Qinghui Ge,  G. Gidofalvi,  M. Goldey,  J. Gomes,  C. Gonzalez-Espinoza,  
 S. Gulania,  A. Gunina,  M. W. D. Hanson-Heine,  P. H. P. Harbach,  
 A. W. Hauser,  M. F. Herbst,  M. Hernandez Vera,  M. Hodecker,  
 Z. C. Holden,  S. Houck,  Xunkun Huang,  Kerwin Hui,  B. C. Huynh,  
 M. Ivanov,  Hyunjun Ji,  Hanjie Jiang,  B. Kaduk,  S. Kaehler,  
 K. Khistyaev,  Jaehoon Kim,  P. Klunzinger,  Z. Koczor-Benda,  
 Joong Hoon Koh,  D. Kosenkov,  L. Koulias,  T. Kowalczyk,  C. M. Krauter,  
 K. Kue,  A. Kunitsa,  T. Kus,  A. Landau,  K. V. Lawler,  D. Lefrancois,  
 S. Lehtola,  Rain Li,  Yi-Pei Li,  Jiashu Liang,  M. Liebenthal,  
 Hung-Hsuan Lin,  You-Sheng Lin,  Fenglai Liu,  Kuan-Yu Liu,  
 M. Loipersberger,  A. Luenser,  A. Manjanath,  P. Manohar,  E. Mansoor,  
 S. F. Manzer,  Shan-Ping Mao,  A. V. Marenich,  T. Markovich,  S. Mason,  
 S. A. Maurer,  P. F. McLaughlin,  M. F. S. J. Menger,  J.-M. Mewes,  
 S. A. Mewes,  P. Morgante,  J. W. Mullinax,  T. S. Nguyen-Beck,  
 K. J. Oosterbaan,  G. Paran,  Alexander C. Paul,  Suranjan K. Paul,  
 F. Pavosevic,  Zheng Pei,  S. Prager,  E. I. Proynov,  E. Ramos,  B. Rana,  
 A. E. Rask,  A. Rettig,  R. M. Richard,  F. Rob,  E. Rossomme,  T. Scheele,  
 M. Scheurer,  M. Schneider,  N. Sergueev,  S. M. Sharada,  W. Skomorowski,  
 D. W. Small,  C. J. Stein,  Yu-Chuan Su,  E. J. Sundstrom,  Zhen Tao,  
 J. Thirman,  T. Tsuchimochi,  N. M. Tubman,  S. P. Veccham,  O. Vydrov,  
 J. Wenzel,  J. Witte,  A. Yamada,  Kun Yao,  S. Yeganeh,  S. R. Yost,  
 A. Zech,  Igor Ying Zhang,  Xing Zhang,  Yu Zhang,  D. Zuev,  
 A. Aspuru-Guzik,  A. T. Bell,  N. A. Besley,  K. B. Bravaya,  B. R. Brooks,  
 D. Casanova,  Jeng-Da Chai,  S. Coriani,  C. J. Cramer,  
 A. E. DePrince, III,  R. A. DiStasio Jr.,  A. Dreuw,  B. D. Dunietz,  
 T. R. Furlani,  W. A. Goddard III,  S. Grimme,  S. Hammes-Schiffer,  
 T. Head-Gordon,  W. J. Hehre,  Chao-Ping Hsu,  T.-C. Jagau,  Yousung Jung,  
 A. Klamt,  Jing Kong,  D. S. Lambrecht,  WanZhen Liang,  N. J. Mayhall,  
 C. W. McCurdy,  J. B. Neaton,  C. Ochsenfeld,  J. A. Parkhill,  R. Peverati,  
 V. A. Rassolov,  Yihan Shao,  L. V. Slipchenko,  T. Stauch,  R. P. Steele,  
 J. E. Subotnik,  A. J. W. Thom,  A. Tkatchenko,  D. G. Truhlar,  
 T. Van Voorhis,  T. A. Wesolowski,  K. B. Whaley,  H. L. Woodcock III,  
 P. M. Zimmerman,  S. Faraji,  P. M. W. Gill,  M. Head-Gordon,  
 J. M. Herbert,  A. I. Krylov

 Contributors to earlier versions of Q-Chem not listed above: 
 R. D. Adamson,  B. Austin,  R. Baer,  J. Baker,  G. J. O. Beran,  
 K. Brandhorst,  S. T. Brown,  E. F. C. Byrd,  A. K. Chakraborty,  
 G. K. L. Chan,  Chun-Min Chang,  Yunqing Chen,  C.-L. Cheng,  
 Siu Hung Chien,  D. M. Chipman,  D. L. Crittenden,  H. Dachsel,  
 R. J. Doerksen,  A. D. Dutoi,  R. G. Edgar,  J. Fosso-Tande,  
 L. Fusti-Molnar,  D. Ghosh,  A. Ghysels,  A. Golubeva-Zadorozhnaya,  
 J. Gonthier,  M. S. Gordon,  S. R. Gwaltney,  G. Hawkins,  J. E. Herr,  
 A. Heyden,  S. Hirata,  E. G. Hohenstein,  G. Kedziora,  F. J. Keil,  
 C. Kelley,  Jihan Kim,  R. A. King,  R. Z. Khaliullin,  P. P. Korambath,  
 W. Kurlancheek,  A. Laurent,  A. M. Lee,  M. S. Lee,  S. V. Levchenko,  
 Ching Yeh Lin,  D. Liotard,  E. Livshits,  R. C. Lochan,  I. Lotan,  
 L. A. Martinez-Martinez,  P. E. Maslen,  N. Nair,  D. P. O'Neill,  
 D. Neuhauser,  E. Neuscamman,  C. M. Oana,  R. Olivares-Amaya,  R. Olson,  
 T. M. Perrine,  B. Peters,  P. A. Pieniazek,  A. Prociuk,  Y. M. Rhee,  
 J. Ritchie,  M. A. Rohrdanz,  E. Rosta,  N. J. Russ,  H. F. Schaefer III,  
 M. W. Schmidt,  N. E. Schultz,  S. Sharma,  N. Shenvi,  C. D. Sherrill,  
 A. C. Simmonett,  A. Sodt,  T. Stein,  D. Stuck,  K. S. Thanthiriwatte,  
 V. Vanovschi,  L. Vogt,  Tao Wang,  A. Warshel,  M. A. Watson,  
 C. F. Williams,  Q. Wu,  X. Xu,  Jun Yang,  W. Zhang,  Yan Zhao

 Please cite Q-Chem as follows:
 Y. Shao et al., Mol. Phys. 113, 184-215 (2015)
 DOI: 10.1080/00268976.2014.952696

 Q-Chem 5.4.0 for Intel X86 EM64T Linux

 Parts of Q-Chem use Armadillo 9.800.1 (Horizon Scraper).
 http://arma.sourceforge.net/

 Q-Chem begins on Wed Dec 27 11:28:25 2023  

 Host: 
0

     Scratch files written to ./qchem1957419//
 May1621 |scratch|qcdevops|jenkins|workspace|build_RNUM    
 Parallel job on  1  processors
 Processing $rem in /cm/shared/apps/spack/cpu/opt/spack/linux-centos8-zen2/gcc-10.2.0/qchem-5.4-akfmr7b3t57bfs6qan3padb2wnb2i7cl/config/preferences:
 Processing $rem in /home/rramji/.qchemrc:
 Symmetry turned off for PCM/SM12/SMD calculation
 Core orbitals will be frozen

 Checking the input file for inconsistencies... 	...done.

 Q-Chem warning in module forms1/BasisType.C, line 2236:

 You are not using the predefined 5D/6D in this basis set.


--------------------------------------------------------------
User input:
--------------------------------------------------------------
$molecule
0 1
C	0.046070	-6.741404	0.252767
C	0.272935	-6.155638	1.538656
C	-0.141739	-5.791452	-0.814966
C	0.321083	-4.803786	1.813042
H	0.425592	-6.821518	2.403318
C	-0.091779	-4.378638	-0.527566
C	0.138909	-3.838032	0.782769
C	-0.273808	-3.413062	-1.556632
C	0.188483	-2.426473	1.067868
C	-0.226610	-2.059348	-1.285436
C	-0.000000	-1.478216	-0.000000
H	-0.379657	-1.394783	-2.151019
C	-0.390420	-6.187987	-2.235891
C	-0.522125	-3.798164	-2.965540
N	-0.562731	-5.170003	-3.205600
C	0.570244	-4.424987	3.225760
C	0.438407	-2.036627	2.489646
N	0.610438	-3.049156	3.459662
O	-0.455563	-7.353131	-2.621768
O	-0.683373	-2.986854	-3.874608
O	0.729367	-5.248946	4.124059
O	0.508697	-0.878829	2.896516
C	-0.806996	-5.563799	-4.596910
H	-0.813717	-6.664085	-4.641640
H	-0.013655	-5.147101	-5.246567
H	-1.775159	-5.148785	-4.936739
C	0.851572	-2.587487	4.829729
H	0.964204	-3.483329	5.462387
H	0.003956	-1.964972	5.173914
H	1.764390	-1.962932	4.863360
C	0.000000	0.000000	0.000000
S	0.686805	0.396760	1.580530
C	2.105095	1.215640	0.904911
C	0.864201	0.499140	-0.985400
C	2.007514	1.159347	-0.493528
H	0.660136	0.381296	-2.059934
H	2.770388	1.599875	-1.152593
H	2.867745	1.656053	1.556025
H	-0.857128	-7.361589	0.303328
H	0.912587	-7.361192	-0.007933
H	-1.063684	-1.478831	0.187017
$end

$rem
JOBTYPE		SP
EXCHANGE	HF
CORRELATION	pRIMP2
BASIS		cc-pvtz
METHOD		rimp2
AUX_BASIS	rimp2-cc-pvtz
SOLVENT_METHOD	PCM
PURECART	11111
SYMMETRY	false
MEM_TOTAL	110000
SCF_CONVERGENCE = 6
THRESH=10
GUI = 2
$end



$solvent
dielectric 4.90
$end
--------------------------------------------------------------
 ----------------------------------------------------------------
             Standard Nuclear Orientation (Angstroms)
    I     Atom           X                Y                Z
 ----------------------------------------------------------------
    1      C       0.0460700000    -6.7414040000     0.2527670000
    2      C       0.2729350000    -6.1556380000     1.5386560000
    3      C      -0.1417390000    -5.7914520000    -0.8149660000
    4      C       0.3210830000    -4.8037860000     1.8130420000
    5      H       0.4255920000    -6.8215180000     2.4033180000
    6      C      -0.0917790000    -4.3786380000    -0.5275660000
    7      C       0.1389090000    -3.8380320000     0.7827690000
    8      C      -0.2738080000    -3.4130620000    -1.5566320000
    9      C       0.1884830000    -2.4264730000     1.0678680000
   10      C      -0.2266100000    -2.0593480000    -1.2854360000
   11      C       0.0000000000    -1.4782160000     0.0000000000
   12      H      -0.3796570000    -1.3947830000    -2.1510190000
   13      C      -0.3904200000    -6.1879870000    -2.2358910000
   14      C      -0.5221250000    -3.7981640000    -2.9655400000
   15      N      -0.5627310000    -5.1700030000    -3.2056000000
   16      C       0.5702440000    -4.4249870000     3.2257600000
   17      C       0.4384070000    -2.0366270000     2.4896460000
   18      N       0.6104380000    -3.0491560000     3.4596620000
   19      O      -0.4555630000    -7.3531310000    -2.6217680000
   20      O      -0.6833730000    -2.9868540000    -3.8746080000
   21      O       0.7293670000    -5.2489460000     4.1240590000
   22      O       0.5086970000    -0.8788290000     2.8965160000
   23      C      -0.8069960000    -5.5637990000    -4.5969100000
   24      H      -0.8137170000    -6.6640850000    -4.6416400000
   25      H      -0.0136550000    -5.1471010000    -5.2465670000
   26      H      -1.7751590000    -5.1487850000    -4.9367390000
   27      C       0.8515720000    -2.5874870000     4.8297290000
   28      H       0.9642040000    -3.4833290000     5.4623870000
   29      H       0.0039560000    -1.9649720000     5.1739140000
   30      H       1.7643900000    -1.9629320000     4.8633600000
   31      C       0.0000000000     0.0000000000     0.0000000000
   32      S       0.6868050000     0.3967600000     1.5805300000
   33      C       2.1050950000     1.2156400000     0.9049110000
   34      C       0.8642010000     0.4991400000    -0.9854000000
   35      C       2.0075140000     1.1593470000    -0.4935280000
   36      H       0.6601360000     0.3812960000    -2.0599340000
   37      H       2.7703880000     1.5998750000    -1.1525930000
   38      H       2.8677450000     1.6560530000     1.5560250000
   39      H      -0.8571280000    -7.3615890000     0.3033280000
   40      H       0.9125870000    -7.3611920000    -0.0079330000
   41      H      -1.0636840000    -1.4788310000     0.1870170000
 ----------------------------------------------------------------
 Nuclear Repulsion Energy =        2616.78265115 hartrees
 There are       98 alpha and       98 beta electrons
 Requested basis set is cc-pVTZ
 There are 356 shells and 1010 basis functions

 Total QAlloc Memory Limit 110000 MB
 Mega-Array Size       188 MB
 MEM_STATIC part       192 MB
 Discretize the solute cavity surface with Lebedev spheres
	Using 110 Lebedev grid points for each H atom
	Using 194 Lebedev grid points for other atoms
	Atomic van der Waals radii will be scaled by 1.20
 Remove points where switching function is < 1.0e-08
 Keep 2580 surface tesserae and discard 4198 interior tesserae
 Molecular Surface Area = 353.664 Angst**2
 Requested basis set is rimp2-cc-pVTZ
 There are 770 shells and 2648 basis functions
 A cutoff of  1.0D-10 yielded  35208 shell pairs
 There are    265946 function pairs (    344138 Cartesian)
 Smallest overlap matrix eigenvalue = 8.53E-06

 Q-Chem warning in module stvman/mkSTV.C, line 323:

 Overlap eigenvalue is smaller than square root of threshold
 Use THRESH >= 12 to get rid of this warning


 Scale SEOQF with 1.000000e-01/1.000000e-02/1.000000e-02

 Standard Electronic Orientation quadrupole field applied
 Nucleus-field energy     =     0.0000000132 hartrees
 Guess from superposition of atomic densities
 Warning:  Energy on first SCF cycle will be non-variational
 SAD guess density has 196.000000 electrons

 -----------------------------------------------------------------------
  General SCF calculation program by
  Eric Jon Sundstrom, Paul Horn, Yuezhi Mao, Dmitri Zuev, Alec White,
  David Stuck, Shaama M.S., Shane Yost, Joonho Lee, David Small,
  Daniel Levine, Susi Lehtola, Hugh Burton, Evgeny Epifanovsky,
  Bang C. Huynh
 -----------------------------------------------------------------------
 Hartree-Fock
 using 64 threads for integral computing
 -------------------------------------------------------
 OpenMP Integral computing Module                
 Release: version 1.0, May 2013, Q-Chem Inc. Pittsburgh 
 -------------------------------------------------------
 A restricted SCF calculation will be
 performed using DIIS
 SCF converges when DIIS error is below 1.0e-06
 ---------------------------------------
  Cycle       Energy         DIIS error
 ---------------------------------------
    1   -1583.6478777697      1.89e-02  
    2   -1570.9622858795      1.98e-03  
    3   -1571.3056522183      1.45e-03  
    4   -1571.5042116325      2.60e-04  
    5   -1571.5186718438      8.02e-05  
    6   -1571.5202897163      3.34e-05  
    7   -1571.5208514060      1.81e-05  
    8   -1571.5210411139      9.16e-06  
    9   -1571.5210901521      4.05e-06  
   10   -1571.5211033287      2.13e-06  
   11   -1571.5211076253      1.02e-06  
   12   -1571.5211085668      4.73e-07  Convergence criterion met
 ---------------------------------------
 SCF time:   CPU 7536.03s  wall 306.00s 

************** Final PCM Free Energy Summary **************
 G_electrostatic  =      -0.02924874 hartree =     -18.35386078 kcal/mol
 G_cavitation     =       0.00000000 hartree =       0.00000000 kcal/mol
 G_dispersion     =       0.00000000 hartree =       0.00000000 kcal/mol
 G_repulsion      =       0.00000000 hartree =       0.00000000 kcal/mol
 --------------------------------------------------
 Non-electrostatic Free Energy =       0.00000000 hartree =       0.00000000 kcal/mol
 Total                         =      -0.02924874 hartree =     -18.35386078 kcal/mol
 --------------------------------------------------
 SCF Energy (H0 + V/2)                       =   -1571.52110857 
 Solute Internal Energy (H0)                 =   -1571.49185983 
 Total Free Energy (H0 + V/2 + non-elec)     =   -1571.52110857 hartree
                                             = -986144.37950210 kcal/mol
***********************************************************

 SCF   energy in the final basis set =    -1571.5211085668
 Total energy in the final basis set =    -1571.5211085668


 --------------------------------------------------------------
  Generalized many-body perturbation theory program
  by Joonho Lee, Fazle Rob, Xintian Feng, Evgeny Epifanovsky

 No regularization used 
 (reg. param. = 0.0000e+00)
  (P|Q)^-1/2 Time:  CPU 202.17 s  wall 3.28 s

 In RI-MP2 calculation: 
 # of frozen core orbitals: 31

 Components of the RIMP2 correlation energy:
        aaaa    correlation energy =        -0.6275947628 a.u.
        abab    correlation energy =        -3.4542915378 a.u.
        bbbb    correlation energy =        -0.6275947628 a.u.
        non-Brillouin singles      =        -0.0000000000 a.u.
        total same-spin energy     =        -1.2551895257 a.u.
        total opposite-spin energy =        -3.4542915378 a.u.

 Total  RIMP2   correlation energy =        -4.7094810635 a.u.
        RIMP2         total energy =     -1576.2305896303 a.u.

 RI-MP2 Energy Time:  CPU 1951.09 s  wall 31.70 s
 
 --------------------------------------------------------------
 
                    Orbital Energies (a.u.)
 --------------------------------------------------------------
 
 Alpha MOs
 -- Occupied --
-91.9890 -20.5863 -20.5514 -20.5384 -20.5378 -15.6429 -15.6198 -11.4200
-11.3925 -11.3808 -11.3764 -11.3141 -11.3107 -11.3046 -11.3041 -11.3026
-11.2781 -11.2721 -11.2711 -11.2650 -11.2621 -11.2605 -11.2584 -11.2537
-11.2429 -11.2401 -11.2285  -8.9879  -6.6688  -6.6660  -6.6640  -1.4770
 -1.4113  -1.4098  -1.3889  -1.2822  -1.2539  -1.2308  -1.1867  -1.1440
 -1.1151  -1.0818  -1.0502  -1.0011  -0.9924  -0.9841  -0.9584  -0.9449
 -0.9072  -0.8877  -0.8819  -0.8636  -0.7986  -0.7891  -0.7800  -0.7604
 -0.7457  -0.7253  -0.7022  -0.6917  -0.6882  -0.6858  -0.6692  -0.6594
 -0.6558  -0.6462  -0.6386  -0.6328  -0.6319  -0.6306  -0.6251  -0.6082
 -0.5970  -0.5881  -0.5714  -0.5653  -0.5614  -0.5574  -0.5540  -0.5479
 -0.5467  -0.5450  -0.5340  -0.5137  -0.5084  -0.4894  -0.4679  -0.4577
 -0.4442  -0.4428  -0.4406  -0.4259  -0.4059  -0.3820  -0.3557  -0.3260
 -0.2771  -0.2586
 -- Virtual --
  0.0046   0.0429   0.0792   0.0895   0.1424   0.1496   0.1543   0.1573
  0.1635   0.1704   0.1737   0.1821   0.1899   0.1931   0.1971   0.2034
  0.2159   0.2229   0.2253   0.2310   0.2319   0.2353   0.2496   0.2588
  0.2637   0.2745   0.2909   0.3020   0.3126   0.3171   0.3228   0.3286
  0.3341   0.3407   0.3474   0.3500   0.3568   0.3588   0.3633   0.3694
  0.3725   0.3767   0.3871   0.3883   0.3912   0.3973   0.4030   0.4060
  0.4153   0.4207   0.4278   0.4328   0.4351   0.4369   0.4462   0.4495
  0.4535   0.4585   0.4630   0.4736   0.4767   0.4812   0.4850   0.4932
  0.5000   0.5013   0.5081   0.5112   0.5146   0.5175   0.5236   0.5297
  0.5390   0.5415   0.5464   0.5504   0.5541   0.5555   0.5604   0.5697
  0.5753   0.5780   0.5809   0.5888   0.5903   0.5960   0.5996   0.6015
  0.6062   0.6072   0.6101   0.6141   0.6189   0.6212   0.6248   0.6286
  0.6318   0.6347   0.6398   0.6417   0.6458   0.6492   0.6535   0.6626
  0.6643   0.6663   0.6809   0.6837   0.6860   0.6949   0.7008   0.7020
  0.7111   0.7129   0.7336   0.7399   0.7402   0.7471   0.7559   0.7614
  0.7658   0.7695   0.7731   0.7827   0.7878   0.7969   0.8062   0.8065
  0.8088   0.8218   0.8252   0.8330   0.8364   0.8431   0.8458   0.8503
  0.8567   0.8626   0.8652   0.8670   0.8709   0.8803   0.8856   0.8883
  0.8999   0.9022   0.9108   0.9188   0.9219   0.9236   0.9279   0.9319
  0.9351   0.9397   0.9490   0.9554   0.9600   0.9702   0.9739   0.9788
  0.9854   0.9902   0.9959   1.0002   1.0106   1.0142   1.0162   1.0254
  1.0296   1.0357   1.0432   1.0465   1.0535   1.0555   1.0630   1.0674
  1.0687   1.0738   1.0862   1.0899   1.0926   1.0975   1.1033   1.1089
  1.1145   1.1199   1.1264   1.1293   1.1355   1.1374   1.1442   1.1468
  1.1494   1.1582   1.1685   1.1718   1.1763   1.1829   1.1858   1.1978
  1.2003   1.2037   1.2070   1.2112   1.2153   1.2217   1.2276   1.2315
  1.2376   1.2396   1.2496   1.2509   1.2613   1.2647   1.2773   1.2826
  1.2940   1.2963   1.3024   1.3197   1.3270   1.3328   1.3364   1.3408
  1.3477   1.3554   1.3626   1.3631   1.3728   1.3757   1.3830   1.3870
  1.3936   1.4002   1.4084   1.4145   1.4198   1.4257   1.4413   1.4457
  1.4521   1.4592   1.4640   1.4721   1.4834   1.4883   1.4889   1.4963
  1.4993   1.5036   1.5077   1.5155   1.5206   1.5296   1.5361   1.5412
  1.5472   1.5516   1.5566   1.5619   1.5684   1.5708   1.5834   1.5841
  1.5915   1.5977   1.6081   1.6101   1.6217   1.6318   1.6397   1.6497
  1.6551   1.6552   1.6711   1.6842   1.6864   1.6922   1.6961   1.7032
  1.7074   1.7238   1.7315   1.7330   1.7420   1.7467   1.7501   1.7534
  1.7585   1.7704   1.7835   1.7882   1.7944   1.8054   1.8123   1.8197
  1.8209   1.8319   1.8473   1.8504   1.8569   1.8640   1.8668   1.8706
  1.8752   1.8883   1.8950   1.9111   1.9227   1.9379   1.9467   1.9517
  1.9606   1.9608   1.9767   1.9846   2.0018   2.0204   2.0308   2.0392
  2.0523   2.0701   2.0781   2.0866   2.0979   2.1145   2.1205   2.1289
  2.1493   2.1594   2.1641   2.1818   2.1950   2.2066   2.2206   2.2399
  2.2416   2.2623   2.2774   2.2826   2.2901   2.3027   2.3143   2.3197
  2.3219   2.3338   2.3594   2.3653   2.3694   2.3735   2.3855   2.4070
  2.4284   2.4413   2.4509   2.4558   2.4574   2.4630   2.4752   2.4855
  2.5041   2.5101   2.5112   2.5357   2.5436   2.5545   2.5604   2.5645
  2.5734   2.5823   2.5903   2.6038   2.6111   2.6151   2.6205   2.6262
  2.6394   2.6414   2.6460   2.6579   2.6618   2.6687   2.6835   2.6895
  2.6948   2.7037   2.7107   2.7203   2.7291   2.7395   2.7425   2.7439
  2.7505   2.7592   2.7681   2.7724   2.7801   2.7964   2.8104   2.8128
  2.8324   2.8368   2.8459   2.8566   2.8602   2.8640   2.8709   2.8791
  2.8818   2.8885   2.8958   2.9036   2.9097   2.9119   2.9143   2.9240
  2.9343   2.9361   2.9435   2.9560   2.9627   2.9709   2.9796   2.9834
  2.9911   2.9999   3.0053   3.0128   3.0141   3.0237   3.0283   3.0344
  3.0421   3.0515   3.0627   3.0649   3.0710   3.0780   3.0876   3.0943
  3.0973   3.1038   3.1099   3.1115   3.1153   3.1269   3.1339   3.1379
  3.1428   3.1496   3.1559   3.1601   3.1692   3.1810   3.1825   3.1868
  3.1922   3.1938   3.2034   3.2086   3.2118   3.2201   3.2262   3.2289
  3.2382   3.2402   3.2458   3.2497   3.2573   3.2619   3.2649   3.2685
  3.2735   3.2790   3.2838   3.2943   3.2964   3.2988   3.3072   3.3098
  3.3157   3.3171   3.3214   3.3253   3.3317   3.3352   3.3380   3.3422
  3.3473   3.3519   3.3553   3.3598   3.3634   3.3672   3.3735   3.3770
  3.3825   3.3862   3.3891   3.3964   3.4002   3.4110   3.4134   3.4176
  3.4235   3.4294   3.4333   3.4371   3.4414   3.4469   3.4523   3.4602
  3.4653   3.4715   3.4729   3.4808   3.4848   3.4887   3.4957   3.5001
  3.5059   3.5074   3.5153   3.5196   3.5255   3.5316   3.5357   3.5434
  3.5471   3.5506   3.5550   3.5587   3.5680   3.5737   3.5838   3.5877
  3.5917   3.6015   3.6063   3.6126   3.6199   3.6208   3.6316   3.6329
  3.6382   3.6407   3.6475   3.6528   3.6569   3.6655   3.6717   3.6741
  3.6806   3.6841   3.6918   3.7000   3.7110   3.7125   3.7231   3.7271
  3.7306   3.7355   3.7405   3.7447   3.7486   3.7531   3.7580   3.7611
  3.7680   3.7739   3.7761   3.7883   3.7894   3.7988   3.8033   3.8115
  3.8123   3.8221   3.8253   3.8296   3.8367   3.8394   3.8447   3.8499
  3.8610   3.8702   3.8762   3.8849   3.8938   3.9032   3.9068   3.9097
  3.9221   3.9289   3.9389   3.9398   3.9482   3.9532   3.9602   3.9661
  3.9712   3.9748   3.9816   3.9900   4.0043   4.0097   4.0127   4.0173
  4.0279   4.0288   4.0444   4.0500   4.0628   4.0721   4.0873   4.0899
  4.0981   4.1079   4.1151   4.1239   4.1283   4.1390   4.1431   4.1474
  4.1523   4.1642   4.1713   4.1759   4.1884   4.1959   4.2016   4.2096
  4.2219   4.2279   4.2377   4.2409   4.2507   4.2528   4.2653   4.2707
  4.2758   4.2811   4.2899   4.2943   4.2974   4.3031   4.3105   4.3167
  4.3265   4.3271   4.3332   4.3436   4.3438   4.3511   4.3518   4.3626
  4.3645   4.3709   4.3729   4.3818   4.3862   4.3910   4.3978   4.4081
  4.4116   4.4226   4.4296   4.4319   4.4389   4.4460   4.4479   4.4653
  4.4802   4.4853   4.4966   4.5059   4.5182   4.5240   4.5391   4.5399
  4.5465   4.5523   4.5532   4.5627   4.5684   4.5799   4.5888   4.5945
  4.5987   4.6052   4.6136   4.6220   4.6271   4.6295   4.6353   4.6535
  4.6613   4.6670   4.6729   4.6854   4.6947   4.7029   4.7046   4.7203
  4.7335   4.7461   4.7533   4.7779   4.7812   4.7951   4.8070   4.8217
  4.8232   4.8346   4.8417   4.8514   4.8541   4.8617   4.8774   4.8874
  4.8915   4.9165   4.9200   4.9428   4.9567   4.9656   4.9768   4.9853
  4.9940   5.0063   5.0192   5.0272   5.0396   5.0459   5.0514   5.0616
  5.0654   5.1026   5.1112   5.1177   5.1275   5.1294   5.1360   5.1405
  5.1527   5.1615   5.1754   5.1791   5.1872   5.2033   5.2161   5.2329
  5.2488   5.2608   5.2777   5.2912   5.3066   5.3120   5.3231   5.3257
  5.3323   5.3484   5.3557   5.3764   5.3772   5.3845   5.3993   5.4154
  5.4299   5.4472   5.4775   5.4926   5.4972   5.5048   5.5052   5.5179
  5.5234   5.5333   5.5437   5.5479   5.5559   5.5642   5.5646   5.5684
  5.5846   5.5882   5.5956   5.6054   5.6102   5.6213   5.6274   5.6419
  5.6478   5.6506   5.6573   5.6679   5.6697   5.6727   5.6951   5.6974
  5.7037   5.7131   5.7199   5.7390   5.7520   5.7646   5.7698   5.7714
  5.7796   5.7850   5.8105   5.8300   5.8462   5.8769   5.9030   5.9159
  5.9408   5.9544   5.9748   5.9844   6.0017   6.0266   6.0389   6.0433
  6.0462   6.0954   6.1096   6.1204   6.1336   6.1529   6.1644   6.1849
  6.1899   6.2158   6.2232   6.2266   6.2594   6.2659   6.2821   6.3017
  6.3095   6.3211   6.3234   6.3612   6.3738   6.4083   6.4174   6.4777
  6.5208   6.5368   6.5517   6.5851   6.5948   6.6039   6.6459   6.6517
  6.6741   6.6756   6.8374   6.8526   6.8907   6.8998   6.9068   6.9190
  6.9300   7.0697   7.1075   7.1352   7.1662   7.1874   7.2242   7.3321
  7.3454   7.3532   7.3616   7.3847   7.4705   7.5420   7.5717   7.5831
  7.5972   7.6550   7.6660   7.6907   7.7059   7.8543   8.8900  10.1118
 10.3452  11.3520  11.5719  11.7997  11.9797  12.2770  12.4377  12.5380
 13.0673  13.2183  13.4094  13.5637  13.8171  13.9318  14.1240  14.2723
 14.3201  14.3756  14.5797  14.6433  14.9994  15.6113  15.7985  16.3234
 --------------------------------------------------------------
 
          Ground-State Mulliken Net Atomic Charges

     Atom                 Charge (a.u.)
  ----------------------------------------
      1 C                    -0.086201
      2 C                    -0.019289
      3 C                    -0.122533
      4 C                    -0.122702
      5 H                     0.200736
      6 C                     0.019752
      7 C                     0.142361
      8 C                    -0.093578
      9 C                    -0.257356
     10 C                    -0.152283
     11 C                     0.198925
     12 H                     0.192557
     13 C                     0.341173
     14 C                     0.344563
     15 N                    -0.088515
     16 C                     0.360629
     17 C                     0.402403
     18 N                    -0.077781
     19 O                    -0.500662
     20 O                    -0.512198
     21 O                    -0.493762
     22 O                    -0.345188
     23 C                    -0.205629
     24 H                     0.139135
     25 H                     0.108885
     26 H                     0.108702
     27 C                    -0.198291
     28 H                     0.137921
     29 H                     0.115120
     30 H                     0.115765
     31 C                    -0.175213
     32 S                     0.129845
     33 C                    -0.256224
     34 C                    -0.147303
     35 C                    -0.266810
     36 H                     0.185046
     37 H                     0.175511
     38 H                     0.198024
     39 H                     0.138353
     40 H                     0.138513
     41 H                     0.227598
  ----------------------------------------
  Sum of atomic charges =     0.000000

 -----------------------------------------------------------------
                    Cartesian Multipole Moments
 -----------------------------------------------------------------
    Charge (ESU x 10^10)
                 0.0000
    Dipole Moment (Debye)
         X       1.2371      Y      -0.5652      Z       4.1654
       Tot       4.3818
    Quadrupole Moments (Debye-Ang)
        XX    -157.7892     XY       1.9222     YY    -186.0591
        XZ      -2.5612     YZ     -15.5611     ZZ    -179.7888
    Octopole Moments (Debye-Ang^2)
       XXX    -116.4610    XXY     497.7525    XYY     -25.6187
       YYY    1721.0036    XXZ     -21.5176    XYZ      24.2595
       YYZ      55.7121    XZZ     -29.0106    YZZ     607.3569
       ZZZ     -59.2368
    Hexadecapole Moments (Debye-Ang^3)
      XXXX    -736.0885   XXXY    -145.1968   XXYY   -2674.5413
      XYYY    -336.7461   YYYY  -17800.7125   XXXZ    -513.8491
      XXYZ    -121.4858   XYYZ    -319.6319   YYYZ   -1322.3173
      XXZZ   -1121.4321   XYZZ      -6.3226   YYZZ   -4384.0263
      XZZZ    -574.7694   YZZZ    -169.1973   ZZZZ   -6306.9782
 -----------------------------------------------------------------
 Total job time:  344.28s(wall), 9689.49s(cpu) 
 Wed Dec 27 11:34:09 2023

        *************************************************************
        *                                                           *
        *  Thank you very much for using Q-Chem.  Have a nice day.  *
        *                                                           *
        *************************************************************


0 sent ACK to 0 
now end server 0 ... 
cleanup process ... done
remove work dirs ./qchem1957419.0 -- ./qchem1957419.0
rm -rf ./qchem1957419.0
rm -rf ./qchem1957419
