You are running Q-Chem version: 5.4.0

#
# job setting
#
local host:  exp-3-40
current dir: /home/rramji/project-csd799/aromodel/pndit-qchem/hydrogenated-rotation-run
input file:  Dimethyl_Naphthalene_Dicarboximide_Phi_50_Theta_20_Thiophene_Hydrogenated.qcin
output file: 
nprocs     : 1
nthreads   : 64
#
# qchem installation setting
#
QC:          /cm/shared/apps/spack/cpu/opt/spack/linux-centos8-zen2/gcc-10.2.0/qchem-5.4-akfmr7b3t57bfs6qan3padb2wnb2i7cl
QCAUX:       /cm/shared/apps/spack/cpu/opt/spack/linux-centos8-zen2/gcc-10.2.0/qchem-5.4-akfmr7b3t57bfs6qan3padb2wnb2i7cl/qcaux
QCPROG:      /cm/shared/apps/spack/cpu/opt/spack/linux-centos8-zen2/gcc-10.2.0/qchem-5.4-akfmr7b3t57bfs6qan3padb2wnb2i7cl/exe/qcprog.exe
QCPROG_S:    /cm/shared/apps/spack/cpu/opt/spack/linux-centos8-zen2/gcc-10.2.0/qchem-5.4-akfmr7b3t57bfs6qan3padb2wnb2i7cl/exe/qcprog.exe_s
PARALLEL:    -DPARALLEL
QCMPI:       mpich
#
# qchem directory setting
#
qcrun:       qchem1982187
QCSCRATCH:   .
QCLOCALSCR:  
QCTMPDIR:    .
QCFILEPREF:  ./qchem1982187
QCSAVEDIR:   
workdirs:    ./qchem1982187
workdir0:    ./qchem1982187
partmpdirs =  
#
# parallel setting
#
QCRSH:           ssh
QCMPI:           mpich
QCMPIRUN:        /cm/shared/apps/spack/cpu/opt/spack/linux-centos8-zen2/gcc-10.2.0/qchem-5.4-akfmr7b3t57bfs6qan3padb2wnb2i7cl/bin/mpi/mpirun_qchem
QCMACHINEFILE:   ./qchem1982187/hostfile
exp-3-40

#
# env setting
#
exported envs:   QC QCAUX QCSCRATCH QCRUNNAME QCFILEPREF QCPROG QCPROG_S GUIFILE

Running Job 1 of 1 Dimethyl_Naphthalene_Dicarboximide_Phi_50_Theta_20_Thiophene_Hydrogenated.qcin
qchem Dimethyl_Naphthalene_Dicarboximide_Phi_50_Theta_20_Thiophene_Hydrogenated.qcin_1982187.0 ./qchem1982187/ 1
/cm/shared/apps/spack/cpu/opt/spack/linux-centos8-zen2/gcc-10.2.0/qchem-5.4-akfmr7b3t57bfs6qan3padb2wnb2i7cl/bin/mpi/mpirun_qchem -machinefile ./qchem1982187/hostfile -np 1 /cm/shared/apps/spack/cpu/opt/spack/linux-centos8-zen2/gcc-10.2.0/qchem-5.4-akfmr7b3t57bfs6qan3padb2wnb2i7cl/exe/qcprog.exe Dimethyl_Naphthalene_Dicarboximide_Phi_50_Theta_20_Thiophene_Hydrogenated.qcin_1982187.0 ./qchem1982187/

Process 0 of 1 is on exp-3-40 - thread support 0
initial socket setup ...start
initial socket setup ...done 
now start server 0 ... 
                  Welcome to Q-Chem
     A Quantum Leap Into The Future Of Chemistry


 Q-Chem 5.4, Q-Chem, Inc., Pleasanton, CA (2021)

 License issued to: University of California, San Diego (site)

 E. Epifanovsky,  A. T. B. Gilbert,  Xintian Feng,  Joonho Lee,  Yuezhi Mao,  
 N. Mardirossian,  P. Pokhilko,  A. White,  M. Wormit,  M. P. Coons,  
 A. L. Dempwolff,  Zhengting Gan,  D. Hait,  P. R. Horn,  L. D. Jacobson,  
 I. Kaliman,  J. Kussmann,  A. W. Lange,  Ka Un Lao,  D. S. Levine,  Jie Liu,  
 S. C. McKenzie,  A. F. Morrison,  K. Nanda,  F. Plasser,  D. R. Rehn,  
 M. L. Vidal,  Zhi-Qiang You,  Ying Zhu,  B. Alam,  B. Albrecht,  
 A. Aldossary,  E. Alguire,  J. H. Andersen,  D. Barton,  K. Begam,  A. Behn,  
 Y. A. Bernard,  E. J. Berquist,  H. Burton,  A. Carreras,  K. Carter-Fenk,  
 R. Chakraborty,  A. D. Chien,  K. D. Closser,  V. Cofer-Shabica,  
 S. Dasgupta,  Jia Deng,  M. de Wergifosse,  M. Diedenhofen,  Hainam Do,  
 S. Ehlert,  Po-Tung Fang,  S. Fatehi,  Qingguo Feng,  J. Gayvert,  
 Qinghui Ge,  G. Gidofalvi,  M. Goldey,  J. Gomes,  C. Gonzalez-Espinoza,  
 S. Gulania,  A. Gunina,  M. W. D. Hanson-Heine,  P. H. P. Harbach,  
 A. W. Hauser,  M. F. Herbst,  M. Hernandez Vera,  M. Hodecker,  
 Z. C. Holden,  S. Houck,  Xunkun Huang,  Kerwin Hui,  B. C. Huynh,  
 M. Ivanov,  Hyunjun Ji,  Hanjie Jiang,  B. Kaduk,  S. Kaehler,  
 K. Khistyaev,  Jaehoon Kim,  P. Klunzinger,  Z. Koczor-Benda,  
 Joong Hoon Koh,  D. Kosenkov,  L. Koulias,  T. Kowalczyk,  C. M. Krauter,  
 K. Kue,  A. Kunitsa,  T. Kus,  A. Landau,  K. V. Lawler,  D. Lefrancois,  
 S. Lehtola,  Rain Li,  Yi-Pei Li,  Jiashu Liang,  M. Liebenthal,  
 Hung-Hsuan Lin,  You-Sheng Lin,  Fenglai Liu,  Kuan-Yu Liu,  
 M. Loipersberger,  A. Luenser,  A. Manjanath,  P. Manohar,  E. Mansoor,  
 S. F. Manzer,  Shan-Ping Mao,  A. V. Marenich,  T. Markovich,  S. Mason,  
 S. A. Maurer,  P. F. McLaughlin,  M. F. S. J. Menger,  J.-M. Mewes,  
 S. A. Mewes,  P. Morgante,  J. W. Mullinax,  T. S. Nguyen-Beck,  
 K. J. Oosterbaan,  G. Paran,  Alexander C. Paul,  Suranjan K. Paul,  
 F. Pavosevic,  Zheng Pei,  S. Prager,  E. I. Proynov,  E. Ramos,  B. Rana,  
 A. E. Rask,  A. Rettig,  R. M. Richard,  F. Rob,  E. Rossomme,  T. Scheele,  
 M. Scheurer,  M. Schneider,  N. Sergueev,  S. M. Sharada,  W. Skomorowski,  
 D. W. Small,  C. J. Stein,  Yu-Chuan Su,  E. J. Sundstrom,  Zhen Tao,  
 J. Thirman,  T. Tsuchimochi,  N. M. Tubman,  S. P. Veccham,  O. Vydrov,  
 J. Wenzel,  J. Witte,  A. Yamada,  Kun Yao,  S. Yeganeh,  S. R. Yost,  
 A. Zech,  Igor Ying Zhang,  Xing Zhang,  Yu Zhang,  D. Zuev,  
 A. Aspuru-Guzik,  A. T. Bell,  N. A. Besley,  K. B. Bravaya,  B. R. Brooks,  
 D. Casanova,  Jeng-Da Chai,  S. Coriani,  C. J. Cramer,  
 A. E. DePrince, III,  R. A. DiStasio Jr.,  A. Dreuw,  B. D. Dunietz,  
 T. R. Furlani,  W. A. Goddard III,  S. Grimme,  S. Hammes-Schiffer,  
 T. Head-Gordon,  W. J. Hehre,  Chao-Ping Hsu,  T.-C. Jagau,  Yousung Jung,  
 A. Klamt,  Jing Kong,  D. S. Lambrecht,  WanZhen Liang,  N. J. Mayhall,  
 C. W. McCurdy,  J. B. Neaton,  C. Ochsenfeld,  J. A. Parkhill,  R. Peverati,  
 V. A. Rassolov,  Yihan Shao,  L. V. Slipchenko,  T. Stauch,  R. P. Steele,  
 J. E. Subotnik,  A. J. W. Thom,  A. Tkatchenko,  D. G. Truhlar,  
 T. Van Voorhis,  T. A. Wesolowski,  K. B. Whaley,  H. L. Woodcock III,  
 P. M. Zimmerman,  S. Faraji,  P. M. W. Gill,  M. Head-Gordon,  
 J. M. Herbert,  A. I. Krylov

 Contributors to earlier versions of Q-Chem not listed above: 
 R. D. Adamson,  B. Austin,  R. Baer,  J. Baker,  G. J. O. Beran,  
 K. Brandhorst,  S. T. Brown,  E. F. C. Byrd,  A. K. Chakraborty,  
 G. K. L. Chan,  Chun-Min Chang,  Yunqing Chen,  C.-L. Cheng,  
 Siu Hung Chien,  D. M. Chipman,  D. L. Crittenden,  H. Dachsel,  
 R. J. Doerksen,  A. D. Dutoi,  R. G. Edgar,  J. Fosso-Tande,  
 L. Fusti-Molnar,  D. Ghosh,  A. Ghysels,  A. Golubeva-Zadorozhnaya,  
 J. Gonthier,  M. S. Gordon,  S. R. Gwaltney,  G. Hawkins,  J. E. Herr,  
 A. Heyden,  S. Hirata,  E. G. Hohenstein,  G. Kedziora,  F. J. Keil,  
 C. Kelley,  Jihan Kim,  R. A. King,  R. Z. Khaliullin,  P. P. Korambath,  
 W. Kurlancheek,  A. Laurent,  A. M. Lee,  M. S. Lee,  S. V. Levchenko,  
 Ching Yeh Lin,  D. Liotard,  E. Livshits,  R. C. Lochan,  I. Lotan,  
 L. A. Martinez-Martinez,  P. E. Maslen,  N. Nair,  D. P. O'Neill,  
 D. Neuhauser,  E. Neuscamman,  C. M. Oana,  R. Olivares-Amaya,  R. Olson,  
 T. M. Perrine,  B. Peters,  P. A. Pieniazek,  A. Prociuk,  Y. M. Rhee,  
 J. Ritchie,  M. A. Rohrdanz,  E. Rosta,  N. J. Russ,  H. F. Schaefer III,  
 M. W. Schmidt,  N. E. Schultz,  S. Sharma,  N. Shenvi,  C. D. Sherrill,  
 A. C. Simmonett,  A. Sodt,  T. Stein,  D. Stuck,  K. S. Thanthiriwatte,  
 V. Vanovschi,  L. Vogt,  Tao Wang,  A. Warshel,  M. A. Watson,  
 C. F. Williams,  Q. Wu,  X. Xu,  Jun Yang,  W. Zhang,  Yan Zhao

 Please cite Q-Chem as follows:
 Y. Shao et al., Mol. Phys. 113, 184-215 (2015)
 DOI: 10.1080/00268976.2014.952696

 Q-Chem 5.4.0 for Intel X86 EM64T Linux

 Parts of Q-Chem use Armadillo 9.800.1 (Horizon Scraper).
 http://arma.sourceforge.net/

 Q-Chem begins on Wed Dec 27 10:03:33 2023  

 Host: 
0

     Scratch files written to ./qchem1982187//
 May1621 |scratch|qcdevops|jenkins|workspace|build_RNUM    
 Parallel job on  1  processors
 Processing $rem in /cm/shared/apps/spack/cpu/opt/spack/linux-centos8-zen2/gcc-10.2.0/qchem-5.4-akfmr7b3t57bfs6qan3padb2wnb2i7cl/config/preferences:
 Processing $rem in /home/rramji/.qchemrc:
 Symmetry turned off for PCM/SM12/SMD calculation
 Core orbitals will be frozen

 Checking the input file for inconsistencies... 	...done.

 Q-Chem warning in module forms1/BasisType.C, line 2236:

 You are not using the predefined 5D/6D in this basis set.


--------------------------------------------------------------
User input:
--------------------------------------------------------------
$molecule
0 1
C	0.086486	-6.741404	-0.241938
C	0.532960	-6.155638	-1.468983
C	-0.284733	-5.791452	0.776651
C	0.628455	-4.803786	-1.730681
H	0.833086	-6.821518	-2.294130
C	-0.184300	-4.378638	0.502775
C	0.271086	-3.838032	-0.747353
C	-0.541191	-3.413062	1.484986
C	0.370703	-2.426473	-1.019042
C	-0.446468	-2.059348	1.226525
C	-0.000000	-1.478216	-0.000000
H	-0.746717	-1.394783	2.052666
C	-0.779832	-6.187987	2.131549
C	-1.030596	-3.798164	2.829295
N	-1.115461	-5.170003	3.057496
C	1.119034	-4.424987	-3.078712
C	0.865151	-2.036627	-2.375300
N	1.201176	-3.049156	-3.301374
O	-0.916355	-7.353131	2.498300
O	-1.345486	-2.986854	3.697195
O	1.430379	-5.248946	-3.936224
O	1.007714	-0.878829	-2.762805
C	-1.599576	-5.563799	4.384539
H	-1.616121	-6.664085	4.426636
H	-2.611458	-5.147101	4.550487
H	-0.931037	-5.148785	5.162921
C	1.677382	-2.587487	-4.608454
H	1.896168	-3.483329	-5.212668
H	2.583531	-1.964972	-4.482719
H	0.903674	-1.962932	-5.093988
C	0.000000	0.000000	0.000000
S	0.607475	0.509994	1.580530
C	1.862020	1.562717	0.904911
C	0.764397	0.641624	-0.985400
C	1.775697	1.490335	-0.493528
H	0.583895	0.490135	-2.059934
H	2.450484	2.056643	-1.152593
H	2.536607	2.128872	1.556025
H	0.893959	-7.361589	0.165874
H	-0.794290	-7.361192	-0.449423
H	1.014686	-1.478831	0.369880
$end

$rem
JOBTYPE		SP
EXCHANGE	HF
CORRELATION	pRIMP2
BASIS		cc-pvtz
METHOD		rimp2
AUX_BASIS	rimp2-cc-pvtz
SOLVENT_METHOD	PCM
PURECART	11111
SYMMETRY	false
MEM_TOTAL	110000
SCF_CONVERGENCE = 6
THRESH=10
GUI = 2
$end



$solvent
dielectric 4.90
$end
--------------------------------------------------------------
 ----------------------------------------------------------------
             Standard Nuclear Orientation (Angstroms)
    I     Atom           X                Y                Z
 ----------------------------------------------------------------
    1      C       0.0864860000    -6.7414040000    -0.2419380000
    2      C       0.5329600000    -6.1556380000    -1.4689830000
    3      C      -0.2847330000    -5.7914520000     0.7766510000
    4      C       0.6284550000    -4.8037860000    -1.7306810000
    5      H       0.8330860000    -6.8215180000    -2.2941300000
    6      C      -0.1843000000    -4.3786380000     0.5027750000
    7      C       0.2710860000    -3.8380320000    -0.7473530000
    8      C      -0.5411910000    -3.4130620000     1.4849860000
    9      C       0.3707030000    -2.4264730000    -1.0190420000
   10      C      -0.4464680000    -2.0593480000     1.2265250000
   11      C       0.0000000000    -1.4782160000     0.0000000000
   12      H      -0.7467170000    -1.3947830000     2.0526660000
   13      C      -0.7798320000    -6.1879870000     2.1315490000
   14      C      -1.0305960000    -3.7981640000     2.8292950000
   15      N      -1.1154610000    -5.1700030000     3.0574960000
   16      C       1.1190340000    -4.4249870000    -3.0787120000
   17      C       0.8651510000    -2.0366270000    -2.3753000000
   18      N       1.2011760000    -3.0491560000    -3.3013740000
   19      O      -0.9163550000    -7.3531310000     2.4983000000
   20      O      -1.3454860000    -2.9868540000     3.6971950000
   21      O       1.4303790000    -5.2489460000    -3.9362240000
   22      O       1.0077140000    -0.8788290000    -2.7628050000
   23      C      -1.5995760000    -5.5637990000     4.3845390000
   24      H      -1.6161210000    -6.6640850000     4.4266360000
   25      H      -2.6114580000    -5.1471010000     4.5504870000
   26      H      -0.9310370000    -5.1487850000     5.1629210000
   27      C       1.6773820000    -2.5874870000    -4.6084540000
   28      H       1.8961680000    -3.4833290000    -5.2126680000
   29      H       2.5835310000    -1.9649720000    -4.4827190000
   30      H       0.9036740000    -1.9629320000    -5.0939880000
   31      C       0.0000000000     0.0000000000     0.0000000000
   32      S       0.6074750000     0.5099940000     1.5805300000
   33      C       1.8620200000     1.5627170000     0.9049110000
   34      C       0.7643970000     0.6416240000    -0.9854000000
   35      C       1.7756970000     1.4903350000    -0.4935280000
   36      H       0.5838950000     0.4901350000    -2.0599340000
   37      H       2.4504840000     2.0566430000    -1.1525930000
   38      H       2.5366070000     2.1288720000     1.5560250000
   39      H       0.8939590000    -7.3615890000     0.1658740000
   40      H      -0.7942900000    -7.3611920000    -0.4494230000
   41      H       1.0146860000    -1.4788310000     0.3698800000
 ----------------------------------------------------------------
 Nuclear Repulsion Energy =        2584.24043608 hartrees
 There are       98 alpha and       98 beta electrons
 Requested basis set is cc-pVTZ
 There are 356 shells and 1010 basis functions

 Total QAlloc Memory Limit 110000 MB
 Mega-Array Size       188 MB
 MEM_STATIC part       192 MB
 Discretize the solute cavity surface with Lebedev spheres
	Using 110 Lebedev grid points for each H atom
	Using 194 Lebedev grid points for other atoms
	Atomic van der Waals radii will be scaled by 1.20
 Remove points where switching function is < 1.0e-08
 Keep 2531 surface tesserae and discard 4247 interior tesserae
 Molecular Surface Area = 358.386 Angst**2
 Requested basis set is rimp2-cc-pVTZ
 There are 770 shells and 2648 basis functions
 A cutoff of  1.0D-10 yielded  35025 shell pairs
 There are    264679 function pairs (    342404 Cartesian)
 Smallest overlap matrix eigenvalue = 8.99E-06

 Q-Chem warning in module stvman/mkSTV.C, line 323:

 Overlap eigenvalue is smaller than square root of threshold
 Use THRESH >= 12 to get rid of this warning


 Scale SEOQF with 1.000000e-01/1.000000e-02/1.000000e-01

 Standard Electronic Orientation quadrupole field applied
 Nucleus-field energy     =    -0.0000000954 hartrees
 Guess from superposition of atomic densities
 Warning:  Energy on first SCF cycle will be non-variational
 SAD guess density has 196.000000 electrons

 -----------------------------------------------------------------------
  General SCF calculation program by
  Eric Jon Sundstrom, Paul Horn, Yuezhi Mao, Dmitri Zuev, Alec White,
  David Stuck, Shaama M.S., Shane Yost, Joonho Lee, David Small,
  Daniel Levine, Susi Lehtola, Hugh Burton, Evgeny Epifanovsky,
  Bang C. Huynh
 -----------------------------------------------------------------------
 Hartree-Fock
 using 64 threads for integral computing
 -------------------------------------------------------
 OpenMP Integral computing Module                
 Release: version 1.0, May 2013, Q-Chem Inc. Pittsburgh 
 -------------------------------------------------------
 A restricted SCF calculation will be
 performed using DIIS
 SCF converges when DIIS error is below 1.0e-06
 ---------------------------------------
  Cycle       Energy         DIIS error
 ---------------------------------------
    1   -1583.3782844422      1.87e-02  
    2   -1571.0871424561      2.02e-03  
    3   -1571.4285654428      1.53e-03  
    4   -1571.6442706988      2.57e-04  
    5   -1571.6587303567      8.02e-05  
    6   -1571.6602862350      3.16e-05  
    7   -1571.6607796521      1.58e-05  
    8   -1571.6609102878      6.53e-06  
    9   -1571.6609320201      2.78e-06  
   10   -1571.6609359803      1.24e-06  
   11   -1571.6609371355      5.54e-07  Convergence criterion met
 ---------------------------------------
 SCF time:   CPU 7142.36s  wall 273.00s 

************** Final PCM Free Energy Summary **************
 G_electrostatic  =      -0.02658601 hartree =     -16.68297138 kcal/mol
 G_cavitation     =       0.00000000 hartree =       0.00000000 kcal/mol
 G_dispersion     =       0.00000000 hartree =       0.00000000 kcal/mol
 G_repulsion      =       0.00000000 hartree =       0.00000000 kcal/mol
 --------------------------------------------------
 Non-electrostatic Free Energy =       0.00000000 hartree =       0.00000000 kcal/mol
 Total                         =      -0.02658601 hartree =     -16.68297138 kcal/mol
 --------------------------------------------------
 SCF Energy (H0 + V/2)                       =   -1571.66093714 
 Solute Internal Energy (H0)                 =   -1571.63435113 
 Total Free Energy (H0 + V/2 + non-elec)     =   -1571.66093714 hartree
                                             = -986232.12325328 kcal/mol
***********************************************************

 SCF   energy in the final basis set =    -1571.6609371355
 Total energy in the final basis set =    -1571.6609371355


 --------------------------------------------------------------
  Generalized many-body perturbation theory program
  by Joonho Lee, Fazle Rob, Xintian Feng, Evgeny Epifanovsky

 No regularization used 
 (reg. param. = 0.0000e+00)
  (P|Q)^-1/2 Time:  CPU 138.43 s  wall 2.60 s

 In RI-MP2 calculation: 
 # of frozen core orbitals: 31

 Components of the RIMP2 correlation energy:
        aaaa    correlation energy =        -0.6188284318 a.u.
        abab    correlation energy =        -3.4339765200 a.u.
        bbbb    correlation energy =        -0.6188284318 a.u.
        non-Brillouin singles      =        -0.0000000000 a.u.
        total same-spin energy     =        -1.2376568636 a.u.
        total opposite-spin energy =        -3.4339765200 a.u.

 Total  RIMP2   correlation energy =        -4.6716333837 a.u.
        RIMP2         total energy =     -1576.3325705192 a.u.

 RI-MP2 Energy Time:  CPU 2006.83 s  wall 35.52 s
 
 --------------------------------------------------------------
 
                    Orbital Energies (a.u.)
 --------------------------------------------------------------
 
 Alpha MOs
 -- Occupied --
-91.9812 -20.5527 -20.5462 -20.5404 -20.5394 -15.6309 -15.6202 -11.4015
-11.3868 -11.3823 -11.3777 -11.3073 -11.3050 -11.3042 -11.3036 -11.2965
-11.2941 -11.2840 -11.2699 -11.2682 -11.2674 -11.2654 -11.2633 -11.2586
-11.2522 -11.2460 -11.2421  -8.9827  -6.6635  -6.6628  -6.6623  -1.4295
 -1.4111  -1.4022  -1.3902  -1.2670  -1.2546  -1.2318  -1.1908  -1.1495
 -1.1131  -1.0842  -1.0471  -0.9973  -0.9887  -0.9865  -0.9554  -0.9473
 -0.8981  -0.8870  -0.8778  -0.8605  -0.7916  -0.7813  -0.7741  -0.7631
 -0.7390  -0.7337  -0.7026  -0.6878  -0.6800  -0.6745  -0.6675  -0.6577
 -0.6490  -0.6475  -0.6368  -0.6315  -0.6311  -0.6305  -0.6235  -0.6038
 -0.5909  -0.5687  -0.5673  -0.5633  -0.5570  -0.5535  -0.5519  -0.5479
 -0.5468  -0.5419  -0.5165  -0.5120  -0.5041  -0.4766  -0.4713  -0.4621
 -0.4551  -0.4436  -0.4368  -0.4351  -0.4179  -0.4068  -0.3572  -0.3439
 -0.3314  -0.2742
 -- Virtual --
  0.0121   0.0394   0.0717   0.0922   0.1447   0.1497   0.1579   0.1601
  0.1641   0.1693   0.1772   0.1789   0.1885   0.1944   0.2048   0.2060
  0.2133   0.2222   0.2253   0.2285   0.2329   0.2358   0.2467   0.2621
  0.2647   0.2740   0.3031   0.3073   0.3148   0.3208   0.3233   0.3254
  0.3361   0.3398   0.3472   0.3535   0.3550   0.3611   0.3637   0.3689
  0.3747   0.3793   0.3827   0.3875   0.3894   0.4005   0.4064   0.4094
  0.4152   0.4237   0.4298   0.4303   0.4353   0.4367   0.4453   0.4479
  0.4501   0.4561   0.4633   0.4682   0.4715   0.4860   0.4883   0.4966
  0.4998   0.5046   0.5070   0.5119   0.5169   0.5195   0.5240   0.5296
  0.5311   0.5382   0.5427   0.5484   0.5526   0.5570   0.5653   0.5684
  0.5710   0.5783   0.5814   0.5858   0.5899   0.5923   0.5996   0.6009
  0.6071   0.6088   0.6122   0.6132   0.6163   0.6211   0.6236   0.6277
  0.6333   0.6373   0.6381   0.6414   0.6430   0.6436   0.6524   0.6582
  0.6673   0.6742   0.6766   0.6802   0.6892   0.6939   0.6962   0.7040
  0.7124   0.7163   0.7255   0.7315   0.7390   0.7522   0.7569   0.7633
  0.7676   0.7711   0.7783   0.7830   0.7884   0.7977   0.8006   0.8042
  0.8060   0.8146   0.8222   0.8294   0.8377   0.8398   0.8468   0.8505
  0.8516   0.8570   0.8623   0.8653   0.8674   0.8758   0.8841   0.8893
  0.8955   0.8976   0.9059   0.9083   0.9170   0.9213   0.9247   0.9282
  0.9368   0.9431   0.9459   0.9516   0.9639   0.9678   0.9735   0.9820
  0.9849   0.9942   0.9976   1.0021   1.0082   1.0097   1.0203   1.0278
  1.0311   1.0388   1.0422   1.0470   1.0504   1.0592   1.0629   1.0653
  1.0692   1.0722   1.0774   1.0860   1.0912   1.0961   1.0982   1.1044
  1.1126   1.1142   1.1173   1.1286   1.1345   1.1359   1.1423   1.1490
  1.1537   1.1611   1.1663   1.1700   1.1777   1.1832   1.1863   1.1965
  1.2009   1.2050   1.2083   1.2108   1.2127   1.2229   1.2299   1.2332
  1.2381   1.2432   1.2475   1.2535   1.2577   1.2679   1.2766   1.2775
  1.2906   1.2932   1.2998   1.3091   1.3170   1.3268   1.3386   1.3436
  1.3527   1.3546   1.3621   1.3660   1.3718   1.3807   1.3839   1.3887
  1.3955   1.4015   1.4058   1.4080   1.4171   1.4250   1.4274   1.4435
  1.4538   1.4591   1.4677   1.4714   1.4724   1.4830   1.4936   1.4989
  1.5016   1.5093   1.5153   1.5204   1.5243   1.5311   1.5346   1.5411
  1.5469   1.5493   1.5570   1.5612   1.5655   1.5698   1.5800   1.5851
  1.5885   1.5990   1.6061   1.6126   1.6253   1.6311   1.6379   1.6493
  1.6554   1.6618   1.6702   1.6709   1.6727   1.6877   1.6957   1.7000
  1.7010   1.7185   1.7290   1.7293   1.7455   1.7480   1.7626   1.7637
  1.7717   1.7744   1.7885   1.7959   1.7994   1.8015   1.8116   1.8174
  1.8333   1.8420   1.8500   1.8559   1.8591   1.8707   1.8714   1.8759
  1.8815   1.8844   1.8924   1.8969   1.9119   1.9250   1.9309   1.9515
  1.9631   1.9684   1.9776   1.9888   1.9896   2.0099   2.0198   2.0277
  2.0395   2.0535   2.0675   2.0927   2.0998   2.1050   2.1181   2.1298
  2.1414   2.1538   2.1646   2.1701   2.1826   2.2097   2.2229   2.2303
  2.2324   2.2533   2.2650   2.2784   2.2910   2.2952   2.3077   2.3152
  2.3287   2.3300   2.3379   2.3435   2.3606   2.3667   2.3754   2.3914
  2.3982   2.4156   2.4261   2.4412   2.4524   2.4578   2.4645   2.4683
  2.4786   2.4946   2.5014   2.5102   2.5245   2.5407   2.5444   2.5553
  2.5670   2.5684   2.5790   2.5846   2.5908   2.5986   2.6179   2.6247
  2.6313   2.6369   2.6431   2.6525   2.6625   2.6682   2.6708   2.6810
  2.6848   2.6953   2.7006   2.7113   2.7218   2.7309   2.7364   2.7412
  2.7463   2.7488   2.7600   2.7684   2.7736   2.7857   2.8052   2.8112
  2.8238   2.8356   2.8444   2.8470   2.8564   2.8611   2.8684   2.8699
  2.8783   2.8889   2.8953   2.8991   2.9042   2.9133   2.9157   2.9251
  2.9301   2.9378   2.9387   2.9510   2.9635   2.9658   2.9728   2.9802
  2.9828   2.9914   3.0008   3.0023   3.0109   3.0202   3.0240   3.0298
  3.0342   3.0467   3.0510   3.0568   3.0667   3.0783   3.0811   3.0918
  3.0968   3.1022   3.1054   3.1080   3.1113   3.1129   3.1249   3.1335
  3.1361   3.1405   3.1463   3.1576   3.1641   3.1684   3.1744   3.1782
  3.1902   3.1916   3.1945   3.2025   3.2090   3.2171   3.2257   3.2350
  3.2389   3.2407   3.2430   3.2517   3.2582   3.2588   3.2615   3.2670
  3.2726   3.2780   3.2825   3.2888   3.2945   3.2988   3.3029   3.3041
  3.3094   3.3142   3.3251   3.3286   3.3306   3.3339   3.3413   3.3430
  3.3457   3.3542   3.3561   3.3608   3.3650   3.3739   3.3764   3.3791
  3.3846   3.3861   3.3894   3.3995   3.4091   3.4099   3.4111   3.4153
  3.4188   3.4218   3.4285   3.4336   3.4384   3.4396   3.4429   3.4517
  3.4564   3.4628   3.4689   3.4733   3.4800   3.4888   3.4898   3.4917
  3.5002   3.5050   3.5073   3.5148   3.5168   3.5227   3.5346   3.5373
  3.5400   3.5527   3.5572   3.5619   3.5657   3.5786   3.5828   3.5830
  3.5937   3.5988   3.6063   3.6109   3.6163   3.6226   3.6271   3.6326
  3.6353   3.6384   3.6413   3.6509   3.6543   3.6630   3.6680   3.6760
  3.6773   3.6850   3.6946   3.6981   3.7035   3.7148   3.7157   3.7170
  3.7314   3.7373   3.7465   3.7508   3.7563   3.7583   3.7634   3.7646
  3.7742   3.7779   3.7827   3.7840   3.7933   3.8006   3.8053   3.8069
  3.8151   3.8190   3.8245   3.8304   3.8337   3.8454   3.8459   3.8527
  3.8556   3.8712   3.8775   3.8862   3.8889   3.8967   3.9062   3.9144
  3.9225   3.9264   3.9339   3.9439   3.9484   3.9518   3.9558   3.9566
  3.9679   3.9770   3.9868   3.9971   4.0021   4.0035   4.0131   4.0220
  4.0290   4.0415   4.0508   4.0567   4.0606   4.0640   4.0706   4.1015
  4.1060   4.1162   4.1208   4.1315   4.1380   4.1410   4.1524   4.1612
  4.1625   4.1656   4.1716   4.1801   4.1877   4.1905   4.1994   4.2021
  4.2249   4.2321   4.2408   4.2543   4.2615   4.2643   4.2697   4.2726
  4.2794   4.2863   4.2926   4.2982   4.3021   4.3065   4.3125   4.3158
  4.3218   4.3314   4.3368   4.3379   4.3471   4.3505   4.3580   4.3657
  4.3682   4.3713   4.3755   4.3805   4.3841   4.3896   4.3977   4.4051
  4.4124   4.4151   4.4248   4.4285   4.4384   4.4464   4.4549   4.4683
  4.4854   4.4951   4.4995   4.5100   4.5171   4.5253   4.5315   4.5388
  4.5504   4.5525   4.5712   4.5747   4.5854   4.5877   4.5895   4.5952
  4.6016   4.6045   4.6207   4.6225   4.6250   4.6366   4.6395   4.6479
  4.6577   4.6710   4.6819   4.6908   4.6937   4.7032   4.7116   4.7153
  4.7326   4.7371   4.7471   4.7744   4.7855   4.7921   4.8036   4.8159
  4.8199   4.8288   4.8358   4.8413   4.8545   4.8594   4.8708   4.8790
  4.8930   4.8991   4.9172   4.9256   4.9372   4.9714   4.9720   4.9825
  4.9925   5.0020   5.0225   5.0345   5.0383   5.0485   5.0523   5.0692
  5.0795   5.1097   5.1138   5.1192   5.1270   5.1329   5.1362   5.1603
  5.1666   5.1682   5.1833   5.2009   5.2042   5.2195   5.2323   5.2577
  5.2659   5.2689   5.2836   5.2895   5.2967   5.3139   5.3240   5.3318
  5.3333   5.3500   5.3572   5.3737   5.3790   5.3886   5.4034   5.4165
  5.4358   5.4597   5.4771   5.4869   5.4941   5.5115   5.5127   5.5170
  5.5184   5.5316   5.5441   5.5566   5.5639   5.5672   5.5695   5.5753
  5.5861   5.5969   5.6025   5.6067   5.6125   5.6199   5.6255   5.6451
  5.6491   5.6520   5.6603   5.6673   5.6689   5.6817   5.6929   5.6956
  5.7062   5.7139   5.7217   5.7481   5.7601   5.7686   5.7784   5.7870
  5.7976   5.8161   5.8298   5.8380   5.8519   5.8658   5.8907   5.9182
  5.9481   5.9703   5.9744   5.9981   5.9998   6.0226   6.0410   6.0451
  6.0521   6.0693   6.0929   6.1174   6.1380   6.1402   6.1646   6.1893
  6.1980   6.2212   6.2224   6.2265   6.2598   6.2769   6.2841   6.3049
  6.3104   6.3246   6.3337   6.3670   6.3800   6.4004   6.4300   6.4918
  6.5232   6.5459   6.5788   6.5852   6.5907   6.6092   6.6548   6.6608
  6.6749   6.6994   6.8558   6.8606   6.8988   6.9030   6.9065   6.9285
  6.9297   7.0295   7.1064   7.1487   7.1634   7.2189   7.2223   7.3409
  7.3481   7.3524   7.3602   7.3946   7.4820   7.5503   7.5740   7.5854
  7.5949   7.6542   7.6648   7.6927   7.7122   7.9530   8.9359  10.1017
 10.3694  11.3845  11.5757  11.7986  12.0110  12.2893  12.4388  12.5421
 12.9803  13.2102  13.3828  13.5611  13.8072  13.9376  14.1863  14.2901
 14.3255  14.3789  14.5518  14.7113  15.0106  15.6127  15.8209  16.2849
 --------------------------------------------------------------
 
          Ground-State Mulliken Net Atomic Charges

     Atom                 Charge (a.u.)
  ----------------------------------------
      1 C                    -0.084500
      2 C                    -0.031483
      3 C                    -0.113656
      4 C                    -0.118458
      5 H                     0.198394
      6 C                     0.016917
      7 C                     0.126824
      8 C                    -0.070477
      9 C                    -0.203124
     10 C                    -0.133398
     11 C                     0.164064
     12 H                     0.181271
     13 C                     0.342215
     14 C                     0.345918
     15 N                    -0.089809
     16 C                     0.357764
     17 C                     0.396085
     18 N                    -0.085787
     19 O                    -0.496133
     20 O                    -0.507988
     21 O                    -0.499540
     22 O                    -0.466134
     23 C                    -0.205260
     24 H                     0.139162
     25 H                     0.109145
     26 H                     0.109025
     27 C                    -0.199619
     28 H                     0.135241
     29 H                     0.111652
     30 H                     0.112750
     31 C                    -0.074891
     32 S                    -0.017631
     33 C                    -0.176323
     34 C                    -0.150287
     35 C                    -0.229932
     36 H                     0.228533
     37 H                     0.191655
     38 H                     0.214965
     39 H                     0.137014
     40 H                     0.137501
     41 H                     0.198335
  ----------------------------------------
  Sum of atomic charges =     0.000000

 -----------------------------------------------------------------
                    Cartesian Multipole Moments
 -----------------------------------------------------------------
    Charge (ESU x 10^10)
                 0.0000
    Dipole Moment (Debye)
         X       3.3840      Y       1.8319      Z      -2.6601
       Tot       4.6780
    Quadrupole Moments (Debye-Ang)
        XX    -159.3459     XY       1.3392     YY    -184.9146
        XZ      10.5044     YZ       9.4535     ZZ    -184.2751
    Octopole Moments (Debye-Ang^2)
       XXX    -110.5247    XXY     507.8192    XYY      -4.7896
       YYY    1719.1243    XXZ       1.3916    XYZ     -39.3296
       YYZ     -60.5313    XZZ     -31.6562    YZZ     605.0535
       ZZZ     -18.8319
    Hexadecapole Moments (Debye-Ang^3)
      XXXX   -1156.3036   XXXY    -211.5570   XXYY   -2822.1808
      XYYY    -526.8948   YYYY  -17923.1715   XXXZ     910.1628
      XXYZ      84.5284   XYYZ     592.5947   YYYZ    1103.3287
      XXZZ   -1144.4155   XYZZ      29.6831   YYZZ   -4256.3114
      XZZZ    1006.0148   YZZZ      63.1988   ZZZZ   -5857.0873
 -----------------------------------------------------------------
 Total job time:  313.63s(wall), 9278.78s(cpu) 
 Wed Dec 27 10:08:47 2023

        *************************************************************
        *                                                           *
        *  Thank you very much for using Q-Chem.  Have a nice day.  *
        *                                                           *
        *************************************************************


0 sent ACK to 0 
now end server 0 ... 
cleanup process ... done
remove work dirs ./qchem1982187.0 -- ./qchem1982187.0
rm -rf ./qchem1982187.0
rm -rf ./qchem1982187
