You are running Q-Chem version: 5.4.0

#
# job setting
#
local host:  exp-2-23
current dir: /home/rramji/project-csd799/aromodel/pndit-qchem/hydrogenated-rotation-run
input file:  Dimethyl_Naphthalene_Dicarboximide_Phi_30_Theta_10_Thiophene_Hydrogenated.qcin
output file: 
nprocs     : 1
nthreads   : 64
#
# qchem installation setting
#
QC:          /cm/shared/apps/spack/cpu/opt/spack/linux-centos8-zen2/gcc-10.2.0/qchem-5.4-akfmr7b3t57bfs6qan3padb2wnb2i7cl
QCAUX:       /cm/shared/apps/spack/cpu/opt/spack/linux-centos8-zen2/gcc-10.2.0/qchem-5.4-akfmr7b3t57bfs6qan3padb2wnb2i7cl/qcaux
QCPROG:      /cm/shared/apps/spack/cpu/opt/spack/linux-centos8-zen2/gcc-10.2.0/qchem-5.4-akfmr7b3t57bfs6qan3padb2wnb2i7cl/exe/qcprog.exe
QCPROG_S:    /cm/shared/apps/spack/cpu/opt/spack/linux-centos8-zen2/gcc-10.2.0/qchem-5.4-akfmr7b3t57bfs6qan3padb2wnb2i7cl/exe/qcprog.exe_s
PARALLEL:    -DPARALLEL
QCMPI:       mpich
#
# qchem directory setting
#
qcrun:       qchem1323514
QCSCRATCH:   .
QCLOCALSCR:  
QCTMPDIR:    .
QCFILEPREF:  ./qchem1323514
QCSAVEDIR:   
workdirs:    ./qchem1323514
workdir0:    ./qchem1323514
partmpdirs =  
#
# parallel setting
#
QCRSH:           ssh
QCMPI:           mpich
QCMPIRUN:        /cm/shared/apps/spack/cpu/opt/spack/linux-centos8-zen2/gcc-10.2.0/qchem-5.4-akfmr7b3t57bfs6qan3padb2wnb2i7cl/bin/mpi/mpirun_qchem
QCMACHINEFILE:   ./qchem1323514/hostfile
exp-2-23

#
# env setting
#
exported envs:   QC QCAUX QCSCRATCH QCRUNNAME QCFILEPREF QCPROG QCPROG_S GUIFILE

Running Job 1 of 1 Dimethyl_Naphthalene_Dicarboximide_Phi_30_Theta_10_Thiophene_Hydrogenated.qcin
qchem Dimethyl_Naphthalene_Dicarboximide_Phi_30_Theta_10_Thiophene_Hydrogenated.qcin_1323514.0 ./qchem1323514/ 1
/cm/shared/apps/spack/cpu/opt/spack/linux-centos8-zen2/gcc-10.2.0/qchem-5.4-akfmr7b3t57bfs6qan3padb2wnb2i7cl/bin/mpi/mpirun_qchem -machinefile ./qchem1323514/hostfile -np 1 /cm/shared/apps/spack/cpu/opt/spack/linux-centos8-zen2/gcc-10.2.0/qchem-5.4-akfmr7b3t57bfs6qan3padb2wnb2i7cl/exe/qcprog.exe Dimethyl_Naphthalene_Dicarboximide_Phi_30_Theta_10_Thiophene_Hydrogenated.qcin_1323514.0 ./qchem1323514/

Process 0 of 1 is on exp-2-23 - thread support 0
initial socket setup ...start
initial socket setup ...done 
now start server 0 ... 
                  Welcome to Q-Chem
     A Quantum Leap Into The Future Of Chemistry


 Q-Chem 5.4, Q-Chem, Inc., Pleasanton, CA (2021)

 License issued to: University of California, San Diego (site)

 E. Epifanovsky,  A. T. B. Gilbert,  Xintian Feng,  Joonho Lee,  Yuezhi Mao,  
 N. Mardirossian,  P. Pokhilko,  A. White,  M. Wormit,  M. P. Coons,  
 A. L. Dempwolff,  Zhengting Gan,  D. Hait,  P. R. Horn,  L. D. Jacobson,  
 I. Kaliman,  J. Kussmann,  A. W. Lange,  Ka Un Lao,  D. S. Levine,  Jie Liu,  
 S. C. McKenzie,  A. F. Morrison,  K. Nanda,  F. Plasser,  D. R. Rehn,  
 M. L. Vidal,  Zhi-Qiang You,  Ying Zhu,  B. Alam,  B. Albrecht,  
 A. Aldossary,  E. Alguire,  J. H. Andersen,  D. Barton,  K. Begam,  A. Behn,  
 Y. A. Bernard,  E. J. Berquist,  H. Burton,  A. Carreras,  K. Carter-Fenk,  
 R. Chakraborty,  A. D. Chien,  K. D. Closser,  V. Cofer-Shabica,  
 S. Dasgupta,  Jia Deng,  M. de Wergifosse,  M. Diedenhofen,  Hainam Do,  
 S. Ehlert,  Po-Tung Fang,  S. Fatehi,  Qingguo Feng,  J. Gayvert,  
 Qinghui Ge,  G. Gidofalvi,  M. Goldey,  J. Gomes,  C. Gonzalez-Espinoza,  
 S. Gulania,  A. Gunina,  M. W. D. Hanson-Heine,  P. H. P. Harbach,  
 A. W. Hauser,  M. F. Herbst,  M. Hernandez Vera,  M. Hodecker,  
 Z. C. Holden,  S. Houck,  Xunkun Huang,  Kerwin Hui,  B. C. Huynh,  
 M. Ivanov,  Hyunjun Ji,  Hanjie Jiang,  B. Kaduk,  S. Kaehler,  
 K. Khistyaev,  Jaehoon Kim,  P. Klunzinger,  Z. Koczor-Benda,  
 Joong Hoon Koh,  D. Kosenkov,  L. Koulias,  T. Kowalczyk,  C. M. Krauter,  
 K. Kue,  A. Kunitsa,  T. Kus,  A. Landau,  K. V. Lawler,  D. Lefrancois,  
 S. Lehtola,  Rain Li,  Yi-Pei Li,  Jiashu Liang,  M. Liebenthal,  
 Hung-Hsuan Lin,  You-Sheng Lin,  Fenglai Liu,  Kuan-Yu Liu,  
 M. Loipersberger,  A. Luenser,  A. Manjanath,  P. Manohar,  E. Mansoor,  
 S. F. Manzer,  Shan-Ping Mao,  A. V. Marenich,  T. Markovich,  S. Mason,  
 S. A. Maurer,  P. F. McLaughlin,  M. F. S. J. Menger,  J.-M. Mewes,  
 S. A. Mewes,  P. Morgante,  J. W. Mullinax,  T. S. Nguyen-Beck,  
 K. J. Oosterbaan,  G. Paran,  Alexander C. Paul,  Suranjan K. Paul,  
 F. Pavosevic,  Zheng Pei,  S. Prager,  E. I. Proynov,  E. Ramos,  B. Rana,  
 A. E. Rask,  A. Rettig,  R. M. Richard,  F. Rob,  E. Rossomme,  T. Scheele,  
 M. Scheurer,  M. Schneider,  N. Sergueev,  S. M. Sharada,  W. Skomorowski,  
 D. W. Small,  C. J. Stein,  Yu-Chuan Su,  E. J. Sundstrom,  Zhen Tao,  
 J. Thirman,  T. Tsuchimochi,  N. M. Tubman,  S. P. Veccham,  O. Vydrov,  
 J. Wenzel,  J. Witte,  A. Yamada,  Kun Yao,  S. Yeganeh,  S. R. Yost,  
 A. Zech,  Igor Ying Zhang,  Xing Zhang,  Yu Zhang,  D. Zuev,  
 A. Aspuru-Guzik,  A. T. Bell,  N. A. Besley,  K. B. Bravaya,  B. R. Brooks,  
 D. Casanova,  Jeng-Da Chai,  S. Coriani,  C. J. Cramer,  
 A. E. DePrince, III,  R. A. DiStasio Jr.,  A. Dreuw,  B. D. Dunietz,  
 T. R. Furlani,  W. A. Goddard III,  S. Grimme,  S. Hammes-Schiffer,  
 T. Head-Gordon,  W. J. Hehre,  Chao-Ping Hsu,  T.-C. Jagau,  Yousung Jung,  
 A. Klamt,  Jing Kong,  D. S. Lambrecht,  WanZhen Liang,  N. J. Mayhall,  
 C. W. McCurdy,  J. B. Neaton,  C. Ochsenfeld,  J. A. Parkhill,  R. Peverati,  
 V. A. Rassolov,  Yihan Shao,  L. V. Slipchenko,  T. Stauch,  R. P. Steele,  
 J. E. Subotnik,  A. J. W. Thom,  A. Tkatchenko,  D. G. Truhlar,  
 T. Van Voorhis,  T. A. Wesolowski,  K. B. Whaley,  H. L. Woodcock III,  
 P. M. Zimmerman,  S. Faraji,  P. M. W. Gill,  M. Head-Gordon,  
 J. M. Herbert,  A. I. Krylov

 Contributors to earlier versions of Q-Chem not listed above: 
 R. D. Adamson,  B. Austin,  R. Baer,  J. Baker,  G. J. O. Beran,  
 K. Brandhorst,  S. T. Brown,  E. F. C. Byrd,  A. K. Chakraborty,  
 G. K. L. Chan,  Chun-Min Chang,  Yunqing Chen,  C.-L. Cheng,  
 Siu Hung Chien,  D. M. Chipman,  D. L. Crittenden,  H. Dachsel,  
 R. J. Doerksen,  A. D. Dutoi,  R. G. Edgar,  J. Fosso-Tande,  
 L. Fusti-Molnar,  D. Ghosh,  A. Ghysels,  A. Golubeva-Zadorozhnaya,  
 J. Gonthier,  M. S. Gordon,  S. R. Gwaltney,  G. Hawkins,  J. E. Herr,  
 A. Heyden,  S. Hirata,  E. G. Hohenstein,  G. Kedziora,  F. J. Keil,  
 C. Kelley,  Jihan Kim,  R. A. King,  R. Z. Khaliullin,  P. P. Korambath,  
 W. Kurlancheek,  A. Laurent,  A. M. Lee,  M. S. Lee,  S. V. Levchenko,  
 Ching Yeh Lin,  D. Liotard,  E. Livshits,  R. C. Lochan,  I. Lotan,  
 L. A. Martinez-Martinez,  P. E. Maslen,  N. Nair,  D. P. O'Neill,  
 D. Neuhauser,  E. Neuscamman,  C. M. Oana,  R. Olivares-Amaya,  R. Olson,  
 T. M. Perrine,  B. Peters,  P. A. Pieniazek,  A. Prociuk,  Y. M. Rhee,  
 J. Ritchie,  M. A. Rohrdanz,  E. Rosta,  N. J. Russ,  H. F. Schaefer III,  
 M. W. Schmidt,  N. E. Schultz,  S. Sharma,  N. Shenvi,  C. D. Sherrill,  
 A. C. Simmonett,  A. Sodt,  T. Stein,  D. Stuck,  K. S. Thanthiriwatte,  
 V. Vanovschi,  L. Vogt,  Tao Wang,  A. Warshel,  M. A. Watson,  
 C. F. Williams,  Q. Wu,  X. Xu,  Jun Yang,  W. Zhang,  Yan Zhao

 Please cite Q-Chem as follows:
 Y. Shao et al., Mol. Phys. 113, 184-215 (2015)
 DOI: 10.1080/00268976.2014.952696

 Q-Chem 5.4.0 for Intel X86 EM64T Linux

 Parts of Q-Chem use Armadillo 9.800.1 (Horizon Scraper).
 http://arma.sourceforge.net/

 Q-Chem begins on Wed Dec 27 09:56:37 2023  

 Host: 
0

     Scratch files written to ./qchem1323514//
 May1621 |scratch|qcdevops|jenkins|workspace|build_RNUM    
 Parallel job on  1  processors
 Processing $rem in /cm/shared/apps/spack/cpu/opt/spack/linux-centos8-zen2/gcc-10.2.0/qchem-5.4-akfmr7b3t57bfs6qan3padb2wnb2i7cl/config/preferences:
 Processing $rem in /home/rramji/.qchemrc:
 Symmetry turned off for PCM/SM12/SMD calculation
 Core orbitals will be frozen

 Checking the input file for inconsistencies... 	...done.

 Q-Chem warning in module forms1/BasisType.C, line 2236:

 You are not using the predefined 5D/6D in this basis set.


--------------------------------------------------------------
User input:
--------------------------------------------------------------
$molecule
0 1
C	0.043160	-6.741404	-0.253280
C	0.269777	-6.155638	-1.539213
C	-0.145543	-5.791452	0.814295
C	0.318377	-4.803786	-1.813519
H	0.422058	-6.821518	-2.403941
C	-0.094194	-4.378638	0.527140
C	0.137191	-3.838032	-0.783072
C	-0.275104	-3.413062	1.556403
C	0.188116	-2.426473	-1.067932
C	-0.226701	-2.059348	1.285420
C	-0.000000	-1.478216	-0.000000
H	-0.378931	-1.394783	2.151147
C	-0.397845	-6.187987	2.234582
C	-0.523637	-3.798164	2.965273
N	-0.567586	-5.170003	3.204744
C	0.567421	-4.424987	-3.226257
C	0.439541	-2.036627	-2.489446
N	0.609650	-3.049156	-3.459801
O	-0.468608	-7.353131	2.619468
O	-0.683034	-2.986854	3.874668
O	0.725131	-5.248946	-4.124806
O	0.512648	-0.878829	-2.895819
C	-0.813908	-5.563799	4.595691
H	-0.822891	-6.664085	4.640022
H	-1.781600	-5.147101	4.934830
H	-0.020360	-5.148785	5.246157
C	0.851649	-2.587487	-4.829716
H	0.962191	-3.483329	-5.462742
H	1.765865	-1.964972	-4.863242
H	0.005383	-1.962932	-5.173521
C	0.000000	0.000000	0.000000
S	0.396411	0.687007	1.580530
C	1.215245	2.105322	0.904911
C	0.498850	0.864369	-0.985400
C	1.158885	2.007781	-0.493528
H	0.381046	0.660280	-2.059934
H	1.599289	2.770727	-1.152593
H	1.655514	2.868056	1.556025
H	0.909181	-7.361589	0.008120
H	-0.860264	-7.361192	-0.304668
H	1.063500	-1.478831	0.188062
$end

$rem
JOBTYPE		SP
EXCHANGE	HF
CORRELATION	pRIMP2
BASIS		cc-pvtz
METHOD		rimp2
AUX_BASIS	rimp2-cc-pvtz
SOLVENT_METHOD	PCM
PURECART	11111
SYMMETRY	false
MEM_TOTAL	110000
SCF_CONVERGENCE = 6
THRESH=10
GUI = 2
$end



$solvent
dielectric 4.90
$end
--------------------------------------------------------------
 ----------------------------------------------------------------
             Standard Nuclear Orientation (Angstroms)
    I     Atom           X                Y                Z
 ----------------------------------------------------------------
    1      C       0.0431600000    -6.7414040000    -0.2532800000
    2      C       0.2697770000    -6.1556380000    -1.5392130000
    3      C      -0.1455430000    -5.7914520000     0.8142950000
    4      C       0.3183770000    -4.8037860000    -1.8135190000
    5      H       0.4220580000    -6.8215180000    -2.4039410000
    6      C      -0.0941940000    -4.3786380000     0.5271400000
    7      C       0.1371910000    -3.8380320000    -0.7830720000
    8      C      -0.2751040000    -3.4130620000     1.5564030000
    9      C       0.1881160000    -2.4264730000    -1.0679320000
   10      C      -0.2267010000    -2.0593480000     1.2854200000
   11      C       0.0000000000    -1.4782160000     0.0000000000
   12      H      -0.3789310000    -1.3947830000     2.1511470000
   13      C      -0.3978450000    -6.1879870000     2.2345820000
   14      C      -0.5236370000    -3.7981640000     2.9652730000
   15      N      -0.5675860000    -5.1700030000     3.2047440000
   16      C       0.5674210000    -4.4249870000    -3.2262570000
   17      C       0.4395410000    -2.0366270000    -2.4894460000
   18      N       0.6096500000    -3.0491560000    -3.4598010000
   19      O      -0.4686080000    -7.3531310000     2.6194680000
   20      O      -0.6830340000    -2.9868540000     3.8746680000
   21      O       0.7251310000    -5.2489460000    -4.1248060000
   22      O       0.5126480000    -0.8788290000    -2.8958190000
   23      C      -0.8139080000    -5.5637990000     4.5956910000
   24      H      -0.8228910000    -6.6640850000     4.6400220000
   25      H      -1.7816000000    -5.1471010000     4.9348300000
   26      H      -0.0203600000    -5.1487850000     5.2461570000
   27      C       0.8516490000    -2.5874870000    -4.8297160000
   28      H       0.9621910000    -3.4833290000    -5.4627420000
   29      H       1.7658650000    -1.9649720000    -4.8632420000
   30      H       0.0053830000    -1.9629320000    -5.1735210000
   31      C       0.0000000000     0.0000000000     0.0000000000
   32      S       0.3964110000     0.6870070000     1.5805300000
   33      C       1.2152450000     2.1053220000     0.9049110000
   34      C       0.4988500000     0.8643690000    -0.9854000000
   35      C       1.1588850000     2.0077810000    -0.4935280000
   36      H       0.3810460000     0.6602800000    -2.0599340000
   37      H       1.5992890000     2.7707270000    -1.1525930000
   38      H       1.6555140000     2.8680560000     1.5560250000
   39      H       0.9091810000    -7.3615890000     0.0081200000
   40      H      -0.8602640000    -7.3611920000    -0.3046680000
   41      H       1.0635000000    -1.4788310000     0.1880620000
 ----------------------------------------------------------------
 Nuclear Repulsion Energy =        2564.00172406 hartrees
 There are       98 alpha and       98 beta electrons
 Requested basis set is cc-pVTZ
 There are 356 shells and 1010 basis functions

 Total QAlloc Memory Limit 110000 MB
 Mega-Array Size       188 MB
 MEM_STATIC part       192 MB
 Discretize the solute cavity surface with Lebedev spheres
	Using 110 Lebedev grid points for each H atom
	Using 194 Lebedev grid points for other atoms
	Atomic van der Waals radii will be scaled by 1.20
 Remove points where switching function is < 1.0e-08
 Keep 2598 surface tesserae and discard 4180 interior tesserae
 Molecular Surface Area = 359.890 Angst**2
 Requested basis set is rimp2-cc-pVTZ
 There are 770 shells and 2648 basis functions
 A cutoff of  1.0D-10 yielded  34473 shell pairs
 There are    260595 function pairs (    337190 Cartesian)
 Smallest overlap matrix eigenvalue = 9.21E-06

 Q-Chem warning in module stvman/mkSTV.C, line 323:

 Overlap eigenvalue is smaller than square root of threshold
 Use THRESH >= 12 to get rid of this warning


 Scale SEOQF with 1.000000e-01/1.000000e-02/1.000000e-02

 Standard Electronic Orientation quadrupole field applied
 Nucleus-field energy     =     0.0000000117 hartrees
 Guess from superposition of atomic densities
 Warning:  Energy on first SCF cycle will be non-variational
 SAD guess density has 196.000000 electrons

 -----------------------------------------------------------------------
  General SCF calculation program by
  Eric Jon Sundstrom, Paul Horn, Yuezhi Mao, Dmitri Zuev, Alec White,
  David Stuck, Shaama M.S., Shane Yost, Joonho Lee, David Small,
  Daniel Levine, Susi Lehtola, Hugh Burton, Evgeny Epifanovsky,
  Bang C. Huynh
 -----------------------------------------------------------------------
 Hartree-Fock
 using 64 threads for integral computing
 -------------------------------------------------------
 OpenMP Integral computing Module                
 Release: version 1.0, May 2013, Q-Chem Inc. Pittsburgh 
 -------------------------------------------------------
 A restricted SCF calculation will be
 performed using DIIS
 SCF converges when DIIS error is below 1.0e-06
 ---------------------------------------
  Cycle       Energy         DIIS error
 ---------------------------------------
    1   -1583.2552620308      1.87e-02  
    2   -1571.1335362805      2.03e-03  
    3   -1571.4762991976      1.54e-03  
    4   -1571.6959510897      2.55e-04  
    5   -1571.7099591729      7.91e-05  
    6   -1571.7114132795      3.05e-05  
    7   -1571.7118470925      1.55e-05  
    8   -1571.7119629022      6.13e-06  
    9   -1571.7119822013      2.80e-06  
   10   -1571.7119858753      1.19e-06  
   11   -1571.7119870008      5.71e-07  Convergence criterion met
 ---------------------------------------
 SCF time:   CPU 7053.89s  wall 268.00s 

************** Final PCM Free Energy Summary **************
 G_electrostatic  =      -0.02669830 hartree =     -16.75343586 kcal/mol
 G_cavitation     =       0.00000000 hartree =       0.00000000 kcal/mol
 G_dispersion     =       0.00000000 hartree =       0.00000000 kcal/mol
 G_repulsion      =       0.00000000 hartree =       0.00000000 kcal/mol
 --------------------------------------------------
 Non-electrostatic Free Energy =       0.00000000 hartree =       0.00000000 kcal/mol
 Total                         =      -0.02669830 hartree =     -16.75343586 kcal/mol
 --------------------------------------------------
 SCF Energy (H0 + V/2)                       =   -1571.71198700 
 Solute Internal Energy (H0)                 =   -1571.68528870 
 Total Free Energy (H0 + V/2 + non-elec)     =   -1571.71198700 hartree
                                             = -986264.15752725 kcal/mol
***********************************************************

 SCF   energy in the final basis set =    -1571.7119870008
 Total energy in the final basis set =    -1571.7119870008


 --------------------------------------------------------------
  Generalized many-body perturbation theory program
  by Joonho Lee, Fazle Rob, Xintian Feng, Evgeny Epifanovsky

 No regularization used 
 (reg. param. = 0.0000e+00)
  (P|Q)^-1/2 Time:  CPU 137.90 s  wall 2.79 s

 In RI-MP2 calculation: 
 # of frozen core orbitals: 31

 Components of the RIMP2 correlation energy:
        aaaa    correlation energy =        -0.6169488349 a.u.
        abab    correlation energy =        -3.4292483589 a.u.
        bbbb    correlation energy =        -0.6169488349 a.u.
        non-Brillouin singles      =        -0.0000000000 a.u.
        total same-spin energy     =        -1.2338976698 a.u.
        total opposite-spin energy =        -3.4292483589 a.u.

 Total  RIMP2   correlation energy =        -4.6631460287 a.u.
        RIMP2         total energy =     -1576.3751330296 a.u.

 RI-MP2 Energy Time:  CPU 1952.59 s  wall 32.53 s
 
 --------------------------------------------------------------
 
                    Orbital Energies (a.u.)
 --------------------------------------------------------------
 
 Alpha MOs
 -- Occupied --
-91.9867 -20.5532 -20.5460 -20.5421 -20.5410 -15.6297 -15.6215 -11.3989
-11.3867 -11.3839 -11.3795 -11.3095 -11.3079 -11.3059 -11.3050 -11.2975
-11.2905 -11.2898 -11.2796 -11.2701 -11.2690 -11.2663 -11.2647 -11.2594
-11.2534 -11.2458 -11.2356  -8.9873  -6.6681  -6.6676  -6.6669  -1.4253
 -1.4125  -1.4008  -1.3917  -1.2654  -1.2559  -1.2320  -1.1888  -1.1497
 -1.1148  -1.0865  -1.0485  -0.9961  -0.9888  -0.9827  -0.9559  -0.9484
 -0.8979  -0.8901  -0.8783  -0.8614  -0.7937  -0.7811  -0.7733  -0.7596
 -0.7399  -0.7246  -0.7023  -0.6892  -0.6818  -0.6748  -0.6683  -0.6582
 -0.6493  -0.6477  -0.6379  -0.6322  -0.6315  -0.6301  -0.6242  -0.6051
 -0.5925  -0.5705  -0.5637  -0.5623  -0.5574  -0.5524  -0.5520  -0.5487
 -0.5480  -0.5424  -0.5176  -0.5140  -0.5083  -0.4840  -0.4733  -0.4601
 -0.4571  -0.4476  -0.4420  -0.4362  -0.4166  -0.4081  -0.3580  -0.3478
 -0.3319  -0.2767
 -- Virtual --
  0.0114   0.0391   0.0841   0.0944   0.1461   0.1505   0.1588   0.1602
  0.1635   0.1691   0.1776   0.1790   0.1885   0.1964   0.2035   0.2057
  0.2145   0.2248   0.2273   0.2286   0.2326   0.2362   0.2486   0.2626
  0.2646   0.2739   0.3027   0.3102   0.3213   0.3224   0.3268   0.3345
  0.3382   0.3396   0.3439   0.3527   0.3568   0.3614   0.3642   0.3657
  0.3724   0.3853   0.3862   0.3876   0.3905   0.4008   0.4089   0.4131
  0.4183   0.4267   0.4300   0.4310   0.4390   0.4408   0.4451   0.4488
  0.4541   0.4582   0.4621   0.4654   0.4712   0.4817   0.4895   0.4969
  0.5006   0.5033   0.5052   0.5132   0.5154   0.5203   0.5230   0.5310
  0.5332   0.5345   0.5485   0.5508   0.5528   0.5597   0.5616   0.5650
  0.5735   0.5773   0.5821   0.5873   0.5890   0.5953   0.5990   0.6007
  0.6056   0.6074   0.6090   0.6124   0.6160   0.6218   0.6261   0.6281
  0.6301   0.6337   0.6353   0.6403   0.6442   0.6465   0.6514   0.6617
  0.6657   0.6686   0.6791   0.6830   0.6864   0.6873   0.6973   0.7012
  0.7122   0.7231   0.7310   0.7356   0.7382   0.7467   0.7564   0.7610
  0.7663   0.7703   0.7738   0.7823   0.7894   0.7951   0.8024   0.8048
  0.8083   0.8160   0.8252   0.8294   0.8351   0.8403   0.8423   0.8459
  0.8540   0.8574   0.8595   0.8684   0.8726   0.8755   0.8779   0.8906
  0.8951   0.9028   0.9092   0.9132   0.9202   0.9235   0.9287   0.9333
  0.9344   0.9431   0.9471   0.9516   0.9571   0.9646   0.9702   0.9801
  0.9867   0.9938   0.9966   1.0018   1.0049   1.0110   1.0170   1.0252
  1.0281   1.0330   1.0360   1.0461   1.0553   1.0607   1.0620   1.0637
  1.0698   1.0718   1.0731   1.0788   1.0848   1.0894   1.0973   1.1008
  1.1091   1.1171   1.1184   1.1251   1.1316   1.1334   1.1408   1.1460
  1.1482   1.1602   1.1641   1.1691   1.1776   1.1833   1.1863   1.1880
  1.1976   1.2006   1.2059   1.2095   1.2137   1.2212   1.2223   1.2293
  1.2366   1.2391   1.2456   1.2474   1.2566   1.2626   1.2651   1.2708
  1.2765   1.2864   1.2961   1.3061   1.3122   1.3257   1.3347   1.3437
  1.3462   1.3514   1.3578   1.3691   1.3749   1.3830   1.3865   1.3886
  1.3938   1.3954   1.4014   1.4046   1.4167   1.4223   1.4367   1.4427
  1.4530   1.4616   1.4647   1.4736   1.4774   1.4856   1.4962   1.4976
  1.5005   1.5031   1.5105   1.5143   1.5227   1.5280   1.5348   1.5412
  1.5455   1.5530   1.5572   1.5610   1.5668   1.5701   1.5750   1.5831
  1.5896   1.5999   1.6038   1.6098   1.6187   1.6266   1.6389   1.6437
  1.6477   1.6548   1.6648   1.6711   1.6812   1.6881   1.6949   1.7005
  1.7066   1.7176   1.7240   1.7366   1.7422   1.7464   1.7503   1.7615
  1.7675   1.7792   1.7877   1.7903   1.7948   1.7999   1.8105   1.8186
  1.8295   1.8402   1.8478   1.8504   1.8642   1.8668   1.8705   1.8739
  1.8765   1.8862   1.8914   1.9017   1.9162   1.9242   1.9423   1.9572
  1.9609   1.9678   1.9814   1.9895   1.9944   1.9971   2.0169   2.0287
  2.0325   2.0449   2.0600   2.0918   2.0972   2.1055   2.1219   2.1324
  2.1485   2.1581   2.1644   2.1784   2.1861   2.1963   2.2207   2.2274
  2.2394   2.2520   2.2612   2.2796   2.2905   2.2986   2.3059   2.3152
  2.3222   2.3335   2.3440   2.3521   2.3584   2.3649   2.3824   2.3913
  2.4104   2.4177   2.4267   2.4342   2.4459   2.4572   2.4606   2.4711
  2.4819   2.4931   2.5054   2.5114   2.5202   2.5376   2.5467   2.5592
  2.5626   2.5684   2.5838   2.5869   2.5926   2.6007   2.6105   2.6207
  2.6276   2.6373   2.6404   2.6481   2.6499   2.6628   2.6719   2.6787
  2.6825   2.6885   2.6947   2.7044   2.7209   2.7304   2.7338   2.7384
  2.7437   2.7484   2.7551   2.7644   2.7662   2.7818   2.7853   2.7999
  2.8200   2.8260   2.8400   2.8445   2.8579   2.8598   2.8675   2.8763
  2.8769   2.8892   2.8929   2.8958   2.8986   2.9051   2.9128   2.9155
  2.9195   2.9265   2.9371   2.9505   2.9576   2.9651   2.9666   2.9776
  2.9830   2.9909   2.9952   3.0032   3.0109   3.0195   3.0235   3.0292
  3.0329   3.0450   3.0485   3.0551   3.0704   3.0789   3.0846   3.0910
  3.0959   3.0995   3.1041   3.1054   3.1083   3.1095   3.1171   3.1272
  3.1364   3.1396   3.1456   3.1548   3.1622   3.1644   3.1712   3.1780
  3.1851   3.1946   3.1978   3.1996   3.2075   3.2127   3.2164   3.2255
  3.2323   3.2400   3.2450   3.2470   3.2544   3.2584   3.2612   3.2664
  3.2693   3.2783   3.2799   3.2860   3.2893   3.2977   3.3046   3.3105
  3.3129   3.3185   3.3230   3.3282   3.3299   3.3336   3.3348   3.3420
  3.3439   3.3494   3.3536   3.3578   3.3657   3.3673   3.3723   3.3770
  3.3824   3.3844   3.3888   3.3983   3.3999   3.4058   3.4096   3.4135
  3.4225   3.4271   3.4303   3.4327   3.4391   3.4422   3.4446   3.4551
  3.4606   3.4617   3.4690   3.4715   3.4774   3.4819   3.4875   3.4907
  3.4964   3.5005   3.5097   3.5109   3.5138   3.5204   3.5265   3.5333
  3.5401   3.5455   3.5533   3.5581   3.5642   3.5729   3.5801   3.5819
  3.5856   3.5928   3.6039   3.6057   3.6166   3.6202   3.6249   3.6270
  3.6293   3.6339   3.6394   3.6436   3.6458   3.6530   3.6605   3.6658
  3.6765   3.6828   3.6870   3.6906   3.6978   3.7030   3.7108   3.7179
  3.7214   3.7320   3.7356   3.7388   3.7446   3.7505   3.7556   3.7595
  3.7624   3.7690   3.7772   3.7811   3.7833   3.7920   3.7962   3.8054
  3.8127   3.8155   3.8260   3.8273   3.8332   3.8420   3.8428   3.8530
  3.8586   3.8629   3.8688   3.8753   3.8856   3.8898   3.9014   3.9061
  3.9162   3.9221   3.9281   3.9365   3.9393   3.9480   3.9546   3.9586
  3.9673   3.9708   3.9858   3.9878   3.9903   4.0002   4.0113   4.0136
  4.0214   4.0354   4.0432   4.0557   4.0583   4.0615   4.0744   4.0761
  4.0957   4.1042   4.1100   4.1208   4.1281   4.1363   4.1444   4.1514
  4.1584   4.1626   4.1690   4.1726   4.1764   4.1826   4.1902   4.1990
  4.2233   4.2273   4.2402   4.2482   4.2499   4.2559   4.2625   4.2689
  4.2749   4.2822   4.2869   4.2911   4.2942   4.3020   4.3052   4.3127
  4.3207   4.3282   4.3311   4.3344   4.3384   4.3432   4.3494   4.3612
  4.3671   4.3686   4.3717   4.3747   4.3793   4.3884   4.3979   4.4040
  4.4094   4.4130   4.4183   4.4251   4.4406   4.4486   4.4537   4.4607
  4.4831   4.4891   4.4942   4.5037   4.5073   4.5125   4.5289   4.5324
  4.5395   4.5505   4.5559   4.5673   4.5762   4.5798   4.5918   4.5931
  4.5984   4.6022   4.6120   4.6141   4.6208   4.6268   4.6352   4.6456
  4.6538   4.6673   4.6808   4.6839   4.6911   4.6956   4.7070   4.7163
  4.7225   4.7364   4.7550   4.7634   4.7754   4.7854   4.7950   4.8093
  4.8137   4.8184   4.8353   4.8451   4.8574   4.8581   4.8729   4.8799
  4.8946   4.8983   4.9178   4.9304   4.9464   4.9598   4.9645   4.9862
  4.9937   5.0100   5.0229   5.0240   5.0389   5.0397   5.0564   5.0632
  5.0828   5.1045   5.1091   5.1165   5.1216   5.1324   5.1355   5.1520
  5.1616   5.1708   5.1855   5.1908   5.1995   5.2167   5.2268   5.2525
  5.2616   5.2711   5.2841   5.2859   5.2959   5.3078   5.3287   5.3313
  5.3339   5.3403   5.3579   5.3685   5.3775   5.3881   5.4020   5.4151
  5.4358   5.4508   5.4761   5.4824   5.4939   5.5122   5.5129   5.5169
  5.5216   5.5395   5.5420   5.5550   5.5589   5.5670   5.5680   5.5734
  5.5848   5.5893   5.5965   5.6071   5.6173   5.6208   5.6267   5.6352
  5.6462   5.6492   5.6599   5.6661   5.6682   5.6700   5.6845   5.6937
  5.6989   5.7101   5.7208   5.7514   5.7605   5.7620   5.7718   5.7840
  5.7913   5.8065   5.8296   5.8382   5.8505   5.8602   5.8928   5.9112
  5.9337   5.9586   5.9673   5.9805   6.0050   6.0155   6.0378   6.0443
  6.0483   6.0643   6.1101   6.1162   6.1262   6.1422   6.1634   6.1884
  6.2035   6.2196   6.2232   6.2256   6.2502   6.2757   6.2829   6.2986
  6.3132   6.3158   6.3244   6.3595   6.3678   6.3975   6.4385   6.4891
  6.5230   6.5371   6.5735   6.5823   6.6002   6.6340   6.6564   6.6573
  6.6741   6.7170   6.8521   6.8562   6.8954   6.9015   6.9050   6.9269
  6.9281   6.9627   7.1054   7.1434   7.1577   7.2069   7.2170   7.2943
  7.3470   7.3514   7.3582   7.3672   7.4788   7.5470   7.5721   7.5844
  7.5941   7.6476   7.6572   7.6930   7.7095   7.8723   8.9312  10.0487
 10.4057  11.3341  11.5622  11.7914  11.9958  12.1799  12.4285  12.5423
 12.9718  13.2338  13.3882  13.5644  13.7995  13.9399  14.1183  14.2954
 14.3242  14.3779  14.5479  14.7402  15.0231  15.6191  15.8226  16.3072
 --------------------------------------------------------------
 
          Ground-State Mulliken Net Atomic Charges

     Atom                 Charge (a.u.)
  ----------------------------------------
      1 C                    -0.083804
      2 C                    -0.031712
      3 C                    -0.107442
      4 C                    -0.120546
      5 H                     0.198895
      6 C                     0.022496
      7 C                     0.122309
      8 C                    -0.057075
      9 C                    -0.206628
     10 C                    -0.154490
     11 C                     0.182634
     12 H                     0.183236
     13 C                     0.342490
     14 C                     0.345307
     15 N                    -0.090097
     16 C                     0.358075
     17 C                     0.386425
     18 N                    -0.087483
     19 O                    -0.493808
     20 O                    -0.506396
     21 O                    -0.500027
     22 O                    -0.476079
     23 C                    -0.204869
     24 H                     0.139500
     25 H                     0.109476
     26 H                     0.109377
     27 C                    -0.199058
     28 H                     0.134688
     29 H                     0.111689
     30 H                     0.112351
     31 C                     0.012615
     32 S                    -0.008916
     33 C                    -0.232782
     34 C                    -0.229878
     35 C                    -0.204938
     36 H                     0.224657
     37 H                     0.191513
     38 H                     0.213953
     39 H                     0.137995
     40 H                     0.138413
     41 H                     0.217934
  ----------------------------------------
  Sum of atomic charges =     0.000000

 -----------------------------------------------------------------
                    Cartesian Multipole Moments
 -----------------------------------------------------------------
    Charge (ESU x 10^10)
                 0.0000
    Dipole Moment (Debye)
         X       2.0620      Y       1.4633      Z      -2.3393
       Tot       3.4446
    Quadrupole Moments (Debye-Ang)
        XX    -160.7385     XY       1.7269     YY    -179.1306
        XZ       5.4971     YZ       9.1848     ZZ    -187.4735
    Octopole Moments (Debye-Ang^2)
       XXX     -79.0975    XXY     475.5165    XYY       1.1751
       YYY    1681.5011    XXZ      -0.6560    XYZ     -19.8624
       YYZ     -57.1914    XZZ     -21.2046    YZZ     606.4380
       ZZZ     -11.6337
    Hexadecapole Moments (Debye-Ang^3)
      XXXX    -507.8768   XXXY    -176.2838   XXYY   -2668.9572
      XYYY    -282.6989   YYYY  -17932.0945   XXXZ     468.7177
      XXYZ     104.5501   XYYZ     316.9485   YYYZ    1131.1050
      XXZZ   -1097.9532   XYZZ      12.3432   YYZZ   -4421.4092
      XZZZ     537.4450   YZZZ      18.6170   ZZZZ   -6420.6426
 -----------------------------------------------------------------
 Total job time:  305.11s(wall), 9121.58s(cpu) 
 Wed Dec 27 10:01:43 2023

        *************************************************************
        *                                                           *
        *  Thank you very much for using Q-Chem.  Have a nice day.  *
        *                                                           *
        *************************************************************


0 sent ACK to 0 
now end server 0 ... 
cleanup process ... done
remove work dirs ./qchem1323514.0 -- ./qchem1323514.0
rm -rf ./qchem1323514.0
rm -rf ./qchem1323514
