You are running Q-Chem version: 5.4.0

#
# job setting
#
local host:  exp-1-36
current dir: /home/rramji/project-csd799/aromodel/pndit-qchem/hydrogenated-rotation-run
input file:  Dimethyl_Naphthalene_Dicarboximide_Phi_0_Theta_150_Thiophene_Hydrogenated.qcin
output file: 
nprocs     : 1
nthreads   : 64
#
# qchem installation setting
#
QC:          /cm/shared/apps/spack/cpu/opt/spack/linux-centos8-zen2/gcc-10.2.0/qchem-5.4-akfmr7b3t57bfs6qan3padb2wnb2i7cl
QCAUX:       /cm/shared/apps/spack/cpu/opt/spack/linux-centos8-zen2/gcc-10.2.0/qchem-5.4-akfmr7b3t57bfs6qan3padb2wnb2i7cl/qcaux
QCPROG:      /cm/shared/apps/spack/cpu/opt/spack/linux-centos8-zen2/gcc-10.2.0/qchem-5.4-akfmr7b3t57bfs6qan3padb2wnb2i7cl/exe/qcprog.exe
QCPROG_S:    /cm/shared/apps/spack/cpu/opt/spack/linux-centos8-zen2/gcc-10.2.0/qchem-5.4-akfmr7b3t57bfs6qan3padb2wnb2i7cl/exe/qcprog.exe_s
PARALLEL:    -DPARALLEL
QCMPI:       mpich
#
# qchem directory setting
#
qcrun:       qchem2648325
QCSCRATCH:   .
QCLOCALSCR:  
QCTMPDIR:    .
QCFILEPREF:  ./qchem2648325
QCSAVEDIR:   
workdirs:    ./qchem2648325
workdir0:    ./qchem2648325
partmpdirs =  
#
# parallel setting
#
QCRSH:           ssh
QCMPI:           mpich
QCMPIRUN:        /cm/shared/apps/spack/cpu/opt/spack/linux-centos8-zen2/gcc-10.2.0/qchem-5.4-akfmr7b3t57bfs6qan3padb2wnb2i7cl/bin/mpi/mpirun_qchem
QCMACHINEFILE:   ./qchem2648325/hostfile
exp-1-36

#
# env setting
#
exported envs:   QC QCAUX QCSCRATCH QCRUNNAME QCFILEPREF QCPROG QCPROG_S GUIFILE

Running Job 1 of 1 Dimethyl_Naphthalene_Dicarboximide_Phi_0_Theta_150_Thiophene_Hydrogenated.qcin
qchem Dimethyl_Naphthalene_Dicarboximide_Phi_0_Theta_150_Thiophene_Hydrogenated.qcin_2648325.0 ./qchem2648325/ 1
/cm/shared/apps/spack/cpu/opt/spack/linux-centos8-zen2/gcc-10.2.0/qchem-5.4-akfmr7b3t57bfs6qan3padb2wnb2i7cl/bin/mpi/mpirun_qchem -machinefile ./qchem2648325/hostfile -np 1 /cm/shared/apps/spack/cpu/opt/spack/linux-centos8-zen2/gcc-10.2.0/qchem-5.4-akfmr7b3t57bfs6qan3padb2wnb2i7cl/exe/qcprog.exe Dimethyl_Naphthalene_Dicarboximide_Phi_0_Theta_150_Thiophene_Hydrogenated.qcin_2648325.0 ./qchem2648325/

Process 0 of 1 is on exp-1-36 - thread support 0
initial socket setup ...start
initial socket setup ...done 
now start server 0 ... 
                  Welcome to Q-Chem
     A Quantum Leap Into The Future Of Chemistry


 Q-Chem 5.4, Q-Chem, Inc., Pleasanton, CA (2021)

 License issued to: University of California, San Diego (site)

 E. Epifanovsky,  A. T. B. Gilbert,  Xintian Feng,  Joonho Lee,  Yuezhi Mao,  
 N. Mardirossian,  P. Pokhilko,  A. White,  M. Wormit,  M. P. Coons,  
 A. L. Dempwolff,  Zhengting Gan,  D. Hait,  P. R. Horn,  L. D. Jacobson,  
 I. Kaliman,  J. Kussmann,  A. W. Lange,  Ka Un Lao,  D. S. Levine,  Jie Liu,  
 S. C. McKenzie,  A. F. Morrison,  K. Nanda,  F. Plasser,  D. R. Rehn,  
 M. L. Vidal,  Zhi-Qiang You,  Ying Zhu,  B. Alam,  B. Albrecht,  
 A. Aldossary,  E. Alguire,  J. H. Andersen,  D. Barton,  K. Begam,  A. Behn,  
 Y. A. Bernard,  E. J. Berquist,  H. Burton,  A. Carreras,  K. Carter-Fenk,  
 R. Chakraborty,  A. D. Chien,  K. D. Closser,  V. Cofer-Shabica,  
 S. Dasgupta,  Jia Deng,  M. de Wergifosse,  M. Diedenhofen,  Hainam Do,  
 S. Ehlert,  Po-Tung Fang,  S. Fatehi,  Qingguo Feng,  J. Gayvert,  
 Qinghui Ge,  G. Gidofalvi,  M. Goldey,  J. Gomes,  C. Gonzalez-Espinoza,  
 S. Gulania,  A. Gunina,  M. W. D. Hanson-Heine,  P. H. P. Harbach,  
 A. W. Hauser,  M. F. Herbst,  M. Hernandez Vera,  M. Hodecker,  
 Z. C. Holden,  S. Houck,  Xunkun Huang,  Kerwin Hui,  B. C. Huynh,  
 M. Ivanov,  Hyunjun Ji,  Hanjie Jiang,  B. Kaduk,  S. Kaehler,  
 K. Khistyaev,  Jaehoon Kim,  P. Klunzinger,  Z. Koczor-Benda,  
 Joong Hoon Koh,  D. Kosenkov,  L. Koulias,  T. Kowalczyk,  C. M. Krauter,  
 K. Kue,  A. Kunitsa,  T. Kus,  A. Landau,  K. V. Lawler,  D. Lefrancois,  
 S. Lehtola,  Rain Li,  Yi-Pei Li,  Jiashu Liang,  M. Liebenthal,  
 Hung-Hsuan Lin,  You-Sheng Lin,  Fenglai Liu,  Kuan-Yu Liu,  
 M. Loipersberger,  A. Luenser,  A. Manjanath,  P. Manohar,  E. Mansoor,  
 S. F. Manzer,  Shan-Ping Mao,  A. V. Marenich,  T. Markovich,  S. Mason,  
 S. A. Maurer,  P. F. McLaughlin,  M. F. S. J. Menger,  J.-M. Mewes,  
 S. A. Mewes,  P. Morgante,  J. W. Mullinax,  T. S. Nguyen-Beck,  
 K. J. Oosterbaan,  G. Paran,  Alexander C. Paul,  Suranjan K. Paul,  
 F. Pavosevic,  Zheng Pei,  S. Prager,  E. I. Proynov,  E. Ramos,  B. Rana,  
 A. E. Rask,  A. Rettig,  R. M. Richard,  F. Rob,  E. Rossomme,  T. Scheele,  
 M. Scheurer,  M. Schneider,  N. Sergueev,  S. M. Sharada,  W. Skomorowski,  
 D. W. Small,  C. J. Stein,  Yu-Chuan Su,  E. J. Sundstrom,  Zhen Tao,  
 J. Thirman,  T. Tsuchimochi,  N. M. Tubman,  S. P. Veccham,  O. Vydrov,  
 J. Wenzel,  J. Witte,  A. Yamada,  Kun Yao,  S. Yeganeh,  S. R. Yost,  
 A. Zech,  Igor Ying Zhang,  Xing Zhang,  Yu Zhang,  D. Zuev,  
 A. Aspuru-Guzik,  A. T. Bell,  N. A. Besley,  K. B. Bravaya,  B. R. Brooks,  
 D. Casanova,  Jeng-Da Chai,  S. Coriani,  C. J. Cramer,  
 A. E. DePrince, III,  R. A. DiStasio Jr.,  A. Dreuw,  B. D. Dunietz,  
 T. R. Furlani,  W. A. Goddard III,  S. Grimme,  S. Hammes-Schiffer,  
 T. Head-Gordon,  W. J. Hehre,  Chao-Ping Hsu,  T.-C. Jagau,  Yousung Jung,  
 A. Klamt,  Jing Kong,  D. S. Lambrecht,  WanZhen Liang,  N. J. Mayhall,  
 C. W. McCurdy,  J. B. Neaton,  C. Ochsenfeld,  J. A. Parkhill,  R. Peverati,  
 V. A. Rassolov,  Yihan Shao,  L. V. Slipchenko,  T. Stauch,  R. P. Steele,  
 J. E. Subotnik,  A. J. W. Thom,  A. Tkatchenko,  D. G. Truhlar,  
 T. Van Voorhis,  T. A. Wesolowski,  K. B. Whaley,  H. L. Woodcock III,  
 P. M. Zimmerman,  S. Faraji,  P. M. W. Gill,  M. Head-Gordon,  
 J. M. Herbert,  A. I. Krylov

 Contributors to earlier versions of Q-Chem not listed above: 
 R. D. Adamson,  B. Austin,  R. Baer,  J. Baker,  G. J. O. Beran,  
 K. Brandhorst,  S. T. Brown,  E. F. C. Byrd,  A. K. Chakraborty,  
 G. K. L. Chan,  Chun-Min Chang,  Yunqing Chen,  C.-L. Cheng,  
 Siu Hung Chien,  D. M. Chipman,  D. L. Crittenden,  H. Dachsel,  
 R. J. Doerksen,  A. D. Dutoi,  R. G. Edgar,  J. Fosso-Tande,  
 L. Fusti-Molnar,  D. Ghosh,  A. Ghysels,  A. Golubeva-Zadorozhnaya,  
 J. Gonthier,  M. S. Gordon,  S. R. Gwaltney,  G. Hawkins,  J. E. Herr,  
 A. Heyden,  S. Hirata,  E. G. Hohenstein,  G. Kedziora,  F. J. Keil,  
 C. Kelley,  Jihan Kim,  R. A. King,  R. Z. Khaliullin,  P. P. Korambath,  
 W. Kurlancheek,  A. Laurent,  A. M. Lee,  M. S. Lee,  S. V. Levchenko,  
 Ching Yeh Lin,  D. Liotard,  E. Livshits,  R. C. Lochan,  I. Lotan,  
 L. A. Martinez-Martinez,  P. E. Maslen,  N. Nair,  D. P. O'Neill,  
 D. Neuhauser,  E. Neuscamman,  C. M. Oana,  R. Olivares-Amaya,  R. Olson,  
 T. M. Perrine,  B. Peters,  P. A. Pieniazek,  A. Prociuk,  Y. M. Rhee,  
 J. Ritchie,  M. A. Rohrdanz,  E. Rosta,  N. J. Russ,  H. F. Schaefer III,  
 M. W. Schmidt,  N. E. Schultz,  S. Sharma,  N. Shenvi,  C. D. Sherrill,  
 A. C. Simmonett,  A. Sodt,  T. Stein,  D. Stuck,  K. S. Thanthiriwatte,  
 V. Vanovschi,  L. Vogt,  Tao Wang,  A. Warshel,  M. A. Watson,  
 C. F. Williams,  Q. Wu,  X. Xu,  Jun Yang,  W. Zhang,  Yan Zhao

 Please cite Q-Chem as follows:
 Y. Shao et al., Mol. Phys. 113, 184-215 (2015)
 DOI: 10.1080/00268976.2014.952696

 Q-Chem 5.4.0 for Intel X86 EM64T Linux

 Parts of Q-Chem use Armadillo 9.800.1 (Horizon Scraper).
 http://arma.sourceforge.net/

 Q-Chem begins on Wed Dec 27 11:11:14 2023  

 Host: 
0

     Scratch files written to ./qchem2648325//
 May1621 |scratch|qcdevops|jenkins|workspace|build_RNUM    
 Parallel job on  1  processors
 Processing $rem in /cm/shared/apps/spack/cpu/opt/spack/linux-centos8-zen2/gcc-10.2.0/qchem-5.4-akfmr7b3t57bfs6qan3padb2wnb2i7cl/config/preferences:
 Processing $rem in /home/rramji/.qchemrc:
 Symmetry turned off for PCM/SM12/SMD calculation
 Core orbitals will be frozen

 Checking the input file for inconsistencies... 	...done.

 Q-Chem warning in module forms1/BasisType.C, line 2236:

 You are not using the predefined 5D/6D in this basis set.


--------------------------------------------------------------
User input:
--------------------------------------------------------------
$molecule
0 1
C	0.129743	-6.741404	0.221766
C	0.782726	-6.155638	1.352515
C	-0.411926	-5.791452	-0.717339
C	0.921816	-4.803786	1.593885
H	1.221908	-6.821518	2.112819
C	-0.266682	-4.378638	-0.464360
C	0.398255	-3.838032	0.688053
C	-0.789694	-3.413062	-1.369108
C	0.542349	-2.426473	0.939002
C	-0.652589	-2.059348	-1.130409
C	-0.000000	-1.478216	-0.000000
H	-1.092453	-1.394783	-1.891446
C	-1.131595	-6.187987	-1.967519
C	-1.504912	-3.798164	-2.608118
N	-1.625174	-5.170003	-2.819813
C	1.639129	-4.424987	2.836188
C	1.263477	-2.036627	2.189558
N	1.756898	-3.049156	3.042237
O	-1.324787	-7.353131	-2.307845
O	-1.967354	-2.986854	-3.407213
O	2.095892	-5.248946	3.625890
O	1.468685	-0.878829	2.547850
C	-2.330564	-5.563799	-4.043674
H	-2.352178	-6.664085	-4.083407
H	-1.807263	-5.147101	-4.925490
H	-3.356568	-5.148785	-4.031877
C	2.452080	-2.587487	4.247206
H	2.774302	-3.483329	4.803187
H	1.773301	-1.964972	4.860536
H	3.321351	-1.962932	3.966607
C	0.000000	0.000000	0.000000
S	-0.000201	0.793171	1.580530
C	-0.000228	2.430885	0.904911
C	-0.000168	0.997990	-0.985400
C	-0.000267	2.318231	-0.493528
H	-0.000145	0.762343	-2.059934
H	-0.000339	3.199164	-1.152593
H	-0.000311	3.311566	1.556025
H	-0.701693	-7.361589	0.578191
H	0.854838	-7.361192	-0.319578
H	-0.935572	-1.478831	0.539540
$end

$rem
JOBTYPE		SP
EXCHANGE	HF
CORRELATION	pRIMP2
BASIS		cc-pvtz
METHOD		rimp2
AUX_BASIS	rimp2-cc-pvtz
SOLVENT_METHOD	PCM
PURECART	11111
SYMMETRY	false
MEM_TOTAL	110000
SCF_CONVERGENCE = 6
THRESH=10
GUI = 2
$end



$solvent
dielectric 4.90
$end
--------------------------------------------------------------
 ----------------------------------------------------------------
             Standard Nuclear Orientation (Angstroms)
    I     Atom           X                Y                Z
 ----------------------------------------------------------------
    1      C       0.1297430000    -6.7414040000     0.2217660000
    2      C       0.7827260000    -6.1556380000     1.3525150000
    3      C      -0.4119260000    -5.7914520000    -0.7173390000
    4      C       0.9218160000    -4.8037860000     1.5938850000
    5      H       1.2219080000    -6.8215180000     2.1128190000
    6      C      -0.2666820000    -4.3786380000    -0.4643600000
    7      C       0.3982550000    -3.8380320000     0.6880530000
    8      C      -0.7896940000    -3.4130620000    -1.3691080000
    9      C       0.5423490000    -2.4264730000     0.9390020000
   10      C      -0.6525890000    -2.0593480000    -1.1304090000
   11      C       0.0000000000    -1.4782160000     0.0000000000
   12      H      -1.0924530000    -1.3947830000    -1.8914460000
   13      C      -1.1315950000    -6.1879870000    -1.9675190000
   14      C      -1.5049120000    -3.7981640000    -2.6081180000
   15      N      -1.6251740000    -5.1700030000    -2.8198130000
   16      C       1.6391290000    -4.4249870000     2.8361880000
   17      C       1.2634770000    -2.0366270000     2.1895580000
   18      N       1.7568980000    -3.0491560000     3.0422370000
   19      O      -1.3247870000    -7.3531310000    -2.3078450000
   20      O      -1.9673540000    -2.9868540000    -3.4072130000
   21      O       2.0958920000    -5.2489460000     3.6258900000
   22      O       1.4686850000    -0.8788290000     2.5478500000
   23      C      -2.3305640000    -5.5637990000    -4.0436740000
   24      H      -2.3521780000    -6.6640850000    -4.0834070000
   25      H      -1.8072630000    -5.1471010000    -4.9254900000
   26      H      -3.3565680000    -5.1487850000    -4.0318770000
   27      C       2.4520800000    -2.5874870000     4.2472060000
   28      H       2.7743020000    -3.4833290000     4.8031870000
   29      H       1.7733010000    -1.9649720000     4.8605360000
   30      H       3.3213510000    -1.9629320000     3.9666070000
   31      C       0.0000000000     0.0000000000     0.0000000000
   32      S      -0.0002010000     0.7931710000     1.5805300000
   33      C      -0.0002280000     2.4308850000     0.9049110000
   34      C      -0.0001680000     0.9979900000    -0.9854000000
   35      C      -0.0002670000     2.3182310000    -0.4935280000
   36      H      -0.0001450000     0.7623430000    -2.0599340000
   37      H      -0.0003390000     3.1991640000    -1.1525930000
   38      H      -0.0003110000     3.3115660000     1.5560250000
   39      H      -0.7016930000    -7.3615890000     0.5781910000
   40      H       0.8548380000    -7.3611920000    -0.3195780000
   41      H      -0.9355720000    -1.4788310000     0.5395400000
 ----------------------------------------------------------------
 Nuclear Repulsion Energy =        2563.39190298 hartrees
 There are       98 alpha and       98 beta electrons
 Requested basis set is cc-pVTZ
 There are 356 shells and 1010 basis functions

 Total QAlloc Memory Limit 110000 MB
 Mega-Array Size       188 MB
 MEM_STATIC part       192 MB
 Discretize the solute cavity surface with Lebedev spheres
	Using 110 Lebedev grid points for each H atom
	Using 194 Lebedev grid points for other atoms
	Atomic van der Waals radii will be scaled by 1.20
 Remove points where switching function is < 1.0e-08
 Keep 2595 surface tesserae and discard 4183 interior tesserae
 Molecular Surface Area = 364.076 Angst**2
 Requested basis set is rimp2-cc-pVTZ
 There are 770 shells and 2648 basis functions
 A cutoff of  1.0D-10 yielded  34126 shell pairs
 There are    258254 function pairs (    334215 Cartesian)
 Smallest overlap matrix eigenvalue = 9.36E-06

 Q-Chem warning in module stvman/mkSTV.C, line 323:

 Overlap eigenvalue is smaller than square root of threshold
 Use THRESH >= 12 to get rid of this warning


 Scale SEOQF with 1.000000e-01/1.000000e-02/1.000000e-01

 Standard Electronic Orientation quadrupole field applied
 Nucleus-field energy     =    -0.0000000734 hartrees
 Guess from superposition of atomic densities
 Warning:  Energy on first SCF cycle will be non-variational
 SAD guess density has 196.000000 electrons

 -----------------------------------------------------------------------
  General SCF calculation program by
  Eric Jon Sundstrom, Paul Horn, Yuezhi Mao, Dmitri Zuev, Alec White,
  David Stuck, Shaama M.S., Shane Yost, Joonho Lee, David Small,
  Daniel Levine, Susi Lehtola, Hugh Burton, Evgeny Epifanovsky,
  Bang C. Huynh
 -----------------------------------------------------------------------
 Hartree-Fock
 using 64 threads for integral computing
 -------------------------------------------------------
 OpenMP Integral computing Module                
 Release: version 1.0, May 2013, Q-Chem Inc. Pittsburgh 
 -------------------------------------------------------
 A restricted SCF calculation will be
 performed using DIIS
 SCF converges when DIIS error is below 1.0e-06
 ---------------------------------------
  Cycle       Energy         DIIS error
 ---------------------------------------
    1   -1583.1701938969      1.86e-02  
    2   -1571.1433683666      2.03e-03  
    3   -1571.4824737818      1.55e-03  
    4   -1571.7059321649      2.54e-04  
    5   -1571.7197423487      7.86e-05  
    6   -1571.7211638655      3.04e-05  
    7   -1571.7215908938      1.60e-05  
    8   -1571.7217131606      6.45e-06  
    9   -1571.7217352689      3.04e-06  
   10   -1571.7217398116      1.26e-06  
   11   -1571.7217411824      5.90e-07  Convergence criterion met
 ---------------------------------------
 SCF time:   CPU 6638.35s  wall 268.00s 

************** Final PCM Free Energy Summary **************
 G_electrostatic  =      -0.02927156 hartree =     -18.36818421 kcal/mol
 G_cavitation     =       0.00000000 hartree =       0.00000000 kcal/mol
 G_dispersion     =       0.00000000 hartree =       0.00000000 kcal/mol
 G_repulsion      =       0.00000000 hartree =       0.00000000 kcal/mol
 --------------------------------------------------
 Non-electrostatic Free Energy =       0.00000000 hartree =       0.00000000 kcal/mol
 Total                         =      -0.02927156 hartree =     -18.36818421 kcal/mol
 --------------------------------------------------
 SCF Energy (H0 + V/2)                       =   -1571.72174118 
 Solute Internal Energy (H0)                 =   -1571.69246962 
 Total Free Energy (H0 + V/2 + non-elec)     =   -1571.72174118 hartree
                                             = -986270.27836855 kcal/mol
***********************************************************

 SCF   energy in the final basis set =    -1571.7217411824
 Total energy in the final basis set =    -1571.7217411824


 --------------------------------------------------------------
  Generalized many-body perturbation theory program
  by Joonho Lee, Fazle Rob, Xintian Feng, Evgeny Epifanovsky

 No regularization used 
 (reg. param. = 0.0000e+00)
  (P|Q)^-1/2 Time:  CPU 171.88 s  wall 3.18 s

 In RI-MP2 calculation: 
 # of frozen core orbitals: 31

 Components of the RIMP2 correlation energy:
        aaaa    correlation energy =        -0.6169568664 a.u.
        abab    correlation energy =        -3.4291270418 a.u.
        bbbb    correlation energy =        -0.6169568664 a.u.
        non-Brillouin singles      =        -0.0000000000 a.u.
        total same-spin energy     =        -1.2339137328 a.u.
        total opposite-spin energy =        -3.4291270418 a.u.

 Total  RIMP2   correlation energy =        -4.6630407746 a.u.
        RIMP2         total energy =     -1576.3847819570 a.u.

 RI-MP2 Energy Time:  CPU 1943.76 s  wall 32.32 s
 
 --------------------------------------------------------------
 
                    Orbital Energies (a.u.)
 --------------------------------------------------------------
 
 Alpha MOs
 -- Occupied --
-91.9766 -20.5517 -20.5454 -20.5426 -20.5414 -15.6284 -15.6221 -11.3962
-11.3862 -11.3845 -11.3800 -11.3114 -11.3095 -11.3070 -11.3057 -11.2983
-11.2942 -11.2911 -11.2708 -11.2694 -11.2690 -11.2661 -11.2637 -11.2599
-11.2539 -11.2479 -11.2403  -8.9768  -6.6573  -6.6566  -6.6560  -1.4243
 -1.4131  -1.4001  -1.3922  -1.2644  -1.2563  -1.2310  -1.1856  -1.1481
 -1.1153  -1.0867  -1.0484  -0.9941  -0.9888  -0.9773  -0.9558  -0.9489
 -0.8970  -0.8897  -0.8786  -0.8619  -0.7923  -0.7786  -0.7742  -0.7622
 -0.7313  -0.7201  -0.7014  -0.6907  -0.6850  -0.6725  -0.6685  -0.6583
 -0.6493  -0.6438  -0.6387  -0.6331  -0.6320  -0.6301  -0.6233  -0.6057
 -0.5875  -0.5734  -0.5641  -0.5618  -0.5588  -0.5524  -0.5519  -0.5488
 -0.5479  -0.5447  -0.5182  -0.5145  -0.5113  -0.4847  -0.4800  -0.4623
 -0.4558  -0.4451  -0.4378  -0.4303  -0.4113  -0.4082  -0.3546  -0.3356
 -0.3271  -0.2809
 -- Virtual --
  0.0115   0.0417   0.0902   0.1016   0.1453   0.1520   0.1565   0.1595
  0.1635   0.1721   0.1781   0.1813   0.1847   0.1925   0.2024   0.2038
  0.2160   0.2226   0.2280   0.2298   0.2311   0.2359   0.2461   0.2530
  0.2647   0.2706   0.3027   0.3119   0.3172   0.3208   0.3265   0.3282
  0.3362   0.3442   0.3454   0.3503   0.3548   0.3569   0.3639   0.3696
  0.3711   0.3793   0.3852   0.3887   0.3934   0.3970   0.4015   0.4049
  0.4195   0.4243   0.4287   0.4339   0.4373   0.4447   0.4476   0.4547
  0.4571   0.4597   0.4640   0.4722   0.4787   0.4811   0.4897   0.4942
  0.4971   0.5041   0.5102   0.5138   0.5155   0.5166   0.5193   0.5235
  0.5388   0.5421   0.5464   0.5509   0.5522   0.5563   0.5641   0.5683
  0.5705   0.5755   0.5821   0.5886   0.5898   0.5932   0.5995   0.5997
  0.6031   0.6033   0.6074   0.6110   0.6133   0.6185   0.6195   0.6232
  0.6268   0.6316   0.6334   0.6365   0.6418   0.6433   0.6482   0.6591
  0.6615   0.6666   0.6770   0.6852   0.6873   0.6937   0.6985   0.7039
  0.7144   0.7188   0.7232   0.7315   0.7373   0.7418   0.7497   0.7607
  0.7666   0.7691   0.7748   0.7806   0.7908   0.7986   0.8015   0.8054
  0.8152   0.8184   0.8195   0.8277   0.8335   0.8387   0.8426   0.8491
  0.8527   0.8622   0.8636   0.8673   0.8726   0.8782   0.8815   0.8851
  0.8938   0.8993   0.9064   0.9115   0.9170   0.9231   0.9292   0.9342
  0.9359   0.9424   0.9492   0.9559   0.9611   0.9640   0.9738   0.9789
  0.9816   0.9875   0.9925   0.9929   1.0073   1.0115   1.0174   1.0209
  1.0273   1.0324   1.0412   1.0471   1.0542   1.0559   1.0611   1.0658
  1.0673   1.0697   1.0741   1.0789   1.0820   1.0971   1.0979   1.1046
  1.1104   1.1167   1.1200   1.1267   1.1317   1.1340   1.1407   1.1468
  1.1495   1.1518   1.1574   1.1671   1.1715   1.1758   1.1839   1.1897
  1.1949   1.1996   1.2023   1.2055   1.2085   1.2098   1.2227   1.2266
  1.2319   1.2373   1.2429   1.2451   1.2518   1.2560   1.2640   1.2771
  1.2801   1.2848   1.2968   1.3012   1.3141   1.3234   1.3268   1.3358
  1.3443   1.3601   1.3614   1.3636   1.3681   1.3772   1.3794   1.3836
  1.3891   1.3953   1.3955   1.4036   1.4159   1.4282   1.4330   1.4429
  1.4544   1.4600   1.4637   1.4671   1.4716   1.4769   1.4892   1.4983
  1.5020   1.5065   1.5114   1.5163   1.5237   1.5353   1.5370   1.5445
  1.5447   1.5452   1.5551   1.5573   1.5651   1.5706   1.5735   1.5791
  1.5820   1.5887   1.6014   1.6063   1.6136   1.6242   1.6396   1.6498
  1.6507   1.6553   1.6632   1.6781   1.6808   1.6840   1.6937   1.6960
  1.7044   1.7186   1.7213   1.7264   1.7375   1.7448   1.7469   1.7550
  1.7558   1.7647   1.7755   1.7848   1.7918   1.7999   1.8113   1.8173
  1.8236   1.8301   1.8366   1.8514   1.8606   1.8610   1.8652   1.8703
  1.8707   1.8836   1.8893   1.8962   1.9065   1.9173   1.9272   1.9442
  1.9495   1.9650   1.9694   1.9783   1.9880   2.0052   2.0192   2.0248
  2.0341   2.0571   2.0675   2.0809   2.0883   2.1007   2.1157   2.1317
  2.1408   2.1572   2.1729   2.1774   2.1808   2.2119   2.2220   2.2371
  2.2540   2.2545   2.2670   2.2708   2.2837   2.2893   2.2966   2.3131
  2.3198   2.3312   2.3383   2.3548   2.3649   2.3683   2.3869   2.4027
  2.4204   2.4342   2.4406   2.4432   2.4508   2.4581   2.4691   2.4746
  2.4815   2.4850   2.4918   2.5093   2.5189   2.5436   2.5513   2.5600
  2.5639   2.5657   2.5762   2.5857   2.5870   2.6034   2.6192   2.6258
  2.6351   2.6397   2.6425   2.6487   2.6555   2.6605   2.6733   2.6819
  2.6864   2.6875   2.6907   2.7147   2.7154   2.7261   2.7318   2.7366
  2.7399   2.7470   2.7567   2.7592   2.7688   2.7701   2.7766   2.7872
  2.7983   2.8102   2.8359   2.8394   2.8455   2.8464   2.8629   2.8643
  2.8754   2.8789   2.8875   2.8907   2.8966   2.8972   2.9062   2.9105
  2.9168   2.9222   2.9301   2.9332   2.9487   2.9592   2.9650   2.9730
  2.9791   2.9860   2.9924   3.0023   3.0115   3.0125   3.0170   3.0250
  3.0320   3.0362   3.0490   3.0530   3.0553   3.0690   3.0723   3.0781
  3.0884   3.0967   3.1033   3.1040   3.1076   3.1139   3.1216   3.1234
  3.1267   3.1413   3.1445   3.1557   3.1601   3.1619   3.1718   3.1763
  3.1805   3.1922   3.1962   3.1987   3.2033   3.2165   3.2239   3.2267
  3.2333   3.2387   3.2414   3.2458   3.2533   3.2614   3.2629   3.2642
  3.2709   3.2751   3.2829   3.2847   3.2896   3.2994   3.3029   3.3067
  3.3118   3.3163   3.3215   3.3222   3.3270   3.3302   3.3377   3.3411
  3.3431   3.3441   3.3483   3.3560   3.3614   3.3636   3.3669   3.3738
  3.3787   3.3822   3.3848   3.3940   3.3967   3.3998   3.4068   3.4138
  3.4169   3.4239   3.4288   3.4337   3.4385   3.4417   3.4472   3.4499
  3.4537   3.4586   3.4667   3.4708   3.4755   3.4769   3.4836   3.4884
  3.4967   3.5016   3.5099   3.5161   3.5189   3.5204   3.5272   3.5319
  3.5329   3.5393   3.5408   3.5442   3.5581   3.5592   3.5705   3.5750
  3.5835   3.5871   3.5953   3.6018   3.6129   3.6167   3.6249   3.6262
  3.6335   3.6371   3.6413   3.6445   3.6499   3.6585   3.6608   3.6658
  3.6697   3.6759   3.6850   3.6860   3.6944   3.6998   3.7065   3.7152
  3.7211   3.7253   3.7311   3.7346   3.7392   3.7463   3.7496   3.7541
  3.7597   3.7640   3.7707   3.7766   3.7797   3.7877   3.7974   3.8036
  3.8083   3.8166   3.8191   3.8270   3.8280   3.8333   3.8419   3.8453
  3.8468   3.8520   3.8638   3.8705   3.8766   3.8864   3.8915   3.9020
  3.9080   3.9172   3.9235   3.9287   3.9358   3.9457   3.9476   3.9528
  3.9579   3.9618   3.9693   3.9801   3.9891   3.9962   4.0022   4.0174
  4.0215   4.0269   4.0329   4.0440   4.0564   4.0598   4.0696   4.0756
  4.0895   4.1087   4.1118   4.1137   4.1221   4.1300   4.1339   4.1405
  4.1448   4.1594   4.1661   4.1700   4.1751   4.1787   4.1811   4.1967
  4.2099   4.2111   4.2266   4.2307   4.2390   4.2417   4.2524   4.2594
  4.2647   4.2712   4.2733   4.2804   4.2904   4.2997   4.3036   4.3129
  4.3168   4.3197   4.3268   4.3317   4.3354   4.3403   4.3444   4.3610
  4.3619   4.3683   4.3699   4.3727   4.3808   4.3840   4.3938   4.3968
  4.4027   4.4074   4.4165   4.4224   4.4259   4.4302   4.4429   4.4489
  4.4593   4.4735   4.4928   4.5009   4.5084   4.5161   4.5233   4.5358
  4.5374   4.5402   4.5506   4.5544   4.5652   4.5760   4.5807   4.5903
  4.5930   4.6009   4.6067   4.6121   4.6183   4.6246   4.6304   4.6408
  4.6474   4.6582   4.6699   4.6749   4.6826   4.6927   4.7020   4.7056
  4.7114   4.7346   4.7387   4.7507   4.7818   4.7888   4.7965   4.8026
  4.8115   4.8197   4.8389   4.8450   4.8480   4.8626   4.8715   4.8833
  4.8861   4.8933   4.9138   4.9243   4.9324   4.9438   4.9596   4.9666
  4.9898   5.0109   5.0164   5.0251   5.0283   5.0376   5.0452   5.0693
  5.0724   5.0974   5.1121   5.1181   5.1218   5.1312   5.1323   5.1381
  5.1524   5.1580   5.1725   5.1791   5.1893   5.2032   5.2116   5.2267
  5.2611   5.2666   5.2733   5.2845   5.3036   5.3143   5.3277   5.3308
  5.3337   5.3439   5.3540   5.3739   5.3765   5.3793   5.4031   5.4154
  5.4407   5.4490   5.4605   5.4870   5.4984   5.5097   5.5140   5.5169
  5.5231   5.5308   5.5416   5.5579   5.5590   5.5652   5.5673   5.5717
  5.5819   5.5828   5.5862   5.6063   5.6079   5.6198   5.6236   5.6300
  5.6479   5.6521   5.6592   5.6636   5.6655   5.6659   5.6933   5.6961
  5.6999   5.7054   5.7308   5.7376   5.7513   5.7612   5.7651   5.7746
  5.7817   5.7928   5.8117   5.8314   5.8457   5.8530   5.9026   5.9136
  5.9310   5.9512   5.9771   5.9918   6.0249   6.0341   6.0412   6.0473
  6.0778   6.0923   6.0979   6.1114   6.1220   6.1544   6.1741   6.1907
  6.2041   6.2203   6.2250   6.2259   6.2479   6.2701   6.2799   6.2826
  6.3041   6.3133   6.3265   6.3493   6.3668   6.3769   6.4602   6.4866
  6.5195   6.5328   6.5734   6.5819   6.6056   6.6204   6.6526   6.6581
  6.6733   6.7188   6.8491   6.8508   6.8891   6.9018   6.9060   6.9245
  6.9265   6.9911   7.1040   7.1219   7.1525   7.1954   7.2043   7.2402
  7.3468   7.3512   7.3573   7.3622   7.4755   7.5409   7.5700   7.5825
  7.5916   7.6212   7.6535   7.6824   7.6903   7.7148   8.8634  10.1604
 10.3150  11.2817  11.5182  11.7577  12.0821  12.1225  12.4375  12.4746
 12.9128  13.2777  13.3372  13.5710  13.7911  13.9296  14.1062  14.3062
 14.3518  14.3951  14.5611  14.6594  15.0437  15.6218  15.8371  16.3142
 --------------------------------------------------------------
 
          Ground-State Mulliken Net Atomic Charges

     Atom                 Charge (a.u.)
  ----------------------------------------
      1 C                    -0.084960
      2 C                    -0.028454
      3 C                    -0.107657
      4 C                    -0.124958
      5 H                     0.199691
      6 C                     0.024621
      7 C                     0.122551
      8 C                    -0.109636
      9 C                    -0.203607
     10 C                    -0.132728
     11 C                     0.250889
     12 H                     0.194368
     13 C                     0.343124
     14 C                     0.351874
     15 N                    -0.090182
     16 C                     0.357528
     17 C                     0.382164
     18 N                    -0.090997
     19 O                    -0.493418
     20 O                    -0.507267
     21 O                    -0.500802
     22 O                    -0.466676
     23 C                    -0.204652
     24 H                     0.139619
     25 H                     0.109364
     26 H                     0.109328
     27 C                    -0.197840
     28 H                     0.134031
     29 H                     0.111920
     30 H                     0.112342
     31 C                    -0.078128
     32 S                     0.057380
     33 C                    -0.233702
     34 C                    -0.174369
     35 C                    -0.232508
     36 H                     0.185309
     37 H                     0.184750
     38 H                     0.207164
     39 H                     0.138534
     40 H                     0.138719
     41 H                     0.207270
  ----------------------------------------
  Sum of atomic charges =     0.000000

 -----------------------------------------------------------------
                    Cartesian Multipole Moments
 -----------------------------------------------------------------
    Charge (ESU x 10^10)
                 0.0000
    Dipole Moment (Debye)
         X       0.1445      Y       0.9990      Z       1.0093
       Tot       1.4274
    Quadrupole Moments (Debye-Ang)
        XX    -170.6546     XY      -3.1851     YY    -177.1899
        XZ     -13.3469     YZ      -7.8420     ZZ    -179.7304
    Octopole Moments (Debye-Ang^2)
       XXX     -21.9130    XXY     488.3866    XYY      21.6441
       YYY    1666.3651    XXZ     -29.4745    XYZ      59.2200
       YYZ      31.0445    XZZ      -5.8070    YZZ     570.9211
       ZZZ     -91.3470
    Hexadecapole Moments (Debye-Ang^3)
      XXXX   -1655.1803   XXXY    -146.2915   XXYY   -3107.1326
      XYYY    -583.1224   YYYY  -17972.1199   XXXZ   -1285.6376
      XXYZ     -55.9399   XYYZ    -797.3734   YYYZ   -1050.8335
      XXZZ   -1151.3484   XYZZ      62.4064   YYZZ   -4034.6687
      XZZZ   -1373.9425   YZZZ    -156.7474   ZZZZ   -4998.9334
 -----------------------------------------------------------------
 Total job time:  349.06s(wall), 11321.04s(cpu) 
 Wed Dec 27 11:17:03 2023

        *************************************************************
        *                                                           *
        *  Thank you very much for using Q-Chem.  Have a nice day.  *
        *                                                           *
        *************************************************************


0 sent ACK to 0 
now end server 0 ... 
cleanup process ... done
remove work dirs ./qchem2648325.0 -- ./qchem2648325.0
rm -rf ./qchem2648325.0
rm -rf ./qchem2648325
