You are running Q-Chem version: 5.4.0

#
# job setting
#
local host:  exp-2-05
current dir: /home/rramji/project-csd799/aromodel/pndit-qchem/hydrogenated-rotation-run
input file:  Dimethyl_Naphthalene_Dicarboximide_Phi_15_Theta_140_Thiophene_Hydrogenated.qcin
output file: 
nprocs     : 1
nthreads   : 64
#
# qchem installation setting
#
QC:          /cm/shared/apps/spack/cpu/opt/spack/linux-centos8-zen2/gcc-10.2.0/qchem-5.4-akfmr7b3t57bfs6qan3padb2wnb2i7cl
QCAUX:       /cm/shared/apps/spack/cpu/opt/spack/linux-centos8-zen2/gcc-10.2.0/qchem-5.4-akfmr7b3t57bfs6qan3padb2wnb2i7cl/qcaux
QCPROG:      /cm/shared/apps/spack/cpu/opt/spack/linux-centos8-zen2/gcc-10.2.0/qchem-5.4-akfmr7b3t57bfs6qan3padb2wnb2i7cl/exe/qcprog.exe
QCPROG_S:    /cm/shared/apps/spack/cpu/opt/spack/linux-centos8-zen2/gcc-10.2.0/qchem-5.4-akfmr7b3t57bfs6qan3padb2wnb2i7cl/exe/qcprog.exe_s
PARALLEL:    -DPARALLEL
QCMPI:       mpich
#
# qchem directory setting
#
qcrun:       qchem1513162
QCSCRATCH:   .
QCLOCALSCR:  
QCTMPDIR:    .
QCFILEPREF:  ./qchem1513162
QCSAVEDIR:   
workdirs:    ./qchem1513162
workdir0:    ./qchem1513162
partmpdirs =  
#
# parallel setting
#
QCRSH:           ssh
QCMPI:           mpich
QCMPIRUN:        /cm/shared/apps/spack/cpu/opt/spack/linux-centos8-zen2/gcc-10.2.0/qchem-5.4-akfmr7b3t57bfs6qan3padb2wnb2i7cl/bin/mpi/mpirun_qchem
QCMACHINEFILE:   ./qchem1513162/hostfile
exp-2-05

#
# env setting
#
exported envs:   QC QCAUX QCSCRATCH QCRUNNAME QCFILEPREF QCPROG QCPROG_S GUIFILE

Running Job 1 of 1 Dimethyl_Naphthalene_Dicarboximide_Phi_15_Theta_140_Thiophene_Hydrogenated.qcin
qchem Dimethyl_Naphthalene_Dicarboximide_Phi_15_Theta_140_Thiophene_Hydrogenated.qcin_1513162.0 ./qchem1513162/ 1
/cm/shared/apps/spack/cpu/opt/spack/linux-centos8-zen2/gcc-10.2.0/qchem-5.4-akfmr7b3t57bfs6qan3padb2wnb2i7cl/bin/mpi/mpirun_qchem -machinefile ./qchem1513162/hostfile -np 1 /cm/shared/apps/spack/cpu/opt/spack/linux-centos8-zen2/gcc-10.2.0/qchem-5.4-akfmr7b3t57bfs6qan3padb2wnb2i7cl/exe/qcprog.exe Dimethyl_Naphthalene_Dicarboximide_Phi_15_Theta_140_Thiophene_Hydrogenated.qcin_1513162.0 ./qchem1513162/

Process 0 of 1 is on exp-2-05 - thread support 0
initial socket setup ...start
initial socket setup ...done 
now start server 0 ... 
                  Welcome to Q-Chem
     A Quantum Leap Into The Future Of Chemistry


 Q-Chem 5.4, Q-Chem, Inc., Pleasanton, CA (2021)

 License issued to: University of California, San Diego (site)

 E. Epifanovsky,  A. T. B. Gilbert,  Xintian Feng,  Joonho Lee,  Yuezhi Mao,  
 N. Mardirossian,  P. Pokhilko,  A. White,  M. Wormit,  M. P. Coons,  
 A. L. Dempwolff,  Zhengting Gan,  D. Hait,  P. R. Horn,  L. D. Jacobson,  
 I. Kaliman,  J. Kussmann,  A. W. Lange,  Ka Un Lao,  D. S. Levine,  Jie Liu,  
 S. C. McKenzie,  A. F. Morrison,  K. Nanda,  F. Plasser,  D. R. Rehn,  
 M. L. Vidal,  Zhi-Qiang You,  Ying Zhu,  B. Alam,  B. Albrecht,  
 A. Aldossary,  E. Alguire,  J. H. Andersen,  D. Barton,  K. Begam,  A. Behn,  
 Y. A. Bernard,  E. J. Berquist,  H. Burton,  A. Carreras,  K. Carter-Fenk,  
 R. Chakraborty,  A. D. Chien,  K. D. Closser,  V. Cofer-Shabica,  
 S. Dasgupta,  Jia Deng,  M. de Wergifosse,  M. Diedenhofen,  Hainam Do,  
 S. Ehlert,  Po-Tung Fang,  S. Fatehi,  Qingguo Feng,  J. Gayvert,  
 Qinghui Ge,  G. Gidofalvi,  M. Goldey,  J. Gomes,  C. Gonzalez-Espinoza,  
 S. Gulania,  A. Gunina,  M. W. D. Hanson-Heine,  P. H. P. Harbach,  
 A. W. Hauser,  M. F. Herbst,  M. Hernandez Vera,  M. Hodecker,  
 Z. C. Holden,  S. Houck,  Xunkun Huang,  Kerwin Hui,  B. C. Huynh,  
 M. Ivanov,  Hyunjun Ji,  Hanjie Jiang,  B. Kaduk,  S. Kaehler,  
 K. Khistyaev,  Jaehoon Kim,  P. Klunzinger,  Z. Koczor-Benda,  
 Joong Hoon Koh,  D. Kosenkov,  L. Koulias,  T. Kowalczyk,  C. M. Krauter,  
 K. Kue,  A. Kunitsa,  T. Kus,  A. Landau,  K. V. Lawler,  D. Lefrancois,  
 S. Lehtola,  Rain Li,  Yi-Pei Li,  Jiashu Liang,  M. Liebenthal,  
 Hung-Hsuan Lin,  You-Sheng Lin,  Fenglai Liu,  Kuan-Yu Liu,  
 M. Loipersberger,  A. Luenser,  A. Manjanath,  P. Manohar,  E. Mansoor,  
 S. F. Manzer,  Shan-Ping Mao,  A. V. Marenich,  T. Markovich,  S. Mason,  
 S. A. Maurer,  P. F. McLaughlin,  M. F. S. J. Menger,  J.-M. Mewes,  
 S. A. Mewes,  P. Morgante,  J. W. Mullinax,  T. S. Nguyen-Beck,  
 K. J. Oosterbaan,  G. Paran,  Alexander C. Paul,  Suranjan K. Paul,  
 F. Pavosevic,  Zheng Pei,  S. Prager,  E. I. Proynov,  E. Ramos,  B. Rana,  
 A. E. Rask,  A. Rettig,  R. M. Richard,  F. Rob,  E. Rossomme,  T. Scheele,  
 M. Scheurer,  M. Schneider,  N. Sergueev,  S. M. Sharada,  W. Skomorowski,  
 D. W. Small,  C. J. Stein,  Yu-Chuan Su,  E. J. Sundstrom,  Zhen Tao,  
 J. Thirman,  T. Tsuchimochi,  N. M. Tubman,  S. P. Veccham,  O. Vydrov,  
 J. Wenzel,  J. Witte,  A. Yamada,  Kun Yao,  S. Yeganeh,  S. R. Yost,  
 A. Zech,  Igor Ying Zhang,  Xing Zhang,  Yu Zhang,  D. Zuev,  
 A. Aspuru-Guzik,  A. T. Bell,  N. A. Besley,  K. B. Bravaya,  B. R. Brooks,  
 D. Casanova,  Jeng-Da Chai,  S. Coriani,  C. J. Cramer,  
 A. E. DePrince, III,  R. A. DiStasio Jr.,  A. Dreuw,  B. D. Dunietz,  
 T. R. Furlani,  W. A. Goddard III,  S. Grimme,  S. Hammes-Schiffer,  
 T. Head-Gordon,  W. J. Hehre,  Chao-Ping Hsu,  T.-C. Jagau,  Yousung Jung,  
 A. Klamt,  Jing Kong,  D. S. Lambrecht,  WanZhen Liang,  N. J. Mayhall,  
 C. W. McCurdy,  J. B. Neaton,  C. Ochsenfeld,  J. A. Parkhill,  R. Peverati,  
 V. A. Rassolov,  Yihan Shao,  L. V. Slipchenko,  T. Stauch,  R. P. Steele,  
 J. E. Subotnik,  A. J. W. Thom,  A. Tkatchenko,  D. G. Truhlar,  
 T. Van Voorhis,  T. A. Wesolowski,  K. B. Whaley,  H. L. Woodcock III,  
 P. M. Zimmerman,  S. Faraji,  P. M. W. Gill,  M. Head-Gordon,  
 J. M. Herbert,  A. I. Krylov

 Contributors to earlier versions of Q-Chem not listed above: 
 R. D. Adamson,  B. Austin,  R. Baer,  J. Baker,  G. J. O. Beran,  
 K. Brandhorst,  S. T. Brown,  E. F. C. Byrd,  A. K. Chakraborty,  
 G. K. L. Chan,  Chun-Min Chang,  Yunqing Chen,  C.-L. Cheng,  
 Siu Hung Chien,  D. M. Chipman,  D. L. Crittenden,  H. Dachsel,  
 R. J. Doerksen,  A. D. Dutoi,  R. G. Edgar,  J. Fosso-Tande,  
 L. Fusti-Molnar,  D. Ghosh,  A. Ghysels,  A. Golubeva-Zadorozhnaya,  
 J. Gonthier,  M. S. Gordon,  S. R. Gwaltney,  G. Hawkins,  J. E. Herr,  
 A. Heyden,  S. Hirata,  E. G. Hohenstein,  G. Kedziora,  F. J. Keil,  
 C. Kelley,  Jihan Kim,  R. A. King,  R. Z. Khaliullin,  P. P. Korambath,  
 W. Kurlancheek,  A. Laurent,  A. M. Lee,  M. S. Lee,  S. V. Levchenko,  
 Ching Yeh Lin,  D. Liotard,  E. Livshits,  R. C. Lochan,  I. Lotan,  
 L. A. Martinez-Martinez,  P. E. Maslen,  N. Nair,  D. P. O'Neill,  
 D. Neuhauser,  E. Neuscamman,  C. M. Oana,  R. Olivares-Amaya,  R. Olson,  
 T. M. Perrine,  B. Peters,  P. A. Pieniazek,  A. Prociuk,  Y. M. Rhee,  
 J. Ritchie,  M. A. Rohrdanz,  E. Rosta,  N. J. Russ,  H. F. Schaefer III,  
 M. W. Schmidt,  N. E. Schultz,  S. Sharma,  N. Shenvi,  C. D. Sherrill,  
 A. C. Simmonett,  A. Sodt,  T. Stein,  D. Stuck,  K. S. Thanthiriwatte,  
 V. Vanovschi,  L. Vogt,  Tao Wang,  A. Warshel,  M. A. Watson,  
 C. F. Williams,  Q. Wu,  X. Xu,  Jun Yang,  W. Zhang,  Yan Zhao

 Please cite Q-Chem as follows:
 Y. Shao et al., Mol. Phys. 113, 184-215 (2015)
 DOI: 10.1080/00268976.2014.952696

 Q-Chem 5.4.0 for Intel X86 EM64T Linux

 Parts of Q-Chem use Armadillo 9.800.1 (Horizon Scraper).
 http://arma.sourceforge.net/

 Q-Chem begins on Wed Dec 27 11:00:49 2023  

 Host: 
0

     Scratch files written to ./qchem1513162//
 May1621 |scratch|qcdevops|jenkins|workspace|build_RNUM    
 Parallel job on  1  processors
 Processing $rem in /cm/shared/apps/spack/cpu/opt/spack/linux-centos8-zen2/gcc-10.2.0/qchem-5.4-akfmr7b3t57bfs6qan3padb2wnb2i7cl/config/preferences:
 Processing $rem in /home/rramji/.qchemrc:
 Symmetry turned off for PCM/SM12/SMD calculation
 Core orbitals will be frozen

 Checking the input file for inconsistencies... 	...done.

 Q-Chem warning in module forms1/BasisType.C, line 2236:

 You are not using the predefined 5D/6D in this basis set.


--------------------------------------------------------------
User input:
--------------------------------------------------------------
$molecule
0 1
C	0.166281	-6.741404	0.195868
C	1.005696	-6.155638	1.196048
C	-0.530233	-5.791452	-0.634911
C	1.184587	-4.803786	1.409599
H	1.570232	-6.821518	1.868538
C	-0.343266	-4.378638	-0.410996
C	0.511683	-3.838032	0.608444
C	-1.015440	-3.413062	-1.211179
C	0.697165	-2.426473	0.830559
C	-0.838968	-2.059348	-0.999915
C	0.000000	-1.478216	0.000000
H	-1.404302	-1.394783	-1.673009
C	-1.456059	-6.187987	-1.741129
C	-1.934944	-3.798164	-2.307170
N	-2.090139	-5.170003	-2.494766
C	2.106725	-4.424987	2.508468
C	1.624494	-2.036627	1.936893
N	2.258486	-3.049156	2.690936
O	-1.705414	-7.353131	-2.042736
O	-2.529122	-2.986854	-3.013823
O	2.693680	-5.248946	3.206857
O	1.888802	-0.878829	2.254108
C	-2.997334	-5.563799	-3.577543
H	-3.025519	-6.664085	-3.612920
H	-2.635109	-5.147101	-4.536833
H	-4.005702	-5.148785	-3.387762
C	3.152347	-2.587487	3.756883
H	3.566218	-3.483329	4.248464
H	2.590383	-1.964972	4.478763
H	3.959687	-1.962932	3.329599
C	0.000000	0.000000	0.000000
S	0.205093	0.766196	1.580530
C	0.628939	2.348114	0.904911
C	0.258137	0.964028	-0.985400
C	0.599745	2.239309	-0.493528
H	0.197169	0.736404	-2.059934
H	0.827678	3.090243	-1.152593
H	0.856796	3.198808	1.556025
H	-0.590631	-7.361589	0.691254
H	0.786357	-7.361192	-0.463164
H	-0.827669	-1.478831	0.693804
$end

$rem
JOBTYPE		SP
EXCHANGE	HF
CORRELATION	pRIMP2
BASIS		cc-pvtz
METHOD		rimp2
AUX_BASIS	rimp2-cc-pvtz
SOLVENT_METHOD	PCM
PURECART	11111
SYMMETRY	false
MEM_TOTAL	110000
SCF_CONVERGENCE = 6
THRESH=10
GUI = 2
$end



$solvent
dielectric 4.90
$end
--------------------------------------------------------------
 ----------------------------------------------------------------
             Standard Nuclear Orientation (Angstroms)
    I     Atom           X                Y                Z
 ----------------------------------------------------------------
    1      C       0.1662810000    -6.7414040000     0.1958680000
    2      C       1.0056960000    -6.1556380000     1.1960480000
    3      C      -0.5302330000    -5.7914520000    -0.6349110000
    4      C       1.1845870000    -4.8037860000     1.4095990000
    5      H       1.5702320000    -6.8215180000     1.8685380000
    6      C      -0.3432660000    -4.3786380000    -0.4109960000
    7      C       0.5116830000    -3.8380320000     0.6084440000
    8      C      -1.0154400000    -3.4130620000    -1.2111790000
    9      C       0.6971650000    -2.4264730000     0.8305590000
   10      C      -0.8389680000    -2.0593480000    -0.9999150000
   11      C       0.0000000000    -1.4782160000     0.0000000000
   12      H      -1.4043020000    -1.3947830000    -1.6730090000
   13      C      -1.4560590000    -6.1879870000    -1.7411290000
   14      C      -1.9349440000    -3.7981640000    -2.3071700000
   15      N      -2.0901390000    -5.1700030000    -2.4947660000
   16      C       2.1067250000    -4.4249870000     2.5084680000
   17      C       1.6244940000    -2.0366270000     1.9368930000
   18      N       2.2584860000    -3.0491560000     2.6909360000
   19      O      -1.7054140000    -7.3531310000    -2.0427360000
   20      O      -2.5291220000    -2.9868540000    -3.0138230000
   21      O       2.6936800000    -5.2489460000     3.2068570000
   22      O       1.8888020000    -0.8788290000     2.2541080000
   23      C      -2.9973340000    -5.5637990000    -3.5775430000
   24      H      -3.0255190000    -6.6640850000    -3.6129200000
   25      H      -2.6351090000    -5.1471010000    -4.5368330000
   26      H      -4.0057020000    -5.1487850000    -3.3877620000
   27      C       3.1523470000    -2.5874870000     3.7568830000
   28      H       3.5662180000    -3.4833290000     4.2484640000
   29      H       2.5903830000    -1.9649720000     4.4787630000
   30      H       3.9596870000    -1.9629320000     3.3295990000
   31      C       0.0000000000     0.0000000000     0.0000000000
   32      S       0.2050930000     0.7661960000     1.5805300000
   33      C       0.6289390000     2.3481140000     0.9049110000
   34      C       0.2581370000     0.9640280000    -0.9854000000
   35      C       0.5997450000     2.2393090000    -0.4935280000
   36      H       0.1971690000     0.7364040000    -2.0599340000
   37      H       0.8276780000     3.0902430000    -1.1525930000
   38      H       0.8567960000     3.1988080000     1.5560250000
   39      H      -0.5906310000    -7.3615890000     0.6912540000
   40      H       0.7863570000    -7.3611920000    -0.4631640000
   41      H      -0.8276690000    -1.4788310000     0.6938040000
 ----------------------------------------------------------------
 Nuclear Repulsion Energy =        2566.42382984 hartrees
 There are       98 alpha and       98 beta electrons
 Requested basis set is cc-pVTZ
 There are 356 shells and 1010 basis functions

 Total QAlloc Memory Limit 110000 MB
 Mega-Array Size       188 MB
 MEM_STATIC part       192 MB
 Discretize the solute cavity surface with Lebedev spheres
	Using 110 Lebedev grid points for each H atom
	Using 194 Lebedev grid points for other atoms
	Atomic van der Waals radii will be scaled by 1.20
 Remove points where switching function is < 1.0e-08
 Keep 2575 surface tesserae and discard 4203 interior tesserae
 Molecular Surface Area = 364.134 Angst**2
 Requested basis set is rimp2-cc-pVTZ
 There are 770 shells and 2648 basis functions
 A cutoff of  1.0D-10 yielded  34225 shell pairs
 There are    258919 function pairs (    335097 Cartesian)
 Smallest overlap matrix eigenvalue = 9.27E-06

 Q-Chem warning in module stvman/mkSTV.C, line 323:

 Overlap eigenvalue is smaller than square root of threshold
 Use THRESH >= 12 to get rid of this warning


 Scale SEOQF with 1.000000e-01/1.000000e-02/1.000000e-01

 Standard Electronic Orientation quadrupole field applied
 Nucleus-field energy     =    -0.0000000439 hartrees
 Guess from superposition of atomic densities
 Warning:  Energy on first SCF cycle will be non-variational
 SAD guess density has 196.000000 electrons

 -----------------------------------------------------------------------
  General SCF calculation program by
  Eric Jon Sundstrom, Paul Horn, Yuezhi Mao, Dmitri Zuev, Alec White,
  David Stuck, Shaama M.S., Shane Yost, Joonho Lee, David Small,
  Daniel Levine, Susi Lehtola, Hugh Burton, Evgeny Epifanovsky,
  Bang C. Huynh
 -----------------------------------------------------------------------
 Hartree-Fock
 using 64 threads for integral computing
 -------------------------------------------------------
 OpenMP Integral computing Module                
 Release: version 1.0, May 2013, Q-Chem Inc. Pittsburgh 
 -------------------------------------------------------
 A restricted SCF calculation will be
 performed using DIIS
 SCF converges when DIIS error is below 1.0e-06
 ---------------------------------------
  Cycle       Energy         DIIS error
 ---------------------------------------
    1   -1583.1645736265      1.86e-02  
    2   -1571.1363043650      2.03e-03  
    3   -1571.4742176452      1.55e-03  
    4   -1571.6976156374      2.54e-04  
    5   -1571.7114147436      7.89e-05  
    6   -1571.7128420935      3.05e-05  
    7   -1571.7132705213      1.59e-05  
    8   -1571.7133931311      6.54e-06  
    9   -1571.7134155017      3.07e-06  
   10   -1571.7134202138      1.29e-06  
   11   -1571.7134216244      5.89e-07  Convergence criterion met
 ---------------------------------------
 SCF time:   CPU 6852.84s  wall 254.00s 

************** Final PCM Free Energy Summary **************
 G_electrostatic  =      -0.02916102 hartree =     -18.29881469 kcal/mol
 G_cavitation     =       0.00000000 hartree =       0.00000000 kcal/mol
 G_dispersion     =       0.00000000 hartree =       0.00000000 kcal/mol
 G_repulsion      =       0.00000000 hartree =       0.00000000 kcal/mol
 --------------------------------------------------
 Non-electrostatic Free Energy =       0.00000000 hartree =       0.00000000 kcal/mol
 Total                         =      -0.02916102 hartree =     -18.29881469 kcal/mol
 --------------------------------------------------
 SCF Energy (H0 + V/2)                       =   -1571.71342162 
 Solute Internal Energy (H0)                 =   -1571.68426061 
 Total Free Energy (H0 + V/2 + non-elec)     =   -1571.71342162 hartree
                                             = -986265.05776712 kcal/mol
***********************************************************

 SCF   energy in the final basis set =    -1571.7134216244
 Total energy in the final basis set =    -1571.7134216244


 --------------------------------------------------------------
  Generalized many-body perturbation theory program
  by Joonho Lee, Fazle Rob, Xintian Feng, Evgeny Epifanovsky

 No regularization used 
 (reg. param. = 0.0000e+00)
  (P|Q)^-1/2 Time:  CPU 120.38 s  wall 2.13 s

 In RI-MP2 calculation: 
 # of frozen core orbitals: 31

 Components of the RIMP2 correlation energy:
        aaaa    correlation energy =        -0.6174996944 a.u.
        abab    correlation energy =        -3.4307487415 a.u.
        bbbb    correlation energy =        -0.6174996944 a.u.
        non-Brillouin singles      =        -0.0000000000 a.u.
        total same-spin energy     =        -1.2349993887 a.u.
        total opposite-spin energy =        -3.4307487415 a.u.

 Total  RIMP2   correlation energy =        -4.6657481302 a.u.
        RIMP2         total energy =     -1576.3791697546 a.u.

 RI-MP2 Energy Time:  CPU 2001.50 s  wall 32.55 s
 
 --------------------------------------------------------------
 
                    Orbital Energies (a.u.)
 --------------------------------------------------------------
 
 Alpha MOs
 -- Occupied --
-91.9786 -20.5491 -20.5448 -20.5419 -20.5407 -15.6274 -15.6215 -11.3943
-11.3855 -11.3838 -11.3793 -11.3100 -11.3085 -11.3063 -11.3051 -11.2974
-11.2889 -11.2880 -11.2756 -11.2695 -11.2687 -11.2648 -11.2633 -11.2596
-11.2532 -11.2490 -11.2408  -8.9790  -6.6594  -6.6589  -6.6585  -1.4225
 -1.4124  -1.3990  -1.3916  -1.2634  -1.2557  -1.2298  -1.1847  -1.1484
 -1.1144  -1.0859  -1.0474  -0.9935  -0.9882  -0.9782  -0.9553  -0.9492
 -0.8960  -0.8884  -0.8778  -0.8611  -0.7912  -0.7774  -0.7735  -0.7633
 -0.7317  -0.7191  -0.7017  -0.6903  -0.6823  -0.6706  -0.6679  -0.6576
 -0.6484  -0.6418  -0.6387  -0.6325  -0.6313  -0.6285  -0.6235  -0.6049
 -0.5862  -0.5723  -0.5640  -0.5620  -0.5587  -0.5520  -0.5512  -0.5483
 -0.5479  -0.5440  -0.5162  -0.5145  -0.5104  -0.4837  -0.4760  -0.4607
 -0.4552  -0.4453  -0.4403  -0.4338  -0.4121  -0.4077  -0.3536  -0.3313
 -0.3240  -0.2829
 -- Virtual --
  0.0128   0.0428   0.0908   0.0985   0.1406   0.1504   0.1552   0.1591
  0.1639   0.1710   0.1787   0.1820   0.1838   0.1938   0.1982   0.2039
  0.2145   0.2198   0.2278   0.2290   0.2310   0.2342   0.2395   0.2442
  0.2648   0.2696   0.3031   0.3121   0.3147   0.3205   0.3230   0.3282
  0.3348   0.3401   0.3453   0.3530   0.3558   0.3564   0.3638   0.3665
  0.3708   0.3766   0.3847   0.3884   0.3923   0.3959   0.4005   0.4027
  0.4204   0.4210   0.4305   0.4339   0.4364   0.4437   0.4483   0.4537
  0.4552   0.4578   0.4599   0.4661   0.4792   0.4818   0.4920   0.4945
  0.4976   0.5065   0.5114   0.5135   0.5166   0.5196   0.5226   0.5272
  0.5336   0.5390   0.5465   0.5502   0.5508   0.5572   0.5619   0.5656
  0.5708   0.5736   0.5779   0.5861   0.5900   0.5921   0.5977   0.6008
  0.6049   0.6063   0.6084   0.6128   0.6149   0.6188   0.6206   0.6232
  0.6270   0.6309   0.6344   0.6371   0.6418   0.6424   0.6470   0.6522
  0.6636   0.6683   0.6732   0.6803   0.6848   0.6939   0.6977   0.6991
  0.7089   0.7135   0.7247   0.7317   0.7368   0.7389   0.7460   0.7604
  0.7667   0.7679   0.7738   0.7790   0.7925   0.7953   0.7970   0.8015
  0.8093   0.8136   0.8220   0.8272   0.8309   0.8389   0.8413   0.8481
  0.8559   0.8589   0.8617   0.8664   0.8701   0.8777   0.8815   0.8854
  0.8921   0.9022   0.9050   0.9140   0.9196   0.9278   0.9296   0.9318
  0.9395   0.9438   0.9483   0.9536   0.9618   0.9662   0.9694   0.9778
  0.9793   0.9828   0.9947   1.0016   1.0018   1.0111   1.0160   1.0213
  1.0256   1.0328   1.0385   1.0396   1.0466   1.0555   1.0648   1.0664
  1.0691   1.0708   1.0757   1.0786   1.0810   1.0963   1.0997   1.1061
  1.1124   1.1173   1.1218   1.1282   1.1313   1.1336   1.1388   1.1438
  1.1474   1.1551   1.1599   1.1653   1.1706   1.1762   1.1793   1.1881
  1.1908   1.1961   1.2041   1.2062   1.2088   1.2126   1.2184   1.2299
  1.2314   1.2332   1.2383   1.2470   1.2536   1.2572   1.2693   1.2778
  1.2862   1.2899   1.3022   1.3037   1.3155   1.3241   1.3297   1.3369
  1.3488   1.3550   1.3619   1.3691   1.3739   1.3755   1.3832   1.3871
  1.3901   1.3921   1.3971   1.4050   1.4146   1.4227   1.4235   1.4334
  1.4464   1.4538   1.4671   1.4688   1.4706   1.4814   1.4928   1.4971
  1.5037   1.5046   1.5097   1.5190   1.5222   1.5274   1.5342   1.5379
  1.5461   1.5483   1.5508   1.5599   1.5658   1.5686   1.5741   1.5775
  1.5795   1.5880   1.5991   1.6072   1.6139   1.6294   1.6383   1.6425
  1.6493   1.6640   1.6656   1.6743   1.6822   1.6871   1.6900   1.6958
  1.6976   1.7095   1.7212   1.7279   1.7327   1.7475   1.7497   1.7527
  1.7601   1.7689   1.7795   1.7839   1.7885   1.7998   1.8100   1.8123
  1.8193   1.8236   1.8338   1.8496   1.8507   1.8646   1.8660   1.8713
  1.8728   1.8818   1.8853   1.8934   1.9121   1.9190   1.9266   1.9444
  1.9595   1.9626   1.9722   1.9800   1.9891   2.0081   2.0149   2.0292
  2.0420   2.0501   2.0582   2.0701   2.0897   2.1065   2.1205   2.1278
  2.1365   2.1393   2.1560   2.1734   2.1868   2.2126   2.2193   2.2259
  2.2411   2.2554   2.2628   2.2786   2.2879   2.2907   2.3042   2.3148
  2.3165   2.3313   2.3410   2.3496   2.3652   2.3691   2.3718   2.3886
  2.4166   2.4348   2.4404   2.4460   2.4557   2.4582   2.4700   2.4771
  2.4840   2.4901   2.4957   2.5077   2.5175   2.5358   2.5537   2.5578
  2.5675   2.5721   2.5808   2.5877   2.5887   2.6025   2.6201   2.6280
  2.6308   2.6388   2.6423   2.6511   2.6606   2.6662   2.6735   2.6821
  2.6883   2.6898   2.6935   2.7120   2.7223   2.7302   2.7329   2.7368
  2.7442   2.7479   2.7578   2.7632   2.7665   2.7766   2.7806   2.7984
  2.8025   2.8269   2.8358   2.8419   2.8496   2.8512   2.8642   2.8678
  2.8724   2.8806   2.8871   2.8916   2.8964   2.9012   2.9078   2.9120
  2.9227   2.9274   2.9287   2.9364   2.9512   2.9534   2.9617   2.9719
  2.9786   2.9851   2.9961   3.0038   3.0093   3.0198   3.0202   3.0293
  3.0389   3.0446   3.0498   3.0543   3.0628   3.0730   3.0775   3.0875
  3.0883   3.0979   3.1030   3.1054   3.1081   3.1136   3.1238   3.1285
  3.1296   3.1392   3.1468   3.1516   3.1580   3.1607   3.1660   3.1743
  3.1856   3.1921   3.1972   3.2003   3.2042   3.2127   3.2226   3.2292
  3.2312   3.2335   3.2401   3.2454   3.2546   3.2612   3.2626   3.2684
  3.2729   3.2768   3.2813   3.2857   3.2924   3.2981   3.3053   3.3086
  3.3094   3.3163   3.3230   3.3271   3.3314   3.3333   3.3347   3.3409
  3.3466   3.3485   3.3507   3.3524   3.3618   3.3667   3.3679   3.3752
  3.3820   3.3841   3.3883   3.3948   3.3987   3.4009   3.4048   3.4118
  3.4172   3.4243   3.4253   3.4331   3.4377   3.4422   3.4465   3.4554
  3.4559   3.4617   3.4682   3.4703   3.4773   3.4803   3.4875   3.4893
  3.4974   3.5040   3.5099   3.5113   3.5159   3.5199   3.5246   3.5315
  3.5352   3.5392   3.5453   3.5480   3.5552   3.5578   3.5651   3.5769
  3.5859   3.5920   3.5976   3.6062   3.6080   3.6163   3.6226   3.6266
  3.6288   3.6374   3.6397   3.6426   3.6495   3.6522   3.6532   3.6638
  3.6674   3.6725   3.6782   3.6921   3.6958   3.7017   3.7112   3.7156
  3.7207   3.7237   3.7307   3.7388   3.7424   3.7473   3.7488   3.7518
  3.7601   3.7626   3.7662   3.7703   3.7750   3.7947   3.7976   3.8024
  3.8082   3.8176   3.8222   3.8242   3.8289   3.8352   3.8397   3.8438
  3.8482   3.8542   3.8673   3.8709   3.8778   3.8820   3.8926   3.9059
  3.9141   3.9168   3.9267   3.9280   3.9332   3.9399   3.9483   3.9513
  3.9561   3.9600   3.9697   3.9746   3.9840   3.9903   3.9983   4.0165
  4.0204   4.0254   4.0280   4.0370   4.0434   4.0577   4.0704   4.0754
  4.0881   4.1022   4.1116   4.1175   4.1234   4.1303   4.1412   4.1481
  4.1535   4.1607   4.1652   4.1686   4.1762   4.1829   4.1850   4.2058
  4.2123   4.2238   4.2254   4.2354   4.2401   4.2451   4.2507   4.2578
  4.2669   4.2727   4.2754   4.2781   4.2926   4.2985   4.3073   4.3098
  4.3162   4.3171   4.3272   4.3296   4.3341   4.3400   4.3447   4.3576
  4.3620   4.3677   4.3701   4.3722   4.3794   4.3829   4.3922   4.3950
  4.4008   4.4080   4.4203   4.4243   4.4314   4.4349   4.4407   4.4514
  4.4600   4.4775   4.4878   4.5010   4.5066   4.5110   4.5182   4.5289
  4.5353   4.5383   4.5502   4.5585   4.5663   4.5721   4.5813   4.5828
  4.5917   4.5955   4.6048   4.6161   4.6163   4.6225   4.6293   4.6347
  4.6492   4.6507   4.6675   4.6752   4.6824   4.6887   4.7007   4.7116
  4.7125   4.7253   4.7360   4.7626   4.7824   4.7870   4.7963   4.7972
  4.8079   4.8189   4.8285   4.8424   4.8536   4.8596   4.8738   4.8805
  4.8877   4.8955   4.9062   4.9176   4.9338   4.9447   4.9514   4.9705
  4.9905   5.0079   5.0177   5.0280   5.0318   5.0430   5.0488   5.0675
  5.0742   5.0939   5.1034   5.1141   5.1227   5.1265   5.1321   5.1347
  5.1485   5.1543   5.1748   5.1786   5.1911   5.1972   5.2142   5.2297
  5.2616   5.2683   5.2711   5.2839   5.2949   5.3070   5.3271   5.3300
  5.3319   5.3416   5.3516   5.3688   5.3780   5.3833   5.4038   5.4159
  5.4365   5.4534   5.4720   5.4868   5.4970   5.5113   5.5138   5.5153
  5.5177   5.5375   5.5454   5.5507   5.5592   5.5665   5.5697   5.5724
  5.5812   5.5833   5.5872   5.6032   5.6093   5.6193   5.6206   5.6308
  5.6485   5.6509   5.6609   5.6634   5.6662   5.6695   5.6934   5.6983
  5.7040   5.7075   5.7322   5.7370   5.7567   5.7654   5.7673   5.7744
  5.7828   5.7865   5.8068   5.8313   5.8447   5.8538   5.9022   5.9199
  5.9335   5.9542   5.9792   5.9911   6.0264   6.0334   6.0408   6.0438
  6.0639   6.0885   6.1038   6.1119   6.1227   6.1474   6.1655   6.1907
  6.2022   6.2204   6.2250   6.2254   6.2479   6.2702   6.2822   6.2842
  6.3061   6.3121   6.3268   6.3497   6.3667   6.3795   6.4507   6.4854
  6.5211   6.5344   6.5750   6.5826   6.6056   6.6201   6.6580   6.6648
  6.6736   6.6758   6.8500   6.8505   6.8895   6.9024   6.9065   6.9229
  6.9270   6.9865   7.1041   7.1205   7.1505   7.1960   7.2022   7.2391
  7.3474   7.3518   7.3578   7.3622   7.4758   7.5421   7.5706   7.5831
  7.5919   7.6202   7.6540   7.6823   7.6915   7.7150   8.8473  10.1034
 10.3285  11.3048  11.5192  11.7532  12.0328  12.1108  12.4265  12.4695
 12.9189  13.2340  13.3404  13.5563  13.7937  13.9337  14.1226  14.2954
 14.3182  14.3688  14.5295  14.5932  15.0469  15.6094  15.8417  16.3085
 --------------------------------------------------------------
 
          Ground-State Mulliken Net Atomic Charges

     Atom                 Charge (a.u.)
  ----------------------------------------
      1 C                    -0.084629
      2 C                    -0.029036
      3 C                    -0.110702
      4 C                    -0.123275
      5 H                     0.199155
      6 C                     0.016736
      7 C                     0.119790
      8 C                    -0.099867
      9 C                    -0.205892
     10 C                    -0.142796
     11 C                     0.246325
     12 H                     0.194689
     13 C                     0.343295
     14 C                     0.350831
     15 N                    -0.089902
     16 C                     0.356572
     17 C                     0.395708
     18 N                    -0.090688
     19 O                    -0.494449
     20 O                    -0.507533
     21 O                    -0.501531
     22 O                    -0.464757
     23 C                    -0.204650
     24 H                     0.139514
     25 H                     0.109088
     26 H                     0.109142
     27 C                    -0.197533
     28 H                     0.133740
     29 H                     0.111420
     30 H                     0.111862
     31 C                    -0.092235
     32 S                     0.055800
     33 C                    -0.214584
     34 C                    -0.171971
     35 C                    -0.229850
     36 H                     0.188714
     37 H                     0.186050
     38 H                     0.208501
     39 H                     0.137981
     40 H                     0.138143
     41 H                     0.202824
  ----------------------------------------
  Sum of atomic charges =     0.000000

 -----------------------------------------------------------------
                    Cartesian Multipole Moments
 -----------------------------------------------------------------
    Charge (ESU x 10^10)
                 0.0000
    Dipole Moment (Debye)
         X       0.9491      Y       1.5011      Z       1.0526
       Tot       2.0645
    Quadrupole Moments (Debye-Ang)
        XX    -175.3556     XY      -1.9907     YY    -179.2619
        XZ     -15.0055     YZ      -6.9637     ZZ    -174.6639
    Octopole Moments (Debye-Ang^2)
       XXX     -67.4540    XXY     516.8024    XYY      25.8763
       YYY    1681.0773    XXZ     -27.3332    XYZ      70.4906
       YYZ      26.8121    XZZ     -17.6823    YZZ     551.9303
       ZZZ     -87.4819
    Hexadecapole Moments (Debye-Ang^3)
      XXXX   -2678.6895   XXXY    -225.4716   XXYY   -3402.3884
      XYYY    -787.0336   YYYY  -18029.1176   XXXZ   -1511.5577
      XXYZ      -6.6656   XYYZ    -910.2810   YYYZ    -935.0909
      XXZZ   -1180.0852   XYZZ      33.3169   YYZZ   -3738.0131
      XZZZ   -1543.1538   YZZZ    -183.0792   ZZZZ   -3977.7548
 -----------------------------------------------------------------
 Total job time:  291.24s(wall), 8948.21s(cpu) 
 Wed Dec 27 11:05:40 2023

        *************************************************************
        *                                                           *
        *  Thank you very much for using Q-Chem.  Have a nice day.  *
        *                                                           *
        *************************************************************


0 sent ACK to 0 
now end server 0 ... 
cleanup process ... done
remove work dirs ./qchem1513162.0 -- ./qchem1513162.0
rm -rf ./qchem1513162.0
rm -rf ./qchem1513162
