You are running Q-Chem version: 5.4.0

#
# job setting
#
local host:  exp-2-02
current dir: /home/rramji/project-csd799/aromodel/pndit-qchem/hydrogenated-rotation-run
input file:  Dimethyl_Naphthalene_Dicarboximide_Phi_10_Theta_160_Thiophene_Hydrogenated.qcin
output file: 
nprocs     : 1
nthreads   : 64
#
# qchem installation setting
#
QC:          /cm/shared/apps/spack/cpu/opt/spack/linux-centos8-zen2/gcc-10.2.0/qchem-5.4-akfmr7b3t57bfs6qan3padb2wnb2i7cl
QCAUX:       /cm/shared/apps/spack/cpu/opt/spack/linux-centos8-zen2/gcc-10.2.0/qchem-5.4-akfmr7b3t57bfs6qan3padb2wnb2i7cl/qcaux
QCPROG:      /cm/shared/apps/spack/cpu/opt/spack/linux-centos8-zen2/gcc-10.2.0/qchem-5.4-akfmr7b3t57bfs6qan3padb2wnb2i7cl/exe/qcprog.exe
QCPROG_S:    /cm/shared/apps/spack/cpu/opt/spack/linux-centos8-zen2/gcc-10.2.0/qchem-5.4-akfmr7b3t57bfs6qan3padb2wnb2i7cl/exe/qcprog.exe_s
PARALLEL:    -DPARALLEL
QCMPI:       mpich
#
# qchem directory setting
#
qcrun:       qchem1234721
QCSCRATCH:   .
QCLOCALSCR:  
QCTMPDIR:    .
QCFILEPREF:  ./qchem1234721
QCSAVEDIR:   
workdirs:    ./qchem1234721
workdir0:    ./qchem1234721
partmpdirs =  
#
# parallel setting
#
QCRSH:           ssh
QCMPI:           mpich
QCMPIRUN:        /cm/shared/apps/spack/cpu/opt/spack/linux-centos8-zen2/gcc-10.2.0/qchem-5.4-akfmr7b3t57bfs6qan3padb2wnb2i7cl/bin/mpi/mpirun_qchem
QCMACHINEFILE:   ./qchem1234721/hostfile
exp-2-02

#
# env setting
#
exported envs:   QC QCAUX QCSCRATCH QCRUNNAME QCFILEPREF QCPROG QCPROG_S GUIFILE

Running Job 1 of 1 Dimethyl_Naphthalene_Dicarboximide_Phi_10_Theta_160_Thiophene_Hydrogenated.qcin
qchem Dimethyl_Naphthalene_Dicarboximide_Phi_10_Theta_160_Thiophene_Hydrogenated.qcin_1234721.0 ./qchem1234721/ 1
/cm/shared/apps/spack/cpu/opt/spack/linux-centos8-zen2/gcc-10.2.0/qchem-5.4-akfmr7b3t57bfs6qan3padb2wnb2i7cl/bin/mpi/mpirun_qchem -machinefile ./qchem1234721/hostfile -np 1 /cm/shared/apps/spack/cpu/opt/spack/linux-centos8-zen2/gcc-10.2.0/qchem-5.4-akfmr7b3t57bfs6qan3padb2wnb2i7cl/exe/qcprog.exe Dimethyl_Naphthalene_Dicarboximide_Phi_10_Theta_160_Thiophene_Hydrogenated.qcin_1234721.0 ./qchem1234721/

Process 0 of 1 is on exp-2-02 - thread support 0
initial socket setup ...start
initial socket setup ...done 
now start server 0 ... 
                  Welcome to Q-Chem
     A Quantum Leap Into The Future Of Chemistry


 Q-Chem 5.4, Q-Chem, Inc., Pleasanton, CA (2021)

 License issued to: University of California, San Diego (site)

 E. Epifanovsky,  A. T. B. Gilbert,  Xintian Feng,  Joonho Lee,  Yuezhi Mao,  
 N. Mardirossian,  P. Pokhilko,  A. White,  M. Wormit,  M. P. Coons,  
 A. L. Dempwolff,  Zhengting Gan,  D. Hait,  P. R. Horn,  L. D. Jacobson,  
 I. Kaliman,  J. Kussmann,  A. W. Lange,  Ka Un Lao,  D. S. Levine,  Jie Liu,  
 S. C. McKenzie,  A. F. Morrison,  K. Nanda,  F. Plasser,  D. R. Rehn,  
 M. L. Vidal,  Zhi-Qiang You,  Ying Zhu,  B. Alam,  B. Albrecht,  
 A. Aldossary,  E. Alguire,  J. H. Andersen,  D. Barton,  K. Begam,  A. Behn,  
 Y. A. Bernard,  E. J. Berquist,  H. Burton,  A. Carreras,  K. Carter-Fenk,  
 R. Chakraborty,  A. D. Chien,  K. D. Closser,  V. Cofer-Shabica,  
 S. Dasgupta,  Jia Deng,  M. de Wergifosse,  M. Diedenhofen,  Hainam Do,  
 S. Ehlert,  Po-Tung Fang,  S. Fatehi,  Qingguo Feng,  J. Gayvert,  
 Qinghui Ge,  G. Gidofalvi,  M. Goldey,  J. Gomes,  C. Gonzalez-Espinoza,  
 S. Gulania,  A. Gunina,  M. W. D. Hanson-Heine,  P. H. P. Harbach,  
 A. W. Hauser,  M. F. Herbst,  M. Hernandez Vera,  M. Hodecker,  
 Z. C. Holden,  S. Houck,  Xunkun Huang,  Kerwin Hui,  B. C. Huynh,  
 M. Ivanov,  Hyunjun Ji,  Hanjie Jiang,  B. Kaduk,  S. Kaehler,  
 K. Khistyaev,  Jaehoon Kim,  P. Klunzinger,  Z. Koczor-Benda,  
 Joong Hoon Koh,  D. Kosenkov,  L. Koulias,  T. Kowalczyk,  C. M. Krauter,  
 K. Kue,  A. Kunitsa,  T. Kus,  A. Landau,  K. V. Lawler,  D. Lefrancois,  
 S. Lehtola,  Rain Li,  Yi-Pei Li,  Jiashu Liang,  M. Liebenthal,  
 Hung-Hsuan Lin,  You-Sheng Lin,  Fenglai Liu,  Kuan-Yu Liu,  
 M. Loipersberger,  A. Luenser,  A. Manjanath,  P. Manohar,  E. Mansoor,  
 S. F. Manzer,  Shan-Ping Mao,  A. V. Marenich,  T. Markovich,  S. Mason,  
 S. A. Maurer,  P. F. McLaughlin,  M. F. S. J. Menger,  J.-M. Mewes,  
 S. A. Mewes,  P. Morgante,  J. W. Mullinax,  T. S. Nguyen-Beck,  
 K. J. Oosterbaan,  G. Paran,  Alexander C. Paul,  Suranjan K. Paul,  
 F. Pavosevic,  Zheng Pei,  S. Prager,  E. I. Proynov,  E. Ramos,  B. Rana,  
 A. E. Rask,  A. Rettig,  R. M. Richard,  F. Rob,  E. Rossomme,  T. Scheele,  
 M. Scheurer,  M. Schneider,  N. Sergueev,  S. M. Sharada,  W. Skomorowski,  
 D. W. Small,  C. J. Stein,  Yu-Chuan Su,  E. J. Sundstrom,  Zhen Tao,  
 J. Thirman,  T. Tsuchimochi,  N. M. Tubman,  S. P. Veccham,  O. Vydrov,  
 J. Wenzel,  J. Witte,  A. Yamada,  Kun Yao,  S. Yeganeh,  S. R. Yost,  
 A. Zech,  Igor Ying Zhang,  Xing Zhang,  Yu Zhang,  D. Zuev,  
 A. Aspuru-Guzik,  A. T. Bell,  N. A. Besley,  K. B. Bravaya,  B. R. Brooks,  
 D. Casanova,  Jeng-Da Chai,  S. Coriani,  C. J. Cramer,  
 A. E. DePrince, III,  R. A. DiStasio Jr.,  A. Dreuw,  B. D. Dunietz,  
 T. R. Furlani,  W. A. Goddard III,  S. Grimme,  S. Hammes-Schiffer,  
 T. Head-Gordon,  W. J. Hehre,  Chao-Ping Hsu,  T.-C. Jagau,  Yousung Jung,  
 A. Klamt,  Jing Kong,  D. S. Lambrecht,  WanZhen Liang,  N. J. Mayhall,  
 C. W. McCurdy,  J. B. Neaton,  C. Ochsenfeld,  J. A. Parkhill,  R. Peverati,  
 V. A. Rassolov,  Yihan Shao,  L. V. Slipchenko,  T. Stauch,  R. P. Steele,  
 J. E. Subotnik,  A. J. W. Thom,  A. Tkatchenko,  D. G. Truhlar,  
 T. Van Voorhis,  T. A. Wesolowski,  K. B. Whaley,  H. L. Woodcock III,  
 P. M. Zimmerman,  S. Faraji,  P. M. W. Gill,  M. Head-Gordon,  
 J. M. Herbert,  A. I. Krylov

 Contributors to earlier versions of Q-Chem not listed above: 
 R. D. Adamson,  B. Austin,  R. Baer,  J. Baker,  G. J. O. Beran,  
 K. Brandhorst,  S. T. Brown,  E. F. C. Byrd,  A. K. Chakraborty,  
 G. K. L. Chan,  Chun-Min Chang,  Yunqing Chen,  C.-L. Cheng,  
 Siu Hung Chien,  D. M. Chipman,  D. L. Crittenden,  H. Dachsel,  
 R. J. Doerksen,  A. D. Dutoi,  R. G. Edgar,  J. Fosso-Tande,  
 L. Fusti-Molnar,  D. Ghosh,  A. Ghysels,  A. Golubeva-Zadorozhnaya,  
 J. Gonthier,  M. S. Gordon,  S. R. Gwaltney,  G. Hawkins,  J. E. Herr,  
 A. Heyden,  S. Hirata,  E. G. Hohenstein,  G. Kedziora,  F. J. Keil,  
 C. Kelley,  Jihan Kim,  R. A. King,  R. Z. Khaliullin,  P. P. Korambath,  
 W. Kurlancheek,  A. Laurent,  A. M. Lee,  M. S. Lee,  S. V. Levchenko,  
 Ching Yeh Lin,  D. Liotard,  E. Livshits,  R. C. Lochan,  I. Lotan,  
 L. A. Martinez-Martinez,  P. E. Maslen,  N. Nair,  D. P. O'Neill,  
 D. Neuhauser,  E. Neuscamman,  C. M. Oana,  R. Olivares-Amaya,  R. Olson,  
 T. M. Perrine,  B. Peters,  P. A. Pieniazek,  A. Prociuk,  Y. M. Rhee,  
 J. Ritchie,  M. A. Rohrdanz,  E. Rosta,  N. J. Russ,  H. F. Schaefer III,  
 M. W. Schmidt,  N. E. Schultz,  S. Sharma,  N. Shenvi,  C. D. Sherrill,  
 A. C. Simmonett,  A. Sodt,  T. Stein,  D. Stuck,  K. S. Thanthiriwatte,  
 V. Vanovschi,  L. Vogt,  Tao Wang,  A. Warshel,  M. A. Watson,  
 C. F. Williams,  Q. Wu,  X. Xu,  Jun Yang,  W. Zhang,  Yan Zhao

 Please cite Q-Chem as follows:
 Y. Shao et al., Mol. Phys. 113, 184-215 (2015)
 DOI: 10.1080/00268976.2014.952696

 Q-Chem 5.4.0 for Intel X86 EM64T Linux

 Parts of Q-Chem use Armadillo 9.800.1 (Horizon Scraper).
 http://arma.sourceforge.net/

 Q-Chem begins on Wed Dec 27 11:25:52 2023  

 Host: 
0

     Scratch files written to ./qchem1234721//
 May1621 |scratch|qcdevops|jenkins|workspace|build_RNUM    
 Parallel job on  1  processors
 Processing $rem in /cm/shared/apps/spack/cpu/opt/spack/linux-centos8-zen2/gcc-10.2.0/qchem-5.4-akfmr7b3t57bfs6qan3padb2wnb2i7cl/config/preferences:
 Processing $rem in /home/rramji/.qchemrc:
 Symmetry turned off for PCM/SM12/SMD calculation
 Core orbitals will be frozen

 Checking the input file for inconsistencies... 	...done.

 Q-Chem warning in module forms1/BasisType.C, line 2236:

 You are not using the predefined 5D/6D in this basis set.


--------------------------------------------------------------
User input:
--------------------------------------------------------------
$molecule
0 1
C	0.089263	-6.741404	0.240927
C	0.535973	-6.155638	1.467886
C	-0.281103	-5.791452	-0.777972
C	0.631036	-4.803786	1.729742
H	0.836458	-6.821518	2.292903
C	-0.181995	-4.378638	-0.503614
C	0.272725	-3.838032	0.746756
C	-0.539954	-3.413062	-1.485437
C	0.371053	-2.426473	1.018915
C	-0.446381	-2.059348	-1.226557
C	0.000000	-1.478216	0.000000
H	-0.747410	-1.394783	-2.052413
C	-0.772747	-6.187987	-2.134128
C	-1.029154	-3.798164	-2.829820
N	-1.110828	-5.170003	-3.059182
C	1.121728	-4.424987	3.077731
C	0.864069	-2.036627	2.375694
N	1.201928	-3.049156	3.301101
O	-0.903908	-7.353131	-2.502830
O	-1.345809	-2.986854	-3.697078
O	1.434422	-5.248946	3.934752
O	1.003943	-0.878829	2.764177
C	-1.592981	-5.563799	-4.386939
H	-1.607367	-6.664085	-4.429822
H	-0.924504	-5.147101	-5.164489
H	-2.605446	-5.148785	-4.553486
C	1.677308	-2.587487	4.608481
H	1.898089	-3.483329	5.211969
H	0.902337	-1.964972	5.094624
H	2.582098	-1.962932	4.483092
C	0.000000	0.000000	0.000000
S	0.137535	0.781156	1.580530
C	0.421895	2.393994	0.904911
C	0.173134	0.982857	-0.985400
C	0.402294	2.283058	-0.493528
H	0.132237	0.750786	-2.059934
H	0.555196	3.150621	-1.152593
H	0.574741	3.261310	1.556025
H	-0.791434	-7.361589	0.447559
H	0.897345	-7.361192	-0.166282
H	-1.015049	-1.478831	0.368883
$end

$rem
JOBTYPE		SP
EXCHANGE	HF
CORRELATION	pRIMP2
BASIS		cc-pvtz
METHOD		rimp2
AUX_BASIS	rimp2-cc-pvtz
SOLVENT_METHOD	PCM
PURECART	11111
SYMMETRY	false
MEM_TOTAL	110000
SCF_CONVERGENCE = 6
THRESH=10
GUI = 2
$end



$solvent
dielectric 4.90
$end
--------------------------------------------------------------
 ----------------------------------------------------------------
             Standard Nuclear Orientation (Angstroms)
    I     Atom           X                Y                Z
 ----------------------------------------------------------------
    1      C       0.0892630000    -6.7414040000     0.2409270000
    2      C       0.5359730000    -6.1556380000     1.4678860000
    3      C      -0.2811030000    -5.7914520000    -0.7779720000
    4      C       0.6310360000    -4.8037860000     1.7297420000
    5      H       0.8364580000    -6.8215180000     2.2929030000
    6      C      -0.1819950000    -4.3786380000    -0.5036140000
    7      C       0.2727250000    -3.8380320000     0.7467560000
    8      C      -0.5399540000    -3.4130620000    -1.4854370000
    9      C       0.3710530000    -2.4264730000     1.0189150000
   10      C      -0.4463810000    -2.0593480000    -1.2265570000
   11      C       0.0000000000    -1.4782160000     0.0000000000
   12      H      -0.7474100000    -1.3947830000    -2.0524130000
   13      C      -0.7727470000    -6.1879870000    -2.1341280000
   14      C      -1.0291540000    -3.7981640000    -2.8298200000
   15      N      -1.1108280000    -5.1700030000    -3.0591820000
   16      C       1.1217280000    -4.4249870000     3.0777310000
   17      C       0.8640690000    -2.0366270000     2.3756940000
   18      N       1.2019280000    -3.0491560000     3.3011010000
   19      O      -0.9039080000    -7.3531310000    -2.5028300000
   20      O      -1.3458090000    -2.9868540000    -3.6970780000
   21      O       1.4344220000    -5.2489460000     3.9347520000
   22      O       1.0039430000    -0.8788290000     2.7641770000
   23      C      -1.5929810000    -5.5637990000    -4.3869390000
   24      H      -1.6073670000    -6.6640850000    -4.4298220000
   25      H      -0.9245040000    -5.1471010000    -5.1644890000
   26      H      -2.6054460000    -5.1487850000    -4.5534860000
   27      C       1.6773080000    -2.5874870000     4.6084810000
   28      H       1.8980890000    -3.4833290000     5.2119690000
   29      H       0.9023370000    -1.9649720000     5.0946240000
   30      H       2.5820980000    -1.9629320000     4.4830920000
   31      C       0.0000000000     0.0000000000     0.0000000000
   32      S       0.1375350000     0.7811560000     1.5805300000
   33      C       0.4218950000     2.3939940000     0.9049110000
   34      C       0.1731340000     0.9828570000    -0.9854000000
   35      C       0.4022940000     2.2830580000    -0.4935280000
   36      H       0.1322370000     0.7507860000    -2.0599340000
   37      H       0.5551960000     3.1506210000    -1.1525930000
   38      H       0.5747410000     3.2613100000     1.5560250000
   39      H      -0.7914340000    -7.3615890000     0.4475590000
   40      H       0.8973450000    -7.3611920000    -0.1662820000
   41      H      -1.0150490000    -1.4788310000     0.3688830000
 ----------------------------------------------------------------
 Nuclear Repulsion Energy =        2569.13752470 hartrees
 There are       98 alpha and       98 beta electrons
 Requested basis set is cc-pVTZ
 There are 356 shells and 1010 basis functions

 Total QAlloc Memory Limit 110000 MB
 Mega-Array Size       188 MB
 MEM_STATIC part       192 MB
 Discretize the solute cavity surface with Lebedev spheres
	Using 110 Lebedev grid points for each H atom
	Using 194 Lebedev grid points for other atoms
	Atomic van der Waals radii will be scaled by 1.20
 Remove points where switching function is < 1.0e-08
 Keep 2583 surface tesserae and discard 4195 interior tesserae
 Molecular Surface Area = 361.384 Angst**2
 Requested basis set is rimp2-cc-pVTZ
 There are 770 shells and 2648 basis functions
 A cutoff of  1.0D-10 yielded  34221 shell pairs
 There are    258783 function pairs (    334854 Cartesian)
 Smallest overlap matrix eigenvalue = 9.25E-06

 Q-Chem warning in module stvman/mkSTV.C, line 323:

 Overlap eigenvalue is smaller than square root of threshold
 Use THRESH >= 12 to get rid of this warning


 Scale SEOQF with 1.000000e-01/1.000000e-02/1.000000e-01

 Standard Electronic Orientation quadrupole field applied
 Nucleus-field energy     =    -0.0000000971 hartrees
 Guess from superposition of atomic densities
 Warning:  Energy on first SCF cycle will be non-variational
 SAD guess density has 196.000000 electrons

 -----------------------------------------------------------------------
  General SCF calculation program by
  Eric Jon Sundstrom, Paul Horn, Yuezhi Mao, Dmitri Zuev, Alec White,
  David Stuck, Shaama M.S., Shane Yost, Joonho Lee, David Small,
  Daniel Levine, Susi Lehtola, Hugh Burton, Evgeny Epifanovsky,
  Bang C. Huynh
 -----------------------------------------------------------------------
 Hartree-Fock
 using 64 threads for integral computing
 -------------------------------------------------------
 OpenMP Integral computing Module                
 Release: version 1.0, May 2013, Q-Chem Inc. Pittsburgh 
 -------------------------------------------------------
 A restricted SCF calculation will be
 performed using DIIS
 SCF converges when DIIS error is below 1.0e-06
 ---------------------------------------
  Cycle       Energy         DIIS error
 ---------------------------------------
    1   -1583.2367301561      1.87e-02  
    2   -1571.1177289522      2.03e-03  
    3   -1571.4567561161      1.55e-03  
    4   -1571.6789378301      2.55e-04  
    5   -1571.6928050786      7.91e-05  
    6   -1571.6942327915      3.08e-05  
    7   -1571.6946641813      1.63e-05  
    8   -1571.6947912484      6.61e-06  
    9   -1571.6948149166      3.07e-06  
   10   -1571.6948197831      1.29e-06  
   11   -1571.6948212426      6.00e-07  Convergence criterion met
 ---------------------------------------
 SCF time:   CPU 7107.67s  wall 289.00s 

************** Final PCM Free Energy Summary **************
 G_electrostatic  =      -0.02905399 hartree =     -18.23165424 kcal/mol
 G_cavitation     =       0.00000000 hartree =       0.00000000 kcal/mol
 G_dispersion     =       0.00000000 hartree =       0.00000000 kcal/mol
 G_repulsion      =       0.00000000 hartree =       0.00000000 kcal/mol
 --------------------------------------------------
 Non-electrostatic Free Energy =       0.00000000 hartree =       0.00000000 kcal/mol
 Total                         =      -0.02905399 hartree =     -18.23165424 kcal/mol
 --------------------------------------------------
 SCF Energy (H0 + V/2)                       =   -1571.69482124 
 Solute Internal Energy (H0)                 =   -1571.66576725 
 Total Free Energy (H0 + V/2 + non-elec)     =   -1571.69482124 hartree
                                             = -986253.38585141 kcal/mol
***********************************************************

 SCF   energy in the final basis set =    -1571.6948212426
 Total energy in the final basis set =    -1571.6948212426


 --------------------------------------------------------------
  Generalized many-body perturbation theory program
  by Joonho Lee, Fazle Rob, Xintian Feng, Evgeny Epifanovsky

 No regularization used 
 (reg. param. = 0.0000e+00)
  (P|Q)^-1/2 Time:  CPU 1164.89 s  wall 19.31 s

 In RI-MP2 calculation: 
 # of frozen core orbitals: 31

 Components of the RIMP2 correlation energy:
        aaaa    correlation energy =        -0.6184885654 a.u.
        abab    correlation energy =        -3.4324663182 a.u.
        bbbb    correlation energy =        -0.6184885654 a.u.
        non-Brillouin singles      =        -0.0000000000 a.u.
        total same-spin energy     =        -1.2369771307 a.u.
        total opposite-spin energy =        -3.4324663182 a.u.

 Total  RIMP2   correlation energy =        -4.6694434490 a.u.
        RIMP2         total energy =     -1576.3642646916 a.u.

 RI-MP2 Energy Time:  CPU 3102.05 s  wall 51.97 s
 
 --------------------------------------------------------------
 
                    Orbital Energies (a.u.)
 --------------------------------------------------------------
 
 Alpha MOs
 -- Occupied --
-91.9720 -20.5542 -20.5466 -20.5425 -20.5414 -15.6306 -15.6222 -11.4002
-11.3873 -11.3845 -11.3800 -11.3124 -11.3097 -11.3086 -11.3061 -11.2992
-11.2910 -11.2903 -11.2707 -11.2702 -11.2663 -11.2649 -11.2611 -11.2600
-11.2543 -11.2453 -11.2355  -8.9723  -6.6528  -6.6516  -6.6508  -1.4306
 -1.4131  -1.4028  -1.3922  -1.2673  -1.2565  -1.2313  -1.1850  -1.1458
 -1.1158  -1.0865  -1.0492  -0.9942  -0.9894  -0.9750  -0.9565  -0.9478
 -0.8983  -0.8908  -0.8797  -0.8630  -0.7918  -0.7810  -0.7755  -0.7595
 -0.7306  -0.7245  -0.7012  -0.6902  -0.6883  -0.6737  -0.6689  -0.6590
 -0.6512  -0.6446  -0.6385  -0.6332  -0.6325  -0.6319  -0.6240  -0.6060
 -0.5892  -0.5722  -0.5658  -0.5628  -0.5563  -0.5534  -0.5531  -0.5494
 -0.5485  -0.5455  -0.5193  -0.5143  -0.5121  -0.4869  -0.4796  -0.4637
 -0.4561  -0.4448  -0.4380  -0.4218  -0.4086  -0.4012  -0.3552  -0.3276
 -0.3240  -0.2780
 -- Virtual --
  0.0107   0.0409   0.0898   0.1060   0.1416   0.1503   0.1580   0.1587
  0.1634   0.1732   0.1779   0.1823   0.1876   0.1937   0.2018   0.2035
  0.2169   0.2223   0.2278   0.2296   0.2307   0.2359   0.2528   0.2584
  0.2637   0.2722   0.3023   0.3121   0.3181   0.3211   0.3280   0.3299
  0.3381   0.3433   0.3455   0.3523   0.3551   0.3602   0.3638   0.3688
  0.3713   0.3795   0.3869   0.3893   0.3948   0.4020   0.4061   0.4074
  0.4197   0.4242   0.4280   0.4335   0.4385   0.4444   0.4479   0.4534
  0.4573   0.4592   0.4652   0.4729   0.4773   0.4838   0.4887   0.4924
  0.4983   0.5030   0.5092   0.5124   0.5134   0.5177   0.5213   0.5272
  0.5401   0.5441   0.5462   0.5497   0.5546   0.5585   0.5657   0.5662
  0.5687   0.5747   0.5840   0.5892   0.5910   0.5947   0.5988   0.6018
  0.6032   0.6056   0.6090   0.6140   0.6148   0.6159   0.6210   0.6241
  0.6259   0.6298   0.6344   0.6358   0.6417   0.6435   0.6508   0.6606
  0.6656   0.6720   0.6768   0.6833   0.6872   0.6948   0.6997   0.7010
  0.7154   0.7247   0.7326   0.7366   0.7377   0.7415   0.7549   0.7604
  0.7677   0.7706   0.7724   0.7824   0.7934   0.8011   0.8030   0.8077
  0.8121   0.8184   0.8223   0.8285   0.8352   0.8418   0.8441   0.8507
  0.8570   0.8621   0.8649   0.8689   0.8751   0.8792   0.8835   0.8899
  0.8982   0.9018   0.9097   0.9100   0.9170   0.9252   0.9276   0.9318
  0.9357   0.9434   0.9489   0.9577   0.9608   0.9653   0.9707   0.9765
  0.9867   0.9891   0.9932   0.9962   1.0028   1.0084   1.0191   1.0220
  1.0262   1.0313   1.0387   1.0436   1.0525   1.0595   1.0621   1.0685
  1.0698   1.0734   1.0776   1.0802   1.0908   1.0983   1.1062   1.1085
  1.1113   1.1151   1.1224   1.1262   1.1314   1.1347   1.1385   1.1453
  1.1470   1.1593   1.1616   1.1697   1.1723   1.1766   1.1816   1.1879
  1.1961   1.1994   1.2033   1.2045   1.2076   1.2167   1.2226   1.2290
  1.2362   1.2372   1.2392   1.2472   1.2566   1.2595   1.2645   1.2727
  1.2764   1.2830   1.2972   1.3050   1.3179   1.3202   1.3273   1.3364
  1.3419   1.3514   1.3608   1.3667   1.3720   1.3765   1.3816   1.3874
  1.3905   1.3924   1.4011   1.4056   1.4171   1.4283   1.4399   1.4435
  1.4594   1.4622   1.4633   1.4676   1.4757   1.4793   1.4875   1.5013
  1.5057   1.5089   1.5139   1.5169   1.5262   1.5320   1.5351   1.5411
  1.5483   1.5532   1.5579   1.5590   1.5645   1.5708   1.5724   1.5818
  1.5870   1.5900   1.5995   1.6071   1.6202   1.6267   1.6380   1.6484
  1.6564   1.6579   1.6615   1.6777   1.6805   1.6889   1.6943   1.6984
  1.7096   1.7240   1.7271   1.7331   1.7417   1.7425   1.7513   1.7527
  1.7564   1.7639   1.7765   1.7816   1.7943   1.7999   1.8124   1.8132
  1.8211   1.8355   1.8372   1.8526   1.8548   1.8629   1.8655   1.8692
  1.8700   1.8844   1.8953   1.9017   1.9082   1.9238   1.9382   1.9415
  1.9536   1.9629   1.9690   1.9746   1.9891   1.9934   2.0187   2.0275
  2.0343   2.0553   2.0768   2.0947   2.0983   2.1039   2.1279   2.1351
  2.1434   2.1604   2.1749   2.1841   2.1873   2.2092   2.2297   2.2337
  2.2383   2.2546   2.2669   2.2872   2.2895   2.2910   2.3060   2.3177
  2.3225   2.3284   2.3427   2.3554   2.3639   2.3743   2.3801   2.3874
  2.4242   2.4347   2.4429   2.4524   2.4530   2.4618   2.4722   2.4743
  2.4838   2.4917   2.5022   2.5148   2.5279   2.5400   2.5569   2.5619
  2.5648   2.5729   2.5822   2.5837   2.5914   2.6029   2.6182   2.6253
  2.6319   2.6393   2.6418   2.6506   2.6557   2.6635   2.6752   2.6827
  2.6849   2.6910   2.7105   2.7167   2.7240   2.7288   2.7366   2.7384
  2.7466   2.7498   2.7573   2.7592   2.7692   2.7757   2.7832   2.7996
  2.8104   2.8216   2.8312   2.8377   2.8440   2.8567   2.8666   2.8776
  2.8801   2.8823   2.8871   2.8897   2.8981   2.9062   2.9085   2.9134
  2.9191   2.9218   2.9302   2.9401   2.9519   2.9551   2.9645   2.9670
  2.9800   2.9845   2.9906   3.0034   3.0150   3.0171   3.0244   3.0253
  3.0359   3.0428   3.0478   3.0548   3.0614   3.0722   3.0757   3.0783
  3.0952   3.0983   3.1030   3.1033   3.1076   3.1145   3.1221   3.1241
  3.1275   3.1361   3.1493   3.1585   3.1609   3.1629   3.1710   3.1785
  3.1818   3.1931   3.1973   3.2025   3.2100   3.2162   3.2237   3.2288
  3.2322   3.2360   3.2425   3.2475   3.2539   3.2616   3.2636   3.2652
  3.2742   3.2755   3.2845   3.2855   3.2881   3.2988   3.3000   3.3098
  3.3148   3.3166   3.3219   3.3290   3.3299   3.3322   3.3356   3.3385
  3.3432   3.3452   3.3495   3.3552   3.3643   3.3667   3.3683   3.3729
  3.3799   3.3809   3.3908   3.3956   3.4012   3.4032   3.4085   3.4155
  3.4199   3.4227   3.4286   3.4332   3.4378   3.4452   3.4508   3.4550
  3.4581   3.4626   3.4681   3.4725   3.4746   3.4785   3.4853   3.4885
  3.4992   3.5052   3.5119   3.5147   3.5199   3.5209   3.5247   3.5255
  3.5348   3.5421   3.5483   3.5549   3.5621   3.5653   3.5714   3.5839
  3.5874   3.5909   3.5940   3.6016   3.6092   3.6147   3.6259   3.6307
  3.6348   3.6365   3.6433   3.6460   3.6516   3.6545   3.6599   3.6632
  3.6694   3.6824   3.6850   3.6887   3.6942   3.6994   3.7056   3.7186
  3.7257   3.7284   3.7356   3.7383   3.7404   3.7462   3.7486   3.7550
  3.7594   3.7651   3.7686   3.7753   3.7812   3.7844   3.7968   3.8049
  3.8077   3.8141   3.8214   3.8234   3.8289   3.8307   3.8370   3.8438
  3.8481   3.8543   3.8610   3.8704   3.8743   3.8813   3.8890   3.9044
  3.9144   3.9191   3.9277   3.9300   3.9388   3.9480   3.9523   3.9532
  3.9602   3.9659   3.9727   3.9759   3.9941   3.9962   4.0049   4.0159
  4.0220   4.0251   4.0344   4.0465   4.0569   4.0629   4.0683   4.0733
  4.0892   4.1112   4.1146   4.1158   4.1226   4.1314   4.1393   4.1408
  4.1455   4.1595   4.1667   4.1693   4.1767   4.1806   4.1896   4.2080
  4.2098   4.2210   4.2309   4.2353   4.2391   4.2441   4.2527   4.2591
  4.2668   4.2757   4.2776   4.2810   4.2903   4.2990   4.3007   4.3118
  4.3172   4.3175   4.3257   4.3319   4.3356   4.3363   4.3445   4.3598
  4.3660   4.3679   4.3692   4.3772   4.3802   4.3859   4.3927   4.3957
  4.4044   4.4068   4.4175   4.4214   4.4272   4.4372   4.4424   4.4536
  4.4637   4.4741   4.4940   4.5018   4.5113   4.5198   4.5250   4.5355
  4.5369   4.5438   4.5514   4.5573   4.5662   4.5778   4.5814   4.5882
  4.5931   4.5983   4.6041   4.6137   4.6189   4.6254   4.6278   4.6401
  4.6499   4.6577   4.6684   4.6773   4.6906   4.6943   4.7035   4.7047
  4.7110   4.7355   4.7404   4.7708   4.7784   4.7861   4.7946   4.8079
  4.8135   4.8261   4.8345   4.8398   4.8474   4.8566   4.8780   4.8861
  4.8907   4.8979   4.9180   4.9204   4.9363   4.9420   4.9613   4.9705
  4.9886   5.0109   5.0207   5.0248   5.0322   5.0403   5.0505   5.0747
  5.0770   5.0999   5.1018   5.1095   5.1207   5.1307   5.1350   5.1404
  5.1450   5.1619   5.1726   5.1864   5.1885   5.2004   5.2065   5.2287
  5.2597   5.2646   5.2706   5.2840   5.3011   5.3155   5.3274   5.3294
  5.3365   5.3487   5.3582   5.3677   5.3766   5.3782   5.4016   5.4144
  5.4420   5.4506   5.4645   5.4878   5.4964   5.5112   5.5129   5.5167
  5.5293   5.5327   5.5431   5.5561   5.5571   5.5658   5.5703   5.5705
  5.5805   5.5848   5.5862   5.6073   5.6082   5.6201   5.6280   5.6298
  5.6474   5.6538   5.6594   5.6637   5.6655   5.6709   5.6925   5.6961
  5.7021   5.7070   5.7325   5.7411   5.7560   5.7620   5.7632   5.7748
  5.7818   5.7947   5.8133   5.8301   5.8484   5.8562   5.9010   5.9227
  5.9370   5.9569   5.9726   5.9919   6.0248   6.0346   6.0414   6.0491
  6.0783   6.0957   6.1038   6.1100   6.1209   6.1585   6.1784   6.1919
  6.2046   6.2191   6.2250   6.2265   6.2550   6.2750   6.2816   6.2900
  6.3012   6.3156   6.3297   6.3540   6.3681   6.3794   6.4635   6.4882
  6.5219   6.5371   6.5701   6.5817   6.6075   6.6288   6.6551   6.6601
  6.6728   6.7110   6.8500   6.8519   6.8896   6.9013   6.9050   6.9250
  6.9265   6.9866   7.1043   7.1341   7.1591   7.1940   7.2163   7.2728
  7.3462   7.3508   7.3572   7.3620   7.4753   7.5411   7.5706   7.5829
  7.5923   7.6356   7.6541   7.6888   7.6990   7.7336   8.8943  10.1437
 10.3248  11.2756  11.5264  11.7692  12.0651  12.1391  12.4391  12.4968
 12.9381  13.2886  13.3666  13.5690  13.8045  13.9312  14.1160  14.3108
 14.3509  14.3993  14.5672  14.6892  15.0470  15.6229  15.8402  16.2954
 --------------------------------------------------------------
 
          Ground-State Mulliken Net Atomic Charges

     Atom                 Charge (a.u.)
  ----------------------------------------
      1 C                    -0.084425
      2 C                    -0.027913
      3 C                    -0.108321
      4 C                    -0.123305
      5 H                     0.199833
      6 C                     0.023988
      7 C                     0.122957
      8 C                    -0.107627
      9 C                    -0.213099
     10 C                    -0.133300
     11 C                     0.239273
     12 H                     0.195132
     13 C                     0.342997
     14 C                     0.351036
     15 N                    -0.090264
     16 C                     0.358605
     17 C                     0.396772
     18 N                    -0.089825
     19 O                    -0.493764
     20 O                    -0.507283
     21 O                    -0.499573
     22 O                    -0.448645
     23 C                    -0.204665
     24 H                     0.139602
     25 H                     0.109511
     26 H                     0.109299
     27 C                    -0.198947
     28 H                     0.134790
     29 H                     0.112639
     30 H                     0.113030
     31 C                    -0.084507
     32 S                     0.063688
     33 C                    -0.238827
     34 C                    -0.164345
     35 C                    -0.248992
     36 H                     0.181105
     37 H                     0.180671
     38 H                     0.203593
     39 H                     0.138669
     40 H                     0.138944
     41 H                     0.211494
  ----------------------------------------
  Sum of atomic charges =     0.000000

 -----------------------------------------------------------------
                    Cartesian Multipole Moments
 -----------------------------------------------------------------
    Charge (ESU x 10^10)
                 0.0000
    Dipole Moment (Debye)
         X       0.1657      Y       0.3678      Z       1.4899
       Tot       1.5435
    Quadrupole Moments (Debye-Ang)
        XX    -165.9440     XY      -0.5076     YY    -177.9636
        XZ      -9.2193     YZ      -9.1491     ZZ    -182.8243
    Octopole Moments (Debye-Ang^2)
       XXX     -41.3676    XXY     471.5237    XYY      12.8737
       YYY    1660.8621    XXZ     -29.5633    XYZ      44.5160
       YYZ      36.0708    XZZ      -8.4144    YZZ     586.3391
       ZZZ     -89.1534
    Hexadecapole Moments (Debye-Ang^3)
      XXXX    -889.4034   XXXY    -166.6868   XXYY   -2856.5551
      XYYY    -426.2662   YYYY  -17958.1855   XXXZ    -943.3222
      XXYZ    -101.2698   XYYZ    -587.7057   YYYZ   -1150.7662
      XXZZ   -1115.0597   XYZZ      45.5331   YYZZ   -4273.0624
      XZZZ   -1038.3617   YZZZ    -133.7126   ZZZZ   -5833.5117
 -----------------------------------------------------------------
 Total job time:  346.87s(wall), 10426.41s(cpu) 
 Wed Dec 27 11:31:39 2023

        *************************************************************
        *                                                           *
        *  Thank you very much for using Q-Chem.  Have a nice day.  *
        *                                                           *
        *************************************************************


0 sent ACK to 0 
now end server 0 ... 
cleanup process ... done
remove work dirs ./qchem1234721.0 -- ./qchem1234721.0
rm -rf ./qchem1234721.0
rm -rf ./qchem1234721
