You are running Q-Chem version: 5.4.0

#
# job setting
#
local host:  exp-2-47
current dir: /home/rramji/project-csd799/aromodel/pndit-qchem/hydrogenated-rotation-run
input file:  Dimethyl_Naphthalene_Dicarboximide_Phi_40_Theta_230_Thiophene_Hydrogenated.qcin
output file: 
nprocs     : 1
nthreads   : 64
#
# qchem installation setting
#
QC:          /cm/shared/apps/spack/cpu/opt/spack/linux-centos8-zen2/gcc-10.2.0/qchem-5.4-akfmr7b3t57bfs6qan3padb2wnb2i7cl
QCAUX:       /cm/shared/apps/spack/cpu/opt/spack/linux-centos8-zen2/gcc-10.2.0/qchem-5.4-akfmr7b3t57bfs6qan3padb2wnb2i7cl/qcaux
QCPROG:      /cm/shared/apps/spack/cpu/opt/spack/linux-centos8-zen2/gcc-10.2.0/qchem-5.4-akfmr7b3t57bfs6qan3padb2wnb2i7cl/exe/qcprog.exe
QCPROG_S:    /cm/shared/apps/spack/cpu/opt/spack/linux-centos8-zen2/gcc-10.2.0/qchem-5.4-akfmr7b3t57bfs6qan3padb2wnb2i7cl/exe/qcprog.exe_s
PARALLEL:    -DPARALLEL
QCMPI:       mpich
#
# qchem directory setting
#
qcrun:       qchem3786312
QCSCRATCH:   .
QCLOCALSCR:  
QCTMPDIR:    .
QCFILEPREF:  ./qchem3786312
QCSAVEDIR:   
workdirs:    ./qchem3786312
workdir0:    ./qchem3786312
partmpdirs =  
#
# parallel setting
#
QCRSH:           ssh
QCMPI:           mpich
QCMPIRUN:        /cm/shared/apps/spack/cpu/opt/spack/linux-centos8-zen2/gcc-10.2.0/qchem-5.4-akfmr7b3t57bfs6qan3padb2wnb2i7cl/bin/mpi/mpirun_qchem
QCMACHINEFILE:   ./qchem3786312/hostfile
exp-2-47

#
# env setting
#
exported envs:   QC QCAUX QCSCRATCH QCRUNNAME QCFILEPREF QCPROG QCPROG_S GUIFILE

Running Job 1 of 1 Dimethyl_Naphthalene_Dicarboximide_Phi_40_Theta_230_Thiophene_Hydrogenated.qcin
qchem Dimethyl_Naphthalene_Dicarboximide_Phi_40_Theta_230_Thiophene_Hydrogenated.qcin_3786312.0 ./qchem3786312/ 1
/cm/shared/apps/spack/cpu/opt/spack/linux-centos8-zen2/gcc-10.2.0/qchem-5.4-akfmr7b3t57bfs6qan3padb2wnb2i7cl/bin/mpi/mpirun_qchem -machinefile ./qchem3786312/hostfile -np 1 /cm/shared/apps/spack/cpu/opt/spack/linux-centos8-zen2/gcc-10.2.0/qchem-5.4-akfmr7b3t57bfs6qan3padb2wnb2i7cl/exe/qcprog.exe Dimethyl_Naphthalene_Dicarboximide_Phi_40_Theta_230_Thiophene_Hydrogenated.qcin_3786312.0 ./qchem3786312/

Process 0 of 1 is on exp-2-47 - thread support 0
initial socket setup ...start
initial socket setup ...done 
now start server 0 ... 
                  Welcome to Q-Chem
     A Quantum Leap Into The Future Of Chemistry


 Q-Chem 5.4, Q-Chem, Inc., Pleasanton, CA (2021)

 License issued to: University of California, San Diego (site)

 E. Epifanovsky,  A. T. B. Gilbert,  Xintian Feng,  Joonho Lee,  Yuezhi Mao,  
 N. Mardirossian,  P. Pokhilko,  A. White,  M. Wormit,  M. P. Coons,  
 A. L. Dempwolff,  Zhengting Gan,  D. Hait,  P. R. Horn,  L. D. Jacobson,  
 I. Kaliman,  J. Kussmann,  A. W. Lange,  Ka Un Lao,  D. S. Levine,  Jie Liu,  
 S. C. McKenzie,  A. F. Morrison,  K. Nanda,  F. Plasser,  D. R. Rehn,  
 M. L. Vidal,  Zhi-Qiang You,  Ying Zhu,  B. Alam,  B. Albrecht,  
 A. Aldossary,  E. Alguire,  J. H. Andersen,  D. Barton,  K. Begam,  A. Behn,  
 Y. A. Bernard,  E. J. Berquist,  H. Burton,  A. Carreras,  K. Carter-Fenk,  
 R. Chakraborty,  A. D. Chien,  K. D. Closser,  V. Cofer-Shabica,  
 S. Dasgupta,  Jia Deng,  M. de Wergifosse,  M. Diedenhofen,  Hainam Do,  
 S. Ehlert,  Po-Tung Fang,  S. Fatehi,  Qingguo Feng,  J. Gayvert,  
 Qinghui Ge,  G. Gidofalvi,  M. Goldey,  J. Gomes,  C. Gonzalez-Espinoza,  
 S. Gulania,  A. Gunina,  M. W. D. Hanson-Heine,  P. H. P. Harbach,  
 A. W. Hauser,  M. F. Herbst,  M. Hernandez Vera,  M. Hodecker,  
 Z. C. Holden,  S. Houck,  Xunkun Huang,  Kerwin Hui,  B. C. Huynh,  
 M. Ivanov,  Hyunjun Ji,  Hanjie Jiang,  B. Kaduk,  S. Kaehler,  
 K. Khistyaev,  Jaehoon Kim,  P. Klunzinger,  Z. Koczor-Benda,  
 Joong Hoon Koh,  D. Kosenkov,  L. Koulias,  T. Kowalczyk,  C. M. Krauter,  
 K. Kue,  A. Kunitsa,  T. Kus,  A. Landau,  K. V. Lawler,  D. Lefrancois,  
 S. Lehtola,  Rain Li,  Yi-Pei Li,  Jiashu Liang,  M. Liebenthal,  
 Hung-Hsuan Lin,  You-Sheng Lin,  Fenglai Liu,  Kuan-Yu Liu,  
 M. Loipersberger,  A. Luenser,  A. Manjanath,  P. Manohar,  E. Mansoor,  
 S. F. Manzer,  Shan-Ping Mao,  A. V. Marenich,  T. Markovich,  S. Mason,  
 S. A. Maurer,  P. F. McLaughlin,  M. F. S. J. Menger,  J.-M. Mewes,  
 S. A. Mewes,  P. Morgante,  J. W. Mullinax,  T. S. Nguyen-Beck,  
 K. J. Oosterbaan,  G. Paran,  Alexander C. Paul,  Suranjan K. Paul,  
 F. Pavosevic,  Zheng Pei,  S. Prager,  E. I. Proynov,  E. Ramos,  B. Rana,  
 A. E. Rask,  A. Rettig,  R. M. Richard,  F. Rob,  E. Rossomme,  T. Scheele,  
 M. Scheurer,  M. Schneider,  N. Sergueev,  S. M. Sharada,  W. Skomorowski,  
 D. W. Small,  C. J. Stein,  Yu-Chuan Su,  E. J. Sundstrom,  Zhen Tao,  
 J. Thirman,  T. Tsuchimochi,  N. M. Tubman,  S. P. Veccham,  O. Vydrov,  
 J. Wenzel,  J. Witte,  A. Yamada,  Kun Yao,  S. Yeganeh,  S. R. Yost,  
 A. Zech,  Igor Ying Zhang,  Xing Zhang,  Yu Zhang,  D. Zuev,  
 A. Aspuru-Guzik,  A. T. Bell,  N. A. Besley,  K. B. Bravaya,  B. R. Brooks,  
 D. Casanova,  Jeng-Da Chai,  S. Coriani,  C. J. Cramer,  
 A. E. DePrince, III,  R. A. DiStasio Jr.,  A. Dreuw,  B. D. Dunietz,  
 T. R. Furlani,  W. A. Goddard III,  S. Grimme,  S. Hammes-Schiffer,  
 T. Head-Gordon,  W. J. Hehre,  Chao-Ping Hsu,  T.-C. Jagau,  Yousung Jung,  
 A. Klamt,  Jing Kong,  D. S. Lambrecht,  WanZhen Liang,  N. J. Mayhall,  
 C. W. McCurdy,  J. B. Neaton,  C. Ochsenfeld,  J. A. Parkhill,  R. Peverati,  
 V. A. Rassolov,  Yihan Shao,  L. V. Slipchenko,  T. Stauch,  R. P. Steele,  
 J. E. Subotnik,  A. J. W. Thom,  A. Tkatchenko,  D. G. Truhlar,  
 T. Van Voorhis,  T. A. Wesolowski,  K. B. Whaley,  H. L. Woodcock III,  
 P. M. Zimmerman,  S. Faraji,  P. M. W. Gill,  M. Head-Gordon,  
 J. M. Herbert,  A. I. Krylov

 Contributors to earlier versions of Q-Chem not listed above: 
 R. D. Adamson,  B. Austin,  R. Baer,  J. Baker,  G. J. O. Beran,  
 K. Brandhorst,  S. T. Brown,  E. F. C. Byrd,  A. K. Chakraborty,  
 G. K. L. Chan,  Chun-Min Chang,  Yunqing Chen,  C.-L. Cheng,  
 Siu Hung Chien,  D. M. Chipman,  D. L. Crittenden,  H. Dachsel,  
 R. J. Doerksen,  A. D. Dutoi,  R. G. Edgar,  J. Fosso-Tande,  
 L. Fusti-Molnar,  D. Ghosh,  A. Ghysels,  A. Golubeva-Zadorozhnaya,  
 J. Gonthier,  M. S. Gordon,  S. R. Gwaltney,  G. Hawkins,  J. E. Herr,  
 A. Heyden,  S. Hirata,  E. G. Hohenstein,  G. Kedziora,  F. J. Keil,  
 C. Kelley,  Jihan Kim,  R. A. King,  R. Z. Khaliullin,  P. P. Korambath,  
 W. Kurlancheek,  A. Laurent,  A. M. Lee,  M. S. Lee,  S. V. Levchenko,  
 Ching Yeh Lin,  D. Liotard,  E. Livshits,  R. C. Lochan,  I. Lotan,  
 L. A. Martinez-Martinez,  P. E. Maslen,  N. Nair,  D. P. O'Neill,  
 D. Neuhauser,  E. Neuscamman,  C. M. Oana,  R. Olivares-Amaya,  R. Olson,  
 T. M. Perrine,  B. Peters,  P. A. Pieniazek,  A. Prociuk,  Y. M. Rhee,  
 J. Ritchie,  M. A. Rohrdanz,  E. Rosta,  N. J. Russ,  H. F. Schaefer III,  
 M. W. Schmidt,  N. E. Schultz,  S. Sharma,  N. Shenvi,  C. D. Sherrill,  
 A. C. Simmonett,  A. Sodt,  T. Stein,  D. Stuck,  K. S. Thanthiriwatte,  
 V. Vanovschi,  L. Vogt,  Tao Wang,  A. Warshel,  M. A. Watson,  
 C. F. Williams,  Q. Wu,  X. Xu,  Jun Yang,  W. Zhang,  Yan Zhao

 Please cite Q-Chem as follows:
 Y. Shao et al., Mol. Phys. 113, 184-215 (2015)
 DOI: 10.1080/00268976.2014.952696

 Q-Chem 5.4.0 for Intel X86 EM64T Linux

 Parts of Q-Chem use Armadillo 9.800.1 (Horizon Scraper).
 http://arma.sourceforge.net/

 Q-Chem begins on Wed Dec 27 11:50:43 2023  

 Host: 
0

     Scratch files written to ./qchem3786312//
 May1621 |scratch|qcdevops|jenkins|workspace|build_RNUM    
 Parallel job on  1  processors
 Processing $rem in /cm/shared/apps/spack/cpu/opt/spack/linux-centos8-zen2/gcc-10.2.0/qchem-5.4-akfmr7b3t57bfs6qan3padb2wnb2i7cl/config/preferences:
 Processing $rem in /home/rramji/.qchemrc:
 Symmetry turned off for PCM/SM12/SMD calculation
 Core orbitals will be frozen

 Checking the input file for inconsistencies... 	...done.

 Q-Chem warning in module forms1/BasisType.C, line 2236:

 You are not using the predefined 5D/6D in this basis set.


--------------------------------------------------------------
User input:
--------------------------------------------------------------
$molecule
0 1
C	-0.195868	-6.741404	0.166281
C	-1.196048	-6.155638	1.005696
C	0.634911	-5.791452	-0.530233
C	-1.409599	-4.803786	1.184587
H	-1.868538	-6.821518	1.570232
C	0.410996	-4.378638	-0.343266
C	-0.608444	-3.838032	0.511683
C	1.211179	-3.413062	-1.015440
C	-0.830559	-2.426473	0.697165
C	0.999915	-2.059348	-0.838968
C	0.000000	-1.478216	0.000000
H	1.673009	-1.394783	-1.404302
C	1.741129	-6.187987	-1.456059
C	2.307170	-3.798164	-1.934944
N	2.494766	-5.170003	-2.090139
C	-2.508468	-4.424987	2.106725
C	-1.936893	-2.036627	1.624494
N	-2.690936	-3.049156	2.258486
O	2.042736	-7.353131	-1.705414
O	3.013823	-2.986854	-2.529122
O	-3.206857	-5.248946	2.693680
O	-2.254108	-0.878829	1.888802
C	3.577543	-5.563799	-2.997334
H	3.612920	-6.664085	-3.025519
H	4.536833	-5.147101	-2.635109
H	3.387762	-5.148785	-4.005702
C	-3.756883	-2.587487	3.152347
H	-4.248464	-3.483329	3.566218
H	-4.478763	-1.964972	2.590383
H	-3.329599	-1.962932	3.959687
C	0.000000	0.000000	0.000000
S	0.509686	0.607733	1.580530
C	1.562368	1.862312	0.904911
C	0.641367	0.764613	-0.985400
C	1.489926	1.776040	-0.493528
H	0.489914	0.584081	-2.059934
H	2.056124	2.450920	-1.152593
H	2.128395	2.537007	1.556025
H	-0.691254	-7.361589	-0.590631
H	0.463164	-7.361192	0.786357
H	-0.693804	-1.478831	-0.827669
$end

$rem
JOBTYPE		SP
EXCHANGE	HF
CORRELATION	pRIMP2
BASIS		cc-pvtz
METHOD		rimp2
AUX_BASIS	rimp2-cc-pvtz
SOLVENT_METHOD	PCM
PURECART	11111
SYMMETRY	false
MEM_TOTAL	110000
SCF_CONVERGENCE = 6
THRESH=10
GUI = 2
$end



$solvent
dielectric 4.90
$end
--------------------------------------------------------------
 ----------------------------------------------------------------
             Standard Nuclear Orientation (Angstroms)
    I     Atom           X                Y                Z
 ----------------------------------------------------------------
    1      C      -0.1958680000    -6.7414040000     0.1662810000
    2      C      -1.1960480000    -6.1556380000     1.0056960000
    3      C       0.6349110000    -5.7914520000    -0.5302330000
    4      C      -1.4095990000    -4.8037860000     1.1845870000
    5      H      -1.8685380000    -6.8215180000     1.5702320000
    6      C       0.4109960000    -4.3786380000    -0.3432660000
    7      C      -0.6084440000    -3.8380320000     0.5116830000
    8      C       1.2111790000    -3.4130620000    -1.0154400000
    9      C      -0.8305590000    -2.4264730000     0.6971650000
   10      C       0.9999150000    -2.0593480000    -0.8389680000
   11      C       0.0000000000    -1.4782160000     0.0000000000
   12      H       1.6730090000    -1.3947830000    -1.4043020000
   13      C       1.7411290000    -6.1879870000    -1.4560590000
   14      C       2.3071700000    -3.7981640000    -1.9349440000
   15      N       2.4947660000    -5.1700030000    -2.0901390000
   16      C      -2.5084680000    -4.4249870000     2.1067250000
   17      C      -1.9368930000    -2.0366270000     1.6244940000
   18      N      -2.6909360000    -3.0491560000     2.2584860000
   19      O       2.0427360000    -7.3531310000    -1.7054140000
   20      O       3.0138230000    -2.9868540000    -2.5291220000
   21      O      -3.2068570000    -5.2489460000     2.6936800000
   22      O      -2.2541080000    -0.8788290000     1.8888020000
   23      C       3.5775430000    -5.5637990000    -2.9973340000
   24      H       3.6129200000    -6.6640850000    -3.0255190000
   25      H       4.5368330000    -5.1471010000    -2.6351090000
   26      H       3.3877620000    -5.1487850000    -4.0057020000
   27      C      -3.7568830000    -2.5874870000     3.1523470000
   28      H      -4.2484640000    -3.4833290000     3.5662180000
   29      H      -4.4787630000    -1.9649720000     2.5903830000
   30      H      -3.3295990000    -1.9629320000     3.9596870000
   31      C       0.0000000000     0.0000000000     0.0000000000
   32      S       0.5096860000     0.6077330000     1.5805300000
   33      C       1.5623680000     1.8623120000     0.9049110000
   34      C       0.6413670000     0.7646130000    -0.9854000000
   35      C       1.4899260000     1.7760400000    -0.4935280000
   36      H       0.4899140000     0.5840810000    -2.0599340000
   37      H       2.0561240000     2.4509200000    -1.1525930000
   38      H       2.1283950000     2.5370070000     1.5560250000
   39      H      -0.6912540000    -7.3615890000    -0.5906310000
   40      H       0.4631640000    -7.3611920000     0.7863570000
   41      H      -0.6938040000    -1.4788310000    -0.8276690000
 ----------------------------------------------------------------
 Nuclear Repulsion Energy =        2565.97034822 hartrees
 There are       98 alpha and       98 beta electrons
 Requested basis set is cc-pVTZ
 There are 356 shells and 1010 basis functions

 Total QAlloc Memory Limit 110000 MB
 Mega-Array Size       188 MB
 MEM_STATIC part       192 MB
 Discretize the solute cavity surface with Lebedev spheres
	Using 110 Lebedev grid points for each H atom
	Using 194 Lebedev grid points for other atoms
	Atomic van der Waals radii will be scaled by 1.20
 Remove points where switching function is < 1.0e-08
 Keep 2570 surface tesserae and discard 4208 interior tesserae
 Molecular Surface Area = 366.531 Angst**2
 Requested basis set is rimp2-cc-pVTZ
 There are 770 shells and 2648 basis functions
 A cutoff of  1.0D-10 yielded  34354 shell pairs
 There are    259616 function pairs (    335900 Cartesian)
 Smallest overlap matrix eigenvalue = 8.73E-06

 Q-Chem warning in module stvman/mkSTV.C, line 323:

 Overlap eigenvalue is smaller than square root of threshold
 Use THRESH >= 12 to get rid of this warning


 Scale SEOQF with 1.000000e-01/1.000000e-02/1.000000e-01

 Standard Electronic Orientation quadrupole field applied
 Nucleus-field energy     =    -0.0000000117 hartrees
 Guess from superposition of atomic densities
 Warning:  Energy on first SCF cycle will be non-variational
 SAD guess density has 196.000000 electrons

 -----------------------------------------------------------------------
  General SCF calculation program by
  Eric Jon Sundstrom, Paul Horn, Yuezhi Mao, Dmitri Zuev, Alec White,
  David Stuck, Shaama M.S., Shane Yost, Joonho Lee, David Small,
  Daniel Levine, Susi Lehtola, Hugh Burton, Evgeny Epifanovsky,
  Bang C. Huynh
 -----------------------------------------------------------------------
 Hartree-Fock
 using 64 threads for integral computing
 -------------------------------------------------------
 OpenMP Integral computing Module                
 Release: version 1.0, May 2013, Q-Chem Inc. Pittsburgh 
 -------------------------------------------------------
 A restricted SCF calculation will be
 performed using DIIS
 SCF converges when DIIS error is below 1.0e-06
 ---------------------------------------
  Cycle       Energy         DIIS error
 ---------------------------------------
    1   -1583.1452324049      1.86e-02  
    2   -1571.1461645523      2.02e-03  
    3   -1571.4846635663      1.54e-03  
    4   -1571.7030508134      2.53e-04  
    5   -1571.7168707226      7.77e-05  
    6   -1571.7182945697      2.99e-05  
    7   -1571.7187243929      1.54e-05  
    8   -1571.7188413582      6.42e-06  
    9   -1571.7188618986      2.94e-06  
   10   -1571.7188661597      1.25e-06  
   11   -1571.7188674097      5.70e-07  Convergence criterion met
 ---------------------------------------
 SCF time:   CPU 6631.50s  wall 252.00s 

************** Final PCM Free Energy Summary **************
 G_electrostatic  =      -0.03115304 hartree =     -19.54882927 kcal/mol
 G_cavitation     =       0.00000000 hartree =       0.00000000 kcal/mol
 G_dispersion     =       0.00000000 hartree =       0.00000000 kcal/mol
 G_repulsion      =       0.00000000 hartree =       0.00000000 kcal/mol
 --------------------------------------------------
 Non-electrostatic Free Energy =       0.00000000 hartree =       0.00000000 kcal/mol
 Total                         =      -0.03115304 hartree =     -19.54882927 kcal/mol
 --------------------------------------------------
 SCF Energy (H0 + V/2)                       =   -1571.71886741 
 Solute Internal Energy (H0)                 =   -1571.68771437 
 Total Free Energy (H0 + V/2 + non-elec)     =   -1571.71886741 hartree
                                             = -986268.47504897 kcal/mol
***********************************************************

 SCF   energy in the final basis set =    -1571.7188674097
 Total energy in the final basis set =    -1571.7188674097


 --------------------------------------------------------------
  Generalized many-body perturbation theory program
  by Joonho Lee, Fazle Rob, Xintian Feng, Evgeny Epifanovsky

 No regularization used 
 (reg. param. = 0.0000e+00)
  (P|Q)^-1/2 Time:  CPU 155.27 s  wall 2.72 s

 In RI-MP2 calculation: 
 # of frozen core orbitals: 31

 Components of the RIMP2 correlation energy:
        aaaa    correlation energy =        -0.6167688325 a.u.
        abab    correlation energy =        -3.4301205588 a.u.
        bbbb    correlation energy =        -0.6167688325 a.u.
        non-Brillouin singles      =        -0.0000000000 a.u.
        total same-spin energy     =        -1.2335376651 a.u.
        total opposite-spin energy =        -3.4301205588 a.u.

 Total  RIMP2   correlation energy =        -4.6636582239 a.u.
        RIMP2         total energy =     -1576.3825256336 a.u.

 RI-MP2 Energy Time:  CPU 1972.65 s  wall 32.20 s
 
 --------------------------------------------------------------
 
                    Orbital Energies (a.u.)
 --------------------------------------------------------------
 
 Alpha MOs
 -- Occupied --
-91.9856 -20.5533 -20.5442 -20.5403 -20.5398 -15.6270 -15.6207 -11.3940
-11.3849 -11.3823 -11.3784 -11.3077 -11.3073 -11.3044 -11.3038 -11.2960
-11.2891 -11.2879 -11.2871 -11.2675 -11.2667 -11.2636 -11.2626 -11.2626
-11.2592 -11.2524 -11.2518  -8.9856  -6.6664  -6.6657  -6.6653  -1.4202
 -1.4114  -1.3975  -1.3905  -1.2621  -1.2547  -1.2302  -1.1889  -1.1524
 -1.1133  -1.0853  -1.0461  -0.9970  -0.9880  -0.9865  -0.9549  -0.9497
 -0.8961  -0.8873  -0.8760  -0.8587  -0.7929  -0.7767  -0.7717  -0.7652
 -0.7384  -0.7165  -0.7037  -0.6918  -0.6818  -0.6727  -0.6666  -0.6568
 -0.6466  -0.6440  -0.6368  -0.6327  -0.6302  -0.6272  -0.6208  -0.6051
 -0.5851  -0.5748  -0.5716  -0.5615  -0.5576  -0.5512  -0.5503  -0.5472
 -0.5461  -0.5435  -0.5255  -0.5101  -0.5060  -0.4800  -0.4733  -0.4604
 -0.4560  -0.4506  -0.4420  -0.4338  -0.4132  -0.4068  -0.3541  -0.3517
 -0.3320  -0.2822
 -- Virtual --
  0.0144   0.0440   0.0714   0.0924   0.1373   0.1503   0.1543   0.1609
  0.1636   0.1724   0.1775   0.1800   0.1839   0.1876   0.2003   0.2049
  0.2159   0.2223   0.2249   0.2291   0.2298   0.2334   0.2390   0.2421
  0.2667   0.2698   0.3017   0.3042   0.3149   0.3204   0.3238   0.3305
  0.3307   0.3389   0.3426   0.3514   0.3541   0.3619   0.3633   0.3721
  0.3753   0.3774   0.3818   0.3868   0.3913   0.3931   0.3989   0.4087
  0.4118   0.4155   0.4243   0.4301   0.4329   0.4450   0.4453   0.4496
  0.4513   0.4614   0.4633   0.4648   0.4763   0.4816   0.4882   0.4905
  0.4942   0.4996   0.5057   0.5088   0.5149   0.5186   0.5217   0.5247
  0.5338   0.5371   0.5479   0.5498   0.5563   0.5570   0.5664   0.5671
  0.5741   0.5762   0.5792   0.5860   0.5910   0.5931   0.5947   0.5982
  0.6038   0.6047   0.6092   0.6093   0.6118   0.6177   0.6211   0.6246
  0.6259   0.6310   0.6345   0.6360   0.6374   0.6407   0.6490   0.6550
  0.6585   0.6680   0.6744   0.6833   0.6863   0.6882   0.6979   0.7003
  0.7071   0.7175   0.7280   0.7305   0.7354   0.7424   0.7501   0.7594
  0.7657   0.7670   0.7723   0.7747   0.7783   0.7851   0.7951   0.8042
  0.8081   0.8110   0.8123   0.8187   0.8319   0.8394   0.8450   0.8494
  0.8507   0.8536   0.8633   0.8681   0.8705   0.8742   0.8801   0.8907
  0.8915   0.8961   0.9002   0.9063   0.9104   0.9217   0.9246   0.9289
  0.9340   0.9375   0.9425   0.9555   0.9601   0.9673   0.9720   0.9788
  0.9856   0.9908   0.9924   0.9975   0.9992   1.0073   1.0107   1.0142
  1.0305   1.0323   1.0358   1.0394   1.0505   1.0559   1.0595   1.0631
  1.0689   1.0732   1.0766   1.0822   1.0868   1.0929   1.0967   1.1020
  1.1063   1.1206   1.1231   1.1247   1.1321   1.1363   1.1413   1.1459
  1.1519   1.1539   1.1551   1.1660   1.1766   1.1810   1.1873   1.1887
  1.1894   1.1982   1.2014   1.2062   1.2106   1.2145   1.2199   1.2257
  1.2325   1.2393   1.2424   1.2480   1.2565   1.2597   1.2720   1.2750
  1.2892   1.2943   1.3005   1.3108   1.3166   1.3194   1.3308   1.3431
  1.3481   1.3508   1.3601   1.3653   1.3705   1.3801   1.3836   1.3878
  1.3941   1.3981   1.4017   1.4147   1.4172   1.4209   1.4273   1.4345
  1.4461   1.4576   1.4615   1.4715   1.4769   1.4792   1.4851   1.4909
  1.4977   1.5058   1.5148   1.5169   1.5227   1.5250   1.5326   1.5399
  1.5408   1.5476   1.5516   1.5588   1.5658   1.5703   1.5736   1.5765
  1.5830   1.5935   1.5996   1.6134   1.6233   1.6276   1.6430   1.6471
  1.6519   1.6625   1.6707   1.6767   1.6835   1.6853   1.6909   1.6951
  1.7067   1.7139   1.7178   1.7258   1.7391   1.7432   1.7521   1.7570
  1.7579   1.7693   1.7763   1.7794   1.7863   1.7983   1.8012   1.8162
  1.8209   1.8272   1.8416   1.8419   1.8514   1.8651   1.8692   1.8733
  1.8760   1.8836   1.8946   1.9003   1.9087   1.9228   1.9405   1.9464
  1.9539   1.9576   1.9710   1.9867   1.9884   2.0034   2.0085   2.0264
  2.0354   2.0396   2.0539   2.0558   2.0875   2.0939   2.1047   2.1265
  2.1348   2.1418   2.1525   2.1606   2.1734   2.1864   2.2064   2.2184
  2.2271   2.2356   2.2571   2.2587   2.2789   2.2869   2.2968   2.3088
  2.3133   2.3167   2.3312   2.3377   2.3475   2.3704   2.3710   2.3877
  2.3986   2.4124   2.4299   2.4405   2.4476   2.4545   2.4628   2.4669
  2.4754   2.4858   2.4978   2.5073   2.5119   2.5288   2.5570   2.5580
  2.5597   2.5719   2.5727   2.5858   2.5951   2.5996   2.6073   2.6219
  2.6243   2.6278   2.6399   2.6434   2.6574   2.6607   2.6644   2.6752
  2.6828   2.6892   2.6952   2.7080   2.7202   2.7242   2.7317   2.7395
  2.7428   2.7524   2.7581   2.7623   2.7739   2.7765   2.7855   2.7971
  2.8198   2.8310   2.8389   2.8452   2.8530   2.8560   2.8665   2.8736
  2.8804   2.8820   2.8911   2.8936   2.8989   2.9028   2.9136   2.9142
  2.9193   2.9290   2.9317   2.9429   2.9540   2.9615   2.9661   2.9767
  2.9806   2.9832   2.9963   3.0041   3.0056   3.0164   3.0213   3.0294
  3.0318   3.0455   3.0468   3.0567   3.0632   3.0719   3.0772   3.0842
  3.0935   3.1001   3.1021   3.1078   3.1089   3.1110   3.1175   3.1221
  3.1272   3.1350   3.1464   3.1479   3.1571   3.1591   3.1626   3.1755
  3.1773   3.1844   3.1928   3.1963   3.2096   3.2141   3.2202   3.2226
  3.2301   3.2387   3.2448   3.2475   3.2540   3.2554   3.2572   3.2654
  3.2691   3.2719   3.2770   3.2834   3.2857   3.2969   3.3021   3.3072
  3.3100   3.3123   3.3175   3.3210   3.3246   3.3287   3.3359   3.3409
  3.3435   3.3487   3.3519   3.3553   3.3608   3.3671   3.3714   3.3732
  3.3783   3.3840   3.3894   3.3906   3.3947   3.3995   3.4059   3.4096
  3.4161   3.4205   3.4247   3.4273   3.4346   3.4395   3.4425   3.4460
  3.4519   3.4559   3.4633   3.4664   3.4703   3.4767   3.4850   3.4864
  3.4916   3.4983   3.5091   3.5124   3.5170   3.5184   3.5243   3.5294
  3.5343   3.5437   3.5455   3.5582   3.5641   3.5687   3.5779   3.5834
  3.5863   3.5902   3.5991   3.6139   3.6159   3.6191   3.6251   3.6278
  3.6356   3.6398   3.6424   3.6450   3.6530   3.6537   3.6594   3.6655
  3.6722   3.6803   3.6840   3.6921   3.6957   3.7008   3.7050   3.7147
  3.7234   3.7280   3.7338   3.7385   3.7434   3.7503   3.7538   3.7604
  3.7617   3.7721   3.7770   3.7773   3.7834   3.7940   3.8005   3.8108
  3.8126   3.8153   3.8204   3.8280   3.8333   3.8353   3.8434   3.8525
  3.8558   3.8629   3.8693   3.8726   3.8797   3.8851   3.8979   3.9122
  3.9149   3.9162   3.9319   3.9398   3.9425   3.9456   3.9520   3.9575
  3.9586   3.9707   3.9771   3.9819   3.9838   3.9991   4.0023   4.0122
  4.0161   4.0196   4.0325   4.0419   4.0512   4.0597   4.0725   4.0753
  4.0917   4.1066   4.1097   4.1184   4.1245   4.1295   4.1412   4.1446
  4.1536   4.1576   4.1599   4.1715   4.1817   4.1860   4.1962   4.2052
  4.2118   4.2225   4.2250   4.2406   4.2441   4.2544   4.2612   4.2676
  4.2689   4.2774   4.2778   4.2885   4.2954   4.3023   4.3042   4.3094
  4.3144   4.3215   4.3283   4.3300   4.3419   4.3422   4.3480   4.3535
  4.3549   4.3692   4.3703   4.3763   4.3780   4.3819   4.3946   4.3979
  4.4033   4.4081   4.4161   4.4207   4.4226   4.4418   4.4493   4.4654
  4.4758   4.4801   4.4903   4.4956   4.5100   4.5187   4.5206   4.5273
  4.5359   4.5430   4.5458   4.5642   4.5677   4.5756   4.5829   4.5905
  4.5936   4.5999   4.6030   4.6118   4.6184   4.6269   4.6318   4.6389
  4.6461   4.6612   4.6660   4.6683   4.6839   4.6987   4.7046   4.7143
  4.7236   4.7349   4.7455   4.7655   4.7796   4.7859   4.7910   4.7966
  4.8097   4.8233   4.8332   4.8405   4.8545   4.8569   4.8643   4.8826
  4.8852   4.8982   4.9032   4.9221   4.9387   4.9412   4.9590   4.9638
  4.9800   5.0004   5.0116   5.0257   5.0334   5.0392   5.0513   5.0586
  5.0736   5.0990   5.1063   5.1200   5.1225   5.1267   5.1353   5.1381
  5.1489   5.1537   5.1694   5.1803   5.1883   5.2086   5.2188   5.2206
  5.2525   5.2630   5.2718   5.2863   5.2880   5.3066   5.3136   5.3268
  5.3305   5.3335   5.3503   5.3728   5.3796   5.3903   5.4041   5.4168
  5.4369   5.4493   5.4565   5.4859   5.5001   5.5039   5.5146   5.5152
  5.5177   5.5320   5.5432   5.5544   5.5564   5.5645   5.5676   5.5759
  5.5793   5.5867   5.5905   5.6058   5.6103   5.6215   5.6287   5.6328
  5.6462   5.6513   5.6599   5.6635   5.6671   5.6710   5.6919   5.6943
  5.6961   5.7099   5.7338   5.7390   5.7487   5.7538   5.7651   5.7705
  5.7850   5.7909   5.7970   5.8304   5.8433   5.8548   5.8794   5.9012
  5.9493   5.9534   5.9696   5.9926   5.9989   6.0189   6.0308   6.0419
  6.0440   6.0502   6.0948   6.1119   6.1239   6.1394   6.1514   6.1862
  6.1969   6.2193   6.2208   6.2258   6.2429   6.2542   6.2762   6.2842
  6.3073   6.3113   6.3244   6.3478   6.3665   6.3865   6.4022   6.4845
  6.5199   6.5329   6.5746   6.5826   6.5844   6.6145   6.6166   6.6595
  6.6750   6.6898   6.8458   6.8516   6.8904   6.9027   6.9057   6.9253
  6.9278   6.9353   7.1033   7.1098   7.1495   7.1933   7.1995   7.2364
  7.3480   7.3526   7.3580   7.3614   7.4766   7.5428   7.5724   7.5836
  7.5879   7.5964   7.6553   7.6832   7.6926   7.7140   8.8874  10.1199
 10.3072  11.2855  11.5151  11.7749  11.9881  12.2610  12.4475  12.4731
 12.9218  13.2156  13.3429  13.5639  13.7781  13.9279  14.1070  14.3027
 14.3504  14.3884  14.5151  14.6170  14.9896  15.6185  15.7950  16.3324
 --------------------------------------------------------------
 
          Ground-State Mulliken Net Atomic Charges

     Atom                 Charge (a.u.)
  ----------------------------------------
      1 C                    -0.084845
      2 C                    -0.031783
      3 C                    -0.112896
      4 C                    -0.122430
      5 H                     0.198607
      6 C                     0.022210
      7 C                     0.119341
      8 C                    -0.092321
      9 C                    -0.185325
     10 C                    -0.157437
     11 C                     0.207424
     12 H                     0.196538
     13 C                     0.340993
     14 C                     0.348180
     15 N                    -0.089327
     16 C                     0.356529
     17 C                     0.351654
     18 N                    -0.090231
     19 O                    -0.496713
     20 O                    -0.510239
     21 O                    -0.501477
     22 O                    -0.472504
     23 C                    -0.205251
     24 H                     0.139497
     25 H                     0.108998
     26 H                     0.108559
     27 C                    -0.197854
     28 H                     0.133266
     29 H                     0.111666
     30 H                     0.112069
     31 C                    -0.024716
     32 S                     0.038088
     33 C                    -0.192031
     34 C                    -0.211552
     35 C                    -0.196458
     36 H                     0.195982
     37 H                     0.193126
     38 H                     0.211438
     39 H                     0.136671
     40 H                     0.137147
     41 H                     0.207407
  ----------------------------------------
  Sum of atomic charges =     0.000000

 -----------------------------------------------------------------
                    Cartesian Multipole Moments
 -----------------------------------------------------------------
    Charge (ESU x 10^10)
                 0.0000
    Dipole Moment (Debye)
         X       0.1022      Y       2.4081      Z      -0.9352
       Tot       2.5853
    Quadrupole Moments (Debye-Ang)
        XX    -177.4735     XY      13.9722     YY    -184.1455
        XZ      17.0499     YZ      -4.5191     ZZ    -169.9745
    Octopole Moments (Debye-Ang^2)
       XXX     -49.0222    XXY     565.2778    XYY     -54.1274
       YYY    1715.7095    XXZ     -23.7535    XYZ     -64.8994
       YYZ      18.3149    XZZ     -12.0278    YZZ     537.8703
       ZZZ     -83.6666
    Hexadecapole Moments (Debye-Ang^3)
      XXXX   -3929.5072   XXXY      37.4284   XXYY   -3700.3651
      XYYY     828.8585   YYYY  -18038.6169   XXXZ    1513.6204
      XXYZ      38.2980   XYYZ     917.5715   YYYZ    -794.9536
      XXZZ   -1200.6239   XYZZ     -29.0814   YYZZ   -3401.7963
      XZZZ    1474.5944   YZZZ    -191.4735   ZZZZ   -2912.5778
 -----------------------------------------------------------------
 Total job time:  314.06s(wall), 10294.70s(cpu) 
 Wed Dec 27 11:55:57 2023

        *************************************************************
        *                                                           *
        *  Thank you very much for using Q-Chem.  Have a nice day.  *
        *                                                           *
        *************************************************************


0 sent ACK to 0 
now end server 0 ... 
cleanup process ... done
remove work dirs ./qchem3786312.0 -- ./qchem3786312.0
rm -rf ./qchem3786312.0
rm -rf ./qchem3786312
