You are running Q-Chem version: 5.4.0

#
# job setting
#
local host:  exp-2-02
current dir: /home/rramji/project-csd799/aromodel/pndit-qchem/hydrogenated-rotation-run
input file:  Dimethyl_Naphthalene_Dicarboximide_Phi_10_Theta_180_Thiophene_Hydrogenated.qcin
output file: 
nprocs     : 1
nthreads   : 64
#
# qchem installation setting
#
QC:          /cm/shared/apps/spack/cpu/opt/spack/linux-centos8-zen2/gcc-10.2.0/qchem-5.4-akfmr7b3t57bfs6qan3padb2wnb2i7cl
QCAUX:       /cm/shared/apps/spack/cpu/opt/spack/linux-centos8-zen2/gcc-10.2.0/qchem-5.4-akfmr7b3t57bfs6qan3padb2wnb2i7cl/qcaux
QCPROG:      /cm/shared/apps/spack/cpu/opt/spack/linux-centos8-zen2/gcc-10.2.0/qchem-5.4-akfmr7b3t57bfs6qan3padb2wnb2i7cl/exe/qcprog.exe
QCPROG_S:    /cm/shared/apps/spack/cpu/opt/spack/linux-centos8-zen2/gcc-10.2.0/qchem-5.4-akfmr7b3t57bfs6qan3padb2wnb2i7cl/exe/qcprog.exe_s
PARALLEL:    -DPARALLEL
QCMPI:       mpich
#
# qchem directory setting
#
qcrun:       qchem1237451
QCSCRATCH:   .
QCLOCALSCR:  
QCTMPDIR:    .
QCFILEPREF:  ./qchem1237451
QCSAVEDIR:   
workdirs:    ./qchem1237451
workdir0:    ./qchem1237451
partmpdirs =  
#
# parallel setting
#
QCRSH:           ssh
QCMPI:           mpich
QCMPIRUN:        /cm/shared/apps/spack/cpu/opt/spack/linux-centos8-zen2/gcc-10.2.0/qchem-5.4-akfmr7b3t57bfs6qan3padb2wnb2i7cl/bin/mpi/mpirun_qchem
QCMACHINEFILE:   ./qchem1237451/hostfile
exp-2-02

#
# env setting
#
exported envs:   QC QCAUX QCSCRATCH QCRUNNAME QCFILEPREF QCPROG QCPROG_S GUIFILE

Running Job 1 of 1 Dimethyl_Naphthalene_Dicarboximide_Phi_10_Theta_180_Thiophene_Hydrogenated.qcin
qchem Dimethyl_Naphthalene_Dicarboximide_Phi_10_Theta_180_Thiophene_Hydrogenated.qcin_1237451.0 ./qchem1237451/ 1
/cm/shared/apps/spack/cpu/opt/spack/linux-centos8-zen2/gcc-10.2.0/qchem-5.4-akfmr7b3t57bfs6qan3padb2wnb2i7cl/bin/mpi/mpirun_qchem -machinefile ./qchem1237451/hostfile -np 1 /cm/shared/apps/spack/cpu/opt/spack/linux-centos8-zen2/gcc-10.2.0/qchem-5.4-akfmr7b3t57bfs6qan3padb2wnb2i7cl/exe/qcprog.exe Dimethyl_Naphthalene_Dicarboximide_Phi_10_Theta_180_Thiophene_Hydrogenated.qcin_1237451.0 ./qchem1237451/

Process 0 of 1 is on exp-2-02 - thread support 0
initial socket setup ...start
initial socket setup ...done 
now start server 0 ... 
                  Welcome to Q-Chem
     A Quantum Leap Into The Future Of Chemistry


 Q-Chem 5.4, Q-Chem, Inc., Pleasanton, CA (2021)

 License issued to: University of California, San Diego (site)

 E. Epifanovsky,  A. T. B. Gilbert,  Xintian Feng,  Joonho Lee,  Yuezhi Mao,  
 N. Mardirossian,  P. Pokhilko,  A. White,  M. Wormit,  M. P. Coons,  
 A. L. Dempwolff,  Zhengting Gan,  D. Hait,  P. R. Horn,  L. D. Jacobson,  
 I. Kaliman,  J. Kussmann,  A. W. Lange,  Ka Un Lao,  D. S. Levine,  Jie Liu,  
 S. C. McKenzie,  A. F. Morrison,  K. Nanda,  F. Plasser,  D. R. Rehn,  
 M. L. Vidal,  Zhi-Qiang You,  Ying Zhu,  B. Alam,  B. Albrecht,  
 A. Aldossary,  E. Alguire,  J. H. Andersen,  D. Barton,  K. Begam,  A. Behn,  
 Y. A. Bernard,  E. J. Berquist,  H. Burton,  A. Carreras,  K. Carter-Fenk,  
 R. Chakraborty,  A. D. Chien,  K. D. Closser,  V. Cofer-Shabica,  
 S. Dasgupta,  Jia Deng,  M. de Wergifosse,  M. Diedenhofen,  Hainam Do,  
 S. Ehlert,  Po-Tung Fang,  S. Fatehi,  Qingguo Feng,  J. Gayvert,  
 Qinghui Ge,  G. Gidofalvi,  M. Goldey,  J. Gomes,  C. Gonzalez-Espinoza,  
 S. Gulania,  A. Gunina,  M. W. D. Hanson-Heine,  P. H. P. Harbach,  
 A. W. Hauser,  M. F. Herbst,  M. Hernandez Vera,  M. Hodecker,  
 Z. C. Holden,  S. Houck,  Xunkun Huang,  Kerwin Hui,  B. C. Huynh,  
 M. Ivanov,  Hyunjun Ji,  Hanjie Jiang,  B. Kaduk,  S. Kaehler,  
 K. Khistyaev,  Jaehoon Kim,  P. Klunzinger,  Z. Koczor-Benda,  
 Joong Hoon Koh,  D. Kosenkov,  L. Koulias,  T. Kowalczyk,  C. M. Krauter,  
 K. Kue,  A. Kunitsa,  T. Kus,  A. Landau,  K. V. Lawler,  D. Lefrancois,  
 S. Lehtola,  Rain Li,  Yi-Pei Li,  Jiashu Liang,  M. Liebenthal,  
 Hung-Hsuan Lin,  You-Sheng Lin,  Fenglai Liu,  Kuan-Yu Liu,  
 M. Loipersberger,  A. Luenser,  A. Manjanath,  P. Manohar,  E. Mansoor,  
 S. F. Manzer,  Shan-Ping Mao,  A. V. Marenich,  T. Markovich,  S. Mason,  
 S. A. Maurer,  P. F. McLaughlin,  M. F. S. J. Menger,  J.-M. Mewes,  
 S. A. Mewes,  P. Morgante,  J. W. Mullinax,  T. S. Nguyen-Beck,  
 K. J. Oosterbaan,  G. Paran,  Alexander C. Paul,  Suranjan K. Paul,  
 F. Pavosevic,  Zheng Pei,  S. Prager,  E. I. Proynov,  E. Ramos,  B. Rana,  
 A. E. Rask,  A. Rettig,  R. M. Richard,  F. Rob,  E. Rossomme,  T. Scheele,  
 M. Scheurer,  M. Schneider,  N. Sergueev,  S. M. Sharada,  W. Skomorowski,  
 D. W. Small,  C. J. Stein,  Yu-Chuan Su,  E. J. Sundstrom,  Zhen Tao,  
 J. Thirman,  T. Tsuchimochi,  N. M. Tubman,  S. P. Veccham,  O. Vydrov,  
 J. Wenzel,  J. Witte,  A. Yamada,  Kun Yao,  S. Yeganeh,  S. R. Yost,  
 A. Zech,  Igor Ying Zhang,  Xing Zhang,  Yu Zhang,  D. Zuev,  
 A. Aspuru-Guzik,  A. T. Bell,  N. A. Besley,  K. B. Bravaya,  B. R. Brooks,  
 D. Casanova,  Jeng-Da Chai,  S. Coriani,  C. J. Cramer,  
 A. E. DePrince, III,  R. A. DiStasio Jr.,  A. Dreuw,  B. D. Dunietz,  
 T. R. Furlani,  W. A. Goddard III,  S. Grimme,  S. Hammes-Schiffer,  
 T. Head-Gordon,  W. J. Hehre,  Chao-Ping Hsu,  T.-C. Jagau,  Yousung Jung,  
 A. Klamt,  Jing Kong,  D. S. Lambrecht,  WanZhen Liang,  N. J. Mayhall,  
 C. W. McCurdy,  J. B. Neaton,  C. Ochsenfeld,  J. A. Parkhill,  R. Peverati,  
 V. A. Rassolov,  Yihan Shao,  L. V. Slipchenko,  T. Stauch,  R. P. Steele,  
 J. E. Subotnik,  A. J. W. Thom,  A. Tkatchenko,  D. G. Truhlar,  
 T. Van Voorhis,  T. A. Wesolowski,  K. B. Whaley,  H. L. Woodcock III,  
 P. M. Zimmerman,  S. Faraji,  P. M. W. Gill,  M. Head-Gordon,  
 J. M. Herbert,  A. I. Krylov

 Contributors to earlier versions of Q-Chem not listed above: 
 R. D. Adamson,  B. Austin,  R. Baer,  J. Baker,  G. J. O. Beran,  
 K. Brandhorst,  S. T. Brown,  E. F. C. Byrd,  A. K. Chakraborty,  
 G. K. L. Chan,  Chun-Min Chang,  Yunqing Chen,  C.-L. Cheng,  
 Siu Hung Chien,  D. M. Chipman,  D. L. Crittenden,  H. Dachsel,  
 R. J. Doerksen,  A. D. Dutoi,  R. G. Edgar,  J. Fosso-Tande,  
 L. Fusti-Molnar,  D. Ghosh,  A. Ghysels,  A. Golubeva-Zadorozhnaya,  
 J. Gonthier,  M. S. Gordon,  S. R. Gwaltney,  G. Hawkins,  J. E. Herr,  
 A. Heyden,  S. Hirata,  E. G. Hohenstein,  G. Kedziora,  F. J. Keil,  
 C. Kelley,  Jihan Kim,  R. A. King,  R. Z. Khaliullin,  P. P. Korambath,  
 W. Kurlancheek,  A. Laurent,  A. M. Lee,  M. S. Lee,  S. V. Levchenko,  
 Ching Yeh Lin,  D. Liotard,  E. Livshits,  R. C. Lochan,  I. Lotan,  
 L. A. Martinez-Martinez,  P. E. Maslen,  N. Nair,  D. P. O'Neill,  
 D. Neuhauser,  E. Neuscamman,  C. M. Oana,  R. Olivares-Amaya,  R. Olson,  
 T. M. Perrine,  B. Peters,  P. A. Pieniazek,  A. Prociuk,  Y. M. Rhee,  
 J. Ritchie,  M. A. Rohrdanz,  E. Rosta,  N. J. Russ,  H. F. Schaefer III,  
 M. W. Schmidt,  N. E. Schultz,  S. Sharma,  N. Shenvi,  C. D. Sherrill,  
 A. C. Simmonett,  A. Sodt,  T. Stein,  D. Stuck,  K. S. Thanthiriwatte,  
 V. Vanovschi,  L. Vogt,  Tao Wang,  A. Warshel,  M. A. Watson,  
 C. F. Williams,  Q. Wu,  X. Xu,  Jun Yang,  W. Zhang,  Yan Zhao

 Please cite Q-Chem as follows:
 Y. Shao et al., Mol. Phys. 113, 184-215 (2015)
 DOI: 10.1080/00268976.2014.952696

 Q-Chem 5.4.0 for Intel X86 EM64T Linux

 Parts of Q-Chem use Armadillo 9.800.1 (Horizon Scraper).
 http://arma.sourceforge.net/

 Q-Chem begins on Wed Dec 27 11:37:22 2023  

 Host: 
0

     Scratch files written to ./qchem1237451//
 May1621 |scratch|qcdevops|jenkins|workspace|build_RNUM    
 Parallel job on  1  processors
 Processing $rem in /cm/shared/apps/spack/cpu/opt/spack/linux-centos8-zen2/gcc-10.2.0/qchem-5.4-akfmr7b3t57bfs6qan3padb2wnb2i7cl/config/preferences:
 Processing $rem in /home/rramji/.qchemrc:
 Symmetry turned off for PCM/SM12/SMD calculation
 Core orbitals will be frozen

 Checking the input file for inconsistencies... 	...done.

 Q-Chem warning in module forms1/BasisType.C, line 2236:

 You are not using the predefined 5D/6D in this basis set.


--------------------------------------------------------------
User input:
--------------------------------------------------------------
$molecule
0 1
C	0.001478	-6.741404	0.256927
C	0.001603	-6.155638	1.562675
C	0.001931	-5.791452	-0.827197
C	0.001374	-4.803786	1.841253
H	0.001794	-6.821518	2.440709
C	0.001227	-4.378638	-0.535488
C	0.000872	-3.838032	0.794999
C	0.000658	-3.413062	-1.580529
C	0.000186	-2.426473	1.084374
C	0.000046	-2.059348	-1.305258
C	0.000000	-1.478216	0.000000
H	-0.000369	-1.394783	-2.184267
C	0.003770	-6.187987	-2.269719
C	0.000767	-3.798164	-3.011152
N	0.002465	-5.170003	-3.254617
C	0.001433	-4.424987	3.275775
C	-0.000576	-2.036627	2.527951
N	0.000400	-3.049156	3.513104
O	0.006623	-7.353131	-2.661046
O	-0.000172	-2.986854	-3.934410
O	0.002151	-5.248946	4.188059
O	-0.002006	-0.878829	2.940845
C	0.003509	-5.563799	-4.667206
H	0.004658	-6.664085	-4.712423
H	0.897610	-5.147101	-5.169231
H	-0.890935	-5.148785	-5.169992
C	-0.000039	-2.587487	4.904229
H	0.001022	-3.483329	5.546833
H	-0.894545	-1.964972	5.095998
H	0.893071	-1.962932	5.095858
C	0.000000	0.000000	0.000000
S	0.137535	0.781156	1.580530
C	0.421895	2.393994	0.904911
C	0.173134	0.982857	-0.985400
C	0.402294	2.283058	-0.493528
H	0.132237	0.750786	-2.059934
H	0.555196	3.150621	-1.152593
H	0.574741	3.261310	1.556025
H	-0.896779	-7.361589	0.149881
H	0.900100	-7.361192	0.150656
H	-1.080000	-1.478831	-0.000531
$end

$rem
JOBTYPE		SP
EXCHANGE	HF
CORRELATION	pRIMP2
BASIS		cc-pvtz
METHOD		rimp2
AUX_BASIS	rimp2-cc-pvtz
SOLVENT_METHOD	PCM
PURECART	11111
SYMMETRY	false
MEM_TOTAL	110000
SCF_CONVERGENCE = 6
THRESH=10
GUI = 2
$end



$solvent
dielectric 4.90
$end
--------------------------------------------------------------
 ----------------------------------------------------------------
             Standard Nuclear Orientation (Angstroms)
    I     Atom           X                Y                Z
 ----------------------------------------------------------------
    1      C       0.0014780000    -6.7414040000     0.2569270000
    2      C       0.0016030000    -6.1556380000     1.5626750000
    3      C       0.0019310000    -5.7914520000    -0.8271970000
    4      C       0.0013740000    -4.8037860000     1.8412530000
    5      H       0.0017940000    -6.8215180000     2.4407090000
    6      C       0.0012270000    -4.3786380000    -0.5354880000
    7      C       0.0008720000    -3.8380320000     0.7949990000
    8      C       0.0006580000    -3.4130620000    -1.5805290000
    9      C       0.0001860000    -2.4264730000     1.0843740000
   10      C       0.0000460000    -2.0593480000    -1.3052580000
   11      C       0.0000000000    -1.4782160000     0.0000000000
   12      H      -0.0003690000    -1.3947830000    -2.1842670000
   13      C       0.0037700000    -6.1879870000    -2.2697190000
   14      C       0.0007670000    -3.7981640000    -3.0111520000
   15      N       0.0024650000    -5.1700030000    -3.2546170000
   16      C       0.0014330000    -4.4249870000     3.2757750000
   17      C      -0.0005760000    -2.0366270000     2.5279510000
   18      N       0.0004000000    -3.0491560000     3.5131040000
   19      O       0.0066230000    -7.3531310000    -2.6610460000
   20      O      -0.0001720000    -2.9868540000    -3.9344100000
   21      O       0.0021510000    -5.2489460000     4.1880590000
   22      O      -0.0020060000    -0.8788290000     2.9408450000
   23      C       0.0035090000    -5.5637990000    -4.6672060000
   24      H       0.0046580000    -6.6640850000    -4.7124230000
   25      H       0.8976100000    -5.1471010000    -5.1692310000
   26      H      -0.8909350000    -5.1487850000    -5.1699920000
   27      C      -0.0000390000    -2.5874870000     4.9042290000
   28      H       0.0010220000    -3.4833290000     5.5468330000
   29      H      -0.8945450000    -1.9649720000     5.0959980000
   30      H       0.8930710000    -1.9629320000     5.0958580000
   31      C       0.0000000000     0.0000000000     0.0000000000
   32      S       0.1375350000     0.7811560000     1.5805300000
   33      C       0.4218950000     2.3939940000     0.9049110000
   34      C       0.1731340000     0.9828570000    -0.9854000000
   35      C       0.4022940000     2.2830580000    -0.4935280000
   36      H       0.1322370000     0.7507860000    -2.0599340000
   37      H       0.5551960000     3.1506210000    -1.1525930000
   38      H       0.5747410000     3.2613100000     1.5560250000
   39      H      -0.8967790000    -7.3615890000     0.1498810000
   40      H       0.9001000000    -7.3611920000     0.1506560000
   41      H      -1.0800000000    -1.4788310000    -0.0005310000
 ----------------------------------------------------------------
 Nuclear Repulsion Energy =        2570.16553849 hartrees
 There are       98 alpha and       98 beta electrons
 Requested basis set is cc-pVTZ
 There are 356 shells and 1010 basis functions

 Total QAlloc Memory Limit 110000 MB
 Mega-Array Size       188 MB
 MEM_STATIC part       192 MB
 Discretize the solute cavity surface with Lebedev spheres
	Using 110 Lebedev grid points for each H atom
	Using 194 Lebedev grid points for other atoms
	Atomic van der Waals radii will be scaled by 1.20
 Remove points where switching function is < 1.0e-08
 Keep 2564 surface tesserae and discard 4214 interior tesserae
 Molecular Surface Area = 361.313 Angst**2
 Requested basis set is rimp2-cc-pVTZ
 There are 770 shells and 2648 basis functions
 A cutoff of  1.0D-10 yielded  34203 shell pairs
 There are    258755 function pairs (    334812 Cartesian)
 Smallest overlap matrix eigenvalue = 8.95E-06

 Q-Chem warning in module stvman/mkSTV.C, line 323:

 Overlap eigenvalue is smaller than square root of threshold
 Use THRESH >= 12 to get rid of this warning


 Scale SEOQF with 1.000000e+00/1.000000e-02/1.000000e-02

 Standard Electronic Orientation quadrupole field applied
 Nucleus-field energy     =     0.0000000122 hartrees
 Guess from superposition of atomic densities
 Warning:  Energy on first SCF cycle will be non-variational
 SAD guess density has 196.000000 electrons

 -----------------------------------------------------------------------
  General SCF calculation program by
  Eric Jon Sundstrom, Paul Horn, Yuezhi Mao, Dmitri Zuev, Alec White,
  David Stuck, Shaama M.S., Shane Yost, Joonho Lee, David Small,
  Daniel Levine, Susi Lehtola, Hugh Burton, Evgeny Epifanovsky,
  Bang C. Huynh
 -----------------------------------------------------------------------
 Hartree-Fock
 using 64 threads for integral computing
 -------------------------------------------------------
 OpenMP Integral computing Module                
 Release: version 1.0, May 2013, Q-Chem Inc. Pittsburgh 
 -------------------------------------------------------
 A restricted SCF calculation will be
 performed using DIIS
 SCF converges when DIIS error is below 1.0e-06
 ---------------------------------------
  Cycle       Energy         DIIS error
 ---------------------------------------
    1   -1583.2695511559      1.87e-02  
    2   -1571.1128758926      2.03e-03  
    3   -1571.4535948232      1.54e-03  
    4   -1571.6750391884      2.55e-04  
    5   -1571.6889331309      7.85e-05  
    6   -1571.6903455463      3.06e-05  
    7   -1571.6907708883      1.63e-05  
    8   -1571.6908955145      6.52e-06  
    9   -1571.6909184345      3.00e-06  
   10   -1571.6909229920      1.26e-06  
   11   -1571.6909243577      6.00e-07  Convergence criterion met
 ---------------------------------------
 SCF time:   CPU 7267.52s  wall 273.00s 

************** Final PCM Free Energy Summary **************
 G_electrostatic  =      -0.02944391 hartree =     -18.47633026 kcal/mol
 G_cavitation     =       0.00000000 hartree =       0.00000000 kcal/mol
 G_dispersion     =       0.00000000 hartree =       0.00000000 kcal/mol
 G_repulsion      =       0.00000000 hartree =       0.00000000 kcal/mol
 --------------------------------------------------
 Non-electrostatic Free Energy =       0.00000000 hartree =       0.00000000 kcal/mol
 Total                         =      -0.02944391 hartree =     -18.47633026 kcal/mol
 --------------------------------------------------
 SCF Energy (H0 + V/2)                       =   -1571.69092436 
 Solute Internal Energy (H0)                 =   -1571.66148045 
 Total Free Energy (H0 + V/2 + non-elec)     =   -1571.69092436 hartree
                                             = -986250.94051923 kcal/mol
***********************************************************

 SCF   energy in the final basis set =    -1571.6909243577
 Total energy in the final basis set =    -1571.6909243577


 --------------------------------------------------------------
  Generalized many-body perturbation theory program
  by Joonho Lee, Fazle Rob, Xintian Feng, Evgeny Epifanovsky

 No regularization used 
 (reg. param. = 0.0000e+00)
  (P|Q)^-1/2 Time:  CPU 217.34 s  wall 3.67 s

 In RI-MP2 calculation: 
 # of frozen core orbitals: 31

 Components of the RIMP2 correlation energy:
        aaaa    correlation energy =        -0.6184032040 a.u.
        abab    correlation energy =        -3.4322619223 a.u.
        bbbb    correlation energy =        -0.6184032040 a.u.
        non-Brillouin singles      =        -0.0000000000 a.u.
        total same-spin energy     =        -1.2368064081 a.u.
        total opposite-spin energy =        -3.4322619223 a.u.

 Total  RIMP2   correlation energy =        -4.6690683303 a.u.
        RIMP2         total energy =     -1576.3599926881 a.u.

 RI-MP2 Energy Time:  CPU 2112.39 s  wall 35.82 s
 
 --------------------------------------------------------------
 
                    Orbital Energies (a.u.)
 --------------------------------------------------------------
 
 Alpha MOs
 -- Occupied --
-91.9677 -20.5582 -20.5473 -20.5429 -20.5419 -15.6320 -15.6226 -11.4025
-11.3882 -11.3849 -11.3805 -11.3133 -11.3103 -11.3099 -11.3066 -11.2998
-11.2939 -11.2920 -11.2713 -11.2707 -11.2673 -11.2656 -11.2602 -11.2547
-11.2520 -11.2457 -11.2361  -8.9677  -6.6482  -6.6467  -6.6457  -1.4347
 -1.4135  -1.4042  -1.3926  -1.2690  -1.2569  -1.2322  -1.1856  -1.1453
 -1.1165  -1.0869  -1.0500  -0.9950  -0.9899  -0.9743  -0.9571  -0.9475
 -0.8995  -0.8919  -0.8805  -0.8637  -0.7925  -0.7828  -0.7766  -0.7579
 -0.7316  -0.7278  -0.7017  -0.6899  -0.6889  -0.6770  -0.6694  -0.6597
 -0.6523  -0.6466  -0.6382  -0.6345  -0.6334  -0.6327  -0.6236  -0.6066
 -0.5906  -0.5719  -0.5677  -0.5636  -0.5559  -0.5539  -0.5535  -0.5504
 -0.5489  -0.5460  -0.5216  -0.5138  -0.5126  -0.4887  -0.4795  -0.4648
 -0.4565  -0.4452  -0.4386  -0.4202  -0.4089  -0.3793  -0.3561  -0.3388
 -0.3263  -0.2763
 -- Virtual --
  0.0100   0.0395   0.0893   0.1070   0.1392   0.1496   0.1580   0.1602
  0.1632   0.1734   0.1796   0.1832   0.1900   0.1933   0.2029   0.2037
  0.2182   0.2236   0.2282   0.2298   0.2307   0.2354   0.2620   0.2628
  0.2732   0.2770   0.3019   0.3110   0.3161   0.3193   0.3278   0.3326
  0.3397   0.3443   0.3480   0.3486   0.3540   0.3631   0.3656   0.3692
  0.3716   0.3830   0.3873   0.3902   0.3946   0.4030   0.4138   0.4183
  0.4193   0.4253   0.4313   0.4335   0.4431   0.4447   0.4476   0.4522
  0.4568   0.4594   0.4642   0.4746   0.4797   0.4851   0.4907   0.4918
  0.4948   0.5020   0.5093   0.5142   0.5169   0.5193   0.5242   0.5338
  0.5387   0.5415   0.5473   0.5530   0.5534   0.5567   0.5629   0.5679
  0.5701   0.5761   0.5867   0.5886   0.5927   0.5958   0.5994   0.6001
  0.6036   0.6057   0.6081   0.6110   0.6151   0.6205   0.6220   0.6227
  0.6283   0.6296   0.6350   0.6388   0.6403   0.6455   0.6539   0.6592
  0.6679   0.6738   0.6808   0.6848   0.6886   0.6990   0.7005   0.7043
  0.7193   0.7316   0.7366   0.7374   0.7436   0.7541   0.7583   0.7612
  0.7643   0.7712   0.7812   0.7863   0.7945   0.7971   0.8047   0.8104
  0.8186   0.8210   0.8257   0.8316   0.8360   0.8427   0.8472   0.8517
  0.8582   0.8603   0.8691   0.8732   0.8766   0.8787   0.8839   0.8974
  0.8991   0.9067   0.9136   0.9155   0.9216   0.9253   0.9270   0.9340
  0.9350   0.9418   0.9437   0.9548   0.9598   0.9617   0.9677   0.9814
  0.9870   0.9907   0.9994   1.0068   1.0074   1.0148   1.0209   1.0263
  1.0305   1.0333   1.0381   1.0486   1.0574   1.0611   1.0642   1.0694
  1.0717   1.0767   1.0793   1.0862   1.0894   1.0952   1.0977   1.1004
  1.1031   1.1094   1.1210   1.1271   1.1289   1.1350   1.1419   1.1452
  1.1472   1.1621   1.1688   1.1730   1.1773   1.1820   1.1851   1.1891
  1.1982   1.2019   1.2033   1.2050   1.2120   1.2204   1.2249   1.2293
  1.2357   1.2395   1.2430   1.2486   1.2518   1.2666   1.2698   1.2752
  1.2806   1.2821   1.2987   1.3099   1.3155   1.3202   1.3261   1.3366
  1.3451   1.3483   1.3627   1.3697   1.3748   1.3803   1.3811   1.3886
  1.3927   1.3944   1.4072   1.4120   1.4229   1.4281   1.4349   1.4508
  1.4587   1.4604   1.4696   1.4776   1.4793   1.4812   1.4880   1.4985
  1.5087   1.5097   1.5147   1.5154   1.5203   1.5306   1.5363   1.5423
  1.5497   1.5549   1.5582   1.5599   1.5677   1.5748   1.5796   1.5841
  1.5924   1.5936   1.6068   1.6154   1.6231   1.6287   1.6372   1.6501
  1.6532   1.6619   1.6697   1.6794   1.6802   1.6962   1.6981   1.7077
  1.7132   1.7179   1.7244   1.7291   1.7395   1.7483   1.7515   1.7566
  1.7616   1.7706   1.7801   1.7875   1.7947   1.7975   1.8125   1.8180
  1.8243   1.8323   1.8366   1.8557   1.8605   1.8668   1.8684   1.8710
  1.8725   1.8836   1.8892   1.8963   1.9275   1.9344   1.9398   1.9467
  1.9586   1.9680   1.9732   1.9870   1.9985   2.0127   2.0188   2.0298
  2.0435   2.0542   2.0804   2.0998   2.1069   2.1176   2.1181   2.1301
  2.1476   2.1562   2.1724   2.1882   2.1929   2.2186   2.2228   2.2302
  2.2436   2.2599   2.2739   2.2859   2.2885   2.2937   2.3122   2.3195
  2.3270   2.3306   2.3482   2.3573   2.3661   2.3742   2.3901   2.3935
  2.4145   2.4187   2.4413   2.4458   2.4538   2.4605   2.4677   2.4719
  2.4851   2.5016   2.5072   2.5234   2.5325   2.5443   2.5547   2.5588
  2.5622   2.5707   2.5841   2.5875   2.5944   2.6024   2.6088   2.6198
  2.6273   2.6352   2.6416   2.6478   2.6590   2.6658   2.6747   2.6781
  2.6854   2.6918   2.7123   2.7170   2.7190   2.7295   2.7339   2.7413
  2.7467   2.7536   2.7599   2.7685   2.7739   2.7833   2.7880   2.7911
  2.8138   2.8245   2.8285   2.8404   2.8461   2.8612   2.8704   2.8764
  2.8784   2.8831   2.8873   2.8953   2.9032   2.9064   2.9098   2.9170
  2.9188   2.9291   2.9344   2.9432   2.9550   2.9659   2.9673   2.9733
  2.9809   2.9900   2.9906   3.0066   3.0150   3.0165   3.0232   3.0315
  3.0351   3.0445   3.0514   3.0568   3.0628   3.0717   3.0733   3.0808
  3.0989   3.1015   3.1046   3.1059   3.1102   3.1126   3.1173   3.1182
  3.1279   3.1345   3.1517   3.1595   3.1619   3.1726   3.1761   3.1862
  3.1879   3.1929   3.1955   3.2105   3.2116   3.2159   3.2240   3.2278
  3.2346   3.2378   3.2403   3.2478   3.2549   3.2572   3.2620   3.2662
  3.2703   3.2748   3.2818   3.2850   3.2910   3.2985   3.3014   3.3065
  3.3091   3.3168   3.3205   3.3216   3.3264   3.3307   3.3352   3.3367
  3.3412   3.3469   3.3484   3.3559   3.3674   3.3703   3.3719   3.3755
  3.3779   3.3798   3.3869   3.3994   3.4018   3.4070   3.4098   3.4150
  3.4246   3.4268   3.4323   3.4342   3.4358   3.4416   3.4469   3.4531
  3.4637   3.4676   3.4729   3.4752   3.4768   3.4821   3.4846   3.4901
  3.4952   3.5073   3.5103   3.5132   3.5162   3.5183   3.5207   3.5265
  3.5351   3.5398   3.5450   3.5493   3.5533   3.5612   3.5753   3.5814
  3.5870   3.5910   3.5963   3.6029   3.6090   3.6156   3.6269   3.6296
  3.6323   3.6398   3.6425   3.6497   3.6512   3.6517   3.6551   3.6689
  3.6724   3.6773   3.6835   3.6879   3.6918   3.6977   3.7071   3.7176
  3.7227   3.7299   3.7342   3.7371   3.7427   3.7461   3.7491   3.7572
  3.7636   3.7656   3.7760   3.7773   3.7785   3.7882   3.7950   3.8078
  3.8112   3.8121   3.8162   3.8260   3.8292   3.8335   3.8347   3.8416
  3.8488   3.8598   3.8624   3.8658   3.8754   3.8862   3.8913   3.9039
  3.9170   3.9195   3.9254   3.9310   3.9409   3.9473   3.9532   3.9595
  3.9644   3.9698   3.9800   3.9875   3.9922   3.9980   4.0109   4.0172
  4.0223   4.0320   4.0351   4.0372   4.0528   4.0619   4.0665   4.0764
  4.0891   4.1042   4.1127   4.1156   4.1254   4.1362   4.1390   4.1492
  4.1503   4.1562   4.1628   4.1679   4.1736   4.1789   4.1911   4.2077
  4.2155   4.2324   4.2350   4.2391   4.2426   4.2458   4.2524   4.2643
  4.2670   4.2788   4.2848   4.2883   4.2953   4.2977   4.3006   4.3145
  4.3230   4.3247   4.3267   4.3363   4.3381   4.3443   4.3488   4.3607
  4.3654   4.3676   4.3685   4.3714   4.3820   4.3833   4.3896   4.3956
  4.4059   4.4078   4.4191   4.4260   4.4325   4.4404   4.4434   4.4582
  4.4680   4.4798   4.4898   4.5006   4.5118   4.5227   4.5273   4.5350
  4.5415   4.5470   4.5491   4.5638   4.5666   4.5804   4.5858   4.5875
  4.5906   4.5954   4.6053   4.6131   4.6234   4.6284   4.6307   4.6460
  4.6468   4.6636   4.6769   4.6783   4.6967   4.7010   4.7077   4.7111
  4.7175   4.7410   4.7446   4.7708   4.7824   4.7879   4.7897   4.7984
  4.8153   4.8307   4.8405   4.8451   4.8548   4.8659   4.8800   4.8848
  4.8920   4.9159   4.9213   4.9302   4.9360   4.9515   4.9786   4.9818
  4.9980   5.0049   5.0213   5.0291   5.0347   5.0400   5.0622   5.0703
  5.0800   5.0857   5.1007   5.1117   5.1202   5.1311   5.1319   5.1430
  5.1577   5.1746   5.1784   5.1910   5.1996   5.2065   5.2169   5.2259
  5.2592   5.2620   5.2740   5.2837   5.3037   5.3189   5.3229   5.3286
  5.3305   5.3519   5.3715   5.3724   5.3760   5.3865   5.4006   5.4132
  5.4482   5.4523   5.4622   5.4897   5.4929   5.5108   5.5115   5.5161
  5.5259   5.5321   5.5453   5.5553   5.5586   5.5624   5.5664   5.5702
  5.5762   5.5849   5.5952   5.6057   5.6090   5.6219   5.6310   5.6374
  5.6449   5.6486   5.6590   5.6621   5.6652   5.6718   5.6921   5.6945
  5.7020   5.7095   5.7365   5.7438   5.7588   5.7628   5.7695   5.7758
  5.7831   5.8014   5.8157   5.8297   5.8550   5.8710   5.9035   5.9280
  5.9388   5.9579   5.9778   5.9938   6.0242   6.0310   6.0398   6.0528
  6.0750   6.0961   6.1081   6.1186   6.1223   6.1626   6.1803   6.1918
  6.2068   6.2180   6.2246   6.2267   6.2543   6.2744   6.2812   6.2924
  6.3012   6.3162   6.3278   6.3517   6.3701   6.3917   6.4721   6.4943
  6.5243   6.5427   6.5657   6.5812   6.6087   6.6396   6.6536   6.6597
  6.6721   6.7300   6.8507   6.8561   6.8913   6.9003   6.9039   6.9257
  6.9291   6.9628   7.1046   7.1374   7.1620   7.1959   7.2195   7.3076
  7.3424   7.3492   7.3514   7.3580   7.4758   7.5423   7.5710   7.5833
  7.5934   7.6515   7.6581   7.6896   7.7053   7.7691   8.9394  10.1647
 10.3574  11.2638  11.5487  11.7950  12.0766  12.1806  12.4417  12.5185
 12.9543  13.3195  13.3752  13.5797  13.8255  13.9331  14.1003  14.3138
 14.3621  14.4358  14.6204  14.7916  15.0465  15.6446  15.8411  16.3156
 --------------------------------------------------------------
 
          Ground-State Mulliken Net Atomic Charges

     Atom                 Charge (a.u.)
  ----------------------------------------
      1 C                    -0.084321
      2 C                    -0.029063
      3 C                    -0.105426
      4 C                    -0.119876
      5 H                     0.200041
      6 C                     0.025290
      7 C                     0.126542
      8 C                    -0.098338
      9 C                    -0.188022
     10 C                    -0.144871
     11 C                     0.209154
     12 H                     0.194443
     13 C                     0.342367
     14 C                     0.349354
     15 N                    -0.090344
     16 C                     0.358611
     17 C                     0.383472
     18 N                    -0.087193
     19 O                    -0.493583
     20 O                    -0.507139
     21 O                    -0.498521
     22 O                    -0.442113
     23 C                    -0.204750
     24 H                     0.139741
     25 H                     0.109669
     26 H                     0.109389
     27 C                    -0.199173
     28 H                     0.135459
     29 H                     0.112949
     30 H                     0.113578
     31 C                    -0.040285
     32 S                     0.076523
     33 C                    -0.270307
     34 C                    -0.194449
     35 C                    -0.240526
     36 H                     0.178952
     37 H                     0.179142
     38 H                     0.200235
     39 H                     0.138826
     40 H                     0.139250
     41 H                     0.215315
  ----------------------------------------
  Sum of atomic charges =     0.000000

 -----------------------------------------------------------------
                    Cartesian Multipole Moments
 -----------------------------------------------------------------
    Charge (ESU x 10^10)
                 0.0000
    Dipole Moment (Debye)
         X      -0.7657      Y      -0.1131      Z       1.2777
       Tot       1.4938
    Quadrupole Moments (Debye-Ang)
        XX    -162.3999     XY       2.7010     YY    -177.5035
        XZ       0.0852     YZ     -10.0160     ZZ    -185.9034
    Octopole Moments (Debye-Ang^2)
       XXX     -26.9822    XXY     455.3730    XYY      -4.1981
       YYY    1653.1108    XXZ     -31.8520    XYZ       1.0595
       YYZ      38.4569    XZZ      -5.7390    YZZ     598.8120
       ZZZ     -87.8144
    Hexadecapole Moments (Debye-Ang^3)
      XXXX    -214.8090   XXXY     -48.9248   XXYY   -2641.7227
      XYYY     -19.1023   YYYY  -17929.1935   XXXZ      -8.6258
      XXYZ    -144.7010   XYYZ       1.9910   YYYZ   -1226.4628
      XXZZ   -1073.5952   XYZZ     -10.1157   YYZZ   -4479.1661
      XZZZ      -6.3395   YZZZ    -109.0209   ZZZZ   -6574.9551
 -----------------------------------------------------------------
 Total job time:  313.67s(wall), 9502.06s(cpu) 
 Wed Dec 27 11:42:35 2023

        *************************************************************
        *                                                           *
        *  Thank you very much for using Q-Chem.  Have a nice day.  *
        *                                                           *
        *************************************************************


0 sent ACK to 0 
now end server 0 ... 
cleanup process ... done
remove work dirs ./qchem1237451.0 -- ./qchem1237451.0
rm -rf ./qchem1237451.0
rm -rf ./qchem1237451
