You are running Q-Chem version: 5.4.0

#
# job setting
#
local host:  exp-3-54
current dir: /home/rramji/project-csd799/aromodel/pndit-qchem/hydrogenated-rotation-run
input file:  Dimethyl_Naphthalene_Dicarboximide_Phi_60_Theta_260_Thiophene_Hydrogenated.qcin
output file: 
nprocs     : 1
nthreads   : 64
#
# qchem installation setting
#
QC:          /cm/shared/apps/spack/cpu/opt/spack/linux-centos8-zen2/gcc-10.2.0/qchem-5.4-akfmr7b3t57bfs6qan3padb2wnb2i7cl
QCAUX:       /cm/shared/apps/spack/cpu/opt/spack/linux-centos8-zen2/gcc-10.2.0/qchem-5.4-akfmr7b3t57bfs6qan3padb2wnb2i7cl/qcaux
QCPROG:      /cm/shared/apps/spack/cpu/opt/spack/linux-centos8-zen2/gcc-10.2.0/qchem-5.4-akfmr7b3t57bfs6qan3padb2wnb2i7cl/exe/qcprog.exe
QCPROG_S:    /cm/shared/apps/spack/cpu/opt/spack/linux-centos8-zen2/gcc-10.2.0/qchem-5.4-akfmr7b3t57bfs6qan3padb2wnb2i7cl/exe/qcprog.exe_s
PARALLEL:    -DPARALLEL
QCMPI:       mpich
#
# qchem directory setting
#
qcrun:       qchem1965889
QCSCRATCH:   .
QCLOCALSCR:  
QCTMPDIR:    .
QCFILEPREF:  ./qchem1965889
QCSAVEDIR:   
workdirs:    ./qchem1965889
workdir0:    ./qchem1965889
partmpdirs =  
#
# parallel setting
#
QCRSH:           ssh
QCMPI:           mpich
QCMPIRUN:        /cm/shared/apps/spack/cpu/opt/spack/linux-centos8-zen2/gcc-10.2.0/qchem-5.4-akfmr7b3t57bfs6qan3padb2wnb2i7cl/bin/mpi/mpirun_qchem
QCMACHINEFILE:   ./qchem1965889/hostfile
exp-3-54

#
# env setting
#
exported envs:   QC QCAUX QCSCRATCH QCRUNNAME QCFILEPREF QCPROG QCPROG_S GUIFILE

Running Job 1 of 1 Dimethyl_Naphthalene_Dicarboximide_Phi_60_Theta_260_Thiophene_Hydrogenated.qcin
qchem Dimethyl_Naphthalene_Dicarboximide_Phi_60_Theta_260_Thiophene_Hydrogenated.qcin_1965889.0 ./qchem1965889/ 1
/cm/shared/apps/spack/cpu/opt/spack/linux-centos8-zen2/gcc-10.2.0/qchem-5.4-akfmr7b3t57bfs6qan3padb2wnb2i7cl/bin/mpi/mpirun_qchem -machinefile ./qchem1965889/hostfile -np 1 /cm/shared/apps/spack/cpu/opt/spack/linux-centos8-zen2/gcc-10.2.0/qchem-5.4-akfmr7b3t57bfs6qan3padb2wnb2i7cl/exe/qcprog.exe Dimethyl_Naphthalene_Dicarboximide_Phi_60_Theta_260_Thiophene_Hydrogenated.qcin_1965889.0 ./qchem1965889/

Process 0 of 1 is on exp-3-54 - thread support 0
initial socket setup ...start
initial socket setup ...done 
now start server 0 ... 
                  Welcome to Q-Chem
     A Quantum Leap Into The Future Of Chemistry


 Q-Chem 5.4, Q-Chem, Inc., Pleasanton, CA (2021)

 License issued to: University of California, San Diego (site)

 E. Epifanovsky,  A. T. B. Gilbert,  Xintian Feng,  Joonho Lee,  Yuezhi Mao,  
 N. Mardirossian,  P. Pokhilko,  A. White,  M. Wormit,  M. P. Coons,  
 A. L. Dempwolff,  Zhengting Gan,  D. Hait,  P. R. Horn,  L. D. Jacobson,  
 I. Kaliman,  J. Kussmann,  A. W. Lange,  Ka Un Lao,  D. S. Levine,  Jie Liu,  
 S. C. McKenzie,  A. F. Morrison,  K. Nanda,  F. Plasser,  D. R. Rehn,  
 M. L. Vidal,  Zhi-Qiang You,  Ying Zhu,  B. Alam,  B. Albrecht,  
 A. Aldossary,  E. Alguire,  J. H. Andersen,  D. Barton,  K. Begam,  A. Behn,  
 Y. A. Bernard,  E. J. Berquist,  H. Burton,  A. Carreras,  K. Carter-Fenk,  
 R. Chakraborty,  A. D. Chien,  K. D. Closser,  V. Cofer-Shabica,  
 S. Dasgupta,  Jia Deng,  M. de Wergifosse,  M. Diedenhofen,  Hainam Do,  
 S. Ehlert,  Po-Tung Fang,  S. Fatehi,  Qingguo Feng,  J. Gayvert,  
 Qinghui Ge,  G. Gidofalvi,  M. Goldey,  J. Gomes,  C. Gonzalez-Espinoza,  
 S. Gulania,  A. Gunina,  M. W. D. Hanson-Heine,  P. H. P. Harbach,  
 A. W. Hauser,  M. F. Herbst,  M. Hernandez Vera,  M. Hodecker,  
 Z. C. Holden,  S. Houck,  Xunkun Huang,  Kerwin Hui,  B. C. Huynh,  
 M. Ivanov,  Hyunjun Ji,  Hanjie Jiang,  B. Kaduk,  S. Kaehler,  
 K. Khistyaev,  Jaehoon Kim,  P. Klunzinger,  Z. Koczor-Benda,  
 Joong Hoon Koh,  D. Kosenkov,  L. Koulias,  T. Kowalczyk,  C. M. Krauter,  
 K. Kue,  A. Kunitsa,  T. Kus,  A. Landau,  K. V. Lawler,  D. Lefrancois,  
 S. Lehtola,  Rain Li,  Yi-Pei Li,  Jiashu Liang,  M. Liebenthal,  
 Hung-Hsuan Lin,  You-Sheng Lin,  Fenglai Liu,  Kuan-Yu Liu,  
 M. Loipersberger,  A. Luenser,  A. Manjanath,  P. Manohar,  E. Mansoor,  
 S. F. Manzer,  Shan-Ping Mao,  A. V. Marenich,  T. Markovich,  S. Mason,  
 S. A. Maurer,  P. F. McLaughlin,  M. F. S. J. Menger,  J.-M. Mewes,  
 S. A. Mewes,  P. Morgante,  J. W. Mullinax,  T. S. Nguyen-Beck,  
 K. J. Oosterbaan,  G. Paran,  Alexander C. Paul,  Suranjan K. Paul,  
 F. Pavosevic,  Zheng Pei,  S. Prager,  E. I. Proynov,  E. Ramos,  B. Rana,  
 A. E. Rask,  A. Rettig,  R. M. Richard,  F. Rob,  E. Rossomme,  T. Scheele,  
 M. Scheurer,  M. Schneider,  N. Sergueev,  S. M. Sharada,  W. Skomorowski,  
 D. W. Small,  C. J. Stein,  Yu-Chuan Su,  E. J. Sundstrom,  Zhen Tao,  
 J. Thirman,  T. Tsuchimochi,  N. M. Tubman,  S. P. Veccham,  O. Vydrov,  
 J. Wenzel,  J. Witte,  A. Yamada,  Kun Yao,  S. Yeganeh,  S. R. Yost,  
 A. Zech,  Igor Ying Zhang,  Xing Zhang,  Yu Zhang,  D. Zuev,  
 A. Aspuru-Guzik,  A. T. Bell,  N. A. Besley,  K. B. Bravaya,  B. R. Brooks,  
 D. Casanova,  Jeng-Da Chai,  S. Coriani,  C. J. Cramer,  
 A. E. DePrince, III,  R. A. DiStasio Jr.,  A. Dreuw,  B. D. Dunietz,  
 T. R. Furlani,  W. A. Goddard III,  S. Grimme,  S. Hammes-Schiffer,  
 T. Head-Gordon,  W. J. Hehre,  Chao-Ping Hsu,  T.-C. Jagau,  Yousung Jung,  
 A. Klamt,  Jing Kong,  D. S. Lambrecht,  WanZhen Liang,  N. J. Mayhall,  
 C. W. McCurdy,  J. B. Neaton,  C. Ochsenfeld,  J. A. Parkhill,  R. Peverati,  
 V. A. Rassolov,  Yihan Shao,  L. V. Slipchenko,  T. Stauch,  R. P. Steele,  
 J. E. Subotnik,  A. J. W. Thom,  A. Tkatchenko,  D. G. Truhlar,  
 T. Van Voorhis,  T. A. Wesolowski,  K. B. Whaley,  H. L. Woodcock III,  
 P. M. Zimmerman,  S. Faraji,  P. M. W. Gill,  M. Head-Gordon,  
 J. M. Herbert,  A. I. Krylov

 Contributors to earlier versions of Q-Chem not listed above: 
 R. D. Adamson,  B. Austin,  R. Baer,  J. Baker,  G. J. O. Beran,  
 K. Brandhorst,  S. T. Brown,  E. F. C. Byrd,  A. K. Chakraborty,  
 G. K. L. Chan,  Chun-Min Chang,  Yunqing Chen,  C.-L. Cheng,  
 Siu Hung Chien,  D. M. Chipman,  D. L. Crittenden,  H. Dachsel,  
 R. J. Doerksen,  A. D. Dutoi,  R. G. Edgar,  J. Fosso-Tande,  
 L. Fusti-Molnar,  D. Ghosh,  A. Ghysels,  A. Golubeva-Zadorozhnaya,  
 J. Gonthier,  M. S. Gordon,  S. R. Gwaltney,  G. Hawkins,  J. E. Herr,  
 A. Heyden,  S. Hirata,  E. G. Hohenstein,  G. Kedziora,  F. J. Keil,  
 C. Kelley,  Jihan Kim,  R. A. King,  R. Z. Khaliullin,  P. P. Korambath,  
 W. Kurlancheek,  A. Laurent,  A. M. Lee,  M. S. Lee,  S. V. Levchenko,  
 Ching Yeh Lin,  D. Liotard,  E. Livshits,  R. C. Lochan,  I. Lotan,  
 L. A. Martinez-Martinez,  P. E. Maslen,  N. Nair,  D. P. O'Neill,  
 D. Neuhauser,  E. Neuscamman,  C. M. Oana,  R. Olivares-Amaya,  R. Olson,  
 T. M. Perrine,  B. Peters,  P. A. Pieniazek,  A. Prociuk,  Y. M. Rhee,  
 J. Ritchie,  M. A. Rohrdanz,  E. Rosta,  N. J. Russ,  H. F. Schaefer III,  
 M. W. Schmidt,  N. E. Schultz,  S. Sharma,  N. Shenvi,  C. D. Sherrill,  
 A. C. Simmonett,  A. Sodt,  T. Stein,  D. Stuck,  K. S. Thanthiriwatte,  
 V. Vanovschi,  L. Vogt,  Tao Wang,  A. Warshel,  M. A. Watson,  
 C. F. Williams,  Q. Wu,  X. Xu,  Jun Yang,  W. Zhang,  Yan Zhao

 Please cite Q-Chem as follows:
 Y. Shao et al., Mol. Phys. 113, 184-215 (2015)
 DOI: 10.1080/00268976.2014.952696

 Q-Chem 5.4.0 for Intel X86 EM64T Linux

 Parts of Q-Chem use Armadillo 9.800.1 (Horizon Scraper).
 http://arma.sourceforge.net/

 Q-Chem begins on Wed Dec 27 12:16:09 2023  

 Host: 
0

     Scratch files written to ./qchem1965889//
 May1621 |scratch|qcdevops|jenkins|workspace|build_RNUM    
 Parallel job on  1  processors
 Processing $rem in /cm/shared/apps/spack/cpu/opt/spack/linux-centos8-zen2/gcc-10.2.0/qchem-5.4-akfmr7b3t57bfs6qan3padb2wnb2i7cl/config/preferences:
 Processing $rem in /home/rramji/.qchemrc:
 Symmetry turned off for PCM/SM12/SMD calculation
 Core orbitals will be frozen

 Checking the input file for inconsistencies... 	...done.

 Q-Chem warning in module forms1/BasisType.C, line 2236:

 You are not using the predefined 5D/6D in this basis set.


--------------------------------------------------------------
User input:
--------------------------------------------------------------
$molecule
0 1
C	-0.252767	-6.741404	0.046070
C	-1.538656	-6.155638	0.272935
C	0.814966	-5.791452	-0.141739
C	-1.813042	-4.803786	0.321083
H	-2.403318	-6.821518	0.425592
C	0.527566	-4.378638	-0.091779
C	-0.782769	-3.838032	0.138909
C	1.556632	-3.413062	-0.273808
C	-1.067868	-2.426473	0.188483
C	1.285436	-2.059348	-0.226610
C	-0.000000	-1.478216	-0.000000
H	2.151019	-1.394783	-0.379657
C	2.235891	-6.187987	-0.390420
C	2.965540	-3.798164	-0.522125
N	3.205600	-5.170003	-0.562731
C	-3.225760	-4.424987	0.570244
C	-2.489646	-2.036627	0.438407
N	-3.459662	-3.049156	0.610438
O	2.621768	-7.353131	-0.455563
O	3.874608	-2.986854	-0.683373
O	-4.124059	-5.248946	0.729367
O	-2.896516	-0.878829	0.508697
C	4.596910	-5.563799	-0.806996
H	4.641640	-6.664085	-0.813717
H	5.246567	-5.147101	-0.013655
H	4.936739	-5.148785	-1.775159
C	-4.829729	-2.587487	0.851572
H	-5.462387	-3.483329	0.964204
H	-5.173914	-1.964972	0.003956
H	-4.863360	-1.962932	1.764390
C	0.000000	0.000000	0.000000
S	0.686805	0.396760	1.580530
C	2.105095	1.215640	0.904911
C	0.864201	0.499140	-0.985400
C	2.007514	1.159347	-0.493528
H	0.660136	0.381296	-2.059934
H	2.770388	1.599875	-1.152593
H	2.867745	1.656053	1.556025
H	-0.303328	-7.361589	-0.857128
H	0.007933	-7.361192	0.912587
H	-0.187017	-1.478831	-1.063684
$end

$rem
JOBTYPE		SP
EXCHANGE	HF
CORRELATION	pRIMP2
BASIS		cc-pvtz
METHOD		rimp2
AUX_BASIS	rimp2-cc-pvtz
SOLVENT_METHOD	PCM
PURECART	11111
SYMMETRY	false
MEM_TOTAL	110000
SCF_CONVERGENCE = 6
THRESH=10
GUI = 2
$end



$solvent
dielectric 4.90
$end
--------------------------------------------------------------
 ----------------------------------------------------------------
             Standard Nuclear Orientation (Angstroms)
    I     Atom           X                Y                Z
 ----------------------------------------------------------------
    1      C      -0.2527670000    -6.7414040000     0.0460700000
    2      C      -1.5386560000    -6.1556380000     0.2729350000
    3      C       0.8149660000    -5.7914520000    -0.1417390000
    4      C      -1.8130420000    -4.8037860000     0.3210830000
    5      H      -2.4033180000    -6.8215180000     0.4255920000
    6      C       0.5275660000    -4.3786380000    -0.0917790000
    7      C      -0.7827690000    -3.8380320000     0.1389090000
    8      C       1.5566320000    -3.4130620000    -0.2738080000
    9      C      -1.0678680000    -2.4264730000     0.1884830000
   10      C       1.2854360000    -2.0593480000    -0.2266100000
   11      C       0.0000000000    -1.4782160000     0.0000000000
   12      H       2.1510190000    -1.3947830000    -0.3796570000
   13      C       2.2358910000    -6.1879870000    -0.3904200000
   14      C       2.9655400000    -3.7981640000    -0.5221250000
   15      N       3.2056000000    -5.1700030000    -0.5627310000
   16      C      -3.2257600000    -4.4249870000     0.5702440000
   17      C      -2.4896460000    -2.0366270000     0.4384070000
   18      N      -3.4596620000    -3.0491560000     0.6104380000
   19      O       2.6217680000    -7.3531310000    -0.4555630000
   20      O       3.8746080000    -2.9868540000    -0.6833730000
   21      O      -4.1240590000    -5.2489460000     0.7293670000
   22      O      -2.8965160000    -0.8788290000     0.5086970000
   23      C       4.5969100000    -5.5637990000    -0.8069960000
   24      H       4.6416400000    -6.6640850000    -0.8137170000
   25      H       5.2465670000    -5.1471010000    -0.0136550000
   26      H       4.9367390000    -5.1487850000    -1.7751590000
   27      C      -4.8297290000    -2.5874870000     0.8515720000
   28      H      -5.4623870000    -3.4833290000     0.9642040000
   29      H      -5.1739140000    -1.9649720000     0.0039560000
   30      H      -4.8633600000    -1.9629320000     1.7643900000
   31      C       0.0000000000     0.0000000000     0.0000000000
   32      S       0.6868050000     0.3967600000     1.5805300000
   33      C       2.1050950000     1.2156400000     0.9049110000
   34      C       0.8642010000     0.4991400000    -0.9854000000
   35      C       2.0075140000     1.1593470000    -0.4935280000
   36      H       0.6601360000     0.3812960000    -2.0599340000
   37      H       2.7703880000     1.5998750000    -1.1525930000
   38      H       2.8677450000     1.6560530000     1.5560250000
   39      H      -0.3033280000    -7.3615890000    -0.8571280000
   40      H       0.0079330000    -7.3611920000     0.9125870000
   41      H      -0.1870170000    -1.4788310000    -1.0636840000
 ----------------------------------------------------------------
 Nuclear Repulsion Energy =        2582.64766659 hartrees
 There are       98 alpha and       98 beta electrons
 Requested basis set is cc-pVTZ
 There are 356 shells and 1010 basis functions

 Total QAlloc Memory Limit 110000 MB
 Mega-Array Size       188 MB
 MEM_STATIC part       192 MB
 Discretize the solute cavity surface with Lebedev spheres
	Using 110 Lebedev grid points for each H atom
	Using 194 Lebedev grid points for other atoms
	Atomic van der Waals radii will be scaled by 1.20
 Remove points where switching function is < 1.0e-08
 Keep 2604 surface tesserae and discard 4174 interior tesserae
 Molecular Surface Area = 365.193 Angst**2
 Requested basis set is rimp2-cc-pVTZ
 There are 770 shells and 2648 basis functions
 A cutoff of  1.0D-10 yielded  35026 shell pairs
 There are    264816 function pairs (    342685 Cartesian)
 Smallest overlap matrix eigenvalue = 8.25E-06

 Q-Chem warning in module stvman/mkSTV.C, line 323:

 Overlap eigenvalue is smaller than square root of threshold
 Use THRESH >= 12 to get rid of this warning


 Scale SEOQF with 1.000000e-02/1.000000e-02/1.000000e-01

 Standard Electronic Orientation quadrupole field applied
 Nucleus-field energy     =     0.0000000161 hartrees
 Guess from superposition of atomic densities
 Warning:  Energy on first SCF cycle will be non-variational
 SAD guess density has 196.000000 electrons

 -----------------------------------------------------------------------
  General SCF calculation program by
  Eric Jon Sundstrom, Paul Horn, Yuezhi Mao, Dmitri Zuev, Alec White,
  David Stuck, Shaama M.S., Shane Yost, Joonho Lee, David Small,
  Daniel Levine, Susi Lehtola, Hugh Burton, Evgeny Epifanovsky,
  Bang C. Huynh
 -----------------------------------------------------------------------
 Hartree-Fock
 using 64 threads for integral computing
 -------------------------------------------------------
 OpenMP Integral computing Module                
 Release: version 1.0, May 2013, Q-Chem Inc. Pittsburgh 
 -------------------------------------------------------
 A restricted SCF calculation will be
 performed using DIIS
 SCF converges when DIIS error is below 1.0e-06
 ---------------------------------------
  Cycle       Energy         DIIS error
 ---------------------------------------
    1   -1583.2453967745      1.87e-02  
    2   -1571.1174788743      2.01e-03  
    3   -1571.4548294280      1.53e-03  
    4   -1571.6695835518      2.54e-04  
    5   -1571.6834294080      7.84e-05  
    6   -1571.6848518320      2.99e-05  
    7   -1571.6852876678      1.53e-05  
    8   -1571.6854072718      6.46e-06  
    9   -1571.6854287617      2.94e-06  
   10   -1571.6854333339      1.32e-06  
   11   -1571.6854346893      5.71e-07  Convergence criterion met
 ---------------------------------------
 SCF time:   CPU 6682.44s  wall 262.00s 

************** Final PCM Free Energy Summary **************
 G_electrostatic  =      -0.03211739 hartree =     -20.15396795 kcal/mol
 G_cavitation     =       0.00000000 hartree =       0.00000000 kcal/mol
 G_dispersion     =       0.00000000 hartree =       0.00000000 kcal/mol
 G_repulsion      =       0.00000000 hartree =       0.00000000 kcal/mol
 --------------------------------------------------
 Non-electrostatic Free Energy =       0.00000000 hartree =       0.00000000 kcal/mol
 Total                         =      -0.03211739 hartree =     -20.15396795 kcal/mol
 --------------------------------------------------
 SCF Energy (H0 + V/2)                       =   -1571.68543469 
 Solute Internal Energy (H0)                 =   -1571.65331730 
 Total Free Energy (H0 + V/2 + non-elec)     =   -1571.68543469 hartree
                                             = -986247.49570032 kcal/mol
***********************************************************

 SCF   energy in the final basis set =    -1571.6854346893
 Total energy in the final basis set =    -1571.6854346893


 --------------------------------------------------------------
  Generalized many-body perturbation theory program
  by Joonho Lee, Fazle Rob, Xintian Feng, Evgeny Epifanovsky

 No regularization used 
 (reg. param. = 0.0000e+00)
  (P|Q)^-1/2 Time:  CPU 162.43 s  wall 2.56 s

 In RI-MP2 calculation: 
 # of frozen core orbitals: 31

 Components of the RIMP2 correlation energy:
        aaaa    correlation energy =        -0.6181023512 a.u.
        abab    correlation energy =        -3.4341987007 a.u.
        bbbb    correlation energy =        -0.6181023512 a.u.
        non-Brillouin singles      =        -0.0000000000 a.u.
        total same-spin energy     =        -1.2362047024 a.u.
        total opposite-spin energy =        -3.4341987007 a.u.

 Total  RIMP2   correlation energy =        -4.6704034031 a.u.
        RIMP2         total energy =     -1576.3558380924 a.u.

 RI-MP2 Energy Time:  CPU 2157.05 s  wall 34.86 s
 
 --------------------------------------------------------------
 
                    Orbital Energies (a.u.)
 --------------------------------------------------------------
 
 Alpha MOs
 -- Occupied --
-91.9912 -20.5508 -20.5429 -20.5397 -20.5394 -15.6252 -15.6198 -11.3911
-11.3833 -11.3815 -11.3777 -11.3070 -11.3033 -11.3027 -11.3018 -11.2997
-11.2928 -11.2833 -11.2754 -11.2733 -11.2654 -11.2651 -11.2617 -11.2613
-11.2588 -11.2573 -11.2502  -8.9917  -6.6724  -6.6716  -6.6713  -1.4176
 -1.4108  -1.3955  -1.3899  -1.2603  -1.2540  -1.2328  -1.1949  -1.1517
 -1.1112  -1.0831  -1.0436  -1.0015  -0.9957  -0.9860  -0.9540  -0.9480
 -0.8945  -0.8845  -0.8736  -0.8561  -0.7953  -0.7776  -0.7695  -0.7673
 -0.7435  -0.7166  -0.7036  -0.6900  -0.6831  -0.6702  -0.6652  -0.6558
 -0.6450  -0.6426  -0.6374  -0.6322  -0.6289  -0.6252  -0.6198  -0.6040
 -0.5837  -0.5819  -0.5702  -0.5600  -0.5556  -0.5504  -0.5497  -0.5468
 -0.5457  -0.5422  -0.5246  -0.5066  -0.4961  -0.4828  -0.4737  -0.4584
 -0.4570  -0.4496  -0.4412  -0.4322  -0.4119  -0.4060  -0.3636  -0.3456
 -0.3351  -0.2853
 -- Virtual --
  0.0179   0.0420   0.0519   0.0934   0.1412   0.1495   0.1511   0.1615
  0.1643   0.1698   0.1764   0.1792   0.1845   0.1871   0.2006   0.2057
  0.2158   0.2203   0.2273   0.2301   0.2301   0.2320   0.2359   0.2382
  0.2668   0.2703   0.2877   0.3031   0.3054   0.3160   0.3211   0.3255
  0.3323   0.3366   0.3424   0.3513   0.3540   0.3611   0.3640   0.3697
  0.3716   0.3737   0.3783   0.3800   0.3904   0.3972   0.4022   0.4047
  0.4085   0.4229   0.4257   0.4269   0.4329   0.4371   0.4436   0.4481
  0.4549   0.4564   0.4642   0.4678   0.4719   0.4812   0.4871   0.4928
  0.4959   0.4993   0.5042   0.5110   0.5128   0.5174   0.5210   0.5292
  0.5354   0.5373   0.5407   0.5524   0.5532   0.5624   0.5674   0.5697
  0.5735   0.5761   0.5792   0.5828   0.5858   0.5931   0.5946   0.5967
  0.6024   0.6052   0.6074   0.6096   0.6160   0.6203   0.6248   0.6279
  0.6340   0.6363   0.6383   0.6396   0.6442   0.6457   0.6498   0.6525
  0.6625   0.6696   0.6734   0.6841   0.6881   0.6904   0.6993   0.7031
  0.7114   0.7167   0.7232   0.7302   0.7367   0.7436   0.7468   0.7520
  0.7648   0.7680   0.7708   0.7747   0.7830   0.7882   0.7961   0.8055
  0.8122   0.8147   0.8180   0.8268   0.8382   0.8409   0.8438   0.8460
  0.8553   0.8560   0.8592   0.8654   0.8698   0.8713   0.8756   0.8896
  0.8929   0.8978   0.9065   0.9121   0.9192   0.9254   0.9311   0.9368
  0.9376   0.9451   0.9484   0.9590   0.9663   0.9719   0.9829   0.9843
  0.9913   0.9958   0.9977   1.0088   1.0135   1.0157   1.0168   1.0239
  1.0282   1.0416   1.0438   1.0474   1.0552   1.0599   1.0633   1.0691
  1.0698   1.0728   1.0831   1.0859   1.0881   1.0914   1.0942   1.0997
  1.1045   1.1159   1.1230   1.1272   1.1328   1.1382   1.1418   1.1443
  1.1520   1.1546   1.1618   1.1721   1.1776   1.1788   1.1891   1.1959
  1.2021   1.2039   1.2083   1.2118   1.2177   1.2195   1.2259   1.2337
  1.2353   1.2410   1.2513   1.2541   1.2602   1.2653   1.2702   1.2862
  1.2891   1.3000   1.3089   1.3159   1.3285   1.3325   1.3381   1.3460
  1.3467   1.3596   1.3671   1.3691   1.3785   1.3839   1.3861   1.3910
  1.3928   1.3996   1.4054   1.4087   1.4140   1.4218   1.4277   1.4453
  1.4532   1.4562   1.4633   1.4764   1.4792   1.4815   1.4936   1.4964
  1.4980   1.5077   1.5133   1.5197   1.5226   1.5313   1.5333   1.5391
  1.5478   1.5539   1.5557   1.5602   1.5633   1.5712   1.5776   1.5832
  1.5929   1.5946   1.6074   1.6112   1.6170   1.6295   1.6329   1.6476
  1.6553   1.6577   1.6625   1.6702   1.6795   1.6845   1.6914   1.6926
  1.7047   1.7073   1.7240   1.7269   1.7371   1.7507   1.7546   1.7587
  1.7628   1.7705   1.7840   1.7858   1.7974   1.8098   1.8121   1.8176
  1.8236   1.8350   1.8464   1.8531   1.8555   1.8581   1.8675   1.8736
  1.8823   1.8890   1.8930   1.8983   1.9167   1.9222   1.9399   1.9539
  1.9636   1.9679   1.9695   1.9834   1.9855   1.9955   2.0029   2.0150
  2.0302   2.0367   2.0497   2.0648   2.0710   2.0997   2.1067   2.1232
  2.1366   2.1393   2.1448   2.1612   2.1778   2.1822   2.1969   2.2098
  2.2259   2.2334   2.2570   2.2628   2.2863   2.2944   2.2978   2.3008
  2.3110   2.3187   2.3269   2.3418   2.3524   2.3695   2.3794   2.3868
  2.4099   2.4197   2.4318   2.4409   2.4568   2.4579   2.4641   2.4708
  2.4760   2.4806   2.4981   2.5080   2.5140   2.5449   2.5514   2.5624
  2.5721   2.5789   2.5861   2.5987   2.6023   2.6088   2.6177   2.6308
  2.6342   2.6383   2.6430   2.6470   2.6573   2.6650   2.6765   2.6830
  2.6883   2.6985   2.7023   2.7087   2.7176   2.7313   2.7413   2.7501
  2.7521   2.7539   2.7616   2.7697   2.7786   2.7829   2.7971   2.8225
  2.8344   2.8384   2.8423   2.8522   2.8558   2.8606   2.8674   2.8741
  2.8800   2.8933   2.8973   2.9011   2.9025   2.9120   2.9143   2.9239
  2.9281   2.9325   2.9399   2.9486   2.9544   2.9659   2.9716   2.9724
  2.9851   2.9911   3.0018   3.0038   3.0069   3.0160   3.0250   3.0295
  3.0335   3.0423   3.0448   3.0606   3.0629   3.0706   3.0788   3.0927
  3.1011   3.1022   3.1068   3.1087   3.1133   3.1181   3.1240   3.1342
  3.1376   3.1489   3.1514   3.1536   3.1595   3.1708   3.1752   3.1834
  3.1854   3.1917   3.1982   3.2032   3.2111   3.2184   3.2221   3.2250
  3.2290   3.2349   3.2402   3.2464   3.2499   3.2574   3.2584   3.2664
  3.2699   3.2751   3.2815   3.2848   3.2919   3.2956   3.3024   3.3065
  3.3123   3.3135   3.3197   3.3256   3.3279   3.3330   3.3380   3.3443
  3.3460   3.3539   3.3544   3.3596   3.3665   3.3705   3.3767   3.3783
  3.3820   3.3872   3.3923   3.3969   3.4028   3.4055   3.4102   3.4150
  3.4229   3.4273   3.4302   3.4338   3.4381   3.4408   3.4462   3.4576
  3.4624   3.4676   3.4714   3.4780   3.4848   3.4899   3.4923   3.4971
  3.5003   3.5019   3.5093   3.5186   3.5191   3.5266   3.5287   3.5346
  3.5435   3.5538   3.5586   3.5631   3.5702   3.5749   3.5823   3.5898
  3.5912   3.5972   3.6087   3.6137   3.6170   3.6189   3.6310   3.6341
  3.6366   3.6405   3.6409   3.6459   3.6529   3.6548   3.6602   3.6657
  3.6714   3.6830   3.6893   3.6946   3.6991   3.7007   3.7078   3.7185
  3.7231   3.7301   3.7411   3.7428   3.7520   3.7561   3.7593   3.7600
  3.7655   3.7692   3.7761   3.7841   3.7933   3.7997   3.8105   3.8125
  3.8158   3.8184   3.8233   3.8327   3.8353   3.8417   3.8457   3.8503
  3.8651   3.8679   3.8736   3.8862   3.8920   3.8976   3.9070   3.9107
  3.9217   3.9244   3.9355   3.9388   3.9436   3.9523   3.9545   3.9621
  3.9641   3.9756   3.9800   3.9811   3.9948   4.0049   4.0074   4.0124
  4.0253   4.0314   4.0399   4.0472   4.0591   4.0699   4.0757   4.0824
  4.0941   4.1141   4.1204   4.1246   4.1327   4.1362   4.1395   4.1482
  4.1543   4.1648   4.1697   4.1762   4.1863   4.1971   4.2065   4.2185
  4.2266   4.2281   4.2401   4.2440   4.2519   4.2568   4.2654   4.2687
  4.2728   4.2817   4.2841   4.2895   4.2984   4.3068   4.3111   4.3147
  4.3167   4.3236   4.3299   4.3378   4.3457   4.3508   4.3530   4.3558
  4.3682   4.3705   4.3753   4.3757   4.3818   4.3933   4.3958   4.4021
  4.4059   4.4124   4.4204   4.4217   4.4335   4.4386   4.4529   4.4614
  4.4740   4.4861   4.5032   4.5115   4.5170   4.5232   4.5279   4.5290
  4.5337   4.5475   4.5525   4.5710   4.5769   4.5800   4.5859   4.5952
  4.6000   4.6023   4.6035   4.6114   4.6171   4.6314   4.6359   4.6405
  4.6529   4.6565   4.6656   4.6830   4.6953   4.7009   4.7112   4.7220
  4.7330   4.7406   4.7450   4.7535   4.7733   4.7868   4.8020   4.8049
  4.8152   4.8267   4.8383   4.8422   4.8575   4.8642   4.8721   4.8885
  4.8935   4.9006   4.9227   4.9270   4.9312   4.9579   4.9658   4.9794
  4.9832   5.0063   5.0125   5.0270   5.0441   5.0483   5.0549   5.0602
  5.0772   5.0948   5.1154   5.1210   5.1243   5.1281   5.1342   5.1367
  5.1480   5.1620   5.1748   5.1849   5.1988   5.2088   5.2198   5.2466
  5.2539   5.2645   5.2751   5.2784   5.2939   5.3085   5.3194   5.3278
  5.3316   5.3360   5.3548   5.3774   5.3818   5.4050   5.4110   5.4199
  5.4330   5.4462   5.4701   5.4738   5.4981   5.5020   5.5160   5.5172
  5.5188   5.5424   5.5459   5.5570   5.5593   5.5642   5.5679   5.5759
  5.5810   5.5872   5.6007   5.6106   5.6131   5.6167   5.6269   5.6458
  5.6478   5.6522   5.6621   5.6636   5.6678   5.6748   5.6861   5.6962
  5.6968   5.7051   5.7128   5.7412   5.7476   5.7601   5.7679   5.7727
  5.7855   5.7911   5.7930   5.8324   5.8431   5.8584   5.8867   5.9096
  5.9377   5.9552   5.9623   5.9820   5.9921   6.0242   6.0330   6.0376
  6.0431   6.0553   6.1122   6.1131   6.1246   6.1439   6.1518   6.1863
  6.1958   6.2203   6.2224   6.2262   6.2437   6.2587   6.2733   6.2860
  6.3125   6.3247   6.3261   6.3501   6.3685   6.3749   6.4063   6.4887
  6.5245   6.5383   6.5697   6.5765   6.5845   6.6084   6.6191   6.6613
  6.6760   6.6818   6.8469   6.8529   6.8917   6.9020   6.9061   6.9237
  6.9273   6.9310   7.1023   7.1097   7.1494   7.1930   7.2008   7.2370
  7.3482   7.3531   7.3565   7.3608   7.4776   7.5435   7.5728   7.5842
  7.5874   7.5989   7.6561   7.6801   7.6946   7.7158   8.8969  10.2154
 10.3295  11.3494  11.5385  11.7930  12.0006  12.3237  12.4661  12.4959
 13.0288  13.1781  13.4069  13.5643  13.8272  13.9380  14.1273  14.2842
 14.3289  14.3630  14.5344  14.6077  15.0099  15.6139  15.8186  16.3782
 --------------------------------------------------------------
 
          Ground-State Mulliken Net Atomic Charges

     Atom                 Charge (a.u.)
  ----------------------------------------
      1 C                    -0.086728
      2 C                    -0.036015
      3 C                    -0.111497
      4 C                    -0.119390
      5 H                     0.197154
      6 C                     0.014504
      7 C                     0.119023
      8 C                    -0.094008
      9 C                    -0.215341
     10 C                    -0.163112
     11 C                     0.240137
     12 H                     0.199946
     13 C                     0.342662
     14 C                     0.338676
     15 N                    -0.088881
     16 C                     0.354759
     17 C                     0.354861
     18 N                    -0.090904
     19 O                    -0.497269
     20 O                    -0.511505
     21 O                    -0.502802
     22 O                    -0.466766
     23 C                    -0.205648
     24 H                     0.139473
     25 H                     0.108646
     26 H                     0.108193
     27 C                    -0.198555
     28 H                     0.132732
     29 H                     0.111076
     30 H                     0.111574
     31 C                    -0.109348
     32 S                     0.028176
     33 C                    -0.132434
     34 C                    -0.097606
     35 C                    -0.242631
     36 H                     0.197038
     37 H                     0.196701
     38 H                     0.216564
     39 H                     0.135368
     40 H                     0.135690
     41 H                     0.187486
  ----------------------------------------
  Sum of atomic charges =     0.000000

 -----------------------------------------------------------------
                    Cartesian Multipole Moments
 -----------------------------------------------------------------
    Charge (ESU x 10^10)
                 0.0000
    Dipole Moment (Debye)
         X       1.6725      Y       2.8978      Z      -1.5387
       Tot       3.6827
    Quadrupole Moments (Debye-Ang)
        XX    -186.2253     XY      15.0847     YY    -190.7880
        XZ       6.9476     YZ       0.2044     ZZ    -156.4571
    Octopole Moments (Debye-Ang^2)
       XXX     -49.5079    XXY     640.5593    XYY     -78.7850
       YYY    1764.9731    XXZ     -11.8504    XYZ     -20.2583
       YYZ      -8.1243    XZZ     -15.1786    YZZ     495.1127
       ZZZ     -63.1838
    Hexadecapole Moments (Debye-Ang^3)
      XXXX   -6522.5580   XXXY      -5.0112   XXYY   -4440.7283
      XYYY    1059.6421   YYYY  -18027.5109   XXXZ     543.0178
      XXYZ      37.2075   XYYZ     313.0051   YYYZ    -222.3772
      XXZZ   -1122.4492   XYZZ      95.4251   YYZZ   -2674.5297
      XZZZ     455.8236   YZZZ     -85.0774   ZZZZ    -637.2405
 -----------------------------------------------------------------
 Total job time:  303.50s(wall), 9029.01s(cpu) 
 Wed Dec 27 12:21:12 2023

        *************************************************************
        *                                                           *
        *  Thank you very much for using Q-Chem.  Have a nice day.  *
        *                                                           *
        *************************************************************


0 sent ACK to 0 
now end server 0 ... 
cleanup process ... done
remove work dirs ./qchem1965889.0 -- ./qchem1965889.0
rm -rf ./qchem1965889.0
rm -rf ./qchem1965889
