You are running Q-Chem version: 5.4.0

#
# job setting
#
local host:  exp-2-47
current dir: /home/rramji/project-csd799/aromodel/pndit-qchem/hydrogenated-rotation-run
input file:  Dimethyl_Naphthalene_Dicarboximide_Phi_40_Theta_70_Thiophene_Hydrogenated.qcin
output file: 
nprocs     : 1
nthreads   : 64
#
# qchem installation setting
#
QC:          /cm/shared/apps/spack/cpu/opt/spack/linux-centos8-zen2/gcc-10.2.0/qchem-5.4-akfmr7b3t57bfs6qan3padb2wnb2i7cl
QCAUX:       /cm/shared/apps/spack/cpu/opt/spack/linux-centos8-zen2/gcc-10.2.0/qchem-5.4-akfmr7b3t57bfs6qan3padb2wnb2i7cl/qcaux
QCPROG:      /cm/shared/apps/spack/cpu/opt/spack/linux-centos8-zen2/gcc-10.2.0/qchem-5.4-akfmr7b3t57bfs6qan3padb2wnb2i7cl/exe/qcprog.exe
QCPROG_S:    /cm/shared/apps/spack/cpu/opt/spack/linux-centos8-zen2/gcc-10.2.0/qchem-5.4-akfmr7b3t57bfs6qan3padb2wnb2i7cl/exe/qcprog.exe_s
PARALLEL:    -DPARALLEL
QCMPI:       mpich
#
# qchem directory setting
#
qcrun:       qchem3711092
QCSCRATCH:   .
QCLOCALSCR:  
QCTMPDIR:    .
QCFILEPREF:  ./qchem3711092
QCSAVEDIR:   
workdirs:    ./qchem3711092
workdir0:    ./qchem3711092
partmpdirs =  
#
# parallel setting
#
QCRSH:           ssh
QCMPI:           mpich
QCMPIRUN:        /cm/shared/apps/spack/cpu/opt/spack/linux-centos8-zen2/gcc-10.2.0/qchem-5.4-akfmr7b3t57bfs6qan3padb2wnb2i7cl/bin/mpi/mpirun_qchem
QCMACHINEFILE:   ./qchem3711092/hostfile
exp-2-47

#
# env setting
#
exported envs:   QC QCAUX QCSCRATCH QCRUNNAME QCFILEPREF QCPROG QCPROG_S GUIFILE

Running Job 1 of 1 Dimethyl_Naphthalene_Dicarboximide_Phi_40_Theta_70_Thiophene_Hydrogenated.qcin
qchem Dimethyl_Naphthalene_Dicarboximide_Phi_40_Theta_70_Thiophene_Hydrogenated.qcin_3711092.0 ./qchem3711092/ 1
/cm/shared/apps/spack/cpu/opt/spack/linux-centos8-zen2/gcc-10.2.0/qchem-5.4-akfmr7b3t57bfs6qan3padb2wnb2i7cl/bin/mpi/mpirun_qchem -machinefile ./qchem3711092/hostfile -np 1 /cm/shared/apps/spack/cpu/opt/spack/linux-centos8-zen2/gcc-10.2.0/qchem-5.4-akfmr7b3t57bfs6qan3padb2wnb2i7cl/exe/qcprog.exe Dimethyl_Naphthalene_Dicarboximide_Phi_40_Theta_70_Thiophene_Hydrogenated.qcin_3711092.0 ./qchem3711092/

Process 0 of 1 is on exp-2-47 - thread support 0
initial socket setup ...start
initial socket setup ...done 
now start server 0 ... 
                  Welcome to Q-Chem
     A Quantum Leap Into The Future Of Chemistry


 Q-Chem 5.4, Q-Chem, Inc., Pleasanton, CA (2021)

 License issued to: University of California, San Diego (site)

 E. Epifanovsky,  A. T. B. Gilbert,  Xintian Feng,  Joonho Lee,  Yuezhi Mao,  
 N. Mardirossian,  P. Pokhilko,  A. White,  M. Wormit,  M. P. Coons,  
 A. L. Dempwolff,  Zhengting Gan,  D. Hait,  P. R. Horn,  L. D. Jacobson,  
 I. Kaliman,  J. Kussmann,  A. W. Lange,  Ka Un Lao,  D. S. Levine,  Jie Liu,  
 S. C. McKenzie,  A. F. Morrison,  K. Nanda,  F. Plasser,  D. R. Rehn,  
 M. L. Vidal,  Zhi-Qiang You,  Ying Zhu,  B. Alam,  B. Albrecht,  
 A. Aldossary,  E. Alguire,  J. H. Andersen,  D. Barton,  K. Begam,  A. Behn,  
 Y. A. Bernard,  E. J. Berquist,  H. Burton,  A. Carreras,  K. Carter-Fenk,  
 R. Chakraborty,  A. D. Chien,  K. D. Closser,  V. Cofer-Shabica,  
 S. Dasgupta,  Jia Deng,  M. de Wergifosse,  M. Diedenhofen,  Hainam Do,  
 S. Ehlert,  Po-Tung Fang,  S. Fatehi,  Qingguo Feng,  J. Gayvert,  
 Qinghui Ge,  G. Gidofalvi,  M. Goldey,  J. Gomes,  C. Gonzalez-Espinoza,  
 S. Gulania,  A. Gunina,  M. W. D. Hanson-Heine,  P. H. P. Harbach,  
 A. W. Hauser,  M. F. Herbst,  M. Hernandez Vera,  M. Hodecker,  
 Z. C. Holden,  S. Houck,  Xunkun Huang,  Kerwin Hui,  B. C. Huynh,  
 M. Ivanov,  Hyunjun Ji,  Hanjie Jiang,  B. Kaduk,  S. Kaehler,  
 K. Khistyaev,  Jaehoon Kim,  P. Klunzinger,  Z. Koczor-Benda,  
 Joong Hoon Koh,  D. Kosenkov,  L. Koulias,  T. Kowalczyk,  C. M. Krauter,  
 K. Kue,  A. Kunitsa,  T. Kus,  A. Landau,  K. V. Lawler,  D. Lefrancois,  
 S. Lehtola,  Rain Li,  Yi-Pei Li,  Jiashu Liang,  M. Liebenthal,  
 Hung-Hsuan Lin,  You-Sheng Lin,  Fenglai Liu,  Kuan-Yu Liu,  
 M. Loipersberger,  A. Luenser,  A. Manjanath,  P. Manohar,  E. Mansoor,  
 S. F. Manzer,  Shan-Ping Mao,  A. V. Marenich,  T. Markovich,  S. Mason,  
 S. A. Maurer,  P. F. McLaughlin,  M. F. S. J. Menger,  J.-M. Mewes,  
 S. A. Mewes,  P. Morgante,  J. W. Mullinax,  T. S. Nguyen-Beck,  
 K. J. Oosterbaan,  G. Paran,  Alexander C. Paul,  Suranjan K. Paul,  
 F. Pavosevic,  Zheng Pei,  S. Prager,  E. I. Proynov,  E. Ramos,  B. Rana,  
 A. E. Rask,  A. Rettig,  R. M. Richard,  F. Rob,  E. Rossomme,  T. Scheele,  
 M. Scheurer,  M. Schneider,  N. Sergueev,  S. M. Sharada,  W. Skomorowski,  
 D. W. Small,  C. J. Stein,  Yu-Chuan Su,  E. J. Sundstrom,  Zhen Tao,  
 J. Thirman,  T. Tsuchimochi,  N. M. Tubman,  S. P. Veccham,  O. Vydrov,  
 J. Wenzel,  J. Witte,  A. Yamada,  Kun Yao,  S. Yeganeh,  S. R. Yost,  
 A. Zech,  Igor Ying Zhang,  Xing Zhang,  Yu Zhang,  D. Zuev,  
 A. Aspuru-Guzik,  A. T. Bell,  N. A. Besley,  K. B. Bravaya,  B. R. Brooks,  
 D. Casanova,  Jeng-Da Chai,  S. Coriani,  C. J. Cramer,  
 A. E. DePrince, III,  R. A. DiStasio Jr.,  A. Dreuw,  B. D. Dunietz,  
 T. R. Furlani,  W. A. Goddard III,  S. Grimme,  S. Hammes-Schiffer,  
 T. Head-Gordon,  W. J. Hehre,  Chao-Ping Hsu,  T.-C. Jagau,  Yousung Jung,  
 A. Klamt,  Jing Kong,  D. S. Lambrecht,  WanZhen Liang,  N. J. Mayhall,  
 C. W. McCurdy,  J. B. Neaton,  C. Ochsenfeld,  J. A. Parkhill,  R. Peverati,  
 V. A. Rassolov,  Yihan Shao,  L. V. Slipchenko,  T. Stauch,  R. P. Steele,  
 J. E. Subotnik,  A. J. W. Thom,  A. Tkatchenko,  D. G. Truhlar,  
 T. Van Voorhis,  T. A. Wesolowski,  K. B. Whaley,  H. L. Woodcock III,  
 P. M. Zimmerman,  S. Faraji,  P. M. W. Gill,  M. Head-Gordon,  
 J. M. Herbert,  A. I. Krylov

 Contributors to earlier versions of Q-Chem not listed above: 
 R. D. Adamson,  B. Austin,  R. Baer,  J. Baker,  G. J. O. Beran,  
 K. Brandhorst,  S. T. Brown,  E. F. C. Byrd,  A. K. Chakraborty,  
 G. K. L. Chan,  Chun-Min Chang,  Yunqing Chen,  C.-L. Cheng,  
 Siu Hung Chien,  D. M. Chipman,  D. L. Crittenden,  H. Dachsel,  
 R. J. Doerksen,  A. D. Dutoi,  R. G. Edgar,  J. Fosso-Tande,  
 L. Fusti-Molnar,  D. Ghosh,  A. Ghysels,  A. Golubeva-Zadorozhnaya,  
 J. Gonthier,  M. S. Gordon,  S. R. Gwaltney,  G. Hawkins,  J. E. Herr,  
 A. Heyden,  S. Hirata,  E. G. Hohenstein,  G. Kedziora,  F. J. Keil,  
 C. Kelley,  Jihan Kim,  R. A. King,  R. Z. Khaliullin,  P. P. Korambath,  
 W. Kurlancheek,  A. Laurent,  A. M. Lee,  M. S. Lee,  S. V. Levchenko,  
 Ching Yeh Lin,  D. Liotard,  E. Livshits,  R. C. Lochan,  I. Lotan,  
 L. A. Martinez-Martinez,  P. E. Maslen,  N. Nair,  D. P. O'Neill,  
 D. Neuhauser,  E. Neuscamman,  C. M. Oana,  R. Olivares-Amaya,  R. Olson,  
 T. M. Perrine,  B. Peters,  P. A. Pieniazek,  A. Prociuk,  Y. M. Rhee,  
 J. Ritchie,  M. A. Rohrdanz,  E. Rosta,  N. J. Russ,  H. F. Schaefer III,  
 M. W. Schmidt,  N. E. Schultz,  S. Sharma,  N. Shenvi,  C. D. Sherrill,  
 A. C. Simmonett,  A. Sodt,  T. Stein,  D. Stuck,  K. S. Thanthiriwatte,  
 V. Vanovschi,  L. Vogt,  Tao Wang,  A. Warshel,  M. A. Watson,  
 C. F. Williams,  Q. Wu,  X. Xu,  Jun Yang,  W. Zhang,  Yan Zhao

 Please cite Q-Chem as follows:
 Y. Shao et al., Mol. Phys. 113, 184-215 (2015)
 DOI: 10.1080/00268976.2014.952696

 Q-Chem 5.4.0 for Intel X86 EM64T Linux

 Parts of Q-Chem use Armadillo 9.800.1 (Horizon Scraper).
 http://arma.sourceforge.net/

 Q-Chem begins on Wed Dec 27 10:27:46 2023  

 Host: 
0

     Scratch files written to ./qchem3711092//
 May1621 |scratch|qcdevops|jenkins|workspace|build_RNUM    
 Parallel job on  1  processors
 Processing $rem in /cm/shared/apps/spack/cpu/opt/spack/linux-centos8-zen2/gcc-10.2.0/qchem-5.4-akfmr7b3t57bfs6qan3padb2wnb2i7cl/config/preferences:
 Processing $rem in /home/rramji/.qchemrc:
 Symmetry turned off for PCM/SM12/SMD calculation
 Core orbitals will be frozen

 Checking the input file for inconsistencies... 	...done.

 Q-Chem warning in module forms1/BasisType.C, line 2236:

 You are not using the predefined 5D/6D in this basis set.


--------------------------------------------------------------
User input:
--------------------------------------------------------------
$molecule
0 1
C	0.240927	-6.741404	-0.089263
C	1.467886	-6.155638	-0.535973
C	-0.777972	-5.791452	0.281103
C	1.729742	-4.803786	-0.631036
H	2.292903	-6.821518	-0.836458
C	-0.503614	-4.378638	0.181995
C	0.746756	-3.838032	-0.272725
C	-1.485437	-3.413062	0.539954
C	1.018915	-2.426473	-0.371053
C	-1.226557	-2.059348	0.446381
C	0.000000	-1.478216	0.000000
H	-2.052413	-1.394783	0.747410
C	-2.134128	-6.187987	0.772747
C	-2.829820	-3.798164	1.029154
N	-3.059182	-5.170003	1.110828
C	3.077731	-4.424987	-1.121728
C	2.375694	-2.036627	-0.864069
N	3.301101	-3.049156	-1.201928
O	-2.502830	-7.353131	0.903908
O	-3.697078	-2.986854	1.345809
O	3.934752	-5.248946	-1.434422
O	2.764177	-0.878829	-1.003943
C	-4.386939	-5.563799	1.592981
H	-4.429822	-6.664085	1.607367
H	-5.164489	-5.147101	0.924504
H	-4.553486	-5.148785	2.605446
C	4.608481	-2.587487	-1.677308
H	5.211969	-3.483329	-1.898089
H	5.094624	-1.964972	-0.902337
H	4.483092	-1.962932	-2.582098
C	0.000000	0.000000	0.000000
S	0.509686	0.607733	1.580530
C	1.562368	1.862312	0.904911
C	0.641367	0.764613	-0.985400
C	1.489926	1.776040	-0.493528
H	0.489914	0.584081	-2.059934
H	2.056124	2.450920	-1.152593
H	2.128395	2.537007	1.556025
H	0.447559	-7.361589	0.791434
H	-0.166282	-7.361192	-0.897345
H	0.368883	-1.478831	1.015049
$end

$rem
JOBTYPE		SP
EXCHANGE	HF
CORRELATION	pRIMP2
BASIS		cc-pvtz
METHOD		rimp2
AUX_BASIS	rimp2-cc-pvtz
SOLVENT_METHOD	PCM
PURECART	11111
SYMMETRY	false
MEM_TOTAL	110000
SCF_CONVERGENCE = 6
THRESH=10
GUI = 2
$end



$solvent
dielectric 4.90
$end
--------------------------------------------------------------
 ----------------------------------------------------------------
             Standard Nuclear Orientation (Angstroms)
    I     Atom           X                Y                Z
 ----------------------------------------------------------------
    1      C       0.2409270000    -6.7414040000    -0.0892630000
    2      C       1.4678860000    -6.1556380000    -0.5359730000
    3      C      -0.7779720000    -5.7914520000     0.2811030000
    4      C       1.7297420000    -4.8037860000    -0.6310360000
    5      H       2.2929030000    -6.8215180000    -0.8364580000
    6      C      -0.5036140000    -4.3786380000     0.1819950000
    7      C       0.7467560000    -3.8380320000    -0.2727250000
    8      C      -1.4854370000    -3.4130620000     0.5399540000
    9      C       1.0189150000    -2.4264730000    -0.3710530000
   10      C      -1.2265570000    -2.0593480000     0.4463810000
   11      C       0.0000000000    -1.4782160000     0.0000000000
   12      H      -2.0524130000    -1.3947830000     0.7474100000
   13      C      -2.1341280000    -6.1879870000     0.7727470000
   14      C      -2.8298200000    -3.7981640000     1.0291540000
   15      N      -3.0591820000    -5.1700030000     1.1108280000
   16      C       3.0777310000    -4.4249870000    -1.1217280000
   17      C       2.3756940000    -2.0366270000    -0.8640690000
   18      N       3.3011010000    -3.0491560000    -1.2019280000
   19      O      -2.5028300000    -7.3531310000     0.9039080000
   20      O      -3.6970780000    -2.9868540000     1.3458090000
   21      O       3.9347520000    -5.2489460000    -1.4344220000
   22      O       2.7641770000    -0.8788290000    -1.0039430000
   23      C      -4.3869390000    -5.5637990000     1.5929810000
   24      H      -4.4298220000    -6.6640850000     1.6073670000
   25      H      -5.1644890000    -5.1471010000     0.9245040000
   26      H      -4.5534860000    -5.1487850000     2.6054460000
   27      C       4.6084810000    -2.5874870000    -1.6773080000
   28      H       5.2119690000    -3.4833290000    -1.8980890000
   29      H       5.0946240000    -1.9649720000    -0.9023370000
   30      H       4.4830920000    -1.9629320000    -2.5820980000
   31      C       0.0000000000     0.0000000000     0.0000000000
   32      S       0.5096860000     0.6077330000     1.5805300000
   33      C       1.5623680000     1.8623120000     0.9049110000
   34      C       0.6413670000     0.7646130000    -0.9854000000
   35      C       1.4899260000     1.7760400000    -0.4935280000
   36      H       0.4899140000     0.5840810000    -2.0599340000
   37      H       2.0561240000     2.4509200000    -1.1525930000
   38      H       2.1283950000     2.5370070000     1.5560250000
   39      H       0.4475590000    -7.3615890000     0.7914340000
   40      H      -0.1662820000    -7.3611920000    -0.8973450000
   41      H       0.3688830000    -1.4788310000     1.0150490000
 ----------------------------------------------------------------
 Nuclear Repulsion Energy =        2575.70667945 hartrees
 There are       98 alpha and       98 beta electrons
 Requested basis set is cc-pVTZ
 There are 356 shells and 1010 basis functions

 Total QAlloc Memory Limit 110000 MB
 Mega-Array Size       188 MB
 MEM_STATIC part       192 MB
 Discretize the solute cavity surface with Lebedev spheres
	Using 110 Lebedev grid points for each H atom
	Using 194 Lebedev grid points for other atoms
	Atomic van der Waals radii will be scaled by 1.20
 Remove points where switching function is < 1.0e-08
 Keep 2566 surface tesserae and discard 4212 interior tesserae
 Molecular Surface Area = 364.243 Angst**2
 Requested basis set is rimp2-cc-pVTZ
 There are 770 shells and 2648 basis functions
 A cutoff of  1.0D-10 yielded  34741 shell pairs
 There are    262833 function pairs (    340275 Cartesian)
 Smallest overlap matrix eigenvalue = 8.96E-06

 Q-Chem warning in module stvman/mkSTV.C, line 323:

 Overlap eigenvalue is smaller than square root of threshold
 Use THRESH >= 12 to get rid of this warning


 Scale SEOQF with 1.000000e-01/1.000000e-02/1.000000e-01

 Standard Electronic Orientation quadrupole field applied
 Nucleus-field energy     =     0.0000000413 hartrees
 Guess from superposition of atomic densities
 Warning:  Energy on first SCF cycle will be non-variational
 SAD guess density has 196.000000 electrons

 -----------------------------------------------------------------------
  General SCF calculation program by
  Eric Jon Sundstrom, Paul Horn, Yuezhi Mao, Dmitri Zuev, Alec White,
  David Stuck, Shaama M.S., Shane Yost, Joonho Lee, David Small,
  Daniel Levine, Susi Lehtola, Hugh Burton, Evgeny Epifanovsky,
  Bang C. Huynh
 -----------------------------------------------------------------------
 Hartree-Fock
 using 64 threads for integral computing
 -------------------------------------------------------
 OpenMP Integral computing Module                
 Release: version 1.0, May 2013, Q-Chem Inc. Pittsburgh 
 -------------------------------------------------------
 A restricted SCF calculation will be
 performed using DIIS
 SCF converges when DIIS error is below 1.0e-06
 ---------------------------------------
  Cycle       Energy         DIIS error
 ---------------------------------------
    1   -1583.1784067871      1.87e-02  
    2   -1571.1311969736      2.03e-03  
    3   -1571.4692000990      1.55e-03  
    4   -1571.6915894205      2.54e-04  
    5   -1571.7058132281      7.94e-05  
    6   -1571.7073268867      3.14e-05  
    7   -1571.7078030999      1.60e-05  
    8   -1571.7079343010      6.71e-06  
    9   -1571.7079572130      2.95e-06  
   10   -1571.7079617270      1.30e-06  
   11   -1571.7079629934      5.90e-07  Convergence criterion met
 ---------------------------------------
 SCF time:   CPU 6948.90s  wall 274.00s 

************** Final PCM Free Energy Summary **************
 G_electrostatic  =      -0.02840083 hartree =     -17.82178895 kcal/mol
 G_cavitation     =       0.00000000 hartree =       0.00000000 kcal/mol
 G_dispersion     =       0.00000000 hartree =       0.00000000 kcal/mol
 G_repulsion      =       0.00000000 hartree =       0.00000000 kcal/mol
 --------------------------------------------------
 Non-electrostatic Free Energy =       0.00000000 hartree =       0.00000000 kcal/mol
 Total                         =      -0.02840083 hartree =     -17.82178895 kcal/mol
 --------------------------------------------------
 SCF Energy (H0 + V/2)                       =   -1571.70796299 
 Solute Internal Energy (H0)                 =   -1571.67956216 
 Total Free Energy (H0 + V/2 + non-elec)     =   -1571.70796299 hartree
                                             = -986261.63242446 kcal/mol
***********************************************************

 SCF   energy in the final basis set =    -1571.7079629934
 Total energy in the final basis set =    -1571.7079629934


 --------------------------------------------------------------
  Generalized many-body perturbation theory program
  by Joonho Lee, Fazle Rob, Xintian Feng, Evgeny Epifanovsky

 No regularization used 
 (reg. param. = 0.0000e+00)
  (P|Q)^-1/2 Time:  CPU 141.82 s  wall 2.24 s

 In RI-MP2 calculation: 
 # of frozen core orbitals: 31

 Components of the RIMP2 correlation energy:
        aaaa    correlation energy =        -0.6166170018 a.u.
        abab    correlation energy =        -3.4298917189 a.u.
        bbbb    correlation energy =        -0.6166170018 a.u.
        non-Brillouin singles      =        -0.0000000000 a.u.
        total same-spin energy     =        -1.2332340037 a.u.
        total opposite-spin energy =        -3.4298917189 a.u.

 Total  RIMP2   correlation energy =        -4.6631257226 a.u.
        RIMP2         total energy =     -1576.3710887160 a.u.

 RI-MP2 Energy Time:  CPU 1965.63 s  wall 31.88 s
 
 --------------------------------------------------------------
 
                    Orbital Energies (a.u.)
 --------------------------------------------------------------
 
 Alpha MOs
 -- Occupied --
-91.9873 -20.5497 -20.5439 -20.5391 -20.5379 -15.6263 -15.6192 -11.3921
-11.3844 -11.3810 -11.3763 -11.3062 -11.3030 -11.3029 -11.3026 -11.2951
-11.2920 -11.2812 -11.2742 -11.2669 -11.2651 -11.2634 -11.2631 -11.2597
-11.2581 -11.2510 -11.2488  -8.9879  -6.6688  -6.6681  -6.6675  -1.4190
 -1.4099  -1.3967  -1.3890  -1.2614  -1.2533  -1.2282  -1.1875  -1.1510
 -1.1113  -1.0839  -1.0442  -0.9952  -0.9871  -0.9864  -0.9537  -0.9494
 -0.8939  -0.8830  -0.8753  -0.8580  -0.7898  -0.7742  -0.7735  -0.7677
 -0.7384  -0.7160  -0.7028  -0.6895  -0.6753  -0.6691  -0.6658  -0.6558
 -0.6456  -0.6415  -0.6362  -0.6300  -0.6293  -0.6257  -0.6218  -0.6029
 -0.5829  -0.5738  -0.5677  -0.5608  -0.5549  -0.5501  -0.5486  -0.5471
 -0.5462  -0.5428  -0.5214  -0.5109  -0.5031  -0.4787  -0.4713  -0.4672
 -0.4533  -0.4485  -0.4407  -0.4327  -0.4130  -0.4057  -0.3516  -0.3489
 -0.3300  -0.2834
 -- Virtual --
  0.0159   0.0460   0.0710   0.0931   0.1375   0.1495   0.1511   0.1627
  0.1658   0.1739   0.1763   0.1830   0.1855   0.1908   0.1957   0.2044
  0.2070   0.2206   0.2238   0.2281   0.2309   0.2326   0.2352   0.2399
  0.2667   0.2703   0.2925   0.3042   0.3133   0.3167   0.3241   0.3274
  0.3318   0.3408   0.3468   0.3482   0.3573   0.3590   0.3641   0.3711
  0.3744   0.3782   0.3833   0.3858   0.3895   0.3984   0.4038   0.4112
  0.4127   0.4193   0.4275   0.4312   0.4369   0.4404   0.4445   0.4487
  0.4529   0.4559   0.4587   0.4706   0.4752   0.4851   0.4876   0.4948
  0.4962   0.5002   0.5074   0.5086   0.5113   0.5173   0.5236   0.5244
  0.5313   0.5384   0.5429   0.5506   0.5518   0.5594   0.5617   0.5681
  0.5711   0.5738   0.5806   0.5841   0.5869   0.5936   0.5978   0.6022
  0.6042   0.6067   0.6087   0.6113   0.6152   0.6173   0.6205   0.6255
  0.6303   0.6345   0.6365   0.6394   0.6442   0.6480   0.6500   0.6574
  0.6596   0.6668   0.6747   0.6830   0.6869   0.6933   0.7004   0.7029
  0.7106   0.7112   0.7243   0.7348   0.7411   0.7447   0.7493   0.7536
  0.7651   0.7678   0.7709   0.7795   0.7837   0.7904   0.7926   0.7991
  0.8101   0.8130   0.8186   0.8269   0.8326   0.8389   0.8431   0.8454
  0.8506   0.8564   0.8653   0.8702   0.8724   0.8751   0.8787   0.8851
  0.8964   0.8983   0.9112   0.9130   0.9190   0.9211   0.9220   0.9277
  0.9333   0.9381   0.9479   0.9589   0.9671   0.9685   0.9713   0.9827
  0.9838   0.9894   0.9936   1.0062   1.0073   1.0161   1.0163   1.0220
  1.0289   1.0371   1.0435   1.0452   1.0496   1.0557   1.0594   1.0692
  1.0713   1.0737   1.0758   1.0836   1.0897   1.0925   1.0976   1.1082
  1.1137   1.1172   1.1239   1.1277   1.1328   1.1366   1.1413   1.1454
  1.1537   1.1601   1.1663   1.1708   1.1795   1.1869   1.1893   1.1918
  1.1966   1.2010   1.2081   1.2122   1.2142   1.2203   1.2228   1.2258
  1.2333   1.2402   1.2466   1.2527   1.2612   1.2659   1.2717   1.2799
  1.2842   1.2935   1.3077   1.3175   1.3239   1.3301   1.3375   1.3474
  1.3494   1.3543   1.3547   1.3692   1.3725   1.3800   1.3876   1.3908
  1.3943   1.3995   1.4059   1.4098   1.4186   1.4251   1.4367   1.4420
  1.4470   1.4563   1.4650   1.4699   1.4775   1.4850   1.4920   1.4974
  1.5023   1.5068   1.5124   1.5132   1.5199   1.5260   1.5354   1.5412
  1.5452   1.5481   1.5540   1.5581   1.5657   1.5719   1.5738   1.5795
  1.5874   1.5901   1.6037   1.6095   1.6227   1.6286   1.6357   1.6465
  1.6493   1.6608   1.6694   1.6733   1.6830   1.6852   1.6965   1.7006
  1.7025   1.7185   1.7321   1.7347   1.7406   1.7489   1.7585   1.7601
  1.7684   1.7720   1.7764   1.7879   1.7951   1.8056   1.8106   1.8151
  1.8227   1.8332   1.8385   1.8503   1.8582   1.8626   1.8722   1.8749
  1.8765   1.8790   1.8920   1.8989   1.9238   1.9259   1.9386   1.9533
  1.9548   1.9615   1.9647   1.9752   1.9914   1.9933   2.0097   2.0187
  2.0337   2.0415   2.0524   2.0741   2.0920   2.1091   2.1112   2.1244
  2.1339   2.1540   2.1568   2.1806   2.1857   2.1910   2.2025   2.2131
  2.2164   2.2298   2.2565   2.2684   2.2696   2.2936   2.2959   2.3073
  2.3157   2.3267   2.3353   2.3492   2.3624   2.3706   2.3763   2.3897
  2.4123   2.4202   2.4384   2.4418   2.4442   2.4587   2.4685   2.4698
  2.4829   2.4875   2.5007   2.5092   2.5240   2.5314   2.5349   2.5503
  2.5616   2.5676   2.5858   2.5899   2.6002   2.6064   2.6218   2.6233
  2.6311   2.6416   2.6437   2.6500   2.6621   2.6667   2.6784   2.6844
  2.6873   2.6910   2.6991   2.7152   2.7187   2.7240   2.7306   2.7372
  2.7508   2.7596   2.7669   2.7716   2.7769   2.7841   2.7935   2.8128
  2.8213   2.8353   2.8374   2.8506   2.8567   2.8610   2.8659   2.8710
  2.8800   2.8863   2.8900   2.8943   2.9031   2.9173   2.9202   2.9244
  2.9292   2.9333   2.9426   2.9484   2.9496   2.9654   2.9688   2.9779
  2.9840   2.9849   2.9924   3.0051   3.0093   3.0193   3.0216   3.0315
  3.0350   3.0408   3.0429   3.0547   3.0641   3.0712   3.0820   3.0919
  3.1022   3.1055   3.1093   3.1094   3.1114   3.1173   3.1188   3.1249
  3.1357   3.1436   3.1507   3.1554   3.1612   3.1657   3.1757   3.1770
  3.1890   3.1957   3.2007   3.2032   3.2118   3.2155   3.2274   3.2311
  3.2334   3.2363   3.2406   3.2442   3.2529   3.2578   3.2612   3.2678
  3.2758   3.2791   3.2814   3.2865   3.2906   3.3002   3.3059   3.3120
  3.3135   3.3164   3.3187   3.3270   3.3317   3.3348   3.3373   3.3401
  3.3446   3.3505   3.3539   3.3578   3.3645   3.3678   3.3705   3.3763
  3.3824   3.3858   3.3913   3.3940   3.3963   3.4049   3.4076   3.4143
  3.4216   3.4251   3.4297   3.4303   3.4380   3.4410   3.4471   3.4508
  3.4587   3.4612   3.4674   3.4727   3.4757   3.4827   3.4859   3.4917
  3.4976   3.5028   3.5071   3.5100   3.5139   3.5223   3.5334   3.5371
  3.5415   3.5483   3.5524   3.5553   3.5604   3.5659   3.5797   3.5866
  3.5925   3.5981   3.6015   3.6111   3.6118   3.6140   3.6242   3.6302
  3.6339   3.6386   3.6399   3.6444   3.6504   3.6568   3.6616   3.6698
  3.6756   3.6832   3.6870   3.6939   3.6980   3.7014   3.7123   3.7167
  3.7258   3.7291   3.7374   3.7414   3.7472   3.7485   3.7539   3.7582
  3.7620   3.7713   3.7751   3.7797   3.7930   3.7991   3.8021   3.8093
  3.8108   3.8137   3.8200   3.8246   3.8285   3.8392   3.8438   3.8506
  3.8563   3.8646   3.8729   3.8766   3.8927   3.8931   3.9036   3.9088
  3.9185   3.9199   3.9307   3.9334   3.9426   3.9479   3.9526   3.9622
  3.9683   3.9717   3.9732   3.9810   3.9876   3.9921   4.0058   4.0163
  4.0233   4.0281   4.0338   4.0411   4.0521   4.0598   4.0721   4.0855
  4.1003   4.1107   4.1115   4.1187   4.1249   4.1304   4.1376   4.1429
  4.1481   4.1560   4.1683   4.1777   4.1799   4.1913   4.2071   4.2109
  4.2191   4.2324   4.2347   4.2400   4.2467   4.2497   4.2624   4.2644
  4.2666   4.2754   4.2789   4.2881   4.2919   4.3046   4.3061   4.3092
  4.3165   4.3204   4.3280   4.3351   4.3363   4.3441   4.3473   4.3495
  4.3622   4.3690   4.3700   4.3737   4.3802   4.3844   4.3960   4.4001
  4.4051   4.4108   4.4165   4.4214   4.4266   4.4322   4.4527   4.4593
  4.4750   4.4780   4.4846   4.5001   4.5041   4.5102   4.5239   4.5319
  4.5358   4.5392   4.5518   4.5604   4.5688   4.5780   4.5798   4.5881
  4.5910   4.6028   4.6044   4.6162   4.6198   4.6268   4.6315   4.6406
  4.6538   4.6598   4.6704   4.6747   4.6846   4.6942   4.7068   4.7283
  4.7309   4.7313   4.7394   4.7467   4.7837   4.7850   4.7884   4.8010
  4.8144   4.8203   4.8355   4.8450   4.8546   4.8604   4.8735   4.8804
  4.8870   4.9027   4.9083   4.9216   4.9361   4.9476   4.9564   4.9720
  4.9845   5.0027   5.0131   5.0358   5.0389   5.0435   5.0457   5.0649
  5.0793   5.0980   5.1005   5.1227   5.1259   5.1281   5.1332   5.1392
  5.1524   5.1702   5.1723   5.1737   5.1915   5.1999   5.2245   5.2347
  5.2631   5.2660   5.2783   5.2846   5.2924   5.3100   5.3197   5.3281
  5.3318   5.3392   5.3500   5.3756   5.3795   5.3885   5.4054   5.4181
  5.4331   5.4514   5.4785   5.4904   5.4973   5.5091   5.5128   5.5152
  5.5188   5.5282   5.5431   5.5542   5.5599   5.5618   5.5684   5.5748
  5.5799   5.5845   5.5886   5.5977   5.6107   5.6215   5.6247   5.6387
  5.6491   5.6532   5.6614   5.6638   5.6682   5.6742   5.6958   5.7003
  5.7062   5.7101   5.7135   5.7407   5.7523   5.7622   5.7686   5.7736
  5.7875   5.7978   5.8166   5.8324   5.8432   5.8541   5.8835   5.9043
  5.9426   5.9510   5.9601   5.9768   6.0019   6.0138   6.0331   6.0434
  6.0479   6.0563   6.0979   6.1135   6.1251   6.1366   6.1514   6.1910
  6.1997   6.2209   6.2253   6.2269   6.2470   6.2621   6.2754   6.2850
  6.3114   6.3190   6.3248   6.3485   6.3680   6.3866   6.4029   6.4879
  6.5210   6.5376   6.5754   6.5850   6.6031   6.6068   6.6300   6.6602
  6.6721   6.6768   6.8517   6.8565   6.8920   6.9045   6.9077   6.9277
  6.9297   6.9745   7.1048   7.1138   7.1499   7.1973   7.2016   7.2382
  7.3490   7.3537   7.3603   7.3651   7.4783   7.5474   7.5732   7.5847
  7.5942   7.6250   7.6565   7.6891   7.6993   7.7246   8.8679  10.0964
 10.3121  11.3304  11.5366  11.7706  12.0013  12.2665  12.4416  12.4805
 12.9522  13.2211  13.3397  13.5595  13.7988  13.9398  14.0856  14.2890
 14.3254  14.3746  14.5372  14.5636  15.0264  15.6089  15.8205  16.2841
 --------------------------------------------------------------
 
          Ground-State Mulliken Net Atomic Charges

     Atom                 Charge (a.u.)
  ----------------------------------------
      1 C                    -0.084848
      2 C                    -0.031381
      3 C                    -0.119031
      4 C                    -0.120397
      5 H                     0.197850
      6 C                     0.009897
      7 C                     0.118023
      8 C                    -0.070202
      9 C                    -0.158117
     10 C                    -0.158787
     11 C                     0.196699
     12 H                     0.193337
     13 C                     0.342042
     14 C                     0.347316
     15 N                    -0.089097
     16 C                     0.356814
     17 C                     0.369628
     18 N                    -0.087925
     19 O                    -0.497899
     20 O                    -0.509866
     21 O                    -0.502560
     22 O                    -0.472582
     23 C                    -0.205359
     24 H                     0.138995
     25 H                     0.108656
     26 H                     0.108619
     27 C                    -0.197668
     28 H                     0.133691
     29 H                     0.111121
     30 H                     0.110197
     31 C                    -0.085971
     32 S                    -0.001189
     33 C                    -0.188369
     34 C                    -0.137492
     35 C                    -0.173291
     36 H                     0.186114
     37 H                     0.186518
     38 H                     0.213376
     39 H                     0.136195
     40 H                     0.136360
     41 H                     0.190585
  ----------------------------------------
  Sum of atomic charges =     0.000000

 -----------------------------------------------------------------
                    Cartesian Multipole Moments
 -----------------------------------------------------------------
    Charge (ESU x 10^10)
                 0.0000
    Dipole Moment (Debye)
         X       3.3509      Y       3.0399      Z      -1.0119
       Tot       4.6361
    Quadrupole Moments (Debye-Ang)
        XX    -187.4203     XY      -3.3530     YY    -186.2655
        XZ      11.3671     YZ       2.6992     ZZ    -160.0285
    Octopole Moments (Debye-Ang^2)
       XXX    -127.6424    XXY     610.8973    XYY      33.6317
       YYY    1729.9335    XXZ      -9.2195    XYZ     -41.8688
       YYZ     -27.5842    XZZ     -36.6508    YZZ     497.5049
       ZZZ     -41.0064
    Hexadecapole Moments (Debye-Ang^3)
      XXXX   -5831.2131   XXXY    -191.2010   XXYY   -4267.3065
      XYYY   -1228.9756   YYYY  -18130.7040   XXXZ    1025.0214
      XXYZ     -60.2805   XYYZ     603.8701   YYYZ     378.1516
      XXZZ   -1141.4869   XYZZ    -106.7223   YYZZ   -2852.9256
      XZZZ     912.3186   YZZZ      81.6199   ZZZZ   -1144.5775
 -----------------------------------------------------------------
 Total job time:  310.69s(wall), 9037.29s(cpu) 
 Wed Dec 27 10:32:56 2023

        *************************************************************
        *                                                           *
        *  Thank you very much for using Q-Chem.  Have a nice day.  *
        *                                                           *
        *************************************************************


0 sent ACK to 0 
now end server 0 ... 
cleanup process ... done
remove work dirs ./qchem3711092.0 -- ./qchem3711092.0
rm -rf ./qchem3711092.0
rm -rf ./qchem3711092
