You are running Q-Chem version: 5.4.0

#
# job setting
#
local host:  exp-2-02
current dir: /home/rramji/project-csd799/aromodel/pndit-qchem/hydrogenated-rotation-run
input file:  Dimethyl_Naphthalene_Dicarboximide_Phi_10_Theta_20_Thiophene_Hydrogenated.qcin
output file: 
nprocs     : 1
nthreads   : 64
#
# qchem installation setting
#
QC:          /cm/shared/apps/spack/cpu/opt/spack/linux-centos8-zen2/gcc-10.2.0/qchem-5.4-akfmr7b3t57bfs6qan3padb2wnb2i7cl
QCAUX:       /cm/shared/apps/spack/cpu/opt/spack/linux-centos8-zen2/gcc-10.2.0/qchem-5.4-akfmr7b3t57bfs6qan3padb2wnb2i7cl/qcaux
QCPROG:      /cm/shared/apps/spack/cpu/opt/spack/linux-centos8-zen2/gcc-10.2.0/qchem-5.4-akfmr7b3t57bfs6qan3padb2wnb2i7cl/exe/qcprog.exe
QCPROG_S:    /cm/shared/apps/spack/cpu/opt/spack/linux-centos8-zen2/gcc-10.2.0/qchem-5.4-akfmr7b3t57bfs6qan3padb2wnb2i7cl/exe/qcprog.exe_s
PARALLEL:    -DPARALLEL
QCMPI:       mpich
#
# qchem directory setting
#
qcrun:       qchem1222113
QCSCRATCH:   .
QCLOCALSCR:  
QCTMPDIR:    .
QCFILEPREF:  ./qchem1222113
QCSAVEDIR:   
workdirs:    ./qchem1222113
workdir0:    ./qchem1222113
partmpdirs =  
#
# parallel setting
#
QCRSH:           ssh
QCMPI:           mpich
QCMPIRUN:        /cm/shared/apps/spack/cpu/opt/spack/linux-centos8-zen2/gcc-10.2.0/qchem-5.4-akfmr7b3t57bfs6qan3padb2wnb2i7cl/bin/mpi/mpirun_qchem
QCMACHINEFILE:   ./qchem1222113/hostfile
exp-2-02

#
# env setting
#
exported envs:   QC QCAUX QCSCRATCH QCRUNNAME QCFILEPREF QCPROG QCPROG_S GUIFILE

Running Job 1 of 1 Dimethyl_Naphthalene_Dicarboximide_Phi_10_Theta_20_Thiophene_Hydrogenated.qcin
qchem Dimethyl_Naphthalene_Dicarboximide_Phi_10_Theta_20_Thiophene_Hydrogenated.qcin_1222113.0 ./qchem1222113/ 1
/cm/shared/apps/spack/cpu/opt/spack/linux-centos8-zen2/gcc-10.2.0/qchem-5.4-akfmr7b3t57bfs6qan3padb2wnb2i7cl/bin/mpi/mpirun_qchem -machinefile ./qchem1222113/hostfile -np 1 /cm/shared/apps/spack/cpu/opt/spack/linux-centos8-zen2/gcc-10.2.0/qchem-5.4-akfmr7b3t57bfs6qan3padb2wnb2i7cl/exe/qcprog.exe Dimethyl_Naphthalene_Dicarboximide_Phi_10_Theta_20_Thiophene_Hydrogenated.qcin_1222113.0 ./qchem1222113/

Process 0 of 1 is on exp-2-02 - thread support 0
initial socket setup ...start
initial socket setup ...done 
now start server 0 ... 
                  Welcome to Q-Chem
     A Quantum Leap Into The Future Of Chemistry


 Q-Chem 5.4, Q-Chem, Inc., Pleasanton, CA (2021)

 License issued to: University of California, San Diego (site)

 E. Epifanovsky,  A. T. B. Gilbert,  Xintian Feng,  Joonho Lee,  Yuezhi Mao,  
 N. Mardirossian,  P. Pokhilko,  A. White,  M. Wormit,  M. P. Coons,  
 A. L. Dempwolff,  Zhengting Gan,  D. Hait,  P. R. Horn,  L. D. Jacobson,  
 I. Kaliman,  J. Kussmann,  A. W. Lange,  Ka Un Lao,  D. S. Levine,  Jie Liu,  
 S. C. McKenzie,  A. F. Morrison,  K. Nanda,  F. Plasser,  D. R. Rehn,  
 M. L. Vidal,  Zhi-Qiang You,  Ying Zhu,  B. Alam,  B. Albrecht,  
 A. Aldossary,  E. Alguire,  J. H. Andersen,  D. Barton,  K. Begam,  A. Behn,  
 Y. A. Bernard,  E. J. Berquist,  H. Burton,  A. Carreras,  K. Carter-Fenk,  
 R. Chakraborty,  A. D. Chien,  K. D. Closser,  V. Cofer-Shabica,  
 S. Dasgupta,  Jia Deng,  M. de Wergifosse,  M. Diedenhofen,  Hainam Do,  
 S. Ehlert,  Po-Tung Fang,  S. Fatehi,  Qingguo Feng,  J. Gayvert,  
 Qinghui Ge,  G. Gidofalvi,  M. Goldey,  J. Gomes,  C. Gonzalez-Espinoza,  
 S. Gulania,  A. Gunina,  M. W. D. Hanson-Heine,  P. H. P. Harbach,  
 A. W. Hauser,  M. F. Herbst,  M. Hernandez Vera,  M. Hodecker,  
 Z. C. Holden,  S. Houck,  Xunkun Huang,  Kerwin Hui,  B. C. Huynh,  
 M. Ivanov,  Hyunjun Ji,  Hanjie Jiang,  B. Kaduk,  S. Kaehler,  
 K. Khistyaev,  Jaehoon Kim,  P. Klunzinger,  Z. Koczor-Benda,  
 Joong Hoon Koh,  D. Kosenkov,  L. Koulias,  T. Kowalczyk,  C. M. Krauter,  
 K. Kue,  A. Kunitsa,  T. Kus,  A. Landau,  K. V. Lawler,  D. Lefrancois,  
 S. Lehtola,  Rain Li,  Yi-Pei Li,  Jiashu Liang,  M. Liebenthal,  
 Hung-Hsuan Lin,  You-Sheng Lin,  Fenglai Liu,  Kuan-Yu Liu,  
 M. Loipersberger,  A. Luenser,  A. Manjanath,  P. Manohar,  E. Mansoor,  
 S. F. Manzer,  Shan-Ping Mao,  A. V. Marenich,  T. Markovich,  S. Mason,  
 S. A. Maurer,  P. F. McLaughlin,  M. F. S. J. Menger,  J.-M. Mewes,  
 S. A. Mewes,  P. Morgante,  J. W. Mullinax,  T. S. Nguyen-Beck,  
 K. J. Oosterbaan,  G. Paran,  Alexander C. Paul,  Suranjan K. Paul,  
 F. Pavosevic,  Zheng Pei,  S. Prager,  E. I. Proynov,  E. Ramos,  B. Rana,  
 A. E. Rask,  A. Rettig,  R. M. Richard,  F. Rob,  E. Rossomme,  T. Scheele,  
 M. Scheurer,  M. Schneider,  N. Sergueev,  S. M. Sharada,  W. Skomorowski,  
 D. W. Small,  C. J. Stein,  Yu-Chuan Su,  E. J. Sundstrom,  Zhen Tao,  
 J. Thirman,  T. Tsuchimochi,  N. M. Tubman,  S. P. Veccham,  O. Vydrov,  
 J. Wenzel,  J. Witte,  A. Yamada,  Kun Yao,  S. Yeganeh,  S. R. Yost,  
 A. Zech,  Igor Ying Zhang,  Xing Zhang,  Yu Zhang,  D. Zuev,  
 A. Aspuru-Guzik,  A. T. Bell,  N. A. Besley,  K. B. Bravaya,  B. R. Brooks,  
 D. Casanova,  Jeng-Da Chai,  S. Coriani,  C. J. Cramer,  
 A. E. DePrince, III,  R. A. DiStasio Jr.,  A. Dreuw,  B. D. Dunietz,  
 T. R. Furlani,  W. A. Goddard III,  S. Grimme,  S. Hammes-Schiffer,  
 T. Head-Gordon,  W. J. Hehre,  Chao-Ping Hsu,  T.-C. Jagau,  Yousung Jung,  
 A. Klamt,  Jing Kong,  D. S. Lambrecht,  WanZhen Liang,  N. J. Mayhall,  
 C. W. McCurdy,  J. B. Neaton,  C. Ochsenfeld,  J. A. Parkhill,  R. Peverati,  
 V. A. Rassolov,  Yihan Shao,  L. V. Slipchenko,  T. Stauch,  R. P. Steele,  
 J. E. Subotnik,  A. J. W. Thom,  A. Tkatchenko,  D. G. Truhlar,  
 T. Van Voorhis,  T. A. Wesolowski,  K. B. Whaley,  H. L. Woodcock III,  
 P. M. Zimmerman,  S. Faraji,  P. M. W. Gill,  M. Head-Gordon,  
 J. M. Herbert,  A. I. Krylov

 Contributors to earlier versions of Q-Chem not listed above: 
 R. D. Adamson,  B. Austin,  R. Baer,  J. Baker,  G. J. O. Beran,  
 K. Brandhorst,  S. T. Brown,  E. F. C. Byrd,  A. K. Chakraborty,  
 G. K. L. Chan,  Chun-Min Chang,  Yunqing Chen,  C.-L. Cheng,  
 Siu Hung Chien,  D. M. Chipman,  D. L. Crittenden,  H. Dachsel,  
 R. J. Doerksen,  A. D. Dutoi,  R. G. Edgar,  J. Fosso-Tande,  
 L. Fusti-Molnar,  D. Ghosh,  A. Ghysels,  A. Golubeva-Zadorozhnaya,  
 J. Gonthier,  M. S. Gordon,  S. R. Gwaltney,  G. Hawkins,  J. E. Herr,  
 A. Heyden,  S. Hirata,  E. G. Hohenstein,  G. Kedziora,  F. J. Keil,  
 C. Kelley,  Jihan Kim,  R. A. King,  R. Z. Khaliullin,  P. P. Korambath,  
 W. Kurlancheek,  A. Laurent,  A. M. Lee,  M. S. Lee,  S. V. Levchenko,  
 Ching Yeh Lin,  D. Liotard,  E. Livshits,  R. C. Lochan,  I. Lotan,  
 L. A. Martinez-Martinez,  P. E. Maslen,  N. Nair,  D. P. O'Neill,  
 D. Neuhauser,  E. Neuscamman,  C. M. Oana,  R. Olivares-Amaya,  R. Olson,  
 T. M. Perrine,  B. Peters,  P. A. Pieniazek,  A. Prociuk,  Y. M. Rhee,  
 J. Ritchie,  M. A. Rohrdanz,  E. Rosta,  N. J. Russ,  H. F. Schaefer III,  
 M. W. Schmidt,  N. E. Schultz,  S. Sharma,  N. Shenvi,  C. D. Sherrill,  
 A. C. Simmonett,  A. Sodt,  T. Stein,  D. Stuck,  K. S. Thanthiriwatte,  
 V. Vanovschi,  L. Vogt,  Tao Wang,  A. Warshel,  M. A. Watson,  
 C. F. Williams,  Q. Wu,  X. Xu,  Jun Yang,  W. Zhang,  Yan Zhao

 Please cite Q-Chem as follows:
 Y. Shao et al., Mol. Phys. 113, 184-215 (2015)
 DOI: 10.1080/00268976.2014.952696

 Q-Chem 5.4.0 for Intel X86 EM64T Linux

 Parts of Q-Chem use Armadillo 9.800.1 (Horizon Scraper).
 http://arma.sourceforge.net/

 Q-Chem begins on Wed Dec 27 10:03:31 2023  

 Host: 
0

     Scratch files written to ./qchem1222113//
 May1621 |scratch|qcdevops|jenkins|workspace|build_RNUM    
 Parallel job on  1  processors
 Processing $rem in /cm/shared/apps/spack/cpu/opt/spack/linux-centos8-zen2/gcc-10.2.0/qchem-5.4-akfmr7b3t57bfs6qan3padb2wnb2i7cl/config/preferences:
 Processing $rem in /home/rramji/.qchemrc:
 Symmetry turned off for PCM/SM12/SMD calculation
 Core orbitals will be frozen

 Checking the input file for inconsistencies... 	...done.

 Q-Chem warning in module forms1/BasisType.C, line 2236:

 You are not using the predefined 5D/6D in this basis set.


--------------------------------------------------------------
User input:
--------------------------------------------------------------
$molecule
0 1
C	0.086486	-6.741404	-0.241938
C	0.532960	-6.155638	-1.468983
C	-0.284733	-5.791452	0.776651
C	0.628455	-4.803786	-1.730681
H	0.833086	-6.821518	-2.294130
C	-0.184300	-4.378638	0.502775
C	0.271086	-3.838032	-0.747353
C	-0.541191	-3.413062	1.484986
C	0.370703	-2.426473	-1.019042
C	-0.446468	-2.059348	1.226525
C	0.000000	-1.478216	0.000000
H	-0.746717	-1.394783	2.052666
C	-0.779832	-6.187987	2.131549
C	-1.030596	-3.798164	2.829295
N	-1.115461	-5.170003	3.057496
C	1.119034	-4.424987	-3.078712
C	0.865151	-2.036627	-2.375300
N	1.201176	-3.049156	-3.301374
O	-0.916355	-7.353131	2.498300
O	-1.345486	-2.986854	3.697195
O	1.430379	-5.248946	-3.936224
O	1.007714	-0.878829	-2.762805
C	-1.599576	-5.563799	4.384539
H	-1.616121	-6.664085	4.426636
H	-2.611458	-5.147101	4.550487
H	-0.931037	-5.148785	5.162921
C	1.677382	-2.587487	-4.608454
H	1.896168	-3.483329	-5.212668
H	2.583531	-1.964972	-4.482719
H	0.903674	-1.962932	-5.093988
C	0.000000	0.000000	0.000000
S	0.137535	0.781156	1.580530
C	0.421895	2.393994	0.904911
C	0.173134	0.982857	-0.985400
C	0.402294	2.283058	-0.493528
H	0.132237	0.750786	-2.059934
H	0.555196	3.150621	-1.152593
H	0.574741	3.261310	1.556025
H	0.893959	-7.361589	0.165874
H	-0.794290	-7.361192	-0.449423
H	1.014686	-1.478831	0.369880
$end

$rem
JOBTYPE		SP
EXCHANGE	HF
CORRELATION	pRIMP2
BASIS		cc-pvtz
METHOD		rimp2
AUX_BASIS	rimp2-cc-pvtz
SOLVENT_METHOD	PCM
PURECART	11111
SYMMETRY	false
MEM_TOTAL	110000
SCF_CONVERGENCE = 6
THRESH=10
GUI = 2
$end



$solvent
dielectric 4.90
$end
--------------------------------------------------------------
 ----------------------------------------------------------------
             Standard Nuclear Orientation (Angstroms)
    I     Atom           X                Y                Z
 ----------------------------------------------------------------
    1      C       0.0864860000    -6.7414040000    -0.2419380000
    2      C       0.5329600000    -6.1556380000    -1.4689830000
    3      C      -0.2847330000    -5.7914520000     0.7766510000
    4      C       0.6284550000    -4.8037860000    -1.7306810000
    5      H       0.8330860000    -6.8215180000    -2.2941300000
    6      C      -0.1843000000    -4.3786380000     0.5027750000
    7      C       0.2710860000    -3.8380320000    -0.7473530000
    8      C      -0.5411910000    -3.4130620000     1.4849860000
    9      C       0.3707030000    -2.4264730000    -1.0190420000
   10      C      -0.4464680000    -2.0593480000     1.2265250000
   11      C       0.0000000000    -1.4782160000     0.0000000000
   12      H      -0.7467170000    -1.3947830000     2.0526660000
   13      C      -0.7798320000    -6.1879870000     2.1315490000
   14      C      -1.0305960000    -3.7981640000     2.8292950000
   15      N      -1.1154610000    -5.1700030000     3.0574960000
   16      C       1.1190340000    -4.4249870000    -3.0787120000
   17      C       0.8651510000    -2.0366270000    -2.3753000000
   18      N       1.2011760000    -3.0491560000    -3.3013740000
   19      O      -0.9163550000    -7.3531310000     2.4983000000
   20      O      -1.3454860000    -2.9868540000     3.6971950000
   21      O       1.4303790000    -5.2489460000    -3.9362240000
   22      O       1.0077140000    -0.8788290000    -2.7628050000
   23      C      -1.5995760000    -5.5637990000     4.3845390000
   24      H      -1.6161210000    -6.6640850000     4.4266360000
   25      H      -2.6114580000    -5.1471010000     4.5504870000
   26      H      -0.9310370000    -5.1487850000     5.1629210000
   27      C       1.6773820000    -2.5874870000    -4.6084540000
   28      H       1.8961680000    -3.4833290000    -5.2126680000
   29      H       2.5835310000    -1.9649720000    -4.4827190000
   30      H       0.9036740000    -1.9629320000    -5.0939880000
   31      C       0.0000000000     0.0000000000     0.0000000000
   32      S       0.1375350000     0.7811560000     1.5805300000
   33      C       0.4218950000     2.3939940000     0.9049110000
   34      C       0.1731340000     0.9828570000    -0.9854000000
   35      C       0.4022940000     2.2830580000    -0.4935280000
   36      H       0.1322370000     0.7507860000    -2.0599340000
   37      H       0.5551960000     3.1506210000    -1.1525930000
   38      H       0.5747410000     3.2613100000     1.5560250000
   39      H       0.8939590000    -7.3615890000     0.1658740000
   40      H      -0.7942900000    -7.3611920000    -0.4494230000
   41      H       1.0146860000    -1.4788310000     0.3698800000
 ----------------------------------------------------------------
 Nuclear Repulsion Energy =        2553.82597197 hartrees
 There are       98 alpha and       98 beta electrons
 Requested basis set is cc-pVTZ
 There are 356 shells and 1010 basis functions

 Total QAlloc Memory Limit 110000 MB
 Mega-Array Size       188 MB
 MEM_STATIC part       192 MB
 Discretize the solute cavity surface with Lebedev spheres
	Using 110 Lebedev grid points for each H atom
	Using 194 Lebedev grid points for other atoms
	Atomic van der Waals radii will be scaled by 1.20
 Remove points where switching function is < 1.0e-08
 Keep 2572 surface tesserae and discard 4206 interior tesserae
 Molecular Surface Area = 363.271 Angst**2
 Requested basis set is rimp2-cc-pVTZ
 There are 770 shells and 2648 basis functions
 A cutoff of  1.0D-10 yielded  34226 shell pairs
 There are    258934 function pairs (    335127 Cartesian)
 Smallest overlap matrix eigenvalue = 9.26E-06

 Q-Chem warning in module stvman/mkSTV.C, line 323:

 Overlap eigenvalue is smaller than square root of threshold
 Use THRESH >= 12 to get rid of this warning


 Scale SEOQF with 1.000000e-01/1.000000e-02/1.000000e-01

 Standard Electronic Orientation quadrupole field applied
 Nucleus-field energy     =    -0.0000000970 hartrees
 Guess from superposition of atomic densities
 Warning:  Energy on first SCF cycle will be non-variational
 SAD guess density has 196.000000 electrons

 -----------------------------------------------------------------------
  General SCF calculation program by
  Eric Jon Sundstrom, Paul Horn, Yuezhi Mao, Dmitri Zuev, Alec White,
  David Stuck, Shaama M.S., Shane Yost, Joonho Lee, David Small,
  Daniel Levine, Susi Lehtola, Hugh Burton, Evgeny Epifanovsky,
  Bang C. Huynh
 -----------------------------------------------------------------------
 Hartree-Fock
 using 64 threads for integral computing
 -------------------------------------------------------
 OpenMP Integral computing Module                
 Release: version 1.0, May 2013, Q-Chem Inc. Pittsburgh 
 -------------------------------------------------------
 A restricted SCF calculation will be
 performed using DIIS
 SCF converges when DIIS error is below 1.0e-06
 ---------------------------------------
  Cycle       Energy         DIIS error
 ---------------------------------------
    1   -1583.1775351375      1.87e-02  
    2   -1571.1542272413      2.03e-03  
    3   -1571.4966194385      1.55e-03  
    4   -1571.7195142697      2.53e-04  
    5   -1571.7333884984      7.88e-05  
    6   -1571.7348277876      3.05e-05  
    7   -1571.7352551484      1.56e-05  
    8   -1571.7353722386      6.16e-06  
    9   -1571.7353921169      2.88e-06  
   10   -1571.7353960139      1.23e-06  
   11   -1571.7353972501      5.89e-07  Convergence criterion met
 ---------------------------------------
 SCF time:   CPU 6528.42s  wall 272.00s 

************** Final PCM Free Energy Summary **************
 G_electrostatic  =      -0.02736708 hartree =     -17.17309930 kcal/mol
 G_cavitation     =       0.00000000 hartree =       0.00000000 kcal/mol
 G_dispersion     =       0.00000000 hartree =       0.00000000 kcal/mol
 G_repulsion      =       0.00000000 hartree =       0.00000000 kcal/mol
 --------------------------------------------------
 Non-electrostatic Free Energy =       0.00000000 hartree =       0.00000000 kcal/mol
 Total                         =      -0.02736708 hartree =     -17.17309930 kcal/mol
 --------------------------------------------------
 SCF Energy (H0 + V/2)                       =   -1571.73539725 
 Solute Internal Energy (H0)                 =   -1571.70803017 
 Total Free Energy (H0 + V/2 + non-elec)     =   -1571.73539725 hartree
                                             = -986278.84768037 kcal/mol
***********************************************************

 SCF   energy in the final basis set =    -1571.7353972501
 Total energy in the final basis set =    -1571.7353972501


 --------------------------------------------------------------
  Generalized many-body perturbation theory program
  by Joonho Lee, Fazle Rob, Xintian Feng, Evgeny Epifanovsky

 No regularization used 
 (reg. param. = 0.0000e+00)
  (P|Q)^-1/2 Time:  CPU 197.79 s  wall 3.75 s

 In RI-MP2 calculation: 
 # of frozen core orbitals: 31

 Components of the RIMP2 correlation energy:
        aaaa    correlation energy =        -0.6157316987 a.u.
        abab    correlation energy =        -3.4263179454 a.u.
        bbbb    correlation energy =        -0.6157316987 a.u.
        non-Brillouin singles      =        -0.0000000000 a.u.
        total same-spin energy     =        -1.2314633973 a.u.
        total opposite-spin energy =        -3.4263179454 a.u.

 Total  RIMP2   correlation energy =        -4.6577813427 a.u.
        RIMP2         total energy =     -1576.3931785928 a.u.

 RI-MP2 Energy Time:  CPU 2259.83 s  wall 38.23 s
 
 --------------------------------------------------------------
 
                    Orbital Energies (a.u.)
 --------------------------------------------------------------
 
 Alpha MOs
 -- Occupied --
-91.9893 -20.5525 -20.5456 -20.5427 -20.5416 -15.6287 -15.6220 -11.3966
-11.3864 -11.3845 -11.3802 -11.3100 -11.3097 -11.3064 -11.3056 -11.2977
-11.2964 -11.2920 -11.2762 -11.2709 -11.2691 -11.2675 -11.2641 -11.2597
-11.2537 -11.2469 -11.2388  -8.9893  -6.6703  -6.6698  -6.6691  -1.4227
 -1.4131  -1.3995  -1.3922  -1.2642  -1.2563  -1.2319  -1.1878  -1.1505
 -1.1154  -1.0876  -1.0486  -0.9958  -0.9888  -0.9813  -0.9559  -0.9496
 -0.8979  -0.8904  -0.8783  -0.8616  -0.7946  -0.7798  -0.7726  -0.7604
 -0.7410  -0.7185  -0.7026  -0.6897  -0.6800  -0.6753  -0.6682  -0.6583
 -0.6489  -0.6471  -0.6388  -0.6323  -0.6317  -0.6291  -0.6238  -0.6057
 -0.5912  -0.5717  -0.5643  -0.5596  -0.5581  -0.5525  -0.5510  -0.5487
 -0.5484  -0.5431  -0.5180  -0.5155  -0.5115  -0.4861  -0.4749  -0.4621
 -0.4581  -0.4507  -0.4434  -0.4362  -0.4152  -0.4084  -0.3566  -0.3500
 -0.3312  -0.2792
 -- Virtual --
  0.0118   0.0394   0.0879   0.0996   0.1439   0.1503   0.1564   0.1609
  0.1638   0.1704   0.1783   0.1800   0.1888   0.1964   0.2032   0.2064
  0.2128   0.2217   0.2269   0.2282   0.2318   0.2346   0.2499   0.2586
  0.2641   0.2715   0.3025   0.3041   0.3207   0.3214   0.3273   0.3330
  0.3381   0.3401   0.3432   0.3520   0.3544   0.3587   0.3638   0.3690
  0.3721   0.3835   0.3861   0.3865   0.3937   0.3992   0.4075   0.4121
  0.4190   0.4245   0.4283   0.4336   0.4416   0.4432   0.4499   0.4517
  0.4553   0.4577   0.4618   0.4695   0.4736   0.4835   0.4904   0.4954
  0.4992   0.5001   0.5087   0.5136   0.5158   0.5210   0.5219   0.5301
  0.5354   0.5376   0.5416   0.5490   0.5506   0.5593   0.5627   0.5662
  0.5749   0.5795   0.5813   0.5866   0.5901   0.5932   0.5954   0.6004
  0.6039   0.6069   0.6084   0.6120   0.6152   0.6159   0.6233   0.6275
  0.6302   0.6339   0.6363   0.6394   0.6400   0.6468   0.6552   0.6606
  0.6649   0.6706   0.6821   0.6842   0.6850   0.6942   0.6981   0.6990
  0.7091   0.7195   0.7281   0.7341   0.7376   0.7416   0.7598   0.7610
  0.7673   0.7705   0.7763   0.7803   0.7861   0.7971   0.8022   0.8058
  0.8081   0.8122   0.8214   0.8288   0.8331   0.8403   0.8430   0.8470
  0.8519   0.8542   0.8630   0.8674   0.8723   0.8732   0.8845   0.8933
  0.8952   0.8986   0.9043   0.9134   0.9182   0.9215   0.9235   0.9281
  0.9396   0.9429   0.9538   0.9572   0.9617   0.9673   0.9676   0.9759
  0.9802   0.9902   0.9924   1.0019   1.0056   1.0101   1.0146   1.0194
  1.0248   1.0337   1.0415   1.0425   1.0517   1.0562   1.0568   1.0623
  1.0700   1.0717   1.0750   1.0786   1.0836   1.0936   1.0984   1.1022
  1.1116   1.1149   1.1205   1.1269   1.1316   1.1325   1.1387   1.1480
  1.1529   1.1582   1.1637   1.1686   1.1712   1.1804   1.1827   1.1876
  1.1915   1.2021   1.2033   1.2092   1.2179   1.2186   1.2251   1.2268
  1.2342   1.2368   1.2389   1.2448   1.2504   1.2560   1.2623   1.2726
  1.2782   1.2876   1.2985   1.3038   1.3124   1.3201   1.3259   1.3396
  1.3474   1.3545   1.3623   1.3684   1.3749   1.3807   1.3832   1.3859
  1.3909   1.3956   1.3973   1.4049   1.4176   1.4215   1.4348   1.4441
  1.4451   1.4579   1.4628   1.4723   1.4776   1.4811   1.4891   1.4914
  1.4990   1.5028   1.5052   1.5140   1.5214   1.5264   1.5321   1.5415
  1.5483   1.5541   1.5560   1.5617   1.5663   1.5691   1.5698   1.5861
  1.5906   1.5971   1.5988   1.6027   1.6221   1.6353   1.6398   1.6446
  1.6494   1.6547   1.6607   1.6701   1.6811   1.6939   1.6950   1.7016
  1.7098   1.7181   1.7306   1.7417   1.7433   1.7474   1.7528   1.7565
  1.7618   1.7682   1.7718   1.7888   1.7956   1.8026   1.8106   1.8116
  1.8204   1.8359   1.8418   1.8521   1.8591   1.8641   1.8666   1.8716
  1.8744   1.8814   1.8908   1.8973   1.9123   1.9253   1.9346   1.9473
  1.9595   1.9674   1.9769   1.9842   1.9871   1.9972   2.0158   2.0219
  2.0312   2.0426   2.0679   2.0767   2.0804   2.1007   2.1131   2.1301
  2.1365   2.1473   2.1613   2.1684   2.1892   2.1971   2.2148   2.2206
  2.2361   2.2452   2.2544   2.2787   2.2877   2.2912   2.3059   2.3116
  2.3223   2.3315   2.3391   2.3509   2.3623   2.3652   2.3812   2.3862
  2.4058   2.4148   2.4324   2.4371   2.4475   2.4528   2.4597   2.4713
  2.4872   2.4931   2.4990   2.5026   2.5197   2.5243   2.5368   2.5529
  2.5588   2.5708   2.5790   2.5860   2.5910   2.6019   2.6042   2.6187
  2.6250   2.6337   2.6404   2.6440   2.6599   2.6658   2.6701   2.6759
  2.6842   2.6930   2.7014   2.7061   2.7111   2.7289   2.7324   2.7400
  2.7463   2.7514   2.7579   2.7604   2.7676   2.7799   2.7871   2.7924
  2.8084   2.8299   2.8354   2.8373   2.8540   2.8572   2.8645   2.8726
  2.8770   2.8778   2.8830   2.8920   2.9006   2.9016   2.9078   2.9189
  2.9202   2.9276   2.9368   2.9425   2.9568   2.9604   2.9652   2.9736
  2.9762   2.9830   2.9896   3.0005   3.0050   3.0136   3.0204   3.0286
  3.0324   3.0403   3.0472   3.0521   3.0638   3.0653   3.0773   3.0873
  3.0938   3.0983   3.1009   3.1019   3.1067   3.1093   3.1200   3.1244
  3.1360   3.1375   3.1431   3.1509   3.1597   3.1643   3.1670   3.1786
  3.1827   3.1910   3.1979   3.2006   3.2041   3.2102   3.2180   3.2218
  3.2294   3.2399   3.2433   3.2459   3.2535   3.2603   3.2612   3.2635
  3.2672   3.2731   3.2825   3.2838   3.2844   3.2988   3.3020   3.3077
  3.3120   3.3142   3.3211   3.3255   3.3263   3.3308   3.3349   3.3396
  3.3451   3.3466   3.3570   3.3585   3.3620   3.3695   3.3719   3.3742
  3.3788   3.3837   3.3893   3.3969   3.3993   3.4020   3.4066   3.4126
  3.4180   3.4256   3.4298   3.4315   3.4345   3.4398   3.4421   3.4523
  3.4561   3.4636   3.4651   3.4675   3.4749   3.4790   3.4888   3.4921
  3.4962   3.5020   3.5048   3.5101   3.5151   3.5171   3.5249   3.5311
  3.5360   3.5419   3.5478   3.5520   3.5633   3.5697   3.5769   3.5779
  3.5861   3.5913   3.5935   3.5993   3.6079   3.6184   3.6250   3.6259
  3.6317   3.6345   3.6363   3.6437   3.6473   3.6537   3.6574   3.6626
  3.6667   3.6799   3.6851   3.6878   3.6917   3.7019   3.7048   3.7105
  3.7145   3.7234   3.7338   3.7373   3.7409   3.7458   3.7478   3.7578
  3.7630   3.7663   3.7677   3.7755   3.7827   3.7907   3.7947   3.8069
  3.8106   3.8168   3.8179   3.8293   3.8348   3.8389   3.8437   3.8461
  3.8568   3.8571   3.8629   3.8763   3.8822   3.8888   3.8936   3.9116
  3.9174   3.9190   3.9243   3.9277   3.9333   3.9455   3.9514   3.9535
  3.9608   3.9685   3.9707   3.9816   3.9878   3.9896   4.0113   4.0135
  4.0234   4.0347   4.0456   4.0478   4.0554   4.0629   4.0653   4.0706
  4.0832   4.1076   4.1152   4.1195   4.1267   4.1370   4.1393   4.1437
  4.1526   4.1621   4.1660   4.1687   4.1720   4.1770   4.1816   4.2028
  4.2161   4.2229   4.2328   4.2397   4.2414   4.2501   4.2592   4.2655
  4.2707   4.2782   4.2815   4.2872   4.2937   4.2978   4.3016   4.3145
  4.3175   4.3232   4.3276   4.3306   4.3384   4.3406   4.3472   4.3601
  4.3618   4.3680   4.3687   4.3740   4.3782   4.3870   4.3994   4.4013
  4.4063   4.4118   4.4163   4.4203   4.4391   4.4439   4.4589   4.4635
  4.4713   4.4860   4.4974   4.4984   4.5091   4.5151   4.5192   4.5300
  4.5376   4.5442   4.5531   4.5588   4.5646   4.5762   4.5785   4.5897
  4.5946   4.6051   4.6068   4.6155   4.6186   4.6292   4.6356   4.6467
  4.6585   4.6697   4.6800   4.6841   4.6893   4.6971   4.7060   4.7091
  4.7150   4.7324   4.7461   4.7528   4.7791   4.7874   4.7948   4.8030
  4.8137   4.8249   4.8400   4.8419   4.8499   4.8674   4.8777   4.8830
  4.8957   4.8990   4.9071   4.9263   4.9280   4.9566   4.9620   4.9774
  4.9896   5.0088   5.0134   5.0208   5.0346   5.0402   5.0518   5.0666
  5.0749   5.0993   5.1108   5.1186   5.1259   5.1324   5.1392   5.1449
  5.1619   5.1681   5.1721   5.1843   5.1887   5.1988   5.2177   5.2326
  5.2622   5.2633   5.2842   5.2943   5.3023   5.3139   5.3264   5.3302
  5.3323   5.3412   5.3553   5.3745   5.3772   5.3866   5.4027   5.4153
  5.4337   5.4461   5.4711   5.4887   5.4957   5.5123   5.5138   5.5171
  5.5189   5.5364   5.5493   5.5539   5.5605   5.5636   5.5669   5.5698
  5.5784   5.5853   5.5921   5.6017   5.6058   5.6177   5.6239   5.6310
  5.6396   5.6491   5.6591   5.6610   5.6658   5.6717   5.6821   5.6934
  5.7016   5.7104   5.7187   5.7481   5.7539   5.7645   5.7730   5.7821
  5.7850   5.7912   5.8214   5.8327   5.8443   5.8537   5.9004   5.9154
  5.9416   5.9592   5.9656   5.9847   6.0130   6.0382   6.0442   6.0480
  6.0673   6.0923   6.1083   6.1128   6.1252   6.1448   6.1636   6.1891
  6.2047   6.2207   6.2253   6.2278   6.2479   6.2696   6.2826   6.2844
  6.3088   6.3153   6.3236   6.3525   6.3684   6.3938   6.4541   6.4873
  6.5219   6.5321   6.5774   6.5825   6.6032   6.6269   6.6587   6.6642
  6.6743   6.7526   6.8501   6.8526   6.8906   6.9014   6.9055   6.9263
  6.9288   6.9892   7.1041   7.1269   7.1521   7.1990   7.2060   7.2468
  7.3470   7.3513   7.3577   7.3705   7.4774   7.5443   7.5710   7.5831
  7.5926   7.6158   7.6543   7.6915   7.7024   7.7478   8.9364  10.0717
 10.4144  11.2822  11.5620  11.7704  12.0478  12.1450  12.4304  12.4962
 12.9715  13.2566  13.3753  13.5714  13.8017  13.9338  14.1451  14.2999
 14.3217  14.3774  14.5540  14.7602  15.0734  15.6259  15.8463  16.3454
 --------------------------------------------------------------
 
          Ground-State Mulliken Net Atomic Charges

     Atom                 Charge (a.u.)
  ----------------------------------------
      1 C                    -0.083922
      2 C                    -0.030160
      3 C                    -0.107102
      4 C                    -0.125942
      5 H                     0.199236
      6 C                     0.021829
      7 C                     0.120970
      8 C                    -0.051657
      9 C                    -0.183478
     10 C                    -0.184010
     11 C                     0.225346
     12 H                     0.179544
     13 C                     0.342982
     14 C                     0.350778
     15 N                    -0.090350
     16 C                     0.358308
     17 C                     0.379612
     18 N                    -0.087911
     19 O                    -0.493009
     20 O                    -0.505786
     21 O                    -0.500713
     22 O                    -0.479603
     23 C                    -0.204577
     24 H                     0.139509
     25 H                     0.109582
     26 H                     0.109543
     27 C                    -0.198344
     28 H                     0.134253
     29 H                     0.111710
     30 H                     0.111867
     31 C                    -0.051829
     32 S                    -0.002601
     33 C                    -0.235023
     34 C                    -0.171271
     35 C                    -0.210535
     36 H                     0.205328
     37 H                     0.189669
     38 H                     0.213413
     39 H                     0.138184
     40 H                     0.138617
     41 H                     0.217542
  ----------------------------------------
  Sum of atomic charges =     0.000000

 -----------------------------------------------------------------
                    Cartesian Multipole Moments
 -----------------------------------------------------------------
    Charge (ESU x 10^10)
                -0.0000
    Dipole Moment (Debye)
         X       1.5112      Y       1.4932      Z      -1.8936
       Tot       2.8459
    Quadrupole Moments (Debye-Ang)
        XX    -165.9391     XY      -2.3648     YY    -176.2021
        XZ      10.3398     YZ       8.1211     ZZ    -185.0913
    Octopole Moments (Debye-Ang^2)
       XXX     -42.6137    XXY     472.5397    XYY      15.7926
       YYY    1671.4192    XXZ      -2.3136    XYZ     -42.3368
       YYZ     -51.6671    XZZ     -12.4961    YZZ     590.2949
       ZZZ     -11.3468
    Hexadecapole Moments (Debye-Ang^3)
      XXXX    -891.3718   XXXY    -168.2927   XXYY   -2856.9971
      XYYY    -427.2735   YYYY  -17961.6725   XXXZ     928.2170
      XXYZ      63.5752   XYYZ     593.0509   YYYZ    1066.2924
      XXZZ   -1118.5905   XYZZ      50.1895   YYZZ   -4270.5313
      XZZZ    1033.3257   YZZZ      32.2744   ZZZZ   -5859.5009
 -----------------------------------------------------------------
 Total job time:  314.26s(wall), 8909.75s(cpu) 
 Wed Dec 27 10:08:45 2023

        *************************************************************
        *                                                           *
        *  Thank you very much for using Q-Chem.  Have a nice day.  *
        *                                                           *
        *************************************************************


0 sent ACK to 0 
now end server 0 ... 
cleanup process ... done
remove work dirs ./qchem1222113.0 -- ./qchem1222113.0
rm -rf ./qchem1222113.0
rm -rf ./qchem1222113
