You are running Q-Chem version: 5.4.0

#
# job setting
#
local host:  exp-1-36
current dir: /home/rramji/project-csd799/aromodel/pndit-qchem/hydrogenated-rotation-run
input file:  Dimethyl_Naphthalene_Dicarboximide_Phi_0_Theta_340_Thiophene_Hydrogenated.qcin
output file: 
nprocs     : 1
nthreads   : 64
#
# qchem installation setting
#
QC:          /cm/shared/apps/spack/cpu/opt/spack/linux-centos8-zen2/gcc-10.2.0/qchem-5.4-akfmr7b3t57bfs6qan3padb2wnb2i7cl
QCAUX:       /cm/shared/apps/spack/cpu/opt/spack/linux-centos8-zen2/gcc-10.2.0/qchem-5.4-akfmr7b3t57bfs6qan3padb2wnb2i7cl/qcaux
QCPROG:      /cm/shared/apps/spack/cpu/opt/spack/linux-centos8-zen2/gcc-10.2.0/qchem-5.4-akfmr7b3t57bfs6qan3padb2wnb2i7cl/exe/qcprog.exe
QCPROG_S:    /cm/shared/apps/spack/cpu/opt/spack/linux-centos8-zen2/gcc-10.2.0/qchem-5.4-akfmr7b3t57bfs6qan3padb2wnb2i7cl/exe/qcprog.exe_s
PARALLEL:    -DPARALLEL
QCMPI:       mpich
#
# qchem directory setting
#
qcrun:       qchem2756968
QCSCRATCH:   .
QCLOCALSCR:  
QCTMPDIR:    .
QCFILEPREF:  ./qchem2756968
QCSAVEDIR:   
workdirs:    ./qchem2756968
workdir0:    ./qchem2756968
partmpdirs =  
#
# parallel setting
#
QCRSH:           ssh
QCMPI:           mpich
QCMPIRUN:        /cm/shared/apps/spack/cpu/opt/spack/linux-centos8-zen2/gcc-10.2.0/qchem-5.4-akfmr7b3t57bfs6qan3padb2wnb2i7cl/bin/mpi/mpirun_qchem
QCMACHINEFILE:   ./qchem2756968/hostfile
exp-1-36

#
# env setting
#
exported envs:   QC QCAUX QCSCRATCH QCRUNNAME QCFILEPREF QCPROG QCPROG_S GUIFILE

Running Job 1 of 1 Dimethyl_Naphthalene_Dicarboximide_Phi_0_Theta_340_Thiophene_Hydrogenated.qcin
qchem Dimethyl_Naphthalene_Dicarboximide_Phi_0_Theta_340_Thiophene_Hydrogenated.qcin_2756968.0 ./qchem2756968/ 1
/cm/shared/apps/spack/cpu/opt/spack/linux-centos8-zen2/gcc-10.2.0/qchem-5.4-akfmr7b3t57bfs6qan3padb2wnb2i7cl/bin/mpi/mpirun_qchem -machinefile ./qchem2756968/hostfile -np 1 /cm/shared/apps/spack/cpu/opt/spack/linux-centos8-zen2/gcc-10.2.0/qchem-5.4-akfmr7b3t57bfs6qan3padb2wnb2i7cl/exe/qcprog.exe Dimethyl_Naphthalene_Dicarboximide_Phi_0_Theta_340_Thiophene_Hydrogenated.qcin_2756968.0 ./qchem2756968/

Process 0 of 1 is on exp-1-36 - thread support 0
initial socket setup ...start
initial socket setup ...done 
now start server 0 ... 
                  Welcome to Q-Chem
     A Quantum Leap Into The Future Of Chemistry


 Q-Chem 5.4, Q-Chem, Inc., Pleasanton, CA (2021)

 License issued to: University of California, San Diego (site)

 E. Epifanovsky,  A. T. B. Gilbert,  Xintian Feng,  Joonho Lee,  Yuezhi Mao,  
 N. Mardirossian,  P. Pokhilko,  A. White,  M. Wormit,  M. P. Coons,  
 A. L. Dempwolff,  Zhengting Gan,  D. Hait,  P. R. Horn,  L. D. Jacobson,  
 I. Kaliman,  J. Kussmann,  A. W. Lange,  Ka Un Lao,  D. S. Levine,  Jie Liu,  
 S. C. McKenzie,  A. F. Morrison,  K. Nanda,  F. Plasser,  D. R. Rehn,  
 M. L. Vidal,  Zhi-Qiang You,  Ying Zhu,  B. Alam,  B. Albrecht,  
 A. Aldossary,  E. Alguire,  J. H. Andersen,  D. Barton,  K. Begam,  A. Behn,  
 Y. A. Bernard,  E. J. Berquist,  H. Burton,  A. Carreras,  K. Carter-Fenk,  
 R. Chakraborty,  A. D. Chien,  K. D. Closser,  V. Cofer-Shabica,  
 S. Dasgupta,  Jia Deng,  M. de Wergifosse,  M. Diedenhofen,  Hainam Do,  
 S. Ehlert,  Po-Tung Fang,  S. Fatehi,  Qingguo Feng,  J. Gayvert,  
 Qinghui Ge,  G. Gidofalvi,  M. Goldey,  J. Gomes,  C. Gonzalez-Espinoza,  
 S. Gulania,  A. Gunina,  M. W. D. Hanson-Heine,  P. H. P. Harbach,  
 A. W. Hauser,  M. F. Herbst,  M. Hernandez Vera,  M. Hodecker,  
 Z. C. Holden,  S. Houck,  Xunkun Huang,  Kerwin Hui,  B. C. Huynh,  
 M. Ivanov,  Hyunjun Ji,  Hanjie Jiang,  B. Kaduk,  S. Kaehler,  
 K. Khistyaev,  Jaehoon Kim,  P. Klunzinger,  Z. Koczor-Benda,  
 Joong Hoon Koh,  D. Kosenkov,  L. Koulias,  T. Kowalczyk,  C. M. Krauter,  
 K. Kue,  A. Kunitsa,  T. Kus,  A. Landau,  K. V. Lawler,  D. Lefrancois,  
 S. Lehtola,  Rain Li,  Yi-Pei Li,  Jiashu Liang,  M. Liebenthal,  
 Hung-Hsuan Lin,  You-Sheng Lin,  Fenglai Liu,  Kuan-Yu Liu,  
 M. Loipersberger,  A. Luenser,  A. Manjanath,  P. Manohar,  E. Mansoor,  
 S. F. Manzer,  Shan-Ping Mao,  A. V. Marenich,  T. Markovich,  S. Mason,  
 S. A. Maurer,  P. F. McLaughlin,  M. F. S. J. Menger,  J.-M. Mewes,  
 S. A. Mewes,  P. Morgante,  J. W. Mullinax,  T. S. Nguyen-Beck,  
 K. J. Oosterbaan,  G. Paran,  Alexander C. Paul,  Suranjan K. Paul,  
 F. Pavosevic,  Zheng Pei,  S. Prager,  E. I. Proynov,  E. Ramos,  B. Rana,  
 A. E. Rask,  A. Rettig,  R. M. Richard,  F. Rob,  E. Rossomme,  T. Scheele,  
 M. Scheurer,  M. Schneider,  N. Sergueev,  S. M. Sharada,  W. Skomorowski,  
 D. W. Small,  C. J. Stein,  Yu-Chuan Su,  E. J. Sundstrom,  Zhen Tao,  
 J. Thirman,  T. Tsuchimochi,  N. M. Tubman,  S. P. Veccham,  O. Vydrov,  
 J. Wenzel,  J. Witte,  A. Yamada,  Kun Yao,  S. Yeganeh,  S. R. Yost,  
 A. Zech,  Igor Ying Zhang,  Xing Zhang,  Yu Zhang,  D. Zuev,  
 A. Aspuru-Guzik,  A. T. Bell,  N. A. Besley,  K. B. Bravaya,  B. R. Brooks,  
 D. Casanova,  Jeng-Da Chai,  S. Coriani,  C. J. Cramer,  
 A. E. DePrince, III,  R. A. DiStasio Jr.,  A. Dreuw,  B. D. Dunietz,  
 T. R. Furlani,  W. A. Goddard III,  S. Grimme,  S. Hammes-Schiffer,  
 T. Head-Gordon,  W. J. Hehre,  Chao-Ping Hsu,  T.-C. Jagau,  Yousung Jung,  
 A. Klamt,  Jing Kong,  D. S. Lambrecht,  WanZhen Liang,  N. J. Mayhall,  
 C. W. McCurdy,  J. B. Neaton,  C. Ochsenfeld,  J. A. Parkhill,  R. Peverati,  
 V. A. Rassolov,  Yihan Shao,  L. V. Slipchenko,  T. Stauch,  R. P. Steele,  
 J. E. Subotnik,  A. J. W. Thom,  A. Tkatchenko,  D. G. Truhlar,  
 T. Van Voorhis,  T. A. Wesolowski,  K. B. Whaley,  H. L. Woodcock III,  
 P. M. Zimmerman,  S. Faraji,  P. M. W. Gill,  M. Head-Gordon,  
 J. M. Herbert,  A. I. Krylov

 Contributors to earlier versions of Q-Chem not listed above: 
 R. D. Adamson,  B. Austin,  R. Baer,  J. Baker,  G. J. O. Beran,  
 K. Brandhorst,  S. T. Brown,  E. F. C. Byrd,  A. K. Chakraborty,  
 G. K. L. Chan,  Chun-Min Chang,  Yunqing Chen,  C.-L. Cheng,  
 Siu Hung Chien,  D. M. Chipman,  D. L. Crittenden,  H. Dachsel,  
 R. J. Doerksen,  A. D. Dutoi,  R. G. Edgar,  J. Fosso-Tande,  
 L. Fusti-Molnar,  D. Ghosh,  A. Ghysels,  A. Golubeva-Zadorozhnaya,  
 J. Gonthier,  M. S. Gordon,  S. R. Gwaltney,  G. Hawkins,  J. E. Herr,  
 A. Heyden,  S. Hirata,  E. G. Hohenstein,  G. Kedziora,  F. J. Keil,  
 C. Kelley,  Jihan Kim,  R. A. King,  R. Z. Khaliullin,  P. P. Korambath,  
 W. Kurlancheek,  A. Laurent,  A. M. Lee,  M. S. Lee,  S. V. Levchenko,  
 Ching Yeh Lin,  D. Liotard,  E. Livshits,  R. C. Lochan,  I. Lotan,  
 L. A. Martinez-Martinez,  P. E. Maslen,  N. Nair,  D. P. O'Neill,  
 D. Neuhauser,  E. Neuscamman,  C. M. Oana,  R. Olivares-Amaya,  R. Olson,  
 T. M. Perrine,  B. Peters,  P. A. Pieniazek,  A. Prociuk,  Y. M. Rhee,  
 J. Ritchie,  M. A. Rohrdanz,  E. Rosta,  N. J. Russ,  H. F. Schaefer III,  
 M. W. Schmidt,  N. E. Schultz,  S. Sharma,  N. Shenvi,  C. D. Sherrill,  
 A. C. Simmonett,  A. Sodt,  T. Stein,  D. Stuck,  K. S. Thanthiriwatte,  
 V. Vanovschi,  L. Vogt,  Tao Wang,  A. Warshel,  M. A. Watson,  
 C. F. Williams,  Q. Wu,  X. Xu,  Jun Yang,  W. Zhang,  Yan Zhao

 Please cite Q-Chem as follows:
 Y. Shao et al., Mol. Phys. 113, 184-215 (2015)
 DOI: 10.1080/00268976.2014.952696

 Q-Chem 5.4.0 for Intel X86 EM64T Linux

 Parts of Q-Chem use Armadillo 9.800.1 (Horizon Scraper).
 http://arma.sourceforge.net/

 Q-Chem begins on Wed Dec 27 12:53:31 2023  

 Host: 
0

     Scratch files written to ./qchem2756968//
 May1621 |scratch|qcdevops|jenkins|workspace|build_RNUM    
 Parallel job on  1  processors
 Processing $rem in /cm/shared/apps/spack/cpu/opt/spack/linux-centos8-zen2/gcc-10.2.0/qchem-5.4-akfmr7b3t57bfs6qan3padb2wnb2i7cl/config/preferences:
 Processing $rem in /home/rramji/.qchemrc:
 Symmetry turned off for PCM/SM12/SMD calculation
 Core orbitals will be frozen

 Checking the input file for inconsistencies... 	...done.

 Q-Chem warning in module forms1/BasisType.C, line 2236:

 You are not using the predefined 5D/6D in this basis set.


--------------------------------------------------------------
User input:
--------------------------------------------------------------
$molecule
0 1
C	-0.089263	-6.741404	-0.240927
C	-0.535973	-6.155638	-1.467886
C	0.281103	-5.791452	0.777972
C	-0.631036	-4.803786	-1.729742
H	-0.836458	-6.821518	-2.292903
C	0.181995	-4.378638	0.503614
C	-0.272725	-3.838032	-0.746756
C	0.539954	-3.413062	1.485437
C	-0.371053	-2.426473	-1.018915
C	0.446381	-2.059348	1.226557
C	-0.000000	-1.478216	-0.000000
H	0.747410	-1.394783	2.052413
C	0.772747	-6.187987	2.134128
C	1.029154	-3.798164	2.829820
N	1.110828	-5.170003	3.059182
C	-1.121728	-4.424987	-3.077731
C	-0.864069	-2.036627	-2.375694
N	-1.201928	-3.049156	-3.301101
O	0.903908	-7.353131	2.502830
O	1.345809	-2.986854	3.697078
O	-1.434422	-5.248946	-3.934752
O	-1.003943	-0.878829	-2.764177
C	1.592981	-5.563799	4.386939
H	1.607367	-6.664085	4.429822
H	0.924504	-5.147101	5.164489
H	2.605446	-5.148785	4.553486
C	-1.677308	-2.587487	-4.608481
H	-1.898089	-3.483329	-5.211969
H	-0.902337	-1.964972	-5.094624
H	-2.582098	-1.962932	-4.483092
C	0.000000	0.000000	0.000000
S	-0.000201	0.793171	1.580530
C	-0.000228	2.430885	0.904911
C	-0.000168	0.997990	-0.985400
C	-0.000267	2.318231	-0.493528
H	-0.000145	0.762343	-2.059934
H	-0.000339	3.199164	-1.152593
H	-0.000311	3.311566	1.556025
H	0.791434	-7.361589	-0.447559
H	-0.897345	-7.361192	0.166282
H	1.015049	-1.478831	-0.368883
$end

$rem
JOBTYPE		SP
EXCHANGE	HF
CORRELATION	pRIMP2
BASIS		cc-pvtz
METHOD		rimp2
AUX_BASIS	rimp2-cc-pvtz
SOLVENT_METHOD	PCM
PURECART	11111
SYMMETRY	false
MEM_TOTAL	110000
SCF_CONVERGENCE = 6
THRESH=10
GUI = 2
$end



$solvent
dielectric 4.90
$end
--------------------------------------------------------------
 ----------------------------------------------------------------
             Standard Nuclear Orientation (Angstroms)
    I     Atom           X                Y                Z
 ----------------------------------------------------------------
    1      C      -0.0892630000    -6.7414040000    -0.2409270000
    2      C      -0.5359730000    -6.1556380000    -1.4678860000
    3      C       0.2811030000    -5.7914520000     0.7779720000
    4      C      -0.6310360000    -4.8037860000    -1.7297420000
    5      H      -0.8364580000    -6.8215180000    -2.2929030000
    6      C       0.1819950000    -4.3786380000     0.5036140000
    7      C      -0.2727250000    -3.8380320000    -0.7467560000
    8      C       0.5399540000    -3.4130620000     1.4854370000
    9      C      -0.3710530000    -2.4264730000    -1.0189150000
   10      C       0.4463810000    -2.0593480000     1.2265570000
   11      C       0.0000000000    -1.4782160000     0.0000000000
   12      H       0.7474100000    -1.3947830000     2.0524130000
   13      C       0.7727470000    -6.1879870000     2.1341280000
   14      C       1.0291540000    -3.7981640000     2.8298200000
   15      N       1.1108280000    -5.1700030000     3.0591820000
   16      C      -1.1217280000    -4.4249870000    -3.0777310000
   17      C      -0.8640690000    -2.0366270000    -2.3756940000
   18      N      -1.2019280000    -3.0491560000    -3.3011010000
   19      O       0.9039080000    -7.3531310000     2.5028300000
   20      O       1.3458090000    -2.9868540000     3.6970780000
   21      O      -1.4344220000    -5.2489460000    -3.9347520000
   22      O      -1.0039430000    -0.8788290000    -2.7641770000
   23      C       1.5929810000    -5.5637990000     4.3869390000
   24      H       1.6073670000    -6.6640850000     4.4298220000
   25      H       0.9245040000    -5.1471010000     5.1644890000
   26      H       2.6054460000    -5.1487850000     4.5534860000
   27      C      -1.6773080000    -2.5874870000    -4.6084810000
   28      H      -1.8980890000    -3.4833290000    -5.2119690000
   29      H      -0.9023370000    -1.9649720000    -5.0946240000
   30      H      -2.5820980000    -1.9629320000    -4.4830920000
   31      C       0.0000000000     0.0000000000     0.0000000000
   32      S      -0.0002010000     0.7931710000     1.5805300000
   33      C      -0.0002280000     2.4308850000     0.9049110000
   34      C      -0.0001680000     0.9979900000    -0.9854000000
   35      C      -0.0002670000     2.3182310000    -0.4935280000
   36      H      -0.0001450000     0.7623430000    -2.0599340000
   37      H      -0.0003390000     3.1991640000    -1.1525930000
   38      H      -0.0003110000     3.3115660000     1.5560250000
   39      H       0.7914340000    -7.3615890000    -0.4475590000
   40      H      -0.8973450000    -7.3611920000     0.1662820000
   41      H       1.0150490000    -1.4788310000    -0.3688830000
 ----------------------------------------------------------------
 Nuclear Repulsion Energy =        2551.76667703 hartrees
 There are       98 alpha and       98 beta electrons
 Requested basis set is cc-pVTZ
 There are 356 shells and 1010 basis functions

 Total QAlloc Memory Limit 110000 MB
 Mega-Array Size       188 MB
 MEM_STATIC part       192 MB
 Discretize the solute cavity surface with Lebedev spheres
	Using 110 Lebedev grid points for each H atom
	Using 194 Lebedev grid points for other atoms
	Atomic van der Waals radii will be scaled by 1.20
 Remove points where switching function is < 1.0e-08
 Keep 2574 surface tesserae and discard 4204 interior tesserae
 Molecular Surface Area = 363.857 Angst**2
 Requested basis set is rimp2-cc-pVTZ
 There are 770 shells and 2648 basis functions
 A cutoff of  1.0D-10 yielded  34155 shell pairs
 There are    258429 function pairs (    334465 Cartesian)
 Smallest overlap matrix eigenvalue = 9.25E-06

 Q-Chem warning in module stvman/mkSTV.C, line 323:

 Overlap eigenvalue is smaller than square root of threshold
 Use THRESH >= 12 to get rid of this warning


 Scale SEOQF with 1.000000e-01/1.000000e-02/1.000000e-01

 Standard Electronic Orientation quadrupole field applied
 Nucleus-field energy     =    -0.0000000972 hartrees
 Guess from superposition of atomic densities
 Warning:  Energy on first SCF cycle will be non-variational
 SAD guess density has 196.000000 electrons

 -----------------------------------------------------------------------
  General SCF calculation program by
  Eric Jon Sundstrom, Paul Horn, Yuezhi Mao, Dmitri Zuev, Alec White,
  David Stuck, Shaama M.S., Shane Yost, Joonho Lee, David Small,
  Daniel Levine, Susi Lehtola, Hugh Burton, Evgeny Epifanovsky,
  Bang C. Huynh
 -----------------------------------------------------------------------
 Hartree-Fock
 using 64 threads for integral computing
 -------------------------------------------------------
 OpenMP Integral computing Module                
 Release: version 1.0, May 2013, Q-Chem Inc. Pittsburgh 
 -------------------------------------------------------
 A restricted SCF calculation will be
 performed using DIIS
 SCF converges when DIIS error is below 1.0e-06
 ---------------------------------------
  Cycle       Energy         DIIS error
 ---------------------------------------
    1   -1583.1638231063      1.86e-02  
    2   -1571.1573021336      2.03e-03  
    3   -1571.4993217468      1.55e-03  
    4   -1571.7221601370      2.53e-04  
    5   -1571.7359692173      7.84e-05  
    6   -1571.7373870969      3.01e-05  
    7   -1571.7378036905      1.55e-05  
    8   -1571.7379173899      6.10e-06  
    9   -1571.7379367886      2.88e-06  
   10   -1571.7379406123      1.22e-06  
   11   -1571.7379418438      5.87e-07  Convergence criterion met
 ---------------------------------------
 SCF time:   CPU 6985.42s  wall 273.00s 

************** Final PCM Free Energy Summary **************
 G_electrostatic  =      -0.02800051 hartree =     -17.57058712 kcal/mol
 G_cavitation     =       0.00000000 hartree =       0.00000000 kcal/mol
 G_dispersion     =       0.00000000 hartree =       0.00000000 kcal/mol
 G_repulsion      =       0.00000000 hartree =       0.00000000 kcal/mol
 --------------------------------------------------
 Non-electrostatic Free Energy =       0.00000000 hartree =       0.00000000 kcal/mol
 Total                         =      -0.02800051 hartree =     -17.57058712 kcal/mol
 --------------------------------------------------
 SCF Energy (H0 + V/2)                       =   -1571.73794184 
 Solute Internal Energy (H0)                 =   -1571.70994133 
 Total Free Energy (H0 + V/2 + non-elec)     =   -1571.73794184 hartree
                                             = -986280.44443702 kcal/mol
***********************************************************

 SCF   energy in the final basis set =    -1571.7379418438
 Total energy in the final basis set =    -1571.7379418438


 --------------------------------------------------------------
  Generalized many-body perturbation theory program
  by Joonho Lee, Fazle Rob, Xintian Feng, Evgeny Epifanovsky

 No regularization used 
 (reg. param. = 0.0000e+00)
  (P|Q)^-1/2 Time:  CPU 215.56 s  wall 4.04 s

 In RI-MP2 calculation: 
 # of frozen core orbitals: 31

 Components of the RIMP2 correlation energy:
        aaaa    correlation energy =        -0.6158884215 a.u.
        abab    correlation energy =        -3.4263848063 a.u.
        bbbb    correlation energy =        -0.6158884215 a.u.
        non-Brillouin singles      =        -0.0000000000 a.u.
        total same-spin energy     =        -1.2317768430 a.u.
        total opposite-spin energy =        -3.4263848063 a.u.

 Total  RIMP2   correlation energy =        -4.6581616493 a.u.
        RIMP2         total energy =     -1576.3961034931 a.u.

 RI-MP2 Energy Time:  CPU 2148.58 s  wall 35.83 s
 
 --------------------------------------------------------------
 
                    Orbital Energies (a.u.)
 --------------------------------------------------------------
 
 Alpha MOs
 -- Occupied --
-91.9901 -20.5531 -20.5456 -20.5423 -20.5414 -15.6286 -15.6219 -11.3965
-11.3863 -11.3842 -11.3800 -11.3100 -11.3099 -11.3067 -11.3054 -11.2982
-11.2976 -11.2923 -11.2751 -11.2703 -11.2690 -11.2673 -11.2641 -11.2596
-11.2535 -11.2475 -11.2407  -8.9899  -6.6708  -6.6703  -6.6696  -1.4225
 -1.4129  -1.3993  -1.3920  -1.2640  -1.2562  -1.2317  -1.1873  -1.1508
 -1.1154  -1.0876  -1.0486  -0.9954  -0.9887  -0.9823  -0.9559  -0.9499
 -0.8980  -0.8905  -0.8782  -0.8614  -0.7957  -0.7804  -0.7725  -0.7584
 -0.7400  -0.7181  -0.7022  -0.6902  -0.6836  -0.6731  -0.6683  -0.6581
 -0.6487  -0.6465  -0.6386  -0.6322  -0.6316  -0.6292  -0.6239  -0.6052
 -0.5915  -0.5721  -0.5642  -0.5602  -0.5583  -0.5524  -0.5510  -0.5495
 -0.5483  -0.5432  -0.5170  -0.5148  -0.5127  -0.4859  -0.4752  -0.4616
 -0.4582  -0.4512  -0.4434  -0.4360  -0.4151  -0.4083  -0.3563  -0.3503
 -0.3314  -0.2790
 -- Virtual --
  0.0120   0.0396   0.0883   0.1034   0.1405   0.1499   0.1561   0.1603
  0.1634   0.1703   0.1774   0.1805   0.1893   0.1966   0.2021   0.2051
  0.2154   0.2221   0.2240   0.2282   0.2319   0.2348   0.2478   0.2589
  0.2641   0.2717   0.3024   0.3126   0.3150   0.3200   0.3292   0.3342
  0.3390   0.3415   0.3467   0.3483   0.3547   0.3580   0.3636   0.3644
  0.3714   0.3828   0.3857   0.3892   0.3920   0.3995   0.4041   0.4137
  0.4187   0.4214   0.4284   0.4348   0.4412   0.4438   0.4475   0.4526
  0.4560   0.4612   0.4650   0.4706   0.4778   0.4858   0.4876   0.4910
  0.4988   0.5012   0.5116   0.5146   0.5162   0.5192   0.5230   0.5297
  0.5361   0.5385   0.5447   0.5486   0.5490   0.5531   0.5593   0.5649
  0.5746   0.5765   0.5828   0.5864   0.5871   0.5910   0.5952   0.6015
  0.6046   0.6068   0.6107   0.6109   0.6138   0.6149   0.6234   0.6287
  0.6311   0.6320   0.6349   0.6384   0.6406   0.6481   0.6542   0.6610
  0.6655   0.6713   0.6821   0.6831   0.6906   0.6954   0.6991   0.6999
  0.7083   0.7161   0.7224   0.7342   0.7370   0.7418   0.7596   0.7621
  0.7638   0.7689   0.7759   0.7785   0.7848   0.7953   0.8001   0.8045
  0.8084   0.8131   0.8242   0.8286   0.8356   0.8413   0.8424   0.8493
  0.8519   0.8600   0.8641   0.8668   0.8708   0.8763   0.8821   0.8920
  0.8930   0.8959   0.9035   0.9133   0.9181   0.9223   0.9244   0.9288
  0.9400   0.9464   0.9523   0.9582   0.9618   0.9650   0.9714   0.9809
  0.9814   0.9889   0.9945   1.0034   1.0066   1.0124   1.0167   1.0196
  1.0241   1.0255   1.0419   1.0450   1.0519   1.0547   1.0563   1.0636
  1.0679   1.0720   1.0731   1.0799   1.0821   1.0938   1.0994   1.1031
  1.1106   1.1153   1.1235   1.1246   1.1294   1.1361   1.1397   1.1430
  1.1461   1.1546   1.1633   1.1669   1.1712   1.1776   1.1823   1.1891
  1.1917   1.2006   1.2022   1.2055   1.2138   1.2180   1.2244   1.2281
  1.2335   1.2355   1.2417   1.2497   1.2508   1.2570   1.2591   1.2738
  1.2781   1.2837   1.2939   1.2984   1.3155   1.3211   1.3307   1.3379
  1.3424   1.3556   1.3608   1.3657   1.3741   1.3770   1.3822   1.3835
  1.3923   1.3959   1.4024   1.4040   1.4169   1.4196   1.4284   1.4432
  1.4487   1.4565   1.4633   1.4676   1.4776   1.4825   1.4838   1.4936
  1.5008   1.5036   1.5099   1.5158   1.5178   1.5268   1.5307   1.5356
  1.5469   1.5499   1.5567   1.5627   1.5668   1.5694   1.5756   1.5883
  1.5895   1.5910   1.5994   1.6037   1.6237   1.6381   1.6386   1.6475
  1.6495   1.6562   1.6658   1.6691   1.6794   1.6907   1.6953   1.6985
  1.7152   1.7254   1.7310   1.7352   1.7465   1.7496   1.7572   1.7603
  1.7659   1.7717   1.7826   1.7862   1.7993   1.8004   1.8096   1.8171
  1.8202   1.8393   1.8426   1.8478   1.8555   1.8643   1.8706   1.8740
  1.8758   1.8786   1.8843   1.8927   1.9124   1.9171   1.9343   1.9396
  1.9577   1.9649   1.9738   1.9855   1.9888   1.9996   2.0172   2.0227
  2.0292   2.0425   2.0638   2.0728   2.0831   2.0984   2.1068   2.1242
  2.1352   2.1445   2.1578   2.1660   2.1814   2.2000   2.2141   2.2190
  2.2351   2.2479   2.2528   2.2829   2.2893   2.2903   2.3010   2.3060
  2.3190   2.3283   2.3315   2.3526   2.3596   2.3638   2.3885   2.3906
  2.4047   2.4201   2.4284   2.4379   2.4488   2.4549   2.4606   2.4725
  2.4880   2.4967   2.5029   2.5116   2.5271   2.5303   2.5522   2.5568
  2.5622   2.5725   2.5792   2.5884   2.5915   2.6028   2.6082   2.6164
  2.6274   2.6333   2.6389   2.6469   2.6551   2.6634   2.6698   2.6771
  2.6806   2.6925   2.6992   2.7027   2.7051   2.7171   2.7285   2.7357
  2.7403   2.7511   2.7592   2.7604   2.7686   2.7754   2.7806   2.7933
  2.8054   2.8272   2.8346   2.8377   2.8457   2.8569   2.8584   2.8672
  2.8754   2.8776   2.8849   2.8912   2.8979   2.9020   2.9101   2.9150
  2.9193   2.9228   2.9349   2.9374   2.9507   2.9611   2.9681   2.9721
  2.9761   2.9874   2.9921   3.0037   3.0040   3.0162   3.0197   3.0266
  3.0328   3.0392   3.0420   3.0532   3.0580   3.0731   3.0771   3.0881
  3.0983   3.1009   3.1024   3.1077   3.1098   3.1151   3.1194   3.1275
  3.1386   3.1417   3.1501   3.1542   3.1574   3.1613   3.1679   3.1798
  3.1900   3.1914   3.1970   3.2031   3.2085   3.2131   3.2215   3.2236
  3.2356   3.2382   3.2418   3.2493   3.2533   3.2588   3.2632   3.2649
  3.2689   3.2729   3.2761   3.2838   3.2936   3.2965   3.3009   3.3060
  3.3105   3.3142   3.3177   3.3253   3.3267   3.3290   3.3362   3.3404
  3.3430   3.3478   3.3500   3.3588   3.3602   3.3622   3.3707   3.3727
  3.3806   3.3812   3.3882   3.3933   3.3950   3.4036   3.4069   3.4168
  3.4184   3.4240   3.4281   3.4324   3.4376   3.4408   3.4452   3.4483
  3.4517   3.4635   3.4663   3.4716   3.4748   3.4817   3.4878   3.4890
  3.4962   3.4995   3.5062   3.5118   3.5156   3.5186   3.5222   3.5263
  3.5284   3.5382   3.5458   3.5497   3.5569   3.5664   3.5705   3.5780
  3.5835   3.5855   3.5948   3.6000   3.6130   3.6214   3.6235   3.6275
  3.6294   3.6344   3.6357   3.6427   3.6459   3.6489   3.6539   3.6573
  3.6642   3.6758   3.6810   3.6916   3.6983   3.7041   3.7080   3.7121
  3.7174   3.7277   3.7324   3.7349   3.7415   3.7444   3.7484   3.7494
  3.7604   3.7615   3.7646   3.7707   3.7801   3.7921   3.8007   3.8048
  3.8113   3.8147   3.8173   3.8263   3.8288   3.8389   3.8424   3.8449
  3.8508   3.8548   3.8671   3.8775   3.8814   3.8926   3.8954   3.9016
  3.9166   3.9202   3.9250   3.9310   3.9416   3.9489   3.9523   3.9561
  3.9620   3.9650   3.9734   3.9780   3.9865   3.9971   4.0073   4.0102
  4.0201   4.0352   4.0402   4.0456   4.0523   4.0610   4.0715   4.0780
  4.0821   4.0925   4.1122   4.1173   4.1276   4.1333   4.1396   4.1448
  4.1464   4.1518   4.1605   4.1622   4.1698   4.1777   4.1904   4.1934
  4.2140   4.2238   4.2317   4.2409   4.2484   4.2572   4.2687   4.2700
  4.2771   4.2789   4.2846   4.2869   4.2982   4.3013   4.3050   4.3101
  4.3147   4.3231   4.3268   4.3319   4.3365   4.3427   4.3507   4.3568
  4.3635   4.3646   4.3694   4.3738   4.3816   4.3858   4.3940   4.4055
  4.4094   4.4102   4.4161   4.4231   4.4259   4.4449   4.4510   4.4690
  4.4755   4.4836   4.4972   4.5005   4.5088   4.5173   4.5230   4.5338
  4.5380   4.5471   4.5498   4.5577   4.5715   4.5764   4.5812   4.5861
  4.5933   4.5965   4.6100   4.6158   4.6189   4.6227   4.6293   4.6516
  4.6571   4.6625   4.6785   4.6846   4.6917   4.6986   4.7080   4.7101
  4.7138   4.7391   4.7500   4.7582   4.7814   4.7917   4.7923   4.7983
  4.8177   4.8330   4.8360   4.8485   4.8500   4.8555   4.8815   4.8829
  4.8871   4.9024   4.9053   4.9230   4.9438   4.9510   4.9627   4.9771
  4.9922   5.0053   5.0081   5.0158   5.0290   5.0396   5.0568   5.0577
  5.0927   5.0990   5.1162   5.1190   5.1219   5.1319   5.1356   5.1482
  5.1603   5.1679   5.1768   5.1819   5.1928   5.2007   5.2191   5.2299
  5.2617   5.2638   5.2860   5.2909   5.2995   5.3069   5.3287   5.3300
  5.3353   5.3382   5.3559   5.3720   5.3783   5.3872   5.4021   5.4144
  5.4351   5.4473   5.4750   5.4896   5.4956   5.5120   5.5138   5.5174
  5.5230   5.5284   5.5421   5.5544   5.5592   5.5643   5.5657   5.5678
  5.5784   5.5856   5.5915   5.6028   5.6089   5.6205   5.6241   5.6407
  5.6411   5.6496   5.6591   5.6615   5.6659   5.6733   5.6829   5.6936
  5.7019   5.7085   5.7188   5.7457   5.7530   5.7668   5.7719   5.7802
  5.7844   5.7871   5.8169   5.8284   5.8440   5.8558   5.8951   5.9205
  5.9429   5.9622   5.9675   5.9867   6.0166   6.0383   6.0455   6.0477
  6.0762   6.0977   6.1069   6.1133   6.1257   6.1456   6.1652   6.1884
  6.2057   6.2210   6.2254   6.2294   6.2478   6.2636   6.2762   6.2826
  6.3086   6.3190   6.3247   6.3513   6.3674   6.3946   6.4521   6.4857
  6.5216   6.5306   6.5764   6.5825   6.6033   6.6248   6.6582   6.6681
  6.6738   6.7527   6.8502   6.8519   6.8900   6.9016   6.9057   6.9265
  6.9289   6.9867   7.1042   7.1216   7.1518   7.1976   7.2037   7.2418
  7.3471   7.3514   7.3578   7.3679   7.4773   7.5434   7.5707   7.5832
  7.5929   7.6140   7.6542   7.6916   7.6981   7.7323   8.9100  10.0674
 10.4039  11.2777  11.5570  11.7721  12.0722  12.1505  12.4303  12.4953
 13.0041  13.2531  13.4332  13.5834  13.7871  13.9323  14.1202  14.2971
 14.3223  14.3702  14.5598  14.8132  15.0948  15.6249  15.8618  16.3583
 --------------------------------------------------------------
 
          Ground-State Mulliken Net Atomic Charges

     Atom                 Charge (a.u.)
  ----------------------------------------
      1 C                    -0.084964
      2 C                    -0.029860
      3 C                    -0.107050
      4 C                    -0.125560
      5 H                     0.199290
      6 C                     0.020714
      7 C                     0.110342
      8 C                    -0.067639
      9 C                    -0.195348
     10 C                    -0.151991
     11 C                     0.220765
     12 H                     0.178044
     13 C                     0.342769
     14 C                     0.351614
     15 N                    -0.090206
     16 C                     0.358750
     17 C                     0.378342
     18 N                    -0.088588
     19 O                    -0.493597
     20 O                    -0.506433
     21 O                    -0.500836
     22 O                    -0.480336
     23 C                    -0.204676
     24 H                     0.139502
     25 H                     0.109726
     26 H                     0.109300
     27 C                    -0.198103
     28 H                     0.134159
     29 H                     0.111236
     30 H                     0.112350
     31 C                    -0.051562
     32 S                     0.004244
     33 C                    -0.225483
     34 C                    -0.149366
     35 C                    -0.227484
     36 H                     0.203242
     37 H                     0.189149
     38 H                     0.212873
     39 H                     0.138064
     40 H                     0.138331
     41 H                     0.216279
  ----------------------------------------
  Sum of atomic charges =     0.000000

 -----------------------------------------------------------------
                    Cartesian Multipole Moments
 -----------------------------------------------------------------
    Charge (ESU x 10^10)
                 0.0000
    Dipole Moment (Debye)
         X       0.4743      Y       1.5739      Z      -2.4149
       Tot       2.9213
    Quadrupole Moments (Debye-Ang)
        XX    -166.3551     XY       1.5885     YY    -176.5194
        XZ     -10.4945     YZ       9.1703     ZZ    -185.0916
    Octopole Moments (Debye-Ang^2)
       XXX      15.7213    XXY     470.5895    XYY     -14.1667
       YYY    1674.6953    XXZ      -3.2736    XYZ      43.7019
       YYZ     -53.6621    XZZ       5.1927    YZZ     590.0229
       ZZZ      -9.5881
    Hexadecapole Moments (Debye-Ang^3)
      XXXX    -872.0160   XXXY     114.1940   XXYY   -2861.9776
      XYYY     395.7553   YYYY  -17995.1155   XXXZ    -937.0162
      XXYZ      64.4971   XYYZ    -591.1554   YYYZ    1074.7742
      XXZZ   -1117.2865   XYZZ     -58.6727   YYZZ   -4276.2878
      XZZZ   -1040.7487   YZZZ      32.6768   ZZZZ   -5861.9301
 -----------------------------------------------------------------
 Total job time:  313.66s(wall), 9257.02s(cpu) 
 Wed Dec 27 12:58:45 2023

        *************************************************************
        *                                                           *
        *  Thank you very much for using Q-Chem.  Have a nice day.  *
        *                                                           *
        *************************************************************


0 sent ACK to 0 
now end server 0 ... 
cleanup process ... done
remove work dirs ./qchem2756968.0 -- ./qchem2756968.0
rm -rf ./qchem2756968.0
rm -rf ./qchem2756968
