You are running Q-Chem version: 5.4.0

#
# job setting
#
local host:  exp-3-54
current dir: /home/rramji/project-csd799/aromodel/pndit-qchem/hydrogenated-rotation-run
input file:  Dimethyl_Naphthalene_Dicarboximide_Phi_60_Theta_200_Thiophene_Hydrogenated.qcin
output file: 
nprocs     : 1
nthreads   : 64
#
# qchem installation setting
#
QC:          /cm/shared/apps/spack/cpu/opt/spack/linux-centos8-zen2/gcc-10.2.0/qchem-5.4-akfmr7b3t57bfs6qan3padb2wnb2i7cl
QCAUX:       /cm/shared/apps/spack/cpu/opt/spack/linux-centos8-zen2/gcc-10.2.0/qchem-5.4-akfmr7b3t57bfs6qan3padb2wnb2i7cl/qcaux
QCPROG:      /cm/shared/apps/spack/cpu/opt/spack/linux-centos8-zen2/gcc-10.2.0/qchem-5.4-akfmr7b3t57bfs6qan3padb2wnb2i7cl/exe/qcprog.exe
QCPROG_S:    /cm/shared/apps/spack/cpu/opt/spack/linux-centos8-zen2/gcc-10.2.0/qchem-5.4-akfmr7b3t57bfs6qan3padb2wnb2i7cl/exe/qcprog.exe_s
PARALLEL:    -DPARALLEL
QCMPI:       mpich
#
# qchem directory setting
#
qcrun:       qchem1960180
QCSCRATCH:   .
QCLOCALSCR:  
QCTMPDIR:    .
QCFILEPREF:  ./qchem1960180
QCSAVEDIR:   
workdirs:    ./qchem1960180
workdir0:    ./qchem1960180
partmpdirs =  
#
# parallel setting
#
QCRSH:           ssh
QCMPI:           mpich
QCMPIRUN:        /cm/shared/apps/spack/cpu/opt/spack/linux-centos8-zen2/gcc-10.2.0/qchem-5.4-akfmr7b3t57bfs6qan3padb2wnb2i7cl/bin/mpi/mpirun_qchem
QCMACHINEFILE:   ./qchem1960180/hostfile
exp-3-54

#
# env setting
#
exported envs:   QC QCAUX QCSCRATCH QCRUNNAME QCFILEPREF QCPROG QCPROG_S GUIFILE

Running Job 1 of 1 Dimethyl_Naphthalene_Dicarboximide_Phi_60_Theta_200_Thiophene_Hydrogenated.qcin
qchem Dimethyl_Naphthalene_Dicarboximide_Phi_60_Theta_200_Thiophene_Hydrogenated.qcin_1960180.0 ./qchem1960180/ 1
/cm/shared/apps/spack/cpu/opt/spack/linux-centos8-zen2/gcc-10.2.0/qchem-5.4-akfmr7b3t57bfs6qan3padb2wnb2i7cl/bin/mpi/mpirun_qchem -machinefile ./qchem1960180/hostfile -np 1 /cm/shared/apps/spack/cpu/opt/spack/linux-centos8-zen2/gcc-10.2.0/qchem-5.4-akfmr7b3t57bfs6qan3padb2wnb2i7cl/exe/qcprog.exe Dimethyl_Naphthalene_Dicarboximide_Phi_60_Theta_200_Thiophene_Hydrogenated.qcin_1960180.0 ./qchem1960180/

Process 0 of 1 is on exp-3-54 - thread support 0
initial socket setup ...start
initial socket setup ...done 
now start server 0 ... 
                  Welcome to Q-Chem
     A Quantum Leap Into The Future Of Chemistry


 Q-Chem 5.4, Q-Chem, Inc., Pleasanton, CA (2021)

 License issued to: University of California, San Diego (site)

 E. Epifanovsky,  A. T. B. Gilbert,  Xintian Feng,  Joonho Lee,  Yuezhi Mao,  
 N. Mardirossian,  P. Pokhilko,  A. White,  M. Wormit,  M. P. Coons,  
 A. L. Dempwolff,  Zhengting Gan,  D. Hait,  P. R. Horn,  L. D. Jacobson,  
 I. Kaliman,  J. Kussmann,  A. W. Lange,  Ka Un Lao,  D. S. Levine,  Jie Liu,  
 S. C. McKenzie,  A. F. Morrison,  K. Nanda,  F. Plasser,  D. R. Rehn,  
 M. L. Vidal,  Zhi-Qiang You,  Ying Zhu,  B. Alam,  B. Albrecht,  
 A. Aldossary,  E. Alguire,  J. H. Andersen,  D. Barton,  K. Begam,  A. Behn,  
 Y. A. Bernard,  E. J. Berquist,  H. Burton,  A. Carreras,  K. Carter-Fenk,  
 R. Chakraborty,  A. D. Chien,  K. D. Closser,  V. Cofer-Shabica,  
 S. Dasgupta,  Jia Deng,  M. de Wergifosse,  M. Diedenhofen,  Hainam Do,  
 S. Ehlert,  Po-Tung Fang,  S. Fatehi,  Qingguo Feng,  J. Gayvert,  
 Qinghui Ge,  G. Gidofalvi,  M. Goldey,  J. Gomes,  C. Gonzalez-Espinoza,  
 S. Gulania,  A. Gunina,  M. W. D. Hanson-Heine,  P. H. P. Harbach,  
 A. W. Hauser,  M. F. Herbst,  M. Hernandez Vera,  M. Hodecker,  
 Z. C. Holden,  S. Houck,  Xunkun Huang,  Kerwin Hui,  B. C. Huynh,  
 M. Ivanov,  Hyunjun Ji,  Hanjie Jiang,  B. Kaduk,  S. Kaehler,  
 K. Khistyaev,  Jaehoon Kim,  P. Klunzinger,  Z. Koczor-Benda,  
 Joong Hoon Koh,  D. Kosenkov,  L. Koulias,  T. Kowalczyk,  C. M. Krauter,  
 K. Kue,  A. Kunitsa,  T. Kus,  A. Landau,  K. V. Lawler,  D. Lefrancois,  
 S. Lehtola,  Rain Li,  Yi-Pei Li,  Jiashu Liang,  M. Liebenthal,  
 Hung-Hsuan Lin,  You-Sheng Lin,  Fenglai Liu,  Kuan-Yu Liu,  
 M. Loipersberger,  A. Luenser,  A. Manjanath,  P. Manohar,  E. Mansoor,  
 S. F. Manzer,  Shan-Ping Mao,  A. V. Marenich,  T. Markovich,  S. Mason,  
 S. A. Maurer,  P. F. McLaughlin,  M. F. S. J. Menger,  J.-M. Mewes,  
 S. A. Mewes,  P. Morgante,  J. W. Mullinax,  T. S. Nguyen-Beck,  
 K. J. Oosterbaan,  G. Paran,  Alexander C. Paul,  Suranjan K. Paul,  
 F. Pavosevic,  Zheng Pei,  S. Prager,  E. I. Proynov,  E. Ramos,  B. Rana,  
 A. E. Rask,  A. Rettig,  R. M. Richard,  F. Rob,  E. Rossomme,  T. Scheele,  
 M. Scheurer,  M. Schneider,  N. Sergueev,  S. M. Sharada,  W. Skomorowski,  
 D. W. Small,  C. J. Stein,  Yu-Chuan Su,  E. J. Sundstrom,  Zhen Tao,  
 J. Thirman,  T. Tsuchimochi,  N. M. Tubman,  S. P. Veccham,  O. Vydrov,  
 J. Wenzel,  J. Witte,  A. Yamada,  Kun Yao,  S. Yeganeh,  S. R. Yost,  
 A. Zech,  Igor Ying Zhang,  Xing Zhang,  Yu Zhang,  D. Zuev,  
 A. Aspuru-Guzik,  A. T. Bell,  N. A. Besley,  K. B. Bravaya,  B. R. Brooks,  
 D. Casanova,  Jeng-Da Chai,  S. Coriani,  C. J. Cramer,  
 A. E. DePrince, III,  R. A. DiStasio Jr.,  A. Dreuw,  B. D. Dunietz,  
 T. R. Furlani,  W. A. Goddard III,  S. Grimme,  S. Hammes-Schiffer,  
 T. Head-Gordon,  W. J. Hehre,  Chao-Ping Hsu,  T.-C. Jagau,  Yousung Jung,  
 A. Klamt,  Jing Kong,  D. S. Lambrecht,  WanZhen Liang,  N. J. Mayhall,  
 C. W. McCurdy,  J. B. Neaton,  C. Ochsenfeld,  J. A. Parkhill,  R. Peverati,  
 V. A. Rassolov,  Yihan Shao,  L. V. Slipchenko,  T. Stauch,  R. P. Steele,  
 J. E. Subotnik,  A. J. W. Thom,  A. Tkatchenko,  D. G. Truhlar,  
 T. Van Voorhis,  T. A. Wesolowski,  K. B. Whaley,  H. L. Woodcock III,  
 P. M. Zimmerman,  S. Faraji,  P. M. W. Gill,  M. Head-Gordon,  
 J. M. Herbert,  A. I. Krylov

 Contributors to earlier versions of Q-Chem not listed above: 
 R. D. Adamson,  B. Austin,  R. Baer,  J. Baker,  G. J. O. Beran,  
 K. Brandhorst,  S. T. Brown,  E. F. C. Byrd,  A. K. Chakraborty,  
 G. K. L. Chan,  Chun-Min Chang,  Yunqing Chen,  C.-L. Cheng,  
 Siu Hung Chien,  D. M. Chipman,  D. L. Crittenden,  H. Dachsel,  
 R. J. Doerksen,  A. D. Dutoi,  R. G. Edgar,  J. Fosso-Tande,  
 L. Fusti-Molnar,  D. Ghosh,  A. Ghysels,  A. Golubeva-Zadorozhnaya,  
 J. Gonthier,  M. S. Gordon,  S. R. Gwaltney,  G. Hawkins,  J. E. Herr,  
 A. Heyden,  S. Hirata,  E. G. Hohenstein,  G. Kedziora,  F. J. Keil,  
 C. Kelley,  Jihan Kim,  R. A. King,  R. Z. Khaliullin,  P. P. Korambath,  
 W. Kurlancheek,  A. Laurent,  A. M. Lee,  M. S. Lee,  S. V. Levchenko,  
 Ching Yeh Lin,  D. Liotard,  E. Livshits,  R. C. Lochan,  I. Lotan,  
 L. A. Martinez-Martinez,  P. E. Maslen,  N. Nair,  D. P. O'Neill,  
 D. Neuhauser,  E. Neuscamman,  C. M. Oana,  R. Olivares-Amaya,  R. Olson,  
 T. M. Perrine,  B. Peters,  P. A. Pieniazek,  A. Prociuk,  Y. M. Rhee,  
 J. Ritchie,  M. A. Rohrdanz,  E. Rosta,  N. J. Russ,  H. F. Schaefer III,  
 M. W. Schmidt,  N. E. Schultz,  S. Sharma,  N. Shenvi,  C. D. Sherrill,  
 A. C. Simmonett,  A. Sodt,  T. Stein,  D. Stuck,  K. S. Thanthiriwatte,  
 V. Vanovschi,  L. Vogt,  Tao Wang,  A. Warshel,  M. A. Watson,  
 C. F. Williams,  Q. Wu,  X. Xu,  Jun Yang,  W. Zhang,  Yan Zhao

 Please cite Q-Chem as follows:
 Y. Shao et al., Mol. Phys. 113, 184-215 (2015)
 DOI: 10.1080/00268976.2014.952696

 Q-Chem 5.4.0 for Intel X86 EM64T Linux

 Parts of Q-Chem use Armadillo 9.800.1 (Horizon Scraper).
 http://arma.sourceforge.net/

 Q-Chem begins on Wed Dec 27 11:44:42 2023  

 Host: 
0

     Scratch files written to ./qchem1960180//
 May1621 |scratch|qcdevops|jenkins|workspace|build_RNUM    
 Parallel job on  1  processors
 Processing $rem in /cm/shared/apps/spack/cpu/opt/spack/linux-centos8-zen2/gcc-10.2.0/qchem-5.4-akfmr7b3t57bfs6qan3padb2wnb2i7cl/config/preferences:
 Processing $rem in /home/rramji/.qchemrc:
 Symmetry turned off for PCM/SM12/SMD calculation
 Core orbitals will be frozen

 Checking the input file for inconsistencies... 	...done.

 Q-Chem warning in module forms1/BasisType.C, line 2236:

 You are not using the predefined 5D/6D in this basis set.


--------------------------------------------------------------
User input:
--------------------------------------------------------------
$molecule
0 1
C	-0.086486	-6.741404	0.241938
C	-0.532960	-6.155638	1.468983
C	0.284733	-5.791452	-0.776651
C	-0.628455	-4.803786	1.730681
H	-0.833086	-6.821518	2.294130
C	0.184300	-4.378638	-0.502775
C	-0.271086	-3.838032	0.747353
C	0.541191	-3.413062	-1.484986
C	-0.370703	-2.426473	1.019042
C	0.446468	-2.059348	-1.226525
C	-0.000000	-1.478216	-0.000000
H	0.746717	-1.394783	-2.052666
C	0.779832	-6.187987	-2.131549
C	1.030596	-3.798164	-2.829295
N	1.115461	-5.170003	-3.057496
C	-1.119034	-4.424987	3.078712
C	-0.865151	-2.036627	2.375300
N	-1.201176	-3.049156	3.301374
O	0.916355	-7.353131	-2.498300
O	1.345486	-2.986854	-3.697195
O	-1.430379	-5.248946	3.936224
O	-1.007714	-0.878829	2.762805
C	1.599576	-5.563799	-4.384539
H	1.616121	-6.664085	-4.426636
H	2.611458	-5.147101	-4.550487
H	0.931037	-5.148785	-5.162921
C	-1.677382	-2.587487	4.608454
H	-1.896168	-3.483329	5.212668
H	-2.583531	-1.964972	4.482719
H	-0.903674	-1.962932	5.093988
C	0.000000	0.000000	0.000000
S	0.686805	0.396760	1.580530
C	2.105095	1.215640	0.904911
C	0.864201	0.499140	-0.985400
C	2.007514	1.159347	-0.493528
H	0.660136	0.381296	-2.059934
H	2.770388	1.599875	-1.152593
H	2.867745	1.656053	1.556025
H	-0.893959	-7.361589	-0.165874
H	0.794290	-7.361192	0.449423
H	-1.014686	-1.478831	-0.369880
$end

$rem
JOBTYPE		SP
EXCHANGE	HF
CORRELATION	pRIMP2
BASIS		cc-pvtz
METHOD		rimp2
AUX_BASIS	rimp2-cc-pvtz
SOLVENT_METHOD	PCM
PURECART	11111
SYMMETRY	false
MEM_TOTAL	110000
SCF_CONVERGENCE = 6
THRESH=10
GUI = 2
$end



$solvent
dielectric 4.90
$end
--------------------------------------------------------------
 ----------------------------------------------------------------
             Standard Nuclear Orientation (Angstroms)
    I     Atom           X                Y                Z
 ----------------------------------------------------------------
    1      C      -0.0864860000    -6.7414040000     0.2419380000
    2      C      -0.5329600000    -6.1556380000     1.4689830000
    3      C       0.2847330000    -5.7914520000    -0.7766510000
    4      C      -0.6284550000    -4.8037860000     1.7306810000
    5      H      -0.8330860000    -6.8215180000     2.2941300000
    6      C       0.1843000000    -4.3786380000    -0.5027750000
    7      C      -0.2710860000    -3.8380320000     0.7473530000
    8      C       0.5411910000    -3.4130620000    -1.4849860000
    9      C      -0.3707030000    -2.4264730000     1.0190420000
   10      C       0.4464680000    -2.0593480000    -1.2265250000
   11      C       0.0000000000    -1.4782160000     0.0000000000
   12      H       0.7467170000    -1.3947830000    -2.0526660000
   13      C       0.7798320000    -6.1879870000    -2.1315490000
   14      C       1.0305960000    -3.7981640000    -2.8292950000
   15      N       1.1154610000    -5.1700030000    -3.0574960000
   16      C      -1.1190340000    -4.4249870000     3.0787120000
   17      C      -0.8651510000    -2.0366270000     2.3753000000
   18      N      -1.2011760000    -3.0491560000     3.3013740000
   19      O       0.9163550000    -7.3531310000    -2.4983000000
   20      O       1.3454860000    -2.9868540000    -3.6971950000
   21      O      -1.4303790000    -5.2489460000     3.9362240000
   22      O      -1.0077140000    -0.8788290000     2.7628050000
   23      C       1.5995760000    -5.5637990000    -4.3845390000
   24      H       1.6161210000    -6.6640850000    -4.4266360000
   25      H       2.6114580000    -5.1471010000    -4.5504870000
   26      H       0.9310370000    -5.1487850000    -5.1629210000
   27      C      -1.6773820000    -2.5874870000     4.6084540000
   28      H      -1.8961680000    -3.4833290000     5.2126680000
   29      H      -2.5835310000    -1.9649720000     4.4827190000
   30      H      -0.9036740000    -1.9629320000     5.0939880000
   31      C       0.0000000000     0.0000000000     0.0000000000
   32      S       0.6868050000     0.3967600000     1.5805300000
   33      C       2.1050950000     1.2156400000     0.9049110000
   34      C       0.8642010000     0.4991400000    -0.9854000000
   35      C       2.0075140000     1.1593470000    -0.4935280000
   36      H       0.6601360000     0.3812960000    -2.0599340000
   37      H       2.7703880000     1.5998750000    -1.1525930000
   38      H       2.8677450000     1.6560530000     1.5560250000
   39      H      -0.8939590000    -7.3615890000    -0.1658740000
   40      H       0.7942900000    -7.3611920000     0.4494230000
   41      H      -1.0146860000    -1.4788310000    -0.3698800000
 ----------------------------------------------------------------
 Nuclear Repulsion Energy =        2599.28836128 hartrees
 There are       98 alpha and       98 beta electrons
 Requested basis set is cc-pVTZ
 There are 356 shells and 1010 basis functions

 Total QAlloc Memory Limit 110000 MB
 Mega-Array Size       188 MB
 MEM_STATIC part       192 MB
 Discretize the solute cavity surface with Lebedev spheres
	Using 110 Lebedev grid points for each H atom
	Using 194 Lebedev grid points for other atoms
	Atomic van der Waals radii will be scaled by 1.20
 Remove points where switching function is < 1.0e-08
 Keep 2540 surface tesserae and discard 4238 interior tesserae
 Molecular Surface Area = 358.245 Angst**2
 Requested basis set is rimp2-cc-pVTZ
 There are 770 shells and 2648 basis functions
 A cutoff of  1.0D-10 yielded  35070 shell pairs
 There are    264854 function pairs (    342653 Cartesian)
 Smallest overlap matrix eigenvalue = 8.17E-06

 Q-Chem warning in module stvman/mkSTV.C, line 323:

 Overlap eigenvalue is smaller than square root of threshold
 Use THRESH >= 12 to get rid of this warning


 Scale SEOQF with 1.000000e-01/1.000000e-02/1.000000e-01

 Standard Electronic Orientation quadrupole field applied
 Nucleus-field energy     =    -0.0000000949 hartrees
 Guess from superposition of atomic densities
 Warning:  Energy on first SCF cycle will be non-variational
 SAD guess density has 196.000000 electrons

 -----------------------------------------------------------------------
  General SCF calculation program by
  Eric Jon Sundstrom, Paul Horn, Yuezhi Mao, Dmitri Zuev, Alec White,
  David Stuck, Shaama M.S., Shane Yost, Joonho Lee, David Small,
  Daniel Levine, Susi Lehtola, Hugh Burton, Evgeny Epifanovsky,
  Bang C. Huynh
 -----------------------------------------------------------------------
 Hartree-Fock
 using 64 threads for integral computing
 -------------------------------------------------------
 OpenMP Integral computing Module                
 Release: version 1.0, May 2013, Q-Chem Inc. Pittsburgh 
 -------------------------------------------------------
 A restricted SCF calculation will be
 performed using DIIS
 SCF converges when DIIS error is below 1.0e-06
 ---------------------------------------
  Cycle       Energy         DIIS error
 ---------------------------------------
    1   -1583.3344990605      1.87e-02  
    2   -1571.0796346277      2.01e-03  
    3   -1571.4178481493      1.53e-03  
    4   -1571.6318496673      2.56e-04  
    5   -1571.6461561710      7.95e-05  
    6   -1571.6476952091      3.20e-05  
    7   -1571.6482036673      1.67e-05  
    8   -1571.6483552287      7.50e-06  
    9   -1571.6483853609      3.28e-06  
   10   -1571.6483919598      1.49e-06  
   11   -1571.6483938104      6.54e-07  Convergence criterion met
 ---------------------------------------
 SCF time:   CPU 6728.77s  wall 271.00s 

************** Final PCM Free Energy Summary **************
 G_electrostatic  =      -0.02968060 hartree =     -18.62486060 kcal/mol
 G_cavitation     =       0.00000000 hartree =       0.00000000 kcal/mol
 G_dispersion     =       0.00000000 hartree =       0.00000000 kcal/mol
 G_repulsion      =       0.00000000 hartree =       0.00000000 kcal/mol
 --------------------------------------------------
 Non-electrostatic Free Energy =       0.00000000 hartree =       0.00000000 kcal/mol
 Total                         =      -0.02968060 hartree =     -18.62486060 kcal/mol
 --------------------------------------------------
 SCF Energy (H0 + V/2)                       =   -1571.64839381 
 Solute Internal Energy (H0)                 =   -1571.61871321 
 Total Free Energy (H0 + V/2 + non-elec)     =   -1571.64839381 hartree
                                             = -986224.25219799 kcal/mol
***********************************************************

 SCF   energy in the final basis set =    -1571.6483938104
 Total energy in the final basis set =    -1571.6483938104


 --------------------------------------------------------------
  Generalized many-body perturbation theory program
  by Joonho Lee, Fazle Rob, Xintian Feng, Evgeny Epifanovsky

 No regularization used 
 (reg. param. = 0.0000e+00)
  (P|Q)^-1/2 Time:  CPU 170.06 s  wall 2.92 s

 In RI-MP2 calculation: 
 # of frozen core orbitals: 31

 Components of the RIMP2 correlation energy:
        aaaa    correlation energy =        -0.6206408822 a.u.
        abab    correlation energy =        -3.4391121157 a.u.
        bbbb    correlation energy =        -0.6206408822 a.u.
        non-Brillouin singles      =        -0.0000000000 a.u.
        total same-spin energy     =        -1.2412817644 a.u.
        total opposite-spin energy =        -3.4391121157 a.u.

 Total  RIMP2   correlation energy =        -4.6803938801 a.u.
        RIMP2         total energy =     -1576.3287876905 a.u.

 RI-MP2 Energy Time:  CPU 1918.64 s  wall 31.25 s
 
 --------------------------------------------------------------
 
                    Orbital Energies (a.u.)
 --------------------------------------------------------------
 
 Alpha MOs
 -- Occupied --
-91.9784 -20.5560 -20.5444 -20.5383 -20.5374 -15.6285 -15.6190 -11.3967
-11.3850 -11.3795 -11.3765 -11.3058 -11.3047 -11.3034 -11.3018 -11.2947
-11.2944 -11.2822 -11.2734 -11.2666 -11.2635 -11.2630 -11.2620 -11.2597
-11.2583 -11.2504 -11.2499  -8.9790  -6.6594  -6.6581  -6.6578  -1.4259
 -1.4095  -1.3999  -1.3886  -1.2641  -1.2531  -1.2311  -1.1908  -1.1502
 -1.1117  -1.0827  -1.0457  -0.9977  -0.9906  -0.9866  -0.9542  -0.9477
 -0.8953  -0.8867  -0.8761  -0.8581  -0.7898  -0.7797  -0.7757  -0.7658
 -0.7335  -0.7170  -0.7021  -0.6914  -0.6852  -0.6737  -0.6671  -0.6564
 -0.6475  -0.6428  -0.6362  -0.6317  -0.6289  -0.6283  -0.6199  -0.6056
 -0.5930  -0.5747  -0.5677  -0.5638  -0.5587  -0.5531  -0.5505  -0.5468
 -0.5457  -0.5438  -0.5282  -0.5059  -0.5036  -0.4847  -0.4642  -0.4548
 -0.4490  -0.4417  -0.4355  -0.4271  -0.4083  -0.4055  -0.3573  -0.3441
 -0.3345  -0.2718
 -- Virtual --
  0.0140   0.0411   0.0592   0.0935   0.1403   0.1511   0.1589   0.1592
  0.1640   0.1738   0.1779   0.1815   0.1834   0.1874   0.1978   0.2051
  0.2146   0.2236   0.2288   0.2311   0.2337   0.2366   0.2583   0.2625
  0.2678   0.2785   0.2901   0.3045   0.3144   0.3180   0.3248   0.3286
  0.3373   0.3429   0.3477   0.3519   0.3567   0.3594   0.3645   0.3674
  0.3753   0.3784   0.3808   0.3899   0.3951   0.3966   0.3996   0.4071
  0.4144   0.4174   0.4225   0.4313   0.4335   0.4372   0.4441   0.4521
  0.4541   0.4592   0.4658   0.4755   0.4795   0.4860   0.4908   0.4954
  0.4975   0.5026   0.5057   0.5090   0.5177   0.5203   0.5227   0.5270
  0.5310   0.5390   0.5481   0.5488   0.5522   0.5576   0.5610   0.5667
  0.5732   0.5778   0.5811   0.5871   0.5907   0.5952   0.5986   0.6008
  0.6045   0.6071   0.6102   0.6148   0.6177   0.6194   0.6247   0.6277
  0.6319   0.6337   0.6369   0.6389   0.6448   0.6463   0.6523   0.6580
  0.6639   0.6717   0.6769   0.6827   0.6898   0.6958   0.6987   0.7060
  0.7095   0.7128   0.7302   0.7331   0.7401   0.7439   0.7566   0.7657
  0.7688   0.7697   0.7773   0.7778   0.7853   0.8008   0.8075   0.8089
  0.8148   0.8174   0.8240   0.8320   0.8395   0.8451   0.8473   0.8519
  0.8559   0.8588   0.8619   0.8669   0.8714   0.8772   0.8806   0.8853
  0.8967   0.9024   0.9085   0.9119   0.9151   0.9206   0.9277   0.9336
  0.9371   0.9393   0.9519   0.9579   0.9655   0.9692   0.9736   0.9826
  0.9886   0.9923   0.9980   1.0007   1.0091   1.0146   1.0155   1.0265
  1.0311   1.0353   1.0425   1.0471   1.0493   1.0508   1.0577   1.0654
  1.0689   1.0740   1.0796   1.0850   1.0886   1.0931   1.0969   1.1088
  1.1107   1.1227   1.1256   1.1297   1.1322   1.1403   1.1422   1.1468
  1.1540   1.1611   1.1648   1.1692   1.1739   1.1859   1.1885   1.1942
  1.1985   1.2016   1.2068   1.2121   1.2178   1.2208   1.2265   1.2347
  1.2423   1.2429   1.2489   1.2500   1.2633   1.2686   1.2741   1.2791
  1.2864   1.2983   1.3027   1.3119   1.3250   1.3281   1.3328   1.3465
  1.3513   1.3541   1.3587   1.3646   1.3737   1.3854   1.3859   1.3887
  1.3954   1.3983   1.4045   1.4117   1.4186   1.4238   1.4337   1.4456
  1.4510   1.4573   1.4669   1.4750   1.4792   1.4817   1.4866   1.4892
  1.5010   1.5038   1.5141   1.5184   1.5199   1.5272   1.5311   1.5348
  1.5410   1.5489   1.5592   1.5625   1.5661   1.5703   1.5782   1.5815
  1.5941   1.5971   1.6032   1.6165   1.6195   1.6394   1.6452   1.6473
  1.6539   1.6644   1.6749   1.6807   1.6860   1.6890   1.6992   1.7019
  1.7110   1.7209   1.7301   1.7354   1.7413   1.7497   1.7572   1.7642
  1.7680   1.7743   1.7761   1.7843   1.7980   1.8061   1.8147   1.8188
  1.8248   1.8291   1.8446   1.8496   1.8640   1.8660   1.8691   1.8793
  1.8833   1.8875   1.8961   1.9042   1.9178   1.9343   1.9411   1.9533
  1.9591   1.9680   1.9737   1.9853   1.9953   2.0026   2.0156   2.0314
  2.0345   2.0597   2.0631   2.0808   2.0931   2.1129   2.1218   2.1286
  2.1480   2.1508   2.1633   2.1781   2.1885   2.1972   2.2148   2.2209
  2.2271   2.2429   2.2596   2.2745   2.2944   2.2953   2.3035   2.3196
  2.3241   2.3390   2.3392   2.3568   2.3587   2.3682   2.3817   2.3935
  2.4090   2.4276   2.4386   2.4430   2.4531   2.4610   2.4642   2.4766
  2.4851   2.5002   2.5042   2.5162   2.5254   2.5411   2.5517   2.5617
  2.5684   2.5717   2.5845   2.5897   2.5996   2.6091   2.6164   2.6268
  2.6334   2.6369   2.6427   2.6483   2.6624   2.6696   2.6710   2.6768
  2.6828   2.6964   2.7062   2.7157   2.7218   2.7266   2.7303   2.7429
  2.7509   2.7564   2.7629   2.7722   2.7783   2.7818   2.7947   2.8093
  2.8153   2.8396   2.8444   2.8471   2.8553   2.8593   2.8735   2.8770
  2.8836   2.8910   2.8943   2.8980   2.9023   2.9106   2.9182   2.9198
  2.9235   2.9372   2.9413   2.9518   2.9548   2.9670   2.9779   2.9841
  2.9901   2.9939   2.9996   3.0070   3.0140   3.0160   3.0253   3.0324
  3.0364   3.0513   3.0529   3.0649   3.0708   3.0744   3.0859   3.0935
  3.0993   3.1023   3.1065   3.1101   3.1111   3.1205   3.1284   3.1339
  3.1357   3.1455   3.1494   3.1567   3.1600   3.1742   3.1822   3.1853
  3.1859   3.1876   3.1947   3.2036   3.2063   3.2162   3.2233   3.2303
  3.2380   3.2413   3.2438   3.2510   3.2551   3.2597   3.2635   3.2661
  3.2685   3.2722   3.2805   3.2845   3.2916   3.2952   3.2988   3.3099
  3.3145   3.3179   3.3225   3.3285   3.3307   3.3336   3.3359   3.3409
  3.3478   3.3496   3.3531   3.3574   3.3593   3.3698   3.3746   3.3797
  3.3851   3.3887   3.3951   3.3998   3.4029   3.4067   3.4099   3.4133
  3.4182   3.4267   3.4315   3.4331   3.4410   3.4488   3.4500   3.4524
  3.4595   3.4609   3.4617   3.4747   3.4756   3.4863   3.4918   3.4970
  3.5007   3.5091   3.5142   3.5148   3.5212   3.5326   3.5349   3.5387
  3.5440   3.5550   3.5576   3.5581   3.5648   3.5718   3.5845   3.5900
  3.5907   3.6062   3.6095   3.6141   3.6160   3.6220   3.6290   3.6360
  3.6381   3.6456   3.6478   3.6503   3.6572   3.6597   3.6643   3.6670
  3.6716   3.6828   3.6939   3.6998   3.7022   3.7132   3.7152   3.7272
  3.7321   3.7358   3.7414   3.7451   3.7490   3.7548   3.7583   3.7669
  3.7681   3.7705   3.7766   3.7812   3.7890   3.7990   3.8025   3.8029
  3.8119   3.8196   3.8230   3.8334   3.8373   3.8401   3.8444   3.8524
  3.8620   3.8718   3.8748   3.8818   3.8929   3.8952   3.9059   3.9141
  3.9200   3.9262   3.9304   3.9347   3.9470   3.9501   3.9542   3.9667
  3.9720   3.9783   3.9820   3.9907   4.0039   4.0122   4.0144   4.0227
  4.0245   4.0365   4.0393   4.0544   4.0658   4.0745   4.0816   4.0897
  4.0977   4.1156   4.1172   4.1248   4.1311   4.1393   4.1450   4.1546
  4.1611   4.1630   4.1723   4.1737   4.1786   4.1895   4.2033   4.2160
  4.2263   4.2366   4.2446   4.2523   4.2620   4.2650   4.2678   4.2740
  4.2777   4.2827   4.2946   4.2958   4.3018   4.3092   4.3230   4.3253
  4.3300   4.3308   4.3378   4.3387   4.3487   4.3507   4.3590   4.3672
  4.3708   4.3727   4.3776   4.3860   4.3873   4.3931   4.4001   4.4028
  4.4045   4.4219   4.4231   4.4261   4.4339   4.4486   4.4690   4.4820
  4.4861   4.4966   4.5011   4.5148   4.5165   4.5239   4.5361   4.5395
  4.5474   4.5609   4.5636   4.5697   4.5795   4.5838   4.5888   4.5938
  4.5991   4.6127   4.6176   4.6260   4.6292   4.6306   4.6387   4.6503
  4.6612   4.6699   4.6781   4.6816   4.6889   4.7038   4.7099   4.7259
  4.7317   4.7479   4.7518   4.7805   4.7811   4.7907   4.8029   4.8093
  4.8240   4.8303   4.8407   4.8478   4.8602   4.8658   4.8753   4.8834
  4.8927   4.9014   4.9251   4.9263   4.9482   4.9643   4.9818   4.9880
  4.9980   5.0105   5.0151   5.0269   5.0340   5.0453   5.0656   5.0706
  5.0867   5.0974   5.1137   5.1216   5.1259   5.1279   5.1376   5.1423
  5.1605   5.1658   5.1724   5.1876   5.1991   5.2099   5.2283   5.2322
  5.2628   5.2643   5.2826   5.2907   5.2951   5.3051   5.3266   5.3303
  5.3323   5.3400   5.3465   5.3683   5.3806   5.3890   5.4052   5.4178
  5.4387   5.4558   5.4760   5.4852   5.4998   5.5146   5.5178   5.5187
  5.5261   5.5349   5.5450   5.5559   5.5610   5.5680   5.5696   5.5792
  5.5812   5.5889   5.5921   5.6091   5.6119   5.6257   5.6307   5.6369
  5.6460   5.6519   5.6629   5.6633   5.6688   5.6744   5.6906   5.6959
  5.7031   5.7070   5.7158   5.7443   5.7520   5.7643   5.7737   5.7742
  5.7882   5.7890   5.8150   5.8331   5.8453   5.8663   5.8795   5.9004
  5.9511   5.9576   5.9748   5.9889   5.9976   6.0181   6.0373   6.0434
  6.0523   6.0743   6.0930   6.1146   6.1263   6.1466   6.1512   6.1889
  6.1995   6.2210   6.2245   6.2268   6.2421   6.2579   6.2796   6.2861
  6.3117   6.3141   6.3258   6.3501   6.3702   6.3814   6.3988   6.4877
  6.5263   6.5404   6.5713   6.5735   6.5858   6.6082   6.6215   6.6585
  6.6762   6.6788   6.8528   6.8539   6.8923   6.9053   6.9084   6.9271
  6.9304   7.0325   7.1089   7.1227   7.1559   7.1984   7.2036   7.2414
  7.3490   7.3541   7.3607   7.3656   7.4776   7.5428   7.5748   7.5854
  7.5968   7.6202   7.6576   7.6868   7.6957   7.7169   8.9494  10.1367
 10.3350  11.3251  11.5754  11.8097  12.0124  12.2958  12.4532  12.4922
 13.0435  13.2104  13.3627  13.5672  13.8098  13.9387  14.1711  14.2885
 14.3264  14.3700  14.5698  14.5850  14.9962  15.6190  15.8083  16.3607
 --------------------------------------------------------------
 
          Ground-State Mulliken Net Atomic Charges

     Atom                 Charge (a.u.)
  ----------------------------------------
      1 C                    -0.084871
      2 C                    -0.033240
      3 C                    -0.118628
      4 C                    -0.119456
      5 H                     0.197938
      6 C                     0.008862
      7 C                     0.107330
      8 C                    -0.073297
      9 C                    -0.189589
     10 C                    -0.176311
     11 C                     0.212132
     12 H                     0.182109
     13 C                     0.338163
     14 C                     0.346543
     15 N                    -0.088548
     16 C                     0.355492
     17 C                     0.379349
     18 N                    -0.089802
     19 O                    -0.501044
     20 O                    -0.515250
     21 O                    -0.501189
     22 O                    -0.478932
     23 C                    -0.205774
     24 H                     0.139271
     25 H                     0.108211
     26 H                     0.108240
     27 C                    -0.197670
     28 H                     0.134130
     29 H                     0.111695
     30 H                     0.112313
     31 C                    -0.122894
     32 S                     0.077792
     33 C                    -0.159310
     34 C                    -0.097492
     35 C                    -0.241134
     36 H                     0.187391
     37 H                     0.189731
     38 H                     0.210843
     39 H                     0.134977
     40 H                     0.135255
     41 H                     0.216663
  ----------------------------------------
  Sum of atomic charges =     0.000000

 -----------------------------------------------------------------
                    Cartesian Multipole Moments
 -----------------------------------------------------------------
    Charge (ESU x 10^10)
                 0.0000
    Dipole Moment (Debye)
         X       1.0944      Y       2.6759      Z       0.5430
       Tot       2.9416
    Quadrupole Moments (Debye-Ang)
        XX    -157.6921     XY      10.2566     YY    -192.8313
        XZ      11.6344     YZ      -9.5886     ZZ    -184.4804
    Octopole Moments (Debye-Ang^2)
       XXX     -83.7447    XXY     517.0323    XYY     -54.5835
       YYY    1775.7010    XXZ     -24.0380    XYZ     -41.8127
       YYZ      38.3819    XZZ     -27.5811    YZZ     615.6823
       ZZZ     -89.5310
    Hexadecapole Moments (Debye-Ang^3)
      XXXX   -1209.7482   XXXY      52.8415   XXYY   -2842.3016
      XYYY     323.8350   YYYY  -18117.9348   XXXZ     916.4772
      XXYZ     -81.9125   XYYZ     597.8560   YYYZ   -1188.3328
      XXZZ   -1157.1876   XYZZ     -71.6327   YYZZ   -4281.5955
      XZZZ    1009.4319   YZZZ    -128.3473   ZZZZ   -5868.3198
 -----------------------------------------------------------------
 Total job time:  309.64s(wall), 8935.77s(cpu) 
 Wed Dec 27 11:49:52 2023

        *************************************************************
        *                                                           *
        *  Thank you very much for using Q-Chem.  Have a nice day.  *
        *                                                           *
        *************************************************************


0 sent ACK to 0 
now end server 0 ... 
cleanup process ... done
remove work dirs ./qchem1960180.0 -- ./qchem1960180.0
rm -rf ./qchem1960180.0
rm -rf ./qchem1960180
