You are running Q-Chem version: 5.4.0

#
# job setting
#
local host:  exp-1-36
current dir: /home/rramji/project-csd799/aromodel/pndit-qchem/hydrogenated-rotation-run
input file:  Dimethyl_Naphthalene_Dicarboximide_Phi_0_Theta_80_Thiophene_Hydrogenated.qcin
output file: 
nprocs     : 1
nthreads   : 64
#
# qchem installation setting
#
QC:          /cm/shared/apps/spack/cpu/opt/spack/linux-centos8-zen2/gcc-10.2.0/qchem-5.4-akfmr7b3t57bfs6qan3padb2wnb2i7cl
QCAUX:       /cm/shared/apps/spack/cpu/opt/spack/linux-centos8-zen2/gcc-10.2.0/qchem-5.4-akfmr7b3t57bfs6qan3padb2wnb2i7cl/qcaux
QCPROG:      /cm/shared/apps/spack/cpu/opt/spack/linux-centos8-zen2/gcc-10.2.0/qchem-5.4-akfmr7b3t57bfs6qan3padb2wnb2i7cl/exe/qcprog.exe
QCPROG_S:    /cm/shared/apps/spack/cpu/opt/spack/linux-centos8-zen2/gcc-10.2.0/qchem-5.4-akfmr7b3t57bfs6qan3padb2wnb2i7cl/exe/qcprog.exe_s
PARALLEL:    -DPARALLEL
QCMPI:       mpich
#
# qchem directory setting
#
qcrun:       qchem2609280
QCSCRATCH:   .
QCLOCALSCR:  
QCTMPDIR:    .
QCFILEPREF:  ./qchem2609280
QCSAVEDIR:   
workdirs:    ./qchem2609280
workdir0:    ./qchem2609280
partmpdirs =  
#
# parallel setting
#
QCRSH:           ssh
QCMPI:           mpich
QCMPIRUN:        /cm/shared/apps/spack/cpu/opt/spack/linux-centos8-zen2/gcc-10.2.0/qchem-5.4-akfmr7b3t57bfs6qan3padb2wnb2i7cl/bin/mpi/mpirun_qchem
QCMACHINEFILE:   ./qchem2609280/hostfile
exp-1-36

#
# env setting
#
exported envs:   QC QCAUX QCSCRATCH QCRUNNAME QCFILEPREF QCPROG QCPROG_S GUIFILE

Running Job 1 of 1 Dimethyl_Naphthalene_Dicarboximide_Phi_0_Theta_80_Thiophene_Hydrogenated.qcin
qchem Dimethyl_Naphthalene_Dicarboximide_Phi_0_Theta_80_Thiophene_Hydrogenated.qcin_2609280.0 ./qchem2609280/ 1
/cm/shared/apps/spack/cpu/opt/spack/linux-centos8-zen2/gcc-10.2.0/qchem-5.4-akfmr7b3t57bfs6qan3padb2wnb2i7cl/bin/mpi/mpirun_qchem -machinefile ./qchem2609280/hostfile -np 1 /cm/shared/apps/spack/cpu/opt/spack/linux-centos8-zen2/gcc-10.2.0/qchem-5.4-akfmr7b3t57bfs6qan3padb2wnb2i7cl/exe/qcprog.exe Dimethyl_Naphthalene_Dicarboximide_Phi_0_Theta_80_Thiophene_Hydrogenated.qcin_2609280.0 ./qchem2609280/

Process 0 of 1 is on exp-1-36 - thread support 0
initial socket setup ...start
initial socket setup ...done 
now start server 0 ... 
                  Welcome to Q-Chem
     A Quantum Leap Into The Future Of Chemistry


 Q-Chem 5.4, Q-Chem, Inc., Pleasanton, CA (2021)

 License issued to: University of California, San Diego (site)

 E. Epifanovsky,  A. T. B. Gilbert,  Xintian Feng,  Joonho Lee,  Yuezhi Mao,  
 N. Mardirossian,  P. Pokhilko,  A. White,  M. Wormit,  M. P. Coons,  
 A. L. Dempwolff,  Zhengting Gan,  D. Hait,  P. R. Horn,  L. D. Jacobson,  
 I. Kaliman,  J. Kussmann,  A. W. Lange,  Ka Un Lao,  D. S. Levine,  Jie Liu,  
 S. C. McKenzie,  A. F. Morrison,  K. Nanda,  F. Plasser,  D. R. Rehn,  
 M. L. Vidal,  Zhi-Qiang You,  Ying Zhu,  B. Alam,  B. Albrecht,  
 A. Aldossary,  E. Alguire,  J. H. Andersen,  D. Barton,  K. Begam,  A. Behn,  
 Y. A. Bernard,  E. J. Berquist,  H. Burton,  A. Carreras,  K. Carter-Fenk,  
 R. Chakraborty,  A. D. Chien,  K. D. Closser,  V. Cofer-Shabica,  
 S. Dasgupta,  Jia Deng,  M. de Wergifosse,  M. Diedenhofen,  Hainam Do,  
 S. Ehlert,  Po-Tung Fang,  S. Fatehi,  Qingguo Feng,  J. Gayvert,  
 Qinghui Ge,  G. Gidofalvi,  M. Goldey,  J. Gomes,  C. Gonzalez-Espinoza,  
 S. Gulania,  A. Gunina,  M. W. D. Hanson-Heine,  P. H. P. Harbach,  
 A. W. Hauser,  M. F. Herbst,  M. Hernandez Vera,  M. Hodecker,  
 Z. C. Holden,  S. Houck,  Xunkun Huang,  Kerwin Hui,  B. C. Huynh,  
 M. Ivanov,  Hyunjun Ji,  Hanjie Jiang,  B. Kaduk,  S. Kaehler,  
 K. Khistyaev,  Jaehoon Kim,  P. Klunzinger,  Z. Koczor-Benda,  
 Joong Hoon Koh,  D. Kosenkov,  L. Koulias,  T. Kowalczyk,  C. M. Krauter,  
 K. Kue,  A. Kunitsa,  T. Kus,  A. Landau,  K. V. Lawler,  D. Lefrancois,  
 S. Lehtola,  Rain Li,  Yi-Pei Li,  Jiashu Liang,  M. Liebenthal,  
 Hung-Hsuan Lin,  You-Sheng Lin,  Fenglai Liu,  Kuan-Yu Liu,  
 M. Loipersberger,  A. Luenser,  A. Manjanath,  P. Manohar,  E. Mansoor,  
 S. F. Manzer,  Shan-Ping Mao,  A. V. Marenich,  T. Markovich,  S. Mason,  
 S. A. Maurer,  P. F. McLaughlin,  M. F. S. J. Menger,  J.-M. Mewes,  
 S. A. Mewes,  P. Morgante,  J. W. Mullinax,  T. S. Nguyen-Beck,  
 K. J. Oosterbaan,  G. Paran,  Alexander C. Paul,  Suranjan K. Paul,  
 F. Pavosevic,  Zheng Pei,  S. Prager,  E. I. Proynov,  E. Ramos,  B. Rana,  
 A. E. Rask,  A. Rettig,  R. M. Richard,  F. Rob,  E. Rossomme,  T. Scheele,  
 M. Scheurer,  M. Schneider,  N. Sergueev,  S. M. Sharada,  W. Skomorowski,  
 D. W. Small,  C. J. Stein,  Yu-Chuan Su,  E. J. Sundstrom,  Zhen Tao,  
 J. Thirman,  T. Tsuchimochi,  N. M. Tubman,  S. P. Veccham,  O. Vydrov,  
 J. Wenzel,  J. Witte,  A. Yamada,  Kun Yao,  S. Yeganeh,  S. R. Yost,  
 A. Zech,  Igor Ying Zhang,  Xing Zhang,  Yu Zhang,  D. Zuev,  
 A. Aspuru-Guzik,  A. T. Bell,  N. A. Besley,  K. B. Bravaya,  B. R. Brooks,  
 D. Casanova,  Jeng-Da Chai,  S. Coriani,  C. J. Cramer,  
 A. E. DePrince, III,  R. A. DiStasio Jr.,  A. Dreuw,  B. D. Dunietz,  
 T. R. Furlani,  W. A. Goddard III,  S. Grimme,  S. Hammes-Schiffer,  
 T. Head-Gordon,  W. J. Hehre,  Chao-Ping Hsu,  T.-C. Jagau,  Yousung Jung,  
 A. Klamt,  Jing Kong,  D. S. Lambrecht,  WanZhen Liang,  N. J. Mayhall,  
 C. W. McCurdy,  J. B. Neaton,  C. Ochsenfeld,  J. A. Parkhill,  R. Peverati,  
 V. A. Rassolov,  Yihan Shao,  L. V. Slipchenko,  T. Stauch,  R. P. Steele,  
 J. E. Subotnik,  A. J. W. Thom,  A. Tkatchenko,  D. G. Truhlar,  
 T. Van Voorhis,  T. A. Wesolowski,  K. B. Whaley,  H. L. Woodcock III,  
 P. M. Zimmerman,  S. Faraji,  P. M. W. Gill,  M. Head-Gordon,  
 J. M. Herbert,  A. I. Krylov

 Contributors to earlier versions of Q-Chem not listed above: 
 R. D. Adamson,  B. Austin,  R. Baer,  J. Baker,  G. J. O. Beran,  
 K. Brandhorst,  S. T. Brown,  E. F. C. Byrd,  A. K. Chakraborty,  
 G. K. L. Chan,  Chun-Min Chang,  Yunqing Chen,  C.-L. Cheng,  
 Siu Hung Chien,  D. M. Chipman,  D. L. Crittenden,  H. Dachsel,  
 R. J. Doerksen,  A. D. Dutoi,  R. G. Edgar,  J. Fosso-Tande,  
 L. Fusti-Molnar,  D. Ghosh,  A. Ghysels,  A. Golubeva-Zadorozhnaya,  
 J. Gonthier,  M. S. Gordon,  S. R. Gwaltney,  G. Hawkins,  J. E. Herr,  
 A. Heyden,  S. Hirata,  E. G. Hohenstein,  G. Kedziora,  F. J. Keil,  
 C. Kelley,  Jihan Kim,  R. A. King,  R. Z. Khaliullin,  P. P. Korambath,  
 W. Kurlancheek,  A. Laurent,  A. M. Lee,  M. S. Lee,  S. V. Levchenko,  
 Ching Yeh Lin,  D. Liotard,  E. Livshits,  R. C. Lochan,  I. Lotan,  
 L. A. Martinez-Martinez,  P. E. Maslen,  N. Nair,  D. P. O'Neill,  
 D. Neuhauser,  E. Neuscamman,  C. M. Oana,  R. Olivares-Amaya,  R. Olson,  
 T. M. Perrine,  B. Peters,  P. A. Pieniazek,  A. Prociuk,  Y. M. Rhee,  
 J. Ritchie,  M. A. Rohrdanz,  E. Rosta,  N. J. Russ,  H. F. Schaefer III,  
 M. W. Schmidt,  N. E. Schultz,  S. Sharma,  N. Shenvi,  C. D. Sherrill,  
 A. C. Simmonett,  A. Sodt,  T. Stein,  D. Stuck,  K. S. Thanthiriwatte,  
 V. Vanovschi,  L. Vogt,  Tao Wang,  A. Warshel,  M. A. Watson,  
 C. F. Williams,  Q. Wu,  X. Xu,  Jun Yang,  W. Zhang,  Yan Zhao

 Please cite Q-Chem as follows:
 Y. Shao et al., Mol. Phys. 113, 184-215 (2015)
 DOI: 10.1080/00268976.2014.952696

 Q-Chem 5.4.0 for Intel X86 EM64T Linux

 Parts of Q-Chem use Armadillo 9.800.1 (Horizon Scraper).
 http://arma.sourceforge.net/

 Q-Chem begins on Wed Dec 27 10:34:05 2023  

 Host: 
0

     Scratch files written to ./qchem2609280//
 May1621 |scratch|qcdevops|jenkins|workspace|build_RNUM    
 Parallel job on  1  processors
 Processing $rem in /cm/shared/apps/spack/cpu/opt/spack/linux-centos8-zen2/gcc-10.2.0/qchem-5.4-akfmr7b3t57bfs6qan3padb2wnb2i7cl/config/preferences:
 Processing $rem in /home/rramji/.qchemrc:
 Symmetry turned off for PCM/SM12/SMD calculation
 Core orbitals will be frozen

 Checking the input file for inconsistencies... 	...done.

 Q-Chem warning in module forms1/BasisType.C, line 2236:

 You are not using the predefined 5D/6D in this basis set.


--------------------------------------------------------------
User input:
--------------------------------------------------------------
$molecule
0 1
C	0.252767	-6.741404	-0.046070
C	1.538656	-6.155638	-0.272935
C	-0.814966	-5.791452	0.141739
C	1.813042	-4.803786	-0.321083
H	2.403318	-6.821518	-0.425592
C	-0.527566	-4.378638	0.091779
C	0.782769	-3.838032	-0.138909
C	-1.556632	-3.413062	0.273808
C	1.067868	-2.426473	-0.188483
C	-1.285436	-2.059348	0.226610
C	-0.000000	-1.478216	-0.000000
H	-2.151019	-1.394783	0.379657
C	-2.235891	-6.187987	0.390420
C	-2.965540	-3.798164	0.522125
N	-3.205600	-5.170003	0.562731
C	3.225760	-4.424987	-0.570244
C	2.489646	-2.036627	-0.438407
N	3.459662	-3.049156	-0.610438
O	-2.621768	-7.353131	0.455563
O	-3.874608	-2.986854	0.683373
O	4.124059	-5.248946	-0.729367
O	2.896516	-0.878829	-0.508697
C	-4.596910	-5.563799	0.806996
H	-4.641640	-6.664085	0.813717
H	-5.246567	-5.147101	0.013655
H	-4.936739	-5.148785	1.775159
C	4.829729	-2.587487	-0.851572
H	5.462387	-3.483329	-0.964204
H	5.173914	-1.964972	-0.003956
H	4.863360	-1.962932	-1.764390
C	0.000000	0.000000	0.000000
S	-0.000201	0.793171	1.580530
C	-0.000228	2.430885	0.904911
C	-0.000168	0.997990	-0.985400
C	-0.000267	2.318231	-0.493528
H	-0.000145	0.762343	-2.059934
H	-0.000339	3.199164	-1.152593
H	-0.000311	3.311566	1.556025
H	0.303328	-7.361589	0.857128
H	-0.007933	-7.361192	-0.912587
H	0.187017	-1.478831	1.063684
$end

$rem
JOBTYPE		SP
EXCHANGE	HF
CORRELATION	pRIMP2
BASIS		cc-pvtz
METHOD		rimp2
AUX_BASIS	rimp2-cc-pvtz
SOLVENT_METHOD	PCM
PURECART	11111
SYMMETRY	false
MEM_TOTAL	110000
SCF_CONVERGENCE = 6
THRESH=10
GUI = 2
$end



$solvent
dielectric 4.90
$end
--------------------------------------------------------------
 ----------------------------------------------------------------
             Standard Nuclear Orientation (Angstroms)
    I     Atom           X                Y                Z
 ----------------------------------------------------------------
    1      C       0.2527670000    -6.7414040000    -0.0460700000
    2      C       1.5386560000    -6.1556380000    -0.2729350000
    3      C      -0.8149660000    -5.7914520000     0.1417390000
    4      C       1.8130420000    -4.8037860000    -0.3210830000
    5      H       2.4033180000    -6.8215180000    -0.4255920000
    6      C      -0.5275660000    -4.3786380000     0.0917790000
    7      C       0.7827690000    -3.8380320000    -0.1389090000
    8      C      -1.5566320000    -3.4130620000     0.2738080000
    9      C       1.0678680000    -2.4264730000    -0.1884830000
   10      C      -1.2854360000    -2.0593480000     0.2266100000
   11      C       0.0000000000    -1.4782160000     0.0000000000
   12      H      -2.1510190000    -1.3947830000     0.3796570000
   13      C      -2.2358910000    -6.1879870000     0.3904200000
   14      C      -2.9655400000    -3.7981640000     0.5221250000
   15      N      -3.2056000000    -5.1700030000     0.5627310000
   16      C       3.2257600000    -4.4249870000    -0.5702440000
   17      C       2.4896460000    -2.0366270000    -0.4384070000
   18      N       3.4596620000    -3.0491560000    -0.6104380000
   19      O      -2.6217680000    -7.3531310000     0.4555630000
   20      O      -3.8746080000    -2.9868540000     0.6833730000
   21      O       4.1240590000    -5.2489460000    -0.7293670000
   22      O       2.8965160000    -0.8788290000    -0.5086970000
   23      C      -4.5969100000    -5.5637990000     0.8069960000
   24      H      -4.6416400000    -6.6640850000     0.8137170000
   25      H      -5.2465670000    -5.1471010000     0.0136550000
   26      H      -4.9367390000    -5.1487850000     1.7751590000
   27      C       4.8297290000    -2.5874870000    -0.8515720000
   28      H       5.4623870000    -3.4833290000    -0.9642040000
   29      H       5.1739140000    -1.9649720000    -0.0039560000
   30      H       4.8633600000    -1.9629320000    -1.7643900000
   31      C       0.0000000000     0.0000000000     0.0000000000
   32      S      -0.0002010000     0.7931710000     1.5805300000
   33      C      -0.0002280000     2.4308850000     0.9049110000
   34      C      -0.0001680000     0.9979900000    -0.9854000000
   35      C      -0.0002670000     2.3182310000    -0.4935280000
   36      H      -0.0001450000     0.7623430000    -2.0599340000
   37      H      -0.0003390000     3.1991640000    -1.1525930000
   38      H      -0.0003110000     3.3115660000     1.5560250000
   39      H       0.3033280000    -7.3615890000     0.8571280000
   40      H      -0.0079330000    -7.3611920000    -0.9125870000
   41      H       0.1870170000    -1.4788310000     1.0636840000
 ----------------------------------------------------------------
 Nuclear Repulsion Energy =        2546.90440231 hartrees
 There are       98 alpha and       98 beta electrons
 Requested basis set is cc-pVTZ
 There are 356 shells and 1010 basis functions

 Total QAlloc Memory Limit 110000 MB
 Mega-Array Size       188 MB
 MEM_STATIC part       192 MB
 Discretize the solute cavity surface with Lebedev spheres
	Using 110 Lebedev grid points for each H atom
	Using 194 Lebedev grid points for other atoms
	Atomic van der Waals radii will be scaled by 1.20
 Remove points where switching function is < 1.0e-08
 Keep 2666 surface tesserae and discard 4112 interior tesserae
 Molecular Surface Area = 371.848 Angst**2
 Requested basis set is rimp2-cc-pVTZ
 There are 770 shells and 2648 basis functions
 A cutoff of  1.0D-10 yielded  33969 shell pairs
 There are    256763 function pairs (    332354 Cartesian)
 Smallest overlap matrix eigenvalue = 8.92E-06

 Q-Chem warning in module stvman/mkSTV.C, line 323:

 Overlap eigenvalue is smaller than square root of threshold
 Use THRESH >= 12 to get rid of this warning


 Scale SEOQF with 1.000000e-02/1.000000e-02/1.000000e-01

 Standard Electronic Orientation quadrupole field applied
 Nucleus-field energy     =     0.0000000164 hartrees
 Guess from superposition of atomic densities
 Warning:  Energy on first SCF cycle will be non-variational
 SAD guess density has 196.000000 electrons

 -----------------------------------------------------------------------
  General SCF calculation program by
  Eric Jon Sundstrom, Paul Horn, Yuezhi Mao, Dmitri Zuev, Alec White,
  David Stuck, Shaama M.S., Shane Yost, Joonho Lee, David Small,
  Daniel Levine, Susi Lehtola, Hugh Burton, Evgeny Epifanovsky,
  Bang C. Huynh
 -----------------------------------------------------------------------
 Hartree-Fock
 using 64 threads for integral computing
 -------------------------------------------------------
 OpenMP Integral computing Module                
 Release: version 1.0, May 2013, Q-Chem Inc. Pittsburgh 
 -------------------------------------------------------
 A restricted SCF calculation will be
 performed using DIIS
 SCF converges when DIIS error is below 1.0e-06
 ---------------------------------------
  Cycle       Energy         DIIS error
 ---------------------------------------
    1   -1583.1012327175      1.86e-02  
    2   -1571.1685123148      2.03e-03  
    3   -1571.5085448357      1.55e-03  
    4   -1571.7309970715      2.52e-04  
    5   -1571.7447666583      7.76e-05  
    6   -1571.7461711679      3.00e-05  
    7   -1571.7465825700      1.53e-05  
    8   -1571.7466938108      6.17e-06  
    9   -1571.7467125058      2.84e-06  
   10   -1571.7467161795      1.21e-06  
   11   -1571.7467173246      5.56e-07  Convergence criterion met
 ---------------------------------------
 SCF time:   CPU 6535.68s  wall 255.00s 

************** Final PCM Free Energy Summary **************
 G_electrostatic  =      -0.03062427 hartree =     -19.21701871 kcal/mol
 G_cavitation     =       0.00000000 hartree =       0.00000000 kcal/mol
 G_dispersion     =       0.00000000 hartree =       0.00000000 kcal/mol
 G_repulsion      =       0.00000000 hartree =       0.00000000 kcal/mol
 --------------------------------------------------
 Non-electrostatic Free Energy =       0.00000000 hartree =       0.00000000 kcal/mol
 Total                         =      -0.03062427 hartree =     -19.21701871 kcal/mol
 --------------------------------------------------
 SCF Energy (H0 + V/2)                       =   -1571.74671732 
 Solute Internal Energy (H0)                 =   -1571.71609306 
 Total Free Energy (H0 + V/2 + non-elec)     =   -1571.74671732 hartree
                                             = -986285.95113434 kcal/mol
***********************************************************

 SCF   energy in the final basis set =    -1571.7467173246
 Total energy in the final basis set =    -1571.7467173246


 --------------------------------------------------------------
  Generalized many-body perturbation theory program
  by Joonho Lee, Fazle Rob, Xintian Feng, Evgeny Epifanovsky

 No regularization used 
 (reg. param. = 0.0000e+00)
  (P|Q)^-1/2 Time:  CPU 205.51 s  wall 4.04 s

 In RI-MP2 calculation: 
 # of frozen core orbitals: 31

 Components of the RIMP2 correlation energy:
        aaaa    correlation energy =        -0.6145308685 a.u.
        abab    correlation energy =        -3.4246296494 a.u.
        bbbb    correlation energy =        -0.6145308685 a.u.
        non-Brillouin singles      =        -0.0000000000 a.u.
        total same-spin energy     =        -1.2290617370 a.u.
        total opposite-spin energy =        -3.4246296494 a.u.

 Total  RIMP2   correlation energy =        -4.6536913864 a.u.
        RIMP2         total energy =     -1576.4004087110 a.u.

 RI-MP2 Energy Time:  CPU 1965.25 s  wall 32.85 s
 
 --------------------------------------------------------------
 
                    Orbital Energies (a.u.)
 --------------------------------------------------------------
 
 Alpha MOs
 -- Occupied --
-91.9941 -20.5517 -20.5444 -20.5421 -20.5407 -15.6267 -15.6214 -11.3930
-11.3851 -11.3839 -11.3793 -11.3089 -11.3085 -11.3049 -11.3046 -11.2965
-11.2952 -11.2896 -11.2822 -11.2698 -11.2681 -11.2649 -11.2626 -11.2595
-11.2529 -11.2523 -11.2511  -8.9936  -6.6745  -6.6740  -6.6734  -1.4191
 -1.4124  -1.3969  -1.3916  -1.2619  -1.2556  -1.2302  -1.1871  -1.1527
 -1.1142  -1.0871  -1.0467  -0.9964  -0.9877  -0.9845  -0.9550  -0.9511
 -0.8963  -0.8875  -0.8767  -0.8600  -0.7938  -0.7758  -0.7732  -0.7687
 -0.7395  -0.7161  -0.7042  -0.6915  -0.6775  -0.6706  -0.6676  -0.6572
 -0.6471  -0.6413  -0.6382  -0.6320  -0.6310  -0.6270  -0.6228  -0.6053
 -0.5848  -0.5753  -0.5661  -0.5612  -0.5570  -0.5512  -0.5502  -0.5480
 -0.5459  -0.5437  -0.5206  -0.5182  -0.5089  -0.4810  -0.4750  -0.4696
 -0.4580  -0.4512  -0.4429  -0.4349  -0.4132  -0.4076  -0.3575  -0.3511
 -0.3274  -0.2909
 -- Virtual --
  0.0147   0.0432   0.0906   0.0942   0.1267   0.1492   0.1549   0.1605
  0.1636   0.1730   0.1819   0.1847   0.1869   0.1905   0.1947   0.1978
  0.2048   0.2172   0.2220   0.2282   0.2304   0.2323   0.2364   0.2471
  0.2677   0.2689   0.2904   0.3038   0.3115   0.3141   0.3220   0.3239
  0.3291   0.3409   0.3423   0.3514   0.3551   0.3623   0.3640   0.3714
  0.3725   0.3766   0.3815   0.3838   0.3895   0.3922   0.3970   0.4093
  0.4112   0.4208   0.4253   0.4311   0.4340   0.4406   0.4444   0.4488
  0.4522   0.4549   0.4620   0.4691   0.4736   0.4780   0.4819   0.4888
  0.4978   0.4985   0.5016   0.5114   0.5141   0.5227   0.5268   0.5296
  0.5310   0.5388   0.5415   0.5461   0.5502   0.5581   0.5596   0.5653
  0.5679   0.5740   0.5774   0.5833   0.5886   0.5893   0.5924   0.5990
  0.6004   0.6034   0.6073   0.6114   0.6132   0.6189   0.6219   0.6262
  0.6267   0.6337   0.6353   0.6358   0.6396   0.6426   0.6493   0.6543
  0.6557   0.6601   0.6663   0.6797   0.6816   0.6930   0.6933   0.7024
  0.7048   0.7117   0.7232   0.7255   0.7323   0.7397   0.7471   0.7537
  0.7603   0.7634   0.7689   0.7770   0.7793   0.7843   0.7866   0.7985
  0.8059   0.8108   0.8176   0.8189   0.8304   0.8316   0.8422   0.8460
  0.8475   0.8544   0.8596   0.8611   0.8668   0.8715   0.8742   0.8847
  0.8966   0.8993   0.9020   0.9101   0.9126   0.9194   0.9237   0.9292
  0.9357   0.9399   0.9431   0.9535   0.9558   0.9639   0.9720   0.9736
  0.9801   0.9826   0.9910   0.9973   1.0005   1.0038   1.0118   1.0149
  1.0225   1.0299   1.0335   1.0363   1.0416   1.0555   1.0589   1.0651
  1.0678   1.0684   1.0716   1.0736   1.0804   1.0857   1.0930   1.1001
  1.1054   1.1116   1.1176   1.1280   1.1315   1.1347   1.1406   1.1449
  1.1499   1.1547   1.1580   1.1631   1.1695   1.1726   1.1758   1.1829
  1.1880   1.1977   1.2031   1.2062   1.2099   1.2160   1.2218   1.2253
  1.2309   1.2379   1.2386   1.2433   1.2490   1.2589   1.2656   1.2767
  1.2845   1.2866   1.3009   1.3028   1.3099   1.3233   1.3282   1.3374
  1.3425   1.3477   1.3571   1.3601   1.3645   1.3690   1.3740   1.3849
  1.3887   1.3911   1.3958   1.4054   1.4180   1.4196   1.4345   1.4407
  1.4466   1.4544   1.4634   1.4731   1.4801   1.4831   1.4910   1.4923
  1.4983   1.5036   1.5133   1.5140   1.5207   1.5276   1.5344   1.5352
  1.5418   1.5440   1.5562   1.5600   1.5613   1.5662   1.5705   1.5734
  1.5812   1.5913   1.6039   1.6089   1.6169   1.6256   1.6311   1.6379
  1.6488   1.6554   1.6676   1.6733   1.6794   1.6849   1.6897   1.6951
  1.7003   1.7124   1.7225   1.7305   1.7443   1.7446   1.7469   1.7553
  1.7614   1.7696   1.7730   1.7803   1.7845   1.7953   1.8030   1.8128
  1.8197   1.8248   1.8423   1.8472   1.8572   1.8579   1.8679   1.8743
  1.8780   1.8824   1.8851   1.8910   1.9013   1.9060   1.9151   1.9364
  1.9528   1.9648   1.9722   1.9752   1.9808   1.9895   2.0070   2.0124
  2.0282   2.0334   2.0519   2.0633   2.0927   2.1009   2.1047   2.1165
  2.1292   2.1393   2.1509   2.1621   2.1801   2.1943   2.2103   2.2265
  2.2309   2.2402   2.2497   2.2706   2.2866   2.2936   2.2970   2.3041
  2.3105   2.3265   2.3318   2.3395   2.3571   2.3668   2.3709   2.3859
  2.4011   2.4165   2.4258   2.4375   2.4444   2.4536   2.4564   2.4633
  2.4719   2.4802   2.4958   2.5064   2.5120   2.5193   2.5358   2.5403
  2.5526   2.5653   2.5807   2.5839   2.5870   2.5951   2.6052   2.6115
  2.6239   2.6306   2.6376   2.6407   2.6484   2.6532   2.6694   2.6824
  2.6837   2.6860   2.6885   2.6952   2.7141   2.7184   2.7250   2.7350
  2.7432   2.7489   2.7518   2.7586   2.7700   2.7733   2.7851   2.7870
  2.8035   2.8185   2.8361   2.8432   2.8451   2.8544   2.8607   2.8665
  2.8737   2.8787   2.8848   2.8941   2.8962   2.9083   2.9102   2.9166
  2.9202   2.9236   2.9307   2.9525   2.9553   2.9607   2.9658   2.9731
  2.9776   2.9877   2.9886   3.0016   3.0032   3.0161   3.0190   3.0281
  3.0306   3.0422   3.0454   3.0538   3.0669   3.0716   3.0815   3.0907
  3.0974   3.1029   3.1034   3.1085   3.1089   3.1134   3.1171   3.1250
  3.1353   3.1388   3.1435   3.1508   3.1577   3.1601   3.1681   3.1732
  3.1874   3.1899   3.1940   3.2019   3.2095   3.2131   3.2190   3.2230
  3.2237   3.2314   3.2387   3.2475   3.2519   3.2558   3.2603   3.2655
  3.2716   3.2738   3.2746   3.2858   3.2881   3.2959   3.3002   3.3079
  3.3099   3.3148   3.3175   3.3236   3.3275   3.3310   3.3370   3.3378
  3.3451   3.3482   3.3506   3.3531   3.3585   3.3604   3.3682   3.3738
  3.3769   3.3819   3.3889   3.3898   3.3957   3.3967   3.4026   3.4107
  3.4121   3.4185   3.4235   3.4246   3.4325   3.4377   3.4396   3.4492
  3.4554   3.4612   3.4649   3.4680   3.4761   3.4825   3.4890   3.4901
  3.4940   3.4977   3.5057   3.5076   3.5112   3.5196   3.5228   3.5255
  3.5304   3.5375   3.5419   3.5473   3.5614   3.5619   3.5681   3.5735
  3.5858   3.5903   3.5974   3.6014   3.6100   3.6141   3.6185   3.6244
  3.6314   3.6320   3.6404   3.6439   3.6485   3.6530   3.6552   3.6623
  3.6667   3.6754   3.6847   3.6892   3.6915   3.6993   3.7049   3.7097
  3.7173   3.7194   3.7303   3.7351   3.7397   3.7431   3.7483   3.7541
  3.7592   3.7654   3.7703   3.7724   3.7771   3.7845   3.7907   3.7992
  3.8065   3.8123   3.8161   3.8222   3.8323   3.8359   3.8428   3.8435
  3.8462   3.8545   3.8590   3.8679   3.8784   3.8905   3.8918   3.9021
  3.9088   3.9195   3.9210   3.9286   3.9339   3.9439   3.9495   3.9553
  3.9579   3.9676   3.9721   3.9766   3.9780   3.9837   3.9952   4.0115
  4.0162   4.0261   4.0279   4.0360   4.0506   4.0599   4.0713   4.0830
  4.0914   4.1023   4.1098   4.1199   4.1253   4.1319   4.1383   4.1405
  4.1428   4.1529   4.1663   4.1699   4.1824   4.1841   4.1881   4.2060
  4.2115   4.2167   4.2233   4.2396   4.2417   4.2429   4.2544   4.2594
  4.2651   4.2702   4.2750   4.2861   4.2872   4.2913   4.2951   4.3052
  4.3060   4.3192   4.3237   4.3293   4.3376   4.3452   4.3462   4.3520
  4.3582   4.3648   4.3696   4.3711   4.3758   4.3807   4.3875   4.3965
  4.4028   4.4065   4.4132   4.4199   4.4276   4.4399   4.4473   4.4624
  4.4661   4.4809   4.4876   4.4994   4.5115   4.5211   4.5227   4.5272
  4.5361   4.5455   4.5498   4.5534   4.5586   4.5704   4.5770   4.5819
  4.5899   4.5938   4.6036   4.6068   4.6150   4.6209   4.6262   4.6359
  4.6432   4.6497   4.6639   4.6677   4.6876   4.6991   4.7009   4.7076
  4.7104   4.7301   4.7385   4.7478   4.7689   4.7748   4.7919   4.8028
  4.8118   4.8236   4.8360   4.8394   4.8548   4.8643   4.8728   4.8796
  4.8933   4.8944   4.9063   4.9215   4.9313   4.9374   4.9538   4.9740
  4.9758   4.9889   5.0080   5.0259   5.0378   5.0465   5.0497   5.0557
  5.0739   5.0923   5.1000   5.1174   5.1222   5.1272   5.1325   5.1385
  5.1518   5.1609   5.1721   5.1754   5.1964   5.1987   5.2253   5.2293
  5.2565   5.2632   5.2731   5.2845   5.2917   5.3024   5.3191   5.3228
  5.3297   5.3343   5.3513   5.3641   5.3771   5.3851   5.4031   5.4158
  5.4402   5.4450   5.4708   5.4875   5.4898   5.5034   5.5145   5.5156
  5.5194   5.5353   5.5409   5.5517   5.5582   5.5601   5.5633   5.5678
  5.5792   5.5856   5.5890   5.6066   5.6131   5.6169   5.6223   5.6322
  5.6484   5.6535   5.6612   5.6662   5.6691   5.6739   5.6919   5.6932
  5.6960   5.7060   5.7259   5.7435   5.7526   5.7630   5.7694   5.7756
  5.7847   5.7872   5.8021   5.8314   5.8406   5.8443   5.8730   5.9073
  5.9272   5.9574   5.9593   5.9888   6.0106   6.0200   6.0323   6.0413
  6.0483   6.0881   6.0939   6.1116   6.1230   6.1348   6.1469   6.1831
  6.2017   6.2195   6.2255   6.2268   6.2418   6.2611   6.2655   6.2831
  6.3092   6.3159   6.3237   6.3502   6.3646   6.3865   6.4347   6.4834
  6.5169   6.5330   6.5749   6.5825   6.6032   6.6167   6.6593   6.6666
  6.6737   6.6966   6.8431   6.8500   6.8873   6.9009   6.9043   6.9202
  6.9259   6.9300   7.1003   7.1077   7.1471   7.1917   7.1990   7.2346
  7.3470   7.3516   7.3557   7.3596   7.4751   7.5427   7.5697   7.5820
  7.5852   7.5950   7.6531   7.6722   7.6910   7.7125   8.8576  10.0577
 10.3013  11.3203  11.5030  11.7454  12.0683  12.0875  12.4207  12.4544
 12.8918  13.1814  13.3183  13.5505  13.7471  13.9242  14.1290  14.2602
 14.3110  14.3575  14.4780  14.5549  15.0101  15.6060  15.8135  16.3437
 --------------------------------------------------------------
 
          Ground-State Mulliken Net Atomic Charges

     Atom                 Charge (a.u.)
  ----------------------------------------
      1 C                    -0.084664
      2 C                    -0.030249
      3 C                    -0.110236
      4 C                    -0.121554
      5 H                     0.198686
      6 C                     0.011016
      7 C                     0.123039
      8 C                    -0.084721
      9 C                    -0.172991
     10 C                    -0.132675
     11 C                     0.240439
     12 H                     0.194417
     13 C                     0.343716
     14 C                     0.350426
     15 N                    -0.090433
     16 C                     0.357558
     17 C                     0.348133
     18 N                    -0.091743
     19 O                    -0.493634
     20 O                    -0.506937
     21 O                    -0.501782
     22 O                    -0.470974
     23 C                    -0.204717
     24 H                     0.139487
     25 H                     0.109229
     26 H                     0.109184
     27 C                    -0.197007
     28 H                     0.133076
     29 H                     0.111734
     30 H                     0.111446
     31 C                    -0.067316
     32 S                     0.011190
     33 C                    -0.217145
     34 C                    -0.163365
     35 C                    -0.204909
     36 H                     0.187843
     37 H                     0.191356
     38 H                     0.212786
     39 H                     0.137766
     40 H                     0.137939
     41 H                     0.186585
  ----------------------------------------
  Sum of atomic charges =     0.000000

 -----------------------------------------------------------------
                    Cartesian Multipole Moments
 -----------------------------------------------------------------
    Charge (ESU x 10^10)
                 0.0000
    Dipole Moment (Debye)
         X       0.9737      Y       2.2739      Z      -0.4000
       Tot       2.5057
    Quadrupole Moments (Debye-Ang)
        XX    -194.9668     XY      -8.6423     YY    -176.8140
        XZ       5.7856     YZ       0.9993     ZZ    -157.1894
    Octopole Moments (Debye-Ang^2)
       XXX     -48.8991    XXY     589.3871    XYY      44.1201
       YYY    1684.9927    XXZ     -14.8396    XYZ     -23.7100
       YYZ     -15.3960    XZZ     -15.1139    YZZ     475.4056
       ZZZ     -46.8243
    Hexadecapole Moments (Debye-Ang^3)
      XXXX   -6171.6674   XXXY     -49.8701   XXYY   -4445.0342
      XYYY   -1149.6061   YYYY  -18030.0405   XXXZ     562.6039
      XXYZ     -53.3232   XYYZ     316.0508   YYYZ     168.0300
      XXZZ   -1087.2856   XYZZ    -114.3305   YYZZ   -2704.2494
      XZZZ     492.7155   YZZZ      19.6462   ZZZZ    -639.4821
 -----------------------------------------------------------------
 Total job time:  293.10s(wall), 8673.78s(cpu) 
 Wed Dec 27 10:38:58 2023

        *************************************************************
        *                                                           *
        *  Thank you very much for using Q-Chem.  Have a nice day.  *
        *                                                           *
        *************************************************************


0 sent ACK to 0 
now end server 0 ... 
cleanup process ... done
remove work dirs ./qchem2609280.0 -- ./qchem2609280.0
rm -rf ./qchem2609280.0
rm -rf ./qchem2609280
