You are running Q-Chem version: 5.4.0

#
# job setting
#
local host:  exp-2-17
current dir: /home/rramji/project-csd799/aromodel/pndit-qchem/hydrogenated-rotation-run
input file:  Dimethyl_Naphthalene_Dicarboximide_Phi_25_Theta_170_Thiophene_Hydrogenated.qcin
output file: 
nprocs     : 1
nthreads   : 64
#
# qchem installation setting
#
QC:          /cm/shared/apps/spack/cpu/opt/spack/linux-centos8-zen2/gcc-10.2.0/qchem-5.4-akfmr7b3t57bfs6qan3padb2wnb2i7cl
QCAUX:       /cm/shared/apps/spack/cpu/opt/spack/linux-centos8-zen2/gcc-10.2.0/qchem-5.4-akfmr7b3t57bfs6qan3padb2wnb2i7cl/qcaux
QCPROG:      /cm/shared/apps/spack/cpu/opt/spack/linux-centos8-zen2/gcc-10.2.0/qchem-5.4-akfmr7b3t57bfs6qan3padb2wnb2i7cl/exe/qcprog.exe
QCPROG_S:    /cm/shared/apps/spack/cpu/opt/spack/linux-centos8-zen2/gcc-10.2.0/qchem-5.4-akfmr7b3t57bfs6qan3padb2wnb2i7cl/exe/qcprog.exe_s
PARALLEL:    -DPARALLEL
QCMPI:       mpich
#
# qchem directory setting
#
qcrun:       qchem33153
QCSCRATCH:   .
QCLOCALSCR:  
QCTMPDIR:    .
QCFILEPREF:  ./qchem33153
QCSAVEDIR:   
workdirs:    ./qchem33153
workdir0:    ./qchem33153
partmpdirs =  
#
# parallel setting
#
QCRSH:           ssh
QCMPI:           mpich
QCMPIRUN:        /cm/shared/apps/spack/cpu/opt/spack/linux-centos8-zen2/gcc-10.2.0/qchem-5.4-akfmr7b3t57bfs6qan3padb2wnb2i7cl/bin/mpi/mpirun_qchem
QCMACHINEFILE:   ./qchem33153/hostfile
exp-2-17

#
# env setting
#
exported envs:   QC QCAUX QCSCRATCH QCRUNNAME QCFILEPREF QCPROG QCPROG_S GUIFILE

Running Job 1 of 1 Dimethyl_Naphthalene_Dicarboximide_Phi_25_Theta_170_Thiophene_Hydrogenated.qcin
qchem Dimethyl_Naphthalene_Dicarboximide_Phi_25_Theta_170_Thiophene_Hydrogenated.qcin_33153.0 ./qchem33153/ 1
/cm/shared/apps/spack/cpu/opt/spack/linux-centos8-zen2/gcc-10.2.0/qchem-5.4-akfmr7b3t57bfs6qan3padb2wnb2i7cl/bin/mpi/mpirun_qchem -machinefile ./qchem33153/hostfile -np 1 /cm/shared/apps/spack/cpu/opt/spack/linux-centos8-zen2/gcc-10.2.0/qchem-5.4-akfmr7b3t57bfs6qan3padb2wnb2i7cl/exe/qcprog.exe Dimethyl_Naphthalene_Dicarboximide_Phi_25_Theta_170_Thiophene_Hydrogenated.qcin_33153.0 ./qchem33153/

Process 0 of 1 is on exp-2-17 - thread support 0
initial socket setup ...start
initial socket setup ...done 
now start server 0 ... 
                  Welcome to Q-Chem
     A Quantum Leap Into The Future Of Chemistry


 Q-Chem 5.4, Q-Chem, Inc., Pleasanton, CA (2021)

 License issued to: University of California, San Diego (site)

 E. Epifanovsky,  A. T. B. Gilbert,  Xintian Feng,  Joonho Lee,  Yuezhi Mao,  
 N. Mardirossian,  P. Pokhilko,  A. White,  M. Wormit,  M. P. Coons,  
 A. L. Dempwolff,  Zhengting Gan,  D. Hait,  P. R. Horn,  L. D. Jacobson,  
 I. Kaliman,  J. Kussmann,  A. W. Lange,  Ka Un Lao,  D. S. Levine,  Jie Liu,  
 S. C. McKenzie,  A. F. Morrison,  K. Nanda,  F. Plasser,  D. R. Rehn,  
 M. L. Vidal,  Zhi-Qiang You,  Ying Zhu,  B. Alam,  B. Albrecht,  
 A. Aldossary,  E. Alguire,  J. H. Andersen,  D. Barton,  K. Begam,  A. Behn,  
 Y. A. Bernard,  E. J. Berquist,  H. Burton,  A. Carreras,  K. Carter-Fenk,  
 R. Chakraborty,  A. D. Chien,  K. D. Closser,  V. Cofer-Shabica,  
 S. Dasgupta,  Jia Deng,  M. de Wergifosse,  M. Diedenhofen,  Hainam Do,  
 S. Ehlert,  Po-Tung Fang,  S. Fatehi,  Qingguo Feng,  J. Gayvert,  
 Qinghui Ge,  G. Gidofalvi,  M. Goldey,  J. Gomes,  C. Gonzalez-Espinoza,  
 S. Gulania,  A. Gunina,  M. W. D. Hanson-Heine,  P. H. P. Harbach,  
 A. W. Hauser,  M. F. Herbst,  M. Hernandez Vera,  M. Hodecker,  
 Z. C. Holden,  S. Houck,  Xunkun Huang,  Kerwin Hui,  B. C. Huynh,  
 M. Ivanov,  Hyunjun Ji,  Hanjie Jiang,  B. Kaduk,  S. Kaehler,  
 K. Khistyaev,  Jaehoon Kim,  P. Klunzinger,  Z. Koczor-Benda,  
 Joong Hoon Koh,  D. Kosenkov,  L. Koulias,  T. Kowalczyk,  C. M. Krauter,  
 K. Kue,  A. Kunitsa,  T. Kus,  A. Landau,  K. V. Lawler,  D. Lefrancois,  
 S. Lehtola,  Rain Li,  Yi-Pei Li,  Jiashu Liang,  M. Liebenthal,  
 Hung-Hsuan Lin,  You-Sheng Lin,  Fenglai Liu,  Kuan-Yu Liu,  
 M. Loipersberger,  A. Luenser,  A. Manjanath,  P. Manohar,  E. Mansoor,  
 S. F. Manzer,  Shan-Ping Mao,  A. V. Marenich,  T. Markovich,  S. Mason,  
 S. A. Maurer,  P. F. McLaughlin,  M. F. S. J. Menger,  J.-M. Mewes,  
 S. A. Mewes,  P. Morgante,  J. W. Mullinax,  T. S. Nguyen-Beck,  
 K. J. Oosterbaan,  G. Paran,  Alexander C. Paul,  Suranjan K. Paul,  
 F. Pavosevic,  Zheng Pei,  S. Prager,  E. I. Proynov,  E. Ramos,  B. Rana,  
 A. E. Rask,  A. Rettig,  R. M. Richard,  F. Rob,  E. Rossomme,  T. Scheele,  
 M. Scheurer,  M. Schneider,  N. Sergueev,  S. M. Sharada,  W. Skomorowski,  
 D. W. Small,  C. J. Stein,  Yu-Chuan Su,  E. J. Sundstrom,  Zhen Tao,  
 J. Thirman,  T. Tsuchimochi,  N. M. Tubman,  S. P. Veccham,  O. Vydrov,  
 J. Wenzel,  J. Witte,  A. Yamada,  Kun Yao,  S. Yeganeh,  S. R. Yost,  
 A. Zech,  Igor Ying Zhang,  Xing Zhang,  Yu Zhang,  D. Zuev,  
 A. Aspuru-Guzik,  A. T. Bell,  N. A. Besley,  K. B. Bravaya,  B. R. Brooks,  
 D. Casanova,  Jeng-Da Chai,  S. Coriani,  C. J. Cramer,  
 A. E. DePrince, III,  R. A. DiStasio Jr.,  A. Dreuw,  B. D. Dunietz,  
 T. R. Furlani,  W. A. Goddard III,  S. Grimme,  S. Hammes-Schiffer,  
 T. Head-Gordon,  W. J. Hehre,  Chao-Ping Hsu,  T.-C. Jagau,  Yousung Jung,  
 A. Klamt,  Jing Kong,  D. S. Lambrecht,  WanZhen Liang,  N. J. Mayhall,  
 C. W. McCurdy,  J. B. Neaton,  C. Ochsenfeld,  J. A. Parkhill,  R. Peverati,  
 V. A. Rassolov,  Yihan Shao,  L. V. Slipchenko,  T. Stauch,  R. P. Steele,  
 J. E. Subotnik,  A. J. W. Thom,  A. Tkatchenko,  D. G. Truhlar,  
 T. Van Voorhis,  T. A. Wesolowski,  K. B. Whaley,  H. L. Woodcock III,  
 P. M. Zimmerman,  S. Faraji,  P. M. W. Gill,  M. Head-Gordon,  
 J. M. Herbert,  A. I. Krylov

 Contributors to earlier versions of Q-Chem not listed above: 
 R. D. Adamson,  B. Austin,  R. Baer,  J. Baker,  G. J. O. Beran,  
 K. Brandhorst,  S. T. Brown,  E. F. C. Byrd,  A. K. Chakraborty,  
 G. K. L. Chan,  Chun-Min Chang,  Yunqing Chen,  C.-L. Cheng,  
 Siu Hung Chien,  D. M. Chipman,  D. L. Crittenden,  H. Dachsel,  
 R. J. Doerksen,  A. D. Dutoi,  R. G. Edgar,  J. Fosso-Tande,  
 L. Fusti-Molnar,  D. Ghosh,  A. Ghysels,  A. Golubeva-Zadorozhnaya,  
 J. Gonthier,  M. S. Gordon,  S. R. Gwaltney,  G. Hawkins,  J. E. Herr,  
 A. Heyden,  S. Hirata,  E. G. Hohenstein,  G. Kedziora,  F. J. Keil,  
 C. Kelley,  Jihan Kim,  R. A. King,  R. Z. Khaliullin,  P. P. Korambath,  
 W. Kurlancheek,  A. Laurent,  A. M. Lee,  M. S. Lee,  S. V. Levchenko,  
 Ching Yeh Lin,  D. Liotard,  E. Livshits,  R. C. Lochan,  I. Lotan,  
 L. A. Martinez-Martinez,  P. E. Maslen,  N. Nair,  D. P. O'Neill,  
 D. Neuhauser,  E. Neuscamman,  C. M. Oana,  R. Olivares-Amaya,  R. Olson,  
 T. M. Perrine,  B. Peters,  P. A. Pieniazek,  A. Prociuk,  Y. M. Rhee,  
 J. Ritchie,  M. A. Rohrdanz,  E. Rosta,  N. J. Russ,  H. F. Schaefer III,  
 M. W. Schmidt,  N. E. Schultz,  S. Sharma,  N. Shenvi,  C. D. Sherrill,  
 A. C. Simmonett,  A. Sodt,  T. Stein,  D. Stuck,  K. S. Thanthiriwatte,  
 V. Vanovschi,  L. Vogt,  Tao Wang,  A. Warshel,  M. A. Watson,  
 C. F. Williams,  Q. Wu,  X. Xu,  Jun Yang,  W. Zhang,  Yan Zhao

 Please cite Q-Chem as follows:
 Y. Shao et al., Mol. Phys. 113, 184-215 (2015)
 DOI: 10.1080/00268976.2014.952696

 Q-Chem 5.4.0 for Intel X86 EM64T Linux

 Parts of Q-Chem use Armadillo 9.800.1 (Horizon Scraper).
 http://arma.sourceforge.net/

 Q-Chem begins on Wed Dec 27 11:16:45 2023  

 Host: 
0

     Scratch files written to ./qchem33153//
 May1621 |scratch|qcdevops|jenkins|workspace|build_RNUM    
 Parallel job on  1  processors
 Processing $rem in /cm/shared/apps/spack/cpu/opt/spack/linux-centos8-zen2/gcc-10.2.0/qchem-5.4-akfmr7b3t57bfs6qan3padb2wnb2i7cl/config/preferences:
 Processing $rem in /home/rramji/.qchemrc:
 Symmetry turned off for PCM/SM12/SMD calculation
 Core orbitals will be frozen

 Checking the input file for inconsistencies... 	...done.

 Q-Chem warning in module forms1/BasisType.C, line 2236:

 You are not using the predefined 5D/6D in this basis set.


--------------------------------------------------------------
User input:
--------------------------------------------------------------
$molecule
0 1
C	0.046070	-6.741404	0.252767
C	0.272935	-6.155638	1.538656
C	-0.141739	-5.791452	-0.814966
C	0.321083	-4.803786	1.813042
H	0.425592	-6.821518	2.403318
C	-0.091779	-4.378638	-0.527566
C	0.138909	-3.838032	0.782769
C	-0.273808	-3.413062	-1.556632
C	0.188483	-2.426473	1.067868
C	-0.226610	-2.059348	-1.285436
C	-0.000000	-1.478216	-0.000000
H	-0.379657	-1.394783	-2.151019
C	-0.390420	-6.187987	-2.235891
C	-0.522125	-3.798164	-2.965540
N	-0.562731	-5.170003	-3.205600
C	0.570244	-4.424987	3.225760
C	0.438407	-2.036627	2.489646
N	0.610438	-3.049156	3.459662
O	-0.455563	-7.353131	-2.621768
O	-0.683373	-2.986854	-3.874608
O	0.729367	-5.248946	4.124059
O	0.508697	-0.878829	2.896516
C	-0.806996	-5.563799	-4.596910
H	-0.813717	-6.664085	-4.641640
H	-0.013655	-5.147101	-5.246567
H	-1.775159	-5.148785	-4.936739
C	0.851572	-2.587487	4.829729
H	0.964204	-3.483329	5.462387
H	0.003956	-1.964972	5.173914
H	1.764390	-1.962932	4.863360
C	0.000000	0.000000	0.000000
S	0.335026	0.718942	1.580530
C	1.027130	2.203226	0.904911
C	0.421617	0.904557	-0.985400
C	0.979485	2.101144	-0.493528
H	0.322049	0.690978	-2.059934
H	1.351718	2.899571	-1.152593
H	1.399246	3.001430	1.556025
H	-0.857128	-7.361589	0.303328
H	0.912587	-7.361192	-0.007933
H	-1.063684	-1.478831	0.187017
$end

$rem
JOBTYPE		SP
EXCHANGE	HF
CORRELATION	pRIMP2
BASIS		cc-pvtz
METHOD		rimp2
AUX_BASIS	rimp2-cc-pvtz
SOLVENT_METHOD	PCM
PURECART	11111
SYMMETRY	false
MEM_TOTAL	110000
SCF_CONVERGENCE = 6
THRESH=10
GUI = 2
$end



$solvent
dielectric 4.90
$end
--------------------------------------------------------------
 ----------------------------------------------------------------
             Standard Nuclear Orientation (Angstroms)
    I     Atom           X                Y                Z
 ----------------------------------------------------------------
    1      C       0.0460700000    -6.7414040000     0.2527670000
    2      C       0.2729350000    -6.1556380000     1.5386560000
    3      C      -0.1417390000    -5.7914520000    -0.8149660000
    4      C       0.3210830000    -4.8037860000     1.8130420000
    5      H       0.4255920000    -6.8215180000     2.4033180000
    6      C      -0.0917790000    -4.3786380000    -0.5275660000
    7      C       0.1389090000    -3.8380320000     0.7827690000
    8      C      -0.2738080000    -3.4130620000    -1.5566320000
    9      C       0.1884830000    -2.4264730000     1.0678680000
   10      C      -0.2266100000    -2.0593480000    -1.2854360000
   11      C       0.0000000000    -1.4782160000     0.0000000000
   12      H      -0.3796570000    -1.3947830000    -2.1510190000
   13      C      -0.3904200000    -6.1879870000    -2.2358910000
   14      C      -0.5221250000    -3.7981640000    -2.9655400000
   15      N      -0.5627310000    -5.1700030000    -3.2056000000
   16      C       0.5702440000    -4.4249870000     3.2257600000
   17      C       0.4384070000    -2.0366270000     2.4896460000
   18      N       0.6104380000    -3.0491560000     3.4596620000
   19      O      -0.4555630000    -7.3531310000    -2.6217680000
   20      O      -0.6833730000    -2.9868540000    -3.8746080000
   21      O       0.7293670000    -5.2489460000     4.1240590000
   22      O       0.5086970000    -0.8788290000     2.8965160000
   23      C      -0.8069960000    -5.5637990000    -4.5969100000
   24      H      -0.8137170000    -6.6640850000    -4.6416400000
   25      H      -0.0136550000    -5.1471010000    -5.2465670000
   26      H      -1.7751590000    -5.1487850000    -4.9367390000
   27      C       0.8515720000    -2.5874870000     4.8297290000
   28      H       0.9642040000    -3.4833290000     5.4623870000
   29      H       0.0039560000    -1.9649720000     5.1739140000
   30      H       1.7643900000    -1.9629320000     4.8633600000
   31      C       0.0000000000     0.0000000000     0.0000000000
   32      S       0.3350260000     0.7189420000     1.5805300000
   33      C       1.0271300000     2.2032260000     0.9049110000
   34      C       0.4216170000     0.9045570000    -0.9854000000
   35      C       0.9794850000     2.1011440000    -0.4935280000
   36      H       0.3220490000     0.6909780000    -2.0599340000
   37      H       1.3517180000     2.8995710000    -1.1525930000
   38      H       1.3992460000     3.0014300000     1.5560250000
   39      H      -0.8571280000    -7.3615890000     0.3033280000
   40      H       0.9125870000    -7.3611920000    -0.0079330000
   41      H      -1.0636840000    -1.4788310000     0.1870170000
 ----------------------------------------------------------------
 Nuclear Repulsion Energy =        2577.73998548 hartrees
 There are       98 alpha and       98 beta electrons
 Requested basis set is cc-pVTZ
 There are 356 shells and 1010 basis functions

 Total QAlloc Memory Limit 110000 MB
 Mega-Array Size       188 MB
 MEM_STATIC part       192 MB
 Discretize the solute cavity surface with Lebedev spheres
	Using 110 Lebedev grid points for each H atom
	Using 194 Lebedev grid points for other atoms
	Atomic van der Waals radii will be scaled by 1.20
 Remove points where switching function is < 1.0e-08
 Keep 2615 surface tesserae and discard 4163 interior tesserae
 Molecular Surface Area = 358.519 Angst**2
 Requested basis set is rimp2-cc-pVTZ
 There are 770 shells and 2648 basis functions
 A cutoff of  1.0D-10 yielded  34357 shell pairs
 There are    259669 function pairs (    335946 Cartesian)
 Smallest overlap matrix eigenvalue = 9.02E-06

 Q-Chem warning in module stvman/mkSTV.C, line 323:

 Overlap eigenvalue is smaller than square root of threshold
 Use THRESH >= 12 to get rid of this warning


 Scale SEOQF with 1.000000e-01/1.000000e-02/1.000000e-02

 Standard Electronic Orientation quadrupole field applied
 Nucleus-field energy     =     0.0000000115 hartrees
 Guess from superposition of atomic densities
 Warning:  Energy on first SCF cycle will be non-variational
 SAD guess density has 196.000000 electrons

 -----------------------------------------------------------------------
  General SCF calculation program by
  Eric Jon Sundstrom, Paul Horn, Yuezhi Mao, Dmitri Zuev, Alec White,
  David Stuck, Shaama M.S., Shane Yost, Joonho Lee, David Small,
  Daniel Levine, Susi Lehtola, Hugh Burton, Evgeny Epifanovsky,
  Bang C. Huynh
 -----------------------------------------------------------------------
 Hartree-Fock
 using 64 threads for integral computing
 -------------------------------------------------------
 OpenMP Integral computing Module                
 Release: version 1.0, May 2013, Q-Chem Inc. Pittsburgh 
 -------------------------------------------------------
 A restricted SCF calculation will be
 performed using DIIS
 SCF converges when DIIS error is below 1.0e-06
 ---------------------------------------
  Cycle       Energy         DIIS error
 ---------------------------------------
    1   -1583.3211901815      1.87e-02  
    2   -1571.0839665131      2.02e-03  
    3   -1571.4232376744      1.53e-03  
    4   -1571.6423626845      2.57e-04  
    5   -1571.6563653549      7.92e-05  
    6   -1571.6578151496      3.13e-05  
    7   -1571.6582625799      1.66e-05  
    8   -1571.6583976101      6.90e-06  
    9   -1571.6584237612      3.12e-06  
   10   -1571.6584290953      1.33e-06  
   11   -1571.6584306191      6.13e-07  Convergence criterion met
 ---------------------------------------
 SCF time:   CPU 7069.12s  wall 264.00s 

************** Final PCM Free Energy Summary **************
 G_electrostatic  =      -0.02881589 hartree =     -18.08224258 kcal/mol
 G_cavitation     =       0.00000000 hartree =       0.00000000 kcal/mol
 G_dispersion     =       0.00000000 hartree =       0.00000000 kcal/mol
 G_repulsion      =       0.00000000 hartree =       0.00000000 kcal/mol
 --------------------------------------------------
 Non-electrostatic Free Energy =       0.00000000 hartree =       0.00000000 kcal/mol
 Total                         =      -0.02881589 hartree =     -18.08224258 kcal/mol
 --------------------------------------------------
 SCF Energy (H0 + V/2)                       =   -1571.65843062 
 Solute Internal Energy (H0)                 =   -1571.62961473 
 Total Free Energy (H0 + V/2 + non-elec)     =   -1571.65843062 hartree
                                             = -986230.55039048 kcal/mol
***********************************************************

 SCF   energy in the final basis set =    -1571.6584306191
 Total energy in the final basis set =    -1571.6584306191


 --------------------------------------------------------------
  Generalized many-body perturbation theory program
  by Joonho Lee, Fazle Rob, Xintian Feng, Evgeny Epifanovsky

 No regularization used 
 (reg. param. = 0.0000e+00)
  (P|Q)^-1/2 Time:  CPU 120.33 s  wall 2.36 s

 In RI-MP2 calculation: 
 # of frozen core orbitals: 31

 Components of the RIMP2 correlation energy:
        aaaa    correlation energy =        -0.6202559475 a.u.
        abab    correlation energy =        -3.4369386450 a.u.
        bbbb    correlation energy =        -0.6202559475 a.u.
        non-Brillouin singles      =        -0.0000000000 a.u.
        total same-spin energy     =        -1.2405118951 a.u.
        total opposite-spin energy =        -3.4369386450 a.u.

 Total  RIMP2   correlation energy =        -4.6774505401 a.u.
        RIMP2         total energy =     -1576.3358811592 a.u.

 RI-MP2 Energy Time:  CPU 1998.43 s  wall 32.90 s
 
 --------------------------------------------------------------
 
                    Orbital Energies (a.u.)
 --------------------------------------------------------------
 
 Alpha MOs
 -- Occupied --
-91.9686 -20.5587 -20.5476 -20.5417 -20.5410 -15.6329 -15.6218 -11.4043
-11.3883 -11.3838 -11.3796 -11.3126 -11.3100 -11.3093 -11.3060 -11.2996
-11.2888 -11.2840 -11.2705 -11.2694 -11.2661 -11.2658 -11.2597 -11.2560
-11.2540 -11.2463 -11.2331  -8.9689  -6.6494  -6.6477  -6.6466  -1.4386
 -1.4126  -1.4050  -1.3917  -1.2704  -1.2562  -1.2312  -1.1847  -1.1446
 -1.1159  -1.0856  -1.0495  -0.9950  -0.9897  -0.9752  -0.9570  -0.9469
 -0.9000  -0.8909  -0.8803  -0.8634  -0.7912  -0.7836  -0.7770  -0.7585
 -0.7322  -0.7283  -0.7015  -0.6907  -0.6884  -0.6758  -0.6690  -0.6594
 -0.6525  -0.6448  -0.6381  -0.6335  -0.6329  -0.6322  -0.6240  -0.6063
 -0.5905  -0.5718  -0.5678  -0.5642  -0.5567  -0.5542  -0.5539  -0.5498
 -0.5483  -0.5457  -0.5225  -0.5143  -0.5117  -0.4894  -0.4742  -0.4640
 -0.4559  -0.4442  -0.4385  -0.4211  -0.4082  -0.3833  -0.3556  -0.3257
 -0.3192  -0.2746
 -- Virtual --
  0.0103   0.0404   0.0896   0.1000   0.1392   0.1499   0.1577   0.1598
  0.1636   0.1733   0.1780   0.1829   0.1911   0.1945   0.1974   0.2034
  0.2172   0.2224   0.2277   0.2295   0.2308   0.2354   0.2588   0.2626
  0.2632   0.2751   0.3022   0.3120   0.3165   0.3208   0.3262   0.3326
  0.3398   0.3412   0.3456   0.3523   0.3563   0.3632   0.3652   0.3696
  0.3722   0.3782   0.3879   0.3924   0.3946   0.4035   0.4081   0.4139
  0.4201   0.4230   0.4283   0.4340   0.4371   0.4427   0.4493   0.4507
  0.4542   0.4577   0.4671   0.4707   0.4779   0.4861   0.4887   0.4921
  0.4969   0.5030   0.5082   0.5108   0.5137   0.5182   0.5216   0.5319
  0.5392   0.5465   0.5477   0.5492   0.5547   0.5578   0.5641   0.5678
  0.5708   0.5736   0.5835   0.5852   0.5902   0.5928   0.5989   0.6013
  0.6051   0.6075   0.6093   0.6110   0.6170   0.6208   0.6237   0.6260
  0.6290   0.6306   0.6356   0.6366   0.6409   0.6440   0.6524   0.6601
  0.6677   0.6716   0.6772   0.6847   0.6882   0.6926   0.6984   0.7025
  0.7089   0.7274   0.7355   0.7367   0.7417   0.7484   0.7551   0.7617
  0.7672   0.7683   0.7771   0.7795   0.7916   0.7972   0.8025   0.8078
  0.8129   0.8194   0.8237   0.8308   0.8339   0.8403   0.8472   0.8509
  0.8565   0.8607   0.8647   0.8706   0.8756   0.8791   0.8854   0.8970
  0.9010   0.9054   0.9108   0.9146   0.9185   0.9244   0.9252   0.9283
  0.9346   0.9425   0.9465   0.9589   0.9603   0.9630   0.9721   0.9740
  0.9871   0.9899   0.9925   0.9999   1.0042   1.0096   1.0166   1.0201
  1.0270   1.0333   1.0350   1.0376   1.0521   1.0581   1.0647   1.0698
  1.0713   1.0736   1.0799   1.0872   1.0919   1.0956   1.1023   1.1042
  1.1083   1.1122   1.1253   1.1279   1.1301   1.1313   1.1393   1.1435
  1.1475   1.1592   1.1651   1.1712   1.1750   1.1775   1.1837   1.1911
  1.1944   1.2004   1.2030   1.2053   1.2094   1.2197   1.2257   1.2304
  1.2333   1.2366   1.2384   1.2549   1.2584   1.2654   1.2670   1.2729
  1.2757   1.2799   1.2988   1.3049   1.3160   1.3282   1.3308   1.3361
  1.3469   1.3473   1.3585   1.3665   1.3722   1.3751   1.3843   1.3855
  1.3894   1.3937   1.4038   1.4111   1.4216   1.4250   1.4370   1.4548
  1.4586   1.4620   1.4654   1.4750   1.4829   1.4838   1.4882   1.4989
  1.5036   1.5065   1.5136   1.5162   1.5194   1.5317   1.5341   1.5435
  1.5480   1.5535   1.5575   1.5589   1.5668   1.5721   1.5776   1.5844
  1.5935   1.5977   1.6029   1.6144   1.6233   1.6303   1.6388   1.6408
  1.6520   1.6575   1.6585   1.6701   1.6803   1.6879   1.6936   1.6999
  1.7131   1.7207   1.7280   1.7298   1.7383   1.7440   1.7521   1.7566
  1.7595   1.7684   1.7803   1.7825   1.7918   1.7958   1.8083   1.8162
  1.8238   1.8267   1.8359   1.8500   1.8589   1.8643   1.8680   1.8699
  1.8720   1.8819   1.8937   1.9010   1.9241   1.9364   1.9463   1.9471
  1.9510   1.9631   1.9706   1.9877   1.9987   2.0079   2.0215   2.0285
  2.0553   2.0610   2.0727   2.0935   2.1043   2.1106   2.1235   2.1372
  2.1473   2.1576   2.1635   2.1882   2.1963   2.2051   2.2245   2.2351
  2.2413   2.2517   2.2718   2.2743   2.2890   2.2958   2.3014   2.3158
  2.3200   2.3319   2.3392   2.3599   2.3614   2.3723   2.3833   2.3914
  2.4208   2.4382   2.4460   2.4517   2.4558   2.4667   2.4727   2.4856
  2.4870   2.5014   2.5070   2.5212   2.5312   2.5442   2.5534   2.5606
  2.5621   2.5742   2.5809   2.5854   2.5957   2.6080   2.6100   2.6204
  2.6241   2.6373   2.6417   2.6527   2.6611   2.6744   2.6773   2.6817
  2.6865   2.6915   2.7141   2.7148   2.7265   2.7307   2.7378   2.7405
  2.7464   2.7507   2.7600   2.7703   2.7720   2.7858   2.7924   2.8043
  2.8113   2.8253   2.8332   2.8401   2.8560   2.8600   2.8723   2.8765
  2.8788   2.8844   2.8865   2.8930   2.8947   2.9041   2.9158   2.9192
  2.9256   2.9282   2.9327   2.9434   2.9577   2.9646   2.9675   2.9792
  2.9849   2.9904   2.9955   3.0037   3.0191   3.0245   3.0278   3.0321
  3.0361   3.0524   3.0577   3.0601   3.0721   3.0752   3.0790   3.0841
  3.0974   3.1008   3.1027   3.1040   3.1098   3.1156   3.1190   3.1255
  3.1319   3.1417   3.1461   3.1597   3.1617   3.1665   3.1725   3.1803
  3.1857   3.1945   3.1993   3.2070   3.2100   3.2137   3.2237   3.2260
  3.2318   3.2357   3.2407   3.2434   3.2516   3.2568   3.2605   3.2655
  3.2717   3.2753   3.2776   3.2872   3.2877   3.2995   3.3027   3.3115
  3.3147   3.3164   3.3224   3.3255   3.3277   3.3318   3.3376   3.3410
  3.3454   3.3526   3.3562   3.3570   3.3659   3.3676   3.3718   3.3760
  3.3800   3.3840   3.3949   3.3968   3.4039   3.4089   3.4117   3.4161
  3.4188   3.4237   3.4317   3.4331   3.4415   3.4437   3.4462   3.4565
  3.4612   3.4623   3.4697   3.4724   3.4787   3.4822   3.4877   3.4921
  3.4994   3.5065   3.5099   3.5138   3.5167   3.5185   3.5209   3.5237
  3.5370   3.5457   3.5517   3.5580   3.5671   3.5738   3.5795   3.5838
  3.5887   3.5905   3.5982   3.6039   3.6135   3.6191   3.6264   3.6287
  3.6343   3.6364   3.6402   3.6485   3.6495   3.6565   3.6579   3.6660
  3.6730   3.6769   3.6851   3.6934   3.6965   3.7020   3.7118   3.7159
  3.7250   3.7310   3.7334   3.7396   3.7444   3.7495   3.7515   3.7583
  3.7618   3.7661   3.7697   3.7765   3.7882   3.7933   3.7937   3.8061
  3.8110   3.8163   3.8212   3.8249   3.8284   3.8343   3.8376   3.8449
  3.8468   3.8514   3.8631   3.8696   3.8747   3.8902   3.9000   3.9075
  3.9154   3.9204   3.9265   3.9340   3.9425   3.9490   3.9543   3.9597
  3.9692   3.9706   3.9784   3.9846   3.9870   3.9940   4.0036   4.0130
  4.0219   4.0309   4.0330   4.0398   4.0504   4.0596   4.0680   4.0788
  4.0876   4.1093   4.1135   4.1159   4.1246   4.1306   4.1417   4.1443
  4.1499   4.1589   4.1638   4.1682   4.1730   4.1845   4.1977   4.2101
  4.2169   4.2251   4.2383   4.2401   4.2444   4.2497   4.2579   4.2658
  4.2670   4.2736   4.2833   4.2872   4.2937   4.2973   4.3005   4.3150
  4.3184   4.3216   4.3271   4.3328   4.3369   4.3444   4.3491   4.3559
  4.3663   4.3675   4.3694   4.3757   4.3830   4.3841   4.3878   4.3967
  4.4021   4.4109   4.4157   4.4243   4.4312   4.4417   4.4434   4.4663
  4.4683   4.4780   4.4937   4.5042   4.5110   4.5213   4.5251   4.5347
  4.5376   4.5443   4.5540   4.5585   4.5667   4.5724   4.5830   4.5877
  4.5939   4.6002   4.6026   4.6171   4.6195   4.6242   4.6288   4.6394
  4.6480   4.6590   4.6720   4.6790   4.6928   4.7011   4.7057   4.7104
  4.7171   4.7404   4.7455   4.7723   4.7816   4.7849   4.7960   4.8033
  4.8240   4.8285   4.8347   4.8435   4.8490   4.8601   4.8781   4.8889
  4.8899   4.9048   4.9172   4.9316   4.9414   4.9430   4.9559   4.9844
  4.9930   5.0121   5.0206   5.0276   5.0338   5.0432   5.0563   5.0723
  5.0773   5.0854   5.1009   5.1155   5.1219   5.1289   5.1318   5.1356
  5.1524   5.1651   5.1729   5.1813   5.1919   5.2004   5.2008   5.2288
  5.2585   5.2594   5.2716   5.2848   5.2992   5.3137   5.3261   5.3287
  5.3336   5.3422   5.3588   5.3724   5.3768   5.3830   5.4004   5.4138
  5.4385   5.4531   5.4741   5.4898   5.4964   5.5098   5.5117   5.5163
  5.5234   5.5333   5.5456   5.5528   5.5587   5.5641   5.5665   5.5713
  5.5761   5.5857   5.5890   5.6065   5.6088   5.6212   5.6253   5.6347
  5.6477   5.6484   5.6585   5.6629   5.6659   5.6733   5.6928   5.6964
  5.7059   5.7129   5.7370   5.7424   5.7600   5.7647   5.7682   5.7796
  5.7831   5.7983   5.8103   5.8292   5.8498   5.8606   5.9034   5.9243
  5.9343   5.9634   5.9700   5.9923   6.0207   6.0318   6.0407   6.0523
  6.0565   6.0677   6.1074   6.1122   6.1209   6.1608   6.1651   6.1910
  6.1954   6.2180   6.2228   6.2252   6.2633   6.2696   6.2821   6.2862
  6.3017   6.3134   6.3247   6.3548   6.3691   6.3872   6.4525   6.4862
  6.5234   6.5381   6.5643   6.5821   6.6051   6.6426   6.6521   6.6582
  6.6727   6.6802   6.8487   6.8531   6.8911   6.9009   6.9046   6.9253
  6.9270   6.9783   7.1049   7.1370   7.1627   7.1943   7.2203   7.3212
  7.3441   7.3507   7.3528   7.3591   7.4747   7.5423   7.5713   7.5833
  7.5936   7.6524   7.6577   7.6894   7.7062   7.7867   8.8859  10.0990
 10.3376  11.2685  11.5354  11.7880  12.0126  12.1771  12.4376  12.5175
 12.9435  13.2522  13.3621  13.5604  13.8036  13.9313  14.1106  14.3061
 14.3303  14.3814  14.5543  14.6372  15.0042  15.6191  15.8112  16.2953
 --------------------------------------------------------------
 
          Ground-State Mulliken Net Atomic Charges

     Atom                 Charge (a.u.)
  ----------------------------------------
      1 C                    -0.084357
      2 C                    -0.027515
      3 C                    -0.110846
      4 C                    -0.123016
      5 H                     0.199738
      6 C                     0.025280
      7 C                     0.123618
      8 C                    -0.102085
      9 C                    -0.215273
     10 C                    -0.127763
     11 C                     0.191249
     12 H                     0.195526
     13 C                     0.342226
     14 C                     0.347794
     15 N                    -0.089967
     16 C                     0.358751
     17 C                     0.400678
     18 N                    -0.087705
     19 O                    -0.495100
     20 O                    -0.508171
     21 O                    -0.498270
     22 O                    -0.424466
     23 C                    -0.204909
     24 H                     0.139628
     25 H                     0.109394
     26 H                     0.109141
     27 C                    -0.199715
     28 H                     0.135557
     29 H                     0.113204
     30 H                     0.113712
     31 C                    -0.047517
     32 S                     0.072441
     33 C                    -0.250520
     34 C                    -0.183897
     35 C                    -0.247129
     36 H                     0.179200
     37 H                     0.178720
     38 H                     0.199972
     39 H                     0.138321
     40 H                     0.138572
     41 H                     0.215500
  ----------------------------------------
  Sum of atomic charges =     0.000000

 -----------------------------------------------------------------
                    Cartesian Multipole Moments
 -----------------------------------------------------------------
    Charge (ESU x 10^10)
                 0.0000
    Dipole Moment (Debye)
         X       0.0434      Y       0.1204      Z       1.8713
       Tot       1.8757
    Quadrupole Moments (Debye-Ang)
        XX    -162.0470     XY       2.4528     YY    -180.4672
        XZ      -4.3399     YZ     -10.6362     ZZ    -184.3980
    Octopole Moments (Debye-Ang^2)
       XXX     -70.1877    XXY     468.9195    XYY      -1.1221
       YYY    1669.5062    XXZ     -29.2268    XYZ      25.2846
       YYZ      40.7013    XZZ     -15.3021    YZZ     598.5941
       ZZZ     -84.2102
    Hexadecapole Moments (Debye-Ang^3)
      XXXX    -472.4338   XXXY    -168.3846   XXYY   -2679.3146
      XYYY    -271.0480   YYYY  -17962.8681   XXXZ    -510.5116
      XXYZ    -129.4133   XYYZ    -310.7109   YYYZ   -1226.1700
      XXZZ   -1092.2910   XYZZ       8.1903   YYZZ   -4423.5163
      XZZZ    -568.1682   YZZZ    -122.6858   ZZZZ   -6376.5366
 -----------------------------------------------------------------
 Total job time:  301.07s(wall), 9163.49s(cpu) 
 Wed Dec 27 11:21:46 2023

        *************************************************************
        *                                                           *
        *  Thank you very much for using Q-Chem.  Have a nice day.  *
        *                                                           *
        *************************************************************


0 sent ACK to 0 
now end server 0 ... 
cleanup process ... done
remove work dirs ./qchem33153.0 -- ./qchem33153.0
rm -rf ./qchem33153.0
rm -rf ./qchem33153
