You are running Q-Chem version: 5.4.0

#
# job setting
#
local host:  exp-2-05
current dir: /home/rramji/project-csd799/aromodel/pndit-qchem/hydrogenated-rotation-run
input file:  Dimethyl_Naphthalene_Dicarboximide_Phi_15_Theta_70_Thiophene_Hydrogenated.qcin
output file: 
nprocs     : 1
nthreads   : 64
#
# qchem installation setting
#
QC:          /cm/shared/apps/spack/cpu/opt/spack/linux-centos8-zen2/gcc-10.2.0/qchem-5.4-akfmr7b3t57bfs6qan3padb2wnb2i7cl
QCAUX:       /cm/shared/apps/spack/cpu/opt/spack/linux-centos8-zen2/gcc-10.2.0/qchem-5.4-akfmr7b3t57bfs6qan3padb2wnb2i7cl/qcaux
QCPROG:      /cm/shared/apps/spack/cpu/opt/spack/linux-centos8-zen2/gcc-10.2.0/qchem-5.4-akfmr7b3t57bfs6qan3padb2wnb2i7cl/exe/qcprog.exe
QCPROG_S:    /cm/shared/apps/spack/cpu/opt/spack/linux-centos8-zen2/gcc-10.2.0/qchem-5.4-akfmr7b3t57bfs6qan3padb2wnb2i7cl/exe/qcprog.exe_s
PARALLEL:    -DPARALLEL
QCMPI:       mpich
#
# qchem directory setting
#
qcrun:       qchem1506930
QCSCRATCH:   .
QCLOCALSCR:  
QCTMPDIR:    .
QCFILEPREF:  ./qchem1506930
QCSAVEDIR:   
workdirs:    ./qchem1506930
workdir0:    ./qchem1506930
partmpdirs =  
#
# parallel setting
#
QCRSH:           ssh
QCMPI:           mpich
QCMPIRUN:        /cm/shared/apps/spack/cpu/opt/spack/linux-centos8-zen2/gcc-10.2.0/qchem-5.4-akfmr7b3t57bfs6qan3padb2wnb2i7cl/bin/mpi/mpirun_qchem
QCMACHINEFILE:   ./qchem1506930/hostfile
exp-2-05

#
# env setting
#
exported envs:   QC QCAUX QCSCRATCH QCRUNNAME QCFILEPREF QCPROG QCPROG_S GUIFILE

Running Job 1 of 1 Dimethyl_Naphthalene_Dicarboximide_Phi_15_Theta_70_Thiophene_Hydrogenated.qcin
qchem Dimethyl_Naphthalene_Dicarboximide_Phi_15_Theta_70_Thiophene_Hydrogenated.qcin_1506930.0 ./qchem1506930/ 1
/cm/shared/apps/spack/cpu/opt/spack/linux-centos8-zen2/gcc-10.2.0/qchem-5.4-akfmr7b3t57bfs6qan3padb2wnb2i7cl/bin/mpi/mpirun_qchem -machinefile ./qchem1506930/hostfile -np 1 /cm/shared/apps/spack/cpu/opt/spack/linux-centos8-zen2/gcc-10.2.0/qchem-5.4-akfmr7b3t57bfs6qan3padb2wnb2i7cl/exe/qcprog.exe Dimethyl_Naphthalene_Dicarboximide_Phi_15_Theta_70_Thiophene_Hydrogenated.qcin_1506930.0 ./qchem1506930/

Process 0 of 1 is on exp-2-05 - thread support 0
initial socket setup ...start
initial socket setup ...done 
now start server 0 ... 
                  Welcome to Q-Chem
     A Quantum Leap Into The Future Of Chemistry


 Q-Chem 5.4, Q-Chem, Inc., Pleasanton, CA (2021)

 License issued to: University of California, San Diego (site)

 E. Epifanovsky,  A. T. B. Gilbert,  Xintian Feng,  Joonho Lee,  Yuezhi Mao,  
 N. Mardirossian,  P. Pokhilko,  A. White,  M. Wormit,  M. P. Coons,  
 A. L. Dempwolff,  Zhengting Gan,  D. Hait,  P. R. Horn,  L. D. Jacobson,  
 I. Kaliman,  J. Kussmann,  A. W. Lange,  Ka Un Lao,  D. S. Levine,  Jie Liu,  
 S. C. McKenzie,  A. F. Morrison,  K. Nanda,  F. Plasser,  D. R. Rehn,  
 M. L. Vidal,  Zhi-Qiang You,  Ying Zhu,  B. Alam,  B. Albrecht,  
 A. Aldossary,  E. Alguire,  J. H. Andersen,  D. Barton,  K. Begam,  A. Behn,  
 Y. A. Bernard,  E. J. Berquist,  H. Burton,  A. Carreras,  K. Carter-Fenk,  
 R. Chakraborty,  A. D. Chien,  K. D. Closser,  V. Cofer-Shabica,  
 S. Dasgupta,  Jia Deng,  M. de Wergifosse,  M. Diedenhofen,  Hainam Do,  
 S. Ehlert,  Po-Tung Fang,  S. Fatehi,  Qingguo Feng,  J. Gayvert,  
 Qinghui Ge,  G. Gidofalvi,  M. Goldey,  J. Gomes,  C. Gonzalez-Espinoza,  
 S. Gulania,  A. Gunina,  M. W. D. Hanson-Heine,  P. H. P. Harbach,  
 A. W. Hauser,  M. F. Herbst,  M. Hernandez Vera,  M. Hodecker,  
 Z. C. Holden,  S. Houck,  Xunkun Huang,  Kerwin Hui,  B. C. Huynh,  
 M. Ivanov,  Hyunjun Ji,  Hanjie Jiang,  B. Kaduk,  S. Kaehler,  
 K. Khistyaev,  Jaehoon Kim,  P. Klunzinger,  Z. Koczor-Benda,  
 Joong Hoon Koh,  D. Kosenkov,  L. Koulias,  T. Kowalczyk,  C. M. Krauter,  
 K. Kue,  A. Kunitsa,  T. Kus,  A. Landau,  K. V. Lawler,  D. Lefrancois,  
 S. Lehtola,  Rain Li,  Yi-Pei Li,  Jiashu Liang,  M. Liebenthal,  
 Hung-Hsuan Lin,  You-Sheng Lin,  Fenglai Liu,  Kuan-Yu Liu,  
 M. Loipersberger,  A. Luenser,  A. Manjanath,  P. Manohar,  E. Mansoor,  
 S. F. Manzer,  Shan-Ping Mao,  A. V. Marenich,  T. Markovich,  S. Mason,  
 S. A. Maurer,  P. F. McLaughlin,  M. F. S. J. Menger,  J.-M. Mewes,  
 S. A. Mewes,  P. Morgante,  J. W. Mullinax,  T. S. Nguyen-Beck,  
 K. J. Oosterbaan,  G. Paran,  Alexander C. Paul,  Suranjan K. Paul,  
 F. Pavosevic,  Zheng Pei,  S. Prager,  E. I. Proynov,  E. Ramos,  B. Rana,  
 A. E. Rask,  A. Rettig,  R. M. Richard,  F. Rob,  E. Rossomme,  T. Scheele,  
 M. Scheurer,  M. Schneider,  N. Sergueev,  S. M. Sharada,  W. Skomorowski,  
 D. W. Small,  C. J. Stein,  Yu-Chuan Su,  E. J. Sundstrom,  Zhen Tao,  
 J. Thirman,  T. Tsuchimochi,  N. M. Tubman,  S. P. Veccham,  O. Vydrov,  
 J. Wenzel,  J. Witte,  A. Yamada,  Kun Yao,  S. Yeganeh,  S. R. Yost,  
 A. Zech,  Igor Ying Zhang,  Xing Zhang,  Yu Zhang,  D. Zuev,  
 A. Aspuru-Guzik,  A. T. Bell,  N. A. Besley,  K. B. Bravaya,  B. R. Brooks,  
 D. Casanova,  Jeng-Da Chai,  S. Coriani,  C. J. Cramer,  
 A. E. DePrince, III,  R. A. DiStasio Jr.,  A. Dreuw,  B. D. Dunietz,  
 T. R. Furlani,  W. A. Goddard III,  S. Grimme,  S. Hammes-Schiffer,  
 T. Head-Gordon,  W. J. Hehre,  Chao-Ping Hsu,  T.-C. Jagau,  Yousung Jung,  
 A. Klamt,  Jing Kong,  D. S. Lambrecht,  WanZhen Liang,  N. J. Mayhall,  
 C. W. McCurdy,  J. B. Neaton,  C. Ochsenfeld,  J. A. Parkhill,  R. Peverati,  
 V. A. Rassolov,  Yihan Shao,  L. V. Slipchenko,  T. Stauch,  R. P. Steele,  
 J. E. Subotnik,  A. J. W. Thom,  A. Tkatchenko,  D. G. Truhlar,  
 T. Van Voorhis,  T. A. Wesolowski,  K. B. Whaley,  H. L. Woodcock III,  
 P. M. Zimmerman,  S. Faraji,  P. M. W. Gill,  M. Head-Gordon,  
 J. M. Herbert,  A. I. Krylov

 Contributors to earlier versions of Q-Chem not listed above: 
 R. D. Adamson,  B. Austin,  R. Baer,  J. Baker,  G. J. O. Beran,  
 K. Brandhorst,  S. T. Brown,  E. F. C. Byrd,  A. K. Chakraborty,  
 G. K. L. Chan,  Chun-Min Chang,  Yunqing Chen,  C.-L. Cheng,  
 Siu Hung Chien,  D. M. Chipman,  D. L. Crittenden,  H. Dachsel,  
 R. J. Doerksen,  A. D. Dutoi,  R. G. Edgar,  J. Fosso-Tande,  
 L. Fusti-Molnar,  D. Ghosh,  A. Ghysels,  A. Golubeva-Zadorozhnaya,  
 J. Gonthier,  M. S. Gordon,  S. R. Gwaltney,  G. Hawkins,  J. E. Herr,  
 A. Heyden,  S. Hirata,  E. G. Hohenstein,  G. Kedziora,  F. J. Keil,  
 C. Kelley,  Jihan Kim,  R. A. King,  R. Z. Khaliullin,  P. P. Korambath,  
 W. Kurlancheek,  A. Laurent,  A. M. Lee,  M. S. Lee,  S. V. Levchenko,  
 Ching Yeh Lin,  D. Liotard,  E. Livshits,  R. C. Lochan,  I. Lotan,  
 L. A. Martinez-Martinez,  P. E. Maslen,  N. Nair,  D. P. O'Neill,  
 D. Neuhauser,  E. Neuscamman,  C. M. Oana,  R. Olivares-Amaya,  R. Olson,  
 T. M. Perrine,  B. Peters,  P. A. Pieniazek,  A. Prociuk,  Y. M. Rhee,  
 J. Ritchie,  M. A. Rohrdanz,  E. Rosta,  N. J. Russ,  H. F. Schaefer III,  
 M. W. Schmidt,  N. E. Schultz,  S. Sharma,  N. Shenvi,  C. D. Sherrill,  
 A. C. Simmonett,  A. Sodt,  T. Stein,  D. Stuck,  K. S. Thanthiriwatte,  
 V. Vanovschi,  L. Vogt,  Tao Wang,  A. Warshel,  M. A. Watson,  
 C. F. Williams,  Q. Wu,  X. Xu,  Jun Yang,  W. Zhang,  Yan Zhao

 Please cite Q-Chem as follows:
 Y. Shao et al., Mol. Phys. 113, 184-215 (2015)
 DOI: 10.1080/00268976.2014.952696

 Q-Chem 5.4.0 for Intel X86 EM64T Linux

 Parts of Q-Chem use Armadillo 9.800.1 (Horizon Scraper).
 http://arma.sourceforge.net/

 Q-Chem begins on Wed Dec 27 10:25:50 2023  

 Host: 
0

     Scratch files written to ./qchem1506930//
 May1621 |scratch|qcdevops|jenkins|workspace|build_RNUM    
 Parallel job on  1  processors
 Processing $rem in /cm/shared/apps/spack/cpu/opt/spack/linux-centos8-zen2/gcc-10.2.0/qchem-5.4-akfmr7b3t57bfs6qan3padb2wnb2i7cl/config/preferences:
 Processing $rem in /home/rramji/.qchemrc:
 Symmetry turned off for PCM/SM12/SMD calculation
 Core orbitals will be frozen

 Checking the input file for inconsistencies... 	...done.

 Q-Chem warning in module forms1/BasisType.C, line 2236:

 You are not using the predefined 5D/6D in this basis set.


--------------------------------------------------------------
User input:
--------------------------------------------------------------
$molecule
0 1
C	0.240927	-6.741404	-0.089263
C	1.467886	-6.155638	-0.535973
C	-0.777972	-5.791452	0.281103
C	1.729742	-4.803786	-0.631036
H	2.292903	-6.821518	-0.836458
C	-0.503614	-4.378638	0.181995
C	0.746756	-3.838032	-0.272725
C	-1.485437	-3.413062	0.539954
C	1.018915	-2.426473	-0.371053
C	-1.226557	-2.059348	0.446381
C	0.000000	-1.478216	0.000000
H	-2.052413	-1.394783	0.747410
C	-2.134128	-6.187987	0.772747
C	-2.829820	-3.798164	1.029154
N	-3.059182	-5.170003	1.110828
C	3.077731	-4.424987	-1.121728
C	2.375694	-2.036627	-0.864069
N	3.301101	-3.049156	-1.201928
O	-2.502830	-7.353131	0.903908
O	-3.697078	-2.986854	1.345809
O	3.934752	-5.248946	-1.434422
O	2.764177	-0.878829	-1.003943
C	-4.386939	-5.563799	1.592981
H	-4.429822	-6.664085	1.607367
H	-5.164489	-5.147101	0.924504
H	-4.553486	-5.148785	2.605446
C	4.608481	-2.587487	-1.677308
H	5.211969	-3.483329	-1.898089
H	5.094624	-1.964972	-0.902337
H	4.483092	-1.962932	-2.582098
C	0.000000	0.000000	0.000000
S	0.205093	0.766196	1.580530
C	0.628939	2.348114	0.904911
C	0.258137	0.964028	-0.985400
C	0.599745	2.239309	-0.493528
H	0.197169	0.736404	-2.059934
H	0.827678	3.090243	-1.152593
H	0.856796	3.198808	1.556025
H	0.447559	-7.361589	0.791434
H	-0.166282	-7.361192	-0.897345
H	0.368883	-1.478831	1.015049
$end

$rem
JOBTYPE		SP
EXCHANGE	HF
CORRELATION	pRIMP2
BASIS		cc-pvtz
METHOD		rimp2
AUX_BASIS	rimp2-cc-pvtz
SOLVENT_METHOD	PCM
PURECART	11111
SYMMETRY	false
MEM_TOTAL	110000
SCF_CONVERGENCE = 6
THRESH=10
GUI = 2
$end



$solvent
dielectric 4.90
$end
--------------------------------------------------------------
 ----------------------------------------------------------------
             Standard Nuclear Orientation (Angstroms)
    I     Atom           X                Y                Z
 ----------------------------------------------------------------
    1      C       0.2409270000    -6.7414040000    -0.0892630000
    2      C       1.4678860000    -6.1556380000    -0.5359730000
    3      C      -0.7779720000    -5.7914520000     0.2811030000
    4      C       1.7297420000    -4.8037860000    -0.6310360000
    5      H       2.2929030000    -6.8215180000    -0.8364580000
    6      C      -0.5036140000    -4.3786380000     0.1819950000
    7      C       0.7467560000    -3.8380320000    -0.2727250000
    8      C      -1.4854370000    -3.4130620000     0.5399540000
    9      C       1.0189150000    -2.4264730000    -0.3710530000
   10      C      -1.2265570000    -2.0593480000     0.4463810000
   11      C       0.0000000000    -1.4782160000     0.0000000000
   12      H      -2.0524130000    -1.3947830000     0.7474100000
   13      C      -2.1341280000    -6.1879870000     0.7727470000
   14      C      -2.8298200000    -3.7981640000     1.0291540000
   15      N      -3.0591820000    -5.1700030000     1.1108280000
   16      C       3.0777310000    -4.4249870000    -1.1217280000
   17      C       2.3756940000    -2.0366270000    -0.8640690000
   18      N       3.3011010000    -3.0491560000    -1.2019280000
   19      O      -2.5028300000    -7.3531310000     0.9039080000
   20      O      -3.6970780000    -2.9868540000     1.3458090000
   21      O       3.9347520000    -5.2489460000    -1.4344220000
   22      O       2.7641770000    -0.8788290000    -1.0039430000
   23      C      -4.3869390000    -5.5637990000     1.5929810000
   24      H      -4.4298220000    -6.6640850000     1.6073670000
   25      H      -5.1644890000    -5.1471010000     0.9245040000
   26      H      -4.5534860000    -5.1487850000     2.6054460000
   27      C       4.6084810000    -2.5874870000    -1.6773080000
   28      H       5.2119690000    -3.4833290000    -1.8980890000
   29      H       5.0946240000    -1.9649720000    -0.9023370000
   30      H       4.4830920000    -1.9629320000    -2.5820980000
   31      C       0.0000000000     0.0000000000     0.0000000000
   32      S       0.2050930000     0.7661960000     1.5805300000
   33      C       0.6289390000     2.3481140000     0.9049110000
   34      C       0.2581370000     0.9640280000    -0.9854000000
   35      C       0.5997450000     2.2393090000    -0.4935280000
   36      H       0.1971690000     0.7364040000    -2.0599340000
   37      H       0.8276780000     3.0902430000    -1.1525930000
   38      H       0.8567960000     3.1988080000     1.5560250000
   39      H       0.4475590000    -7.3615890000     0.7914340000
   40      H      -0.1662820000    -7.3611920000    -0.8973450000
   41      H       0.3688830000    -1.4788310000     1.0150490000
 ----------------------------------------------------------------
 Nuclear Repulsion Energy =        2552.46309567 hartrees
 There are       98 alpha and       98 beta electrons
 Requested basis set is cc-pVTZ
 There are 356 shells and 1010 basis functions

 Total QAlloc Memory Limit 110000 MB
 Mega-Array Size       188 MB
 MEM_STATIC part       192 MB
 Discretize the solute cavity surface with Lebedev spheres
	Using 110 Lebedev grid points for each H atom
	Using 194 Lebedev grid points for other atoms
	Atomic van der Waals radii will be scaled by 1.20
 Remove points where switching function is < 1.0e-08
 Keep 2606 surface tesserae and discard 4172 interior tesserae
 Molecular Surface Area = 370.272 Angst**2
 Requested basis set is rimp2-cc-pVTZ
 There are 770 shells and 2648 basis functions
 A cutoff of  1.0D-10 yielded  34187 shell pairs
 There are    258603 function pairs (    334828 Cartesian)
 Smallest overlap matrix eigenvalue = 8.99E-06

 Q-Chem warning in module stvman/mkSTV.C, line 323:

 Overlap eigenvalue is smaller than square root of threshold
 Use THRESH >= 12 to get rid of this warning


 Scale SEOQF with 1.000000e-01/1.000000e-02/1.000000e-01

 Standard Electronic Orientation quadrupole field applied
 Nucleus-field energy     =     0.0000000403 hartrees
 Guess from superposition of atomic densities
 Warning:  Energy on first SCF cycle will be non-variational
 SAD guess density has 196.000000 electrons

 -----------------------------------------------------------------------
  General SCF calculation program by
  Eric Jon Sundstrom, Paul Horn, Yuezhi Mao, Dmitri Zuev, Alec White,
  David Stuck, Shaama M.S., Shane Yost, Joonho Lee, David Small,
  Daniel Levine, Susi Lehtola, Hugh Burton, Evgeny Epifanovsky,
  Bang C. Huynh
 -----------------------------------------------------------------------
 Hartree-Fock
 using 64 threads for integral computing
 -------------------------------------------------------
 OpenMP Integral computing Module                
 Release: version 1.0, May 2013, Q-Chem Inc. Pittsburgh 
 -------------------------------------------------------
 A restricted SCF calculation will be
 performed using DIIS
 SCF converges when DIIS error is below 1.0e-06
 ---------------------------------------
  Cycle       Energy         DIIS error
 ---------------------------------------
    1   -1583.1112562587      1.86e-02  
    2   -1571.1620953912      2.03e-03  
    3   -1571.5020445121      1.55e-03  
    4   -1571.7247500840      2.53e-04  
    5   -1571.7385898282      7.81e-05  
    6   -1571.7400167850      3.03e-05  
    7   -1571.7404409708      1.55e-05  
    8   -1571.7405564415      6.29e-06  
    9   -1571.7405759778      2.85e-06  
   10   -1571.7405798219      1.23e-06  
   11   -1571.7405809815      5.61e-07  Convergence criterion met
 ---------------------------------------
 SCF time:   CPU 6940.12s  wall 257.00s 

************** Final PCM Free Energy Summary **************
 G_electrostatic  =      -0.02984727 hartree =     -18.72944769 kcal/mol
 G_cavitation     =       0.00000000 hartree =       0.00000000 kcal/mol
 G_dispersion     =       0.00000000 hartree =       0.00000000 kcal/mol
 G_repulsion      =       0.00000000 hartree =       0.00000000 kcal/mol
 --------------------------------------------------
 Non-electrostatic Free Energy =       0.00000000 hartree =       0.00000000 kcal/mol
 Total                         =      -0.02984727 hartree =     -18.72944769 kcal/mol
 --------------------------------------------------
 SCF Energy (H0 + V/2)                       =   -1571.74058098 
 Solute Internal Energy (H0)                 =   -1571.71073371 
 Total Free Energy (H0 + V/2 + non-elec)     =   -1571.74058098 hartree
                                             = -986282.10052093 kcal/mol
***********************************************************

 SCF   energy in the final basis set =    -1571.7405809815
 Total energy in the final basis set =    -1571.7405809815


 --------------------------------------------------------------
  Generalized many-body perturbation theory program
  by Joonho Lee, Fazle Rob, Xintian Feng, Evgeny Epifanovsky

 No regularization used 
 (reg. param. = 0.0000e+00)
  (P|Q)^-1/2 Time:  CPU 123.51 s  wall 2.36 s

 In RI-MP2 calculation: 
 # of frozen core orbitals: 31

 Components of the RIMP2 correlation energy:
        aaaa    correlation energy =        -0.6149140081 a.u.
        abab    correlation energy =        -3.4255490186 a.u.
        bbbb    correlation energy =        -0.6149140081 a.u.
        non-Brillouin singles      =        -0.0000000000 a.u.
        total same-spin energy     =        -1.2298280162 a.u.
        total opposite-spin energy =        -3.4255490186 a.u.

 Total  RIMP2   correlation energy =        -4.6553770348 a.u.
        RIMP2         total energy =     -1576.3959580163 a.u.

 RI-MP2 Energy Time:  CPU 2015.38 s  wall 33.08 s
 
 --------------------------------------------------------------
 
                    Orbital Energies (a.u.)
 --------------------------------------------------------------
 
 Alpha MOs
 -- Occupied --
-91.9928 -20.5507 -20.5442 -20.5414 -20.5401 -15.6264 -15.6209 -11.3925
-11.3849 -11.3833 -11.3786 -11.3082 -11.3076 -11.3046 -11.3044 -11.2962
-11.2909 -11.2880 -11.2839 -11.2687 -11.2678 -11.2638 -11.2627 -11.2592
-11.2532 -11.2525 -11.2506  -8.9925  -6.6733  -6.6729  -6.6722  -1.4187
 -1.4119  -1.3966  -1.3910  -1.2616  -1.2551  -1.2296  -1.1868  -1.1523
 -1.1135  -1.0865  -1.0462  -0.9960  -0.9875  -0.9843  -0.9547  -0.9507
 -0.8956  -0.8866  -0.8764  -0.8598  -0.7929  -0.7752  -0.7723  -0.7684
 -0.7399  -0.7155  -0.7037  -0.6910  -0.6763  -0.6705  -0.6671  -0.6569
 -0.6467  -0.6420  -0.6377  -0.6314  -0.6306  -0.6264  -0.6225  -0.6048
 -0.5846  -0.5744  -0.5661  -0.5609  -0.5564  -0.5510  -0.5497  -0.5475
 -0.5462  -0.5435  -0.5222  -0.5154  -0.5079  -0.4806  -0.4744  -0.4690
 -0.4569  -0.4507  -0.4424  -0.4344  -0.4130  -0.4072  -0.3557  -0.3514
 -0.3278  -0.2880
 -- Virtual --
  0.0150   0.0438   0.0874   0.0921   0.1311   0.1495   0.1536   0.1613
  0.1641   0.1737   0.1813   0.1835   0.1853   0.1899   0.1957   0.2025
  0.2054   0.2190   0.2231   0.2285   0.2308   0.2326   0.2358   0.2426
  0.2672   0.2693   0.2947   0.3040   0.3108   0.3140   0.3242   0.3252
  0.3308   0.3421   0.3445   0.3501   0.3560   0.3601   0.3636   0.3719
  0.3725   0.3763   0.3834   0.3871   0.3882   0.3970   0.4017   0.4081
  0.4142   0.4198   0.4281   0.4308   0.4360   0.4394   0.4454   0.4485
  0.4520   0.4572   0.4623   0.4707   0.4730   0.4799   0.4871   0.4901
  0.4973   0.5009   0.5030   0.5111   0.5136   0.5223   0.5237   0.5283
  0.5307   0.5366   0.5380   0.5450   0.5507   0.5542   0.5636   0.5665
  0.5704   0.5762   0.5805   0.5841   0.5903   0.5909   0.5919   0.5972
  0.6020   0.6036   0.6074   0.6121   0.6152   0.6174   0.6208   0.6253
  0.6293   0.6342   0.6370   0.6382   0.6395   0.6438   0.6465   0.6526
  0.6613   0.6629   0.6699   0.6805   0.6834   0.6898   0.6949   0.7032
  0.7063   0.7113   0.7209   0.7312   0.7335   0.7408   0.7482   0.7504
  0.7606   0.7657   0.7677   0.7714   0.7829   0.7862   0.7893   0.7997
  0.8061   0.8106   0.8200   0.8239   0.8298   0.8347   0.8414   0.8449
  0.8483   0.8537   0.8576   0.8626   0.8690   0.8733   0.8752   0.8842
  0.8862   0.8991   0.9066   0.9145   0.9149   0.9201   0.9222   0.9299
  0.9342   0.9407   0.9472   0.9517   0.9609   0.9691   0.9713   0.9821
  0.9836   0.9853   0.9913   0.9985   1.0043   1.0055   1.0096   1.0158
  1.0252   1.0268   1.0314   1.0409   1.0470   1.0540   1.0632   1.0656
  1.0680   1.0704   1.0746   1.0795   1.0814   1.0842   1.0925   1.1048
  1.1052   1.1117   1.1193   1.1267   1.1330   1.1375   1.1402   1.1461
  1.1481   1.1540   1.1612   1.1655   1.1700   1.1732   1.1793   1.1910
  1.1934   1.1960   1.2029   1.2080   1.2123   1.2184   1.2238   1.2266
  1.2312   1.2364   1.2411   1.2469   1.2537   1.2561   1.2675   1.2815
  1.2833   1.2895   1.2996   1.3073   1.3115   1.3206   1.3304   1.3382
  1.3453   1.3512   1.3534   1.3569   1.3697   1.3744   1.3769   1.3862
  1.3890   1.3944   1.4007   1.4069   1.4214   1.4282   1.4327   1.4422
  1.4475   1.4529   1.4633   1.4664   1.4773   1.4814   1.4872   1.4913
  1.4974   1.5063   1.5109   1.5124   1.5240   1.5283   1.5355   1.5367
  1.5411   1.5436   1.5518   1.5594   1.5651   1.5700   1.5718   1.5797
  1.5857   1.5940   1.5996   1.6059   1.6183   1.6263   1.6300   1.6426
  1.6485   1.6574   1.6655   1.6716   1.6837   1.6890   1.6907   1.6950
  1.7040   1.7094   1.7190   1.7364   1.7384   1.7450   1.7538   1.7550
  1.7620   1.7687   1.7712   1.7821   1.7884   1.7983   1.8055   1.8129
  1.8157   1.8224   1.8413   1.8458   1.8510   1.8628   1.8692   1.8748
  1.8791   1.8853   1.8879   1.8952   1.9107   1.9112   1.9148   1.9404
  1.9545   1.9599   1.9716   1.9780   1.9828   1.9916   2.0067   2.0231
  2.0296   2.0332   2.0537   2.0592   2.0913   2.1039   2.1061   2.1142
  2.1334   2.1417   2.1579   2.1646   2.1861   2.2018   2.2072   2.2223
  2.2298   2.2377   2.2501   2.2711   2.2816   2.2931   2.2943   2.3026
  2.3178   2.3299   2.3343   2.3445   2.3599   2.3678   2.3710   2.3854
  2.3999   2.4178   2.4268   2.4376   2.4444   2.4551   2.4590   2.4675
  2.4703   2.4857   2.4961   2.5049   2.5119   2.5214   2.5320   2.5462
  2.5556   2.5639   2.5809   2.5850   2.5882   2.6005   2.6121   2.6194
  2.6294   2.6365   2.6376   2.6450   2.6495   2.6574   2.6725   2.6820
  2.6851   2.6876   2.6948   2.7003   2.7188   2.7226   2.7295   2.7324
  2.7431   2.7485   2.7526   2.7609   2.7695   2.7767   2.7925   2.7982
  2.8035   2.8198   2.8405   2.8458   2.8536   2.8541   2.8639   2.8668
  2.8768   2.8801   2.8860   2.8905   2.9002   2.9059   2.9134   2.9145
  2.9225   2.9257   2.9335   2.9465   2.9526   2.9580   2.9641   2.9715
  2.9774   2.9795   2.9878   2.9977   3.0099   3.0164   3.0221   3.0242
  3.0313   3.0413   3.0497   3.0574   3.0613   3.0725   3.0847   3.0904
  3.0938   3.1022   3.1071   3.1080   3.1090   3.1118   3.1136   3.1207
  3.1340   3.1408   3.1425   3.1499   3.1571   3.1608   3.1671   3.1744
  3.1773   3.1926   3.1952   3.2022   3.2086   3.2165   3.2183   3.2195
  3.2276   3.2366   3.2440   3.2461   3.2505   3.2568   3.2631   3.2680
  3.2699   3.2729   3.2766   3.2872   3.2921   3.2982   3.3041   3.3051
  3.3126   3.3176   3.3199   3.3262   3.3298   3.3320   3.3344   3.3417
  3.3435   3.3475   3.3494   3.3534   3.3593   3.3652   3.3722   3.3751
  3.3818   3.3837   3.3890   3.3958   3.3982   3.3995   3.4018   3.4128
  3.4164   3.4208   3.4271   3.4321   3.4371   3.4409   3.4471   3.4494
  3.4522   3.4601   3.4649   3.4671   3.4745   3.4770   3.4900   3.4938
  3.4975   3.5022   3.5049   3.5061   3.5144   3.5170   3.5227   3.5295
  3.5313   3.5387   3.5511   3.5529   3.5564   3.5651   3.5676   3.5750
  3.5887   3.5921   3.5945   3.6059   3.6074   3.6152   3.6187   3.6269
  3.6322   3.6360   3.6364   3.6436   3.6452   3.6464   3.6562   3.6611
  3.6720   3.6756   3.6806   3.6912   3.6944   3.7000   3.7051   3.7143
  3.7154   3.7250   3.7333   3.7364   3.7446   3.7479   3.7507   3.7523
  3.7547   3.7654   3.7697   3.7738   3.7791   3.7921   3.7952   3.7984
  3.8090   3.8130   3.8167   3.8198   3.8282   3.8358   3.8411   3.8483
  3.8530   3.8576   3.8618   3.8664   3.8725   3.8896   3.8937   3.9021
  3.9080   3.9136   3.9178   3.9293   3.9392   3.9431   3.9479   3.9552
  3.9622   3.9647   3.9719   3.9766   3.9811   3.9921   3.9982   4.0106
  4.0135   4.0257   4.0338   4.0367   4.0482   4.0613   4.0617   4.0817
  4.0950   4.1085   4.1111   4.1171   4.1215   4.1265   4.1301   4.1426
  4.1471   4.1498   4.1591   4.1687   4.1760   4.1868   4.1987   4.2056
  4.2115   4.2199   4.2248   4.2396   4.2420   4.2433   4.2530   4.2591
  4.2643   4.2735   4.2762   4.2829   4.2882   4.2888   4.2991   4.3059
  4.3105   4.3167   4.3213   4.3290   4.3344   4.3438   4.3470   4.3510
  4.3576   4.3669   4.3699   4.3716   4.3735   4.3803   4.3859   4.3944
  4.4020   4.4066   4.4125   4.4204   4.4298   4.4374   4.4487   4.4610
  4.4713   4.4872   4.4921   4.4925   4.5027   4.5118   4.5249   4.5266
  4.5344   4.5460   4.5467   4.5562   4.5669   4.5762   4.5827   4.5865
  4.5883   4.5973   4.6031   4.6104   4.6194   4.6238   4.6325   4.6363
  4.6420   4.6543   4.6670   4.6767   4.6907   4.6937   4.6990   4.7055
  4.7150   4.7327   4.7382   4.7432   4.7743   4.7841   4.7954   4.8034
  4.8104   4.8270   4.8339   4.8432   4.8510   4.8586   4.8698   4.8730
  4.8849   4.8861   4.8994   4.9212   4.9393   4.9467   4.9528   4.9664
  4.9750   4.9891   5.0146   5.0296   5.0398   5.0412   5.0505   5.0538
  5.0743   5.0947   5.1013   5.1210   5.1226   5.1274   5.1317   5.1382
  5.1534   5.1652   5.1721   5.1819   5.1947   5.1996   5.2232   5.2367
  5.2588   5.2634   5.2725   5.2849   5.2963   5.3059   5.3196   5.3279
  5.3308   5.3384   5.3462   5.3693   5.3776   5.3852   5.4032   5.4162
  5.4389   5.4416   5.4721   5.4895   5.4898   5.5059   5.5145   5.5155
  5.5188   5.5416   5.5438   5.5516   5.5584   5.5631   5.5641   5.5679
  5.5776   5.5832   5.5864   5.5940   5.6088   5.6182   5.6241   5.6348
  5.6480   5.6526   5.6609   5.6658   5.6670   5.6737   5.6929   5.6944
  5.6965   5.7094   5.7196   5.7422   5.7534   5.7646   5.7704   5.7759
  5.7850   5.7909   5.8035   5.8316   5.8379   5.8488   5.8822   5.9048
  5.9219   5.9551   5.9574   5.9827   6.0033   6.0247   6.0319   6.0418
  6.0507   6.0784   6.0972   6.1120   6.1237   6.1327   6.1474   6.1862
  6.2028   6.2200   6.2258   6.2265   6.2423   6.2639   6.2686   6.2835
  6.3097   6.3184   6.3238   6.3498   6.3661   6.3876   6.4280   6.4842
  6.5189   6.5339   6.5752   6.5831   6.6023   6.6152   6.6593   6.6676
  6.6743   6.7004   6.8464   6.8505   6.8884   6.9024   6.9055   6.9231
  6.9275   6.9421   7.1012   7.1088   7.1477   7.1934   7.1999   7.2357
  7.3477   7.3523   7.3574   7.3610   7.4761   7.5447   7.5712   7.5834
  7.5904   7.5990   7.6539   7.6786   7.6926   7.7149   8.8778  10.0782
 10.2936  11.3204  11.5259  11.7474  12.0473  12.0835  12.4253  12.4559
 12.9061  13.1955  13.3224  13.5490  13.7793  13.9257  14.1324  14.2649
 14.3146  14.3611  14.5167  14.5429  15.0432  15.6060  15.8278  16.3237
 --------------------------------------------------------------
 
          Ground-State Mulliken Net Atomic Charges

     Atom                 Charge (a.u.)
  ----------------------------------------
      1 C                    -0.084784
      2 C                    -0.029988
      3 C                    -0.112439
      4 C                    -0.121797
      5 H                     0.198536
      6 C                     0.008589
      7 C                     0.120674
      8 C                    -0.070221
      9 C                    -0.142998
     10 C                    -0.168741
     11 C                     0.244476
     12 H                     0.193419
     13 C                     0.343794
     14 C                     0.350225
     15 N                    -0.089891
     16 C                     0.357090
     17 C                     0.353183
     18 N                    -0.089796
     19 O                    -0.494662
     20 O                    -0.507475
     21 O                    -0.501900
     22 O                    -0.469017
     23 C                    -0.204778
     24 H                     0.139322
     25 H                     0.109143
     26 H                     0.109065
     27 C                    -0.197394
     28 H                     0.133189
     29 H                     0.111647
     30 H                     0.110934
     31 C                    -0.086188
     32 S                     0.008546
     33 C                    -0.212038
     34 C                    -0.158273
     35 C                    -0.202133
     36 H                     0.185048
     37 H                     0.190302
     38 H                     0.213058
     39 H                     0.137387
     40 H                     0.137646
     41 H                     0.189240
  ----------------------------------------
  Sum of atomic charges =     0.000000

 -----------------------------------------------------------------
                    Cartesian Multipole Moments
 -----------------------------------------------------------------
    Charge (ESU x 10^10)
                 0.0000
    Dipole Moment (Debye)
         X       1.7382      Y       2.4702      Z      -0.6807
       Tot       3.0962
    Quadrupole Moments (Debye-Ang)
        XX    -191.4809     XY      -5.7901     YY    -178.6124
        XZ      10.9943     YZ       2.5330     ZZ    -160.1303
    Octopole Moments (Debye-Ang^2)
       XXX     -85.2213    XXY     583.7431    XYY      41.9756
       YYY    1693.3351    XXZ     -11.3521    XYZ     -43.0138
       YYZ     -23.8184    XZZ     -23.6784    YZZ     489.0227
       ZZZ     -39.4710
    Hexadecapole Moments (Debye-Ang^3)
      XXXX   -5648.3163   XXXY    -147.9881   XXYY   -4279.3157
      XYYY   -1138.3817   YYYY  -18064.9470   XXXZ    1033.6614
      XXYZ     -74.4844   XYYZ     599.1984   YYYZ     368.0615
      XXZZ   -1123.5560   XYZZ     -94.0526   YYZZ   -2863.5557
      XZZZ     928.1071   YZZZ      73.0643   ZZZZ   -1143.7623
 -----------------------------------------------------------------
 Total job time:  295.08s(wall), 9065.98s(cpu) 
 Wed Dec 27 10:30:45 2023

        *************************************************************
        *                                                           *
        *  Thank you very much for using Q-Chem.  Have a nice day.  *
        *                                                           *
        *************************************************************


0 sent ACK to 0 
now end server 0 ... 
cleanup process ... done
remove work dirs ./qchem1506930.0 -- ./qchem1506930.0
rm -rf ./qchem1506930.0
rm -rf ./qchem1506930
