You are running Q-Chem version: 5.4.0

#
# job setting
#
local host:  exp-1-49
current dir: /home/rramji/project-csd799/aromodel/pndit-qchem/hydrogenated-rotation-run
input file:  Dimethyl_Naphthalene_Dicarboximide_Phi_5_Theta_0_Thiophene_Hydrogenated.qcin
output file: 
nprocs     : 1
nthreads   : 64
#
# qchem installation setting
#
QC:          /cm/shared/apps/spack/cpu/opt/spack/linux-centos8-zen2/gcc-10.2.0/qchem-5.4-akfmr7b3t57bfs6qan3padb2wnb2i7cl
QCAUX:       /cm/shared/apps/spack/cpu/opt/spack/linux-centos8-zen2/gcc-10.2.0/qchem-5.4-akfmr7b3t57bfs6qan3padb2wnb2i7cl/qcaux
QCPROG:      /cm/shared/apps/spack/cpu/opt/spack/linux-centos8-zen2/gcc-10.2.0/qchem-5.4-akfmr7b3t57bfs6qan3padb2wnb2i7cl/exe/qcprog.exe
QCPROG_S:    /cm/shared/apps/spack/cpu/opt/spack/linux-centos8-zen2/gcc-10.2.0/qchem-5.4-akfmr7b3t57bfs6qan3padb2wnb2i7cl/exe/qcprog.exe_s
PARALLEL:    -DPARALLEL
QCMPI:       mpich
#
# qchem directory setting
#
qcrun:       qchem393829
QCSCRATCH:   .
QCLOCALSCR:  
QCTMPDIR:    .
QCFILEPREF:  ./qchem393829
QCSAVEDIR:   
workdirs:    ./qchem393829
workdir0:    ./qchem393829
partmpdirs =  
#
# parallel setting
#
QCRSH:           ssh
QCMPI:           mpich
QCMPIRUN:        /cm/shared/apps/spack/cpu/opt/spack/linux-centos8-zen2/gcc-10.2.0/qchem-5.4-akfmr7b3t57bfs6qan3padb2wnb2i7cl/bin/mpi/mpirun_qchem
QCMACHINEFILE:   ./qchem393829/hostfile
exp-1-49

#
# env setting
#
exported envs:   QC QCAUX QCSCRATCH QCRUNNAME QCFILEPREF QCPROG QCPROG_S GUIFILE

Running Job 1 of 1 Dimethyl_Naphthalene_Dicarboximide_Phi_5_Theta_0_Thiophene_Hydrogenated.qcin
qchem Dimethyl_Naphthalene_Dicarboximide_Phi_5_Theta_0_Thiophene_Hydrogenated.qcin_393829.0 ./qchem393829/ 1
/cm/shared/apps/spack/cpu/opt/spack/linux-centos8-zen2/gcc-10.2.0/qchem-5.4-akfmr7b3t57bfs6qan3padb2wnb2i7cl/bin/mpi/mpirun_qchem -machinefile ./qchem393829/hostfile -np 1 /cm/shared/apps/spack/cpu/opt/spack/linux-centos8-zen2/gcc-10.2.0/qchem-5.4-akfmr7b3t57bfs6qan3padb2wnb2i7cl/exe/qcprog.exe Dimethyl_Naphthalene_Dicarboximide_Phi_5_Theta_0_Thiophene_Hydrogenated.qcin_393829.0 ./qchem393829/

Process 0 of 1 is on exp-1-49 - thread support 0
initial socket setup ...start
initial socket setup ...done 
now start server 0 ... 
                  Welcome to Q-Chem
     A Quantum Leap Into The Future Of Chemistry


 Q-Chem 5.4, Q-Chem, Inc., Pleasanton, CA (2021)

 License issued to: University of California, San Diego (site)

 E. Epifanovsky,  A. T. B. Gilbert,  Xintian Feng,  Joonho Lee,  Yuezhi Mao,  
 N. Mardirossian,  P. Pokhilko,  A. White,  M. Wormit,  M. P. Coons,  
 A. L. Dempwolff,  Zhengting Gan,  D. Hait,  P. R. Horn,  L. D. Jacobson,  
 I. Kaliman,  J. Kussmann,  A. W. Lange,  Ka Un Lao,  D. S. Levine,  Jie Liu,  
 S. C. McKenzie,  A. F. Morrison,  K. Nanda,  F. Plasser,  D. R. Rehn,  
 M. L. Vidal,  Zhi-Qiang You,  Ying Zhu,  B. Alam,  B. Albrecht,  
 A. Aldossary,  E. Alguire,  J. H. Andersen,  D. Barton,  K. Begam,  A. Behn,  
 Y. A. Bernard,  E. J. Berquist,  H. Burton,  A. Carreras,  K. Carter-Fenk,  
 R. Chakraborty,  A. D. Chien,  K. D. Closser,  V. Cofer-Shabica,  
 S. Dasgupta,  Jia Deng,  M. de Wergifosse,  M. Diedenhofen,  Hainam Do,  
 S. Ehlert,  Po-Tung Fang,  S. Fatehi,  Qingguo Feng,  J. Gayvert,  
 Qinghui Ge,  G. Gidofalvi,  M. Goldey,  J. Gomes,  C. Gonzalez-Espinoza,  
 S. Gulania,  A. Gunina,  M. W. D. Hanson-Heine,  P. H. P. Harbach,  
 A. W. Hauser,  M. F. Herbst,  M. Hernandez Vera,  M. Hodecker,  
 Z. C. Holden,  S. Houck,  Xunkun Huang,  Kerwin Hui,  B. C. Huynh,  
 M. Ivanov,  Hyunjun Ji,  Hanjie Jiang,  B. Kaduk,  S. Kaehler,  
 K. Khistyaev,  Jaehoon Kim,  P. Klunzinger,  Z. Koczor-Benda,  
 Joong Hoon Koh,  D. Kosenkov,  L. Koulias,  T. Kowalczyk,  C. M. Krauter,  
 K. Kue,  A. Kunitsa,  T. Kus,  A. Landau,  K. V. Lawler,  D. Lefrancois,  
 S. Lehtola,  Rain Li,  Yi-Pei Li,  Jiashu Liang,  M. Liebenthal,  
 Hung-Hsuan Lin,  You-Sheng Lin,  Fenglai Liu,  Kuan-Yu Liu,  
 M. Loipersberger,  A. Luenser,  A. Manjanath,  P. Manohar,  E. Mansoor,  
 S. F. Manzer,  Shan-Ping Mao,  A. V. Marenich,  T. Markovich,  S. Mason,  
 S. A. Maurer,  P. F. McLaughlin,  M. F. S. J. Menger,  J.-M. Mewes,  
 S. A. Mewes,  P. Morgante,  J. W. Mullinax,  T. S. Nguyen-Beck,  
 K. J. Oosterbaan,  G. Paran,  Alexander C. Paul,  Suranjan K. Paul,  
 F. Pavosevic,  Zheng Pei,  S. Prager,  E. I. Proynov,  E. Ramos,  B. Rana,  
 A. E. Rask,  A. Rettig,  R. M. Richard,  F. Rob,  E. Rossomme,  T. Scheele,  
 M. Scheurer,  M. Schneider,  N. Sergueev,  S. M. Sharada,  W. Skomorowski,  
 D. W. Small,  C. J. Stein,  Yu-Chuan Su,  E. J. Sundstrom,  Zhen Tao,  
 J. Thirman,  T. Tsuchimochi,  N. M. Tubman,  S. P. Veccham,  O. Vydrov,  
 J. Wenzel,  J. Witte,  A. Yamada,  Kun Yao,  S. Yeganeh,  S. R. Yost,  
 A. Zech,  Igor Ying Zhang,  Xing Zhang,  Yu Zhang,  D. Zuev,  
 A. Aspuru-Guzik,  A. T. Bell,  N. A. Besley,  K. B. Bravaya,  B. R. Brooks,  
 D. Casanova,  Jeng-Da Chai,  S. Coriani,  C. J. Cramer,  
 A. E. DePrince, III,  R. A. DiStasio Jr.,  A. Dreuw,  B. D. Dunietz,  
 T. R. Furlani,  W. A. Goddard III,  S. Grimme,  S. Hammes-Schiffer,  
 T. Head-Gordon,  W. J. Hehre,  Chao-Ping Hsu,  T.-C. Jagau,  Yousung Jung,  
 A. Klamt,  Jing Kong,  D. S. Lambrecht,  WanZhen Liang,  N. J. Mayhall,  
 C. W. McCurdy,  J. B. Neaton,  C. Ochsenfeld,  J. A. Parkhill,  R. Peverati,  
 V. A. Rassolov,  Yihan Shao,  L. V. Slipchenko,  T. Stauch,  R. P. Steele,  
 J. E. Subotnik,  A. J. W. Thom,  A. Tkatchenko,  D. G. Truhlar,  
 T. Van Voorhis,  T. A. Wesolowski,  K. B. Whaley,  H. L. Woodcock III,  
 P. M. Zimmerman,  S. Faraji,  P. M. W. Gill,  M. Head-Gordon,  
 J. M. Herbert,  A. I. Krylov

 Contributors to earlier versions of Q-Chem not listed above: 
 R. D. Adamson,  B. Austin,  R. Baer,  J. Baker,  G. J. O. Beran,  
 K. Brandhorst,  S. T. Brown,  E. F. C. Byrd,  A. K. Chakraborty,  
 G. K. L. Chan,  Chun-Min Chang,  Yunqing Chen,  C.-L. Cheng,  
 Siu Hung Chien,  D. M. Chipman,  D. L. Crittenden,  H. Dachsel,  
 R. J. Doerksen,  A. D. Dutoi,  R. G. Edgar,  J. Fosso-Tande,  
 L. Fusti-Molnar,  D. Ghosh,  A. Ghysels,  A. Golubeva-Zadorozhnaya,  
 J. Gonthier,  M. S. Gordon,  S. R. Gwaltney,  G. Hawkins,  J. E. Herr,  
 A. Heyden,  S. Hirata,  E. G. Hohenstein,  G. Kedziora,  F. J. Keil,  
 C. Kelley,  Jihan Kim,  R. A. King,  R. Z. Khaliullin,  P. P. Korambath,  
 W. Kurlancheek,  A. Laurent,  A. M. Lee,  M. S. Lee,  S. V. Levchenko,  
 Ching Yeh Lin,  D. Liotard,  E. Livshits,  R. C. Lochan,  I. Lotan,  
 L. A. Martinez-Martinez,  P. E. Maslen,  N. Nair,  D. P. O'Neill,  
 D. Neuhauser,  E. Neuscamman,  C. M. Oana,  R. Olivares-Amaya,  R. Olson,  
 T. M. Perrine,  B. Peters,  P. A. Pieniazek,  A. Prociuk,  Y. M. Rhee,  
 J. Ritchie,  M. A. Rohrdanz,  E. Rosta,  N. J. Russ,  H. F. Schaefer III,  
 M. W. Schmidt,  N. E. Schultz,  S. Sharma,  N. Shenvi,  C. D. Sherrill,  
 A. C. Simmonett,  A. Sodt,  T. Stein,  D. Stuck,  K. S. Thanthiriwatte,  
 V. Vanovschi,  L. Vogt,  Tao Wang,  A. Warshel,  M. A. Watson,  
 C. F. Williams,  Q. Wu,  X. Xu,  Jun Yang,  W. Zhang,  Yan Zhao

 Please cite Q-Chem as follows:
 Y. Shao et al., Mol. Phys. 113, 184-215 (2015)
 DOI: 10.1080/00268976.2014.952696

 Q-Chem 5.4.0 for Intel X86 EM64T Linux

 Parts of Q-Chem use Armadillo 9.800.1 (Horizon Scraper).
 http://arma.sourceforge.net/

 Q-Chem begins on Wed Dec 27 09:50:46 2023  

 Host: 
0

     Scratch files written to ./qchem393829//
 May1621 |scratch|qcdevops|jenkins|workspace|build_RNUM    
 Parallel job on  1  processors
 Processing $rem in /cm/shared/apps/spack/cpu/opt/spack/linux-centos8-zen2/gcc-10.2.0/qchem-5.4-akfmr7b3t57bfs6qan3padb2wnb2i7cl/config/preferences:
 Processing $rem in /home/rramji/.qchemrc:
 Symmetry turned off for PCM/SM12/SMD calculation
 Core orbitals will be frozen

 Checking the input file for inconsistencies... 	...done.

 Q-Chem warning in module forms1/BasisType.C, line 2236:

 You are not using the predefined 5D/6D in this basis set.


--------------------------------------------------------------
User input:
--------------------------------------------------------------
$molecule
0 1
C	0.586080	-6.715879	-0.256927
C	0.534902	-6.132354	-1.562675
C	0.502834	-5.769583	0.827197
C	0.417309	-4.785626	-1.841253
H	0.592747	-6.795716	-2.440709
C	0.380402	-4.362083	0.535488
C	0.333638	-3.823504	-0.794999
C	0.296812	-3.400131	1.580529
C	0.211295	-2.417255	-1.084374
C	0.179438	-2.051515	1.305258
C	0.128835	-1.472591	0.000000
H	0.121931	-1.389444	2.184267
C	0.535563	-6.164769	2.269719
C	0.330267	-3.783778	3.011152
N	0.448140	-5.150545	3.254617
C	0.384235	-4.408274	-3.275775
C	0.178078	-2.028827	-2.527951
N	0.265353	-3.037588	-3.513104
O	0.634270	-7.325728	2.661046
O	0.260493	-2.975473	3.934410
O	0.455333	-5.229160	-4.188059
O	0.078594	-0.875310	-2.940845
C	0.481421	-5.542933	4.667206
H	0.576173	-6.639132	4.712423
H	-0.445595	-5.205747	5.169231
H	1.336290	-5.051542	5.169992
C	0.225553	-2.577637	-4.904229
H	0.302574	-3.470163	-5.546833
H	1.062399	-1.879530	-5.095998
H	-0.718592	-2.033299	-5.095858
C	0.000000	0.000000	0.000000
S	-0.000201	0.793171	1.580530
C	-0.000228	2.430885	0.904911
C	-0.000168	0.997990	-0.985400
C	-0.000267	2.318231	-0.493528
H	-0.000145	0.762343	-2.059934
H	-0.000339	3.199164	-1.152593
H	-0.000311	3.311566	1.556025
H	1.534971	-7.255416	-0.149881
H	-0.255105	-7.411629	-0.150656
H	1.204779	-1.379075	0.000531
$end

$rem
JOBTYPE		SP
EXCHANGE	HF
CORRELATION	pRIMP2
BASIS		cc-pvtz
METHOD		rimp2
AUX_BASIS	rimp2-cc-pvtz
SOLVENT_METHOD	PCM
PURECART	11111
SYMMETRY	false
MEM_TOTAL	110000
SCF_CONVERGENCE = 6
THRESH=10
GUI = 2
$end



$solvent
dielectric 4.90
$end
--------------------------------------------------------------
 ----------------------------------------------------------------
             Standard Nuclear Orientation (Angstroms)
    I     Atom           X                Y                Z
 ----------------------------------------------------------------
    1      C       0.5860800000    -6.7158790000    -0.2569270000
    2      C       0.5349020000    -6.1323540000    -1.5626750000
    3      C       0.5028340000    -5.7695830000     0.8271970000
    4      C       0.4173090000    -4.7856260000    -1.8412530000
    5      H       0.5927470000    -6.7957160000    -2.4407090000
    6      C       0.3804020000    -4.3620830000     0.5354880000
    7      C       0.3336380000    -3.8235040000    -0.7949990000
    8      C       0.2968120000    -3.4001310000     1.5805290000
    9      C       0.2112950000    -2.4172550000    -1.0843740000
   10      C       0.1794380000    -2.0515150000     1.3052580000
   11      C       0.1288350000    -1.4725910000     0.0000000000
   12      H       0.1219310000    -1.3894440000     2.1842670000
   13      C       0.5355630000    -6.1647690000     2.2697190000
   14      C       0.3302670000    -3.7837780000     3.0111520000
   15      N       0.4481400000    -5.1505450000     3.2546170000
   16      C       0.3842350000    -4.4082740000    -3.2757750000
   17      C       0.1780780000    -2.0288270000    -2.5279510000
   18      N       0.2653530000    -3.0375880000    -3.5131040000
   19      O       0.6342700000    -7.3257280000     2.6610460000
   20      O       0.2604930000    -2.9754730000     3.9344100000
   21      O       0.4553330000    -5.2291600000    -4.1880590000
   22      O       0.0785940000    -0.8753100000    -2.9408450000
   23      C       0.4814210000    -5.5429330000     4.6672060000
   24      H       0.5761730000    -6.6391320000     4.7124230000
   25      H      -0.4455950000    -5.2057470000     5.1692310000
   26      H       1.3362900000    -5.0515420000     5.1699920000
   27      C       0.2255530000    -2.5776370000    -4.9042290000
   28      H       0.3025740000    -3.4701630000    -5.5468330000
   29      H       1.0623990000    -1.8795300000    -5.0959980000
   30      H      -0.7185920000    -2.0332990000    -5.0958580000
   31      C       0.0000000000     0.0000000000     0.0000000000
   32      S      -0.0002010000     0.7931710000     1.5805300000
   33      C      -0.0002280000     2.4308850000     0.9049110000
   34      C      -0.0001680000     0.9979900000    -0.9854000000
   35      C      -0.0002670000     2.3182310000    -0.4935280000
   36      H      -0.0001450000     0.7623430000    -2.0599340000
   37      H      -0.0003390000     3.1991640000    -1.1525930000
   38      H      -0.0003110000     3.3115660000     1.5560250000
   39      H       1.5349710000    -7.2554160000    -0.1498810000
   40      H      -0.2551050000    -7.4116290000    -0.1506560000
   41      H       1.2047790000    -1.3790750000     0.0005310000
 ----------------------------------------------------------------
 Nuclear Repulsion Energy =        2553.40751242 hartrees
 There are       98 alpha and       98 beta electrons
 Requested basis set is cc-pVTZ
 There are 356 shells and 1010 basis functions

 Total QAlloc Memory Limit 110000 MB
 Mega-Array Size       188 MB
 MEM_STATIC part       192 MB
 Discretize the solute cavity surface with Lebedev spheres
	Using 110 Lebedev grid points for each H atom
	Using 194 Lebedev grid points for other atoms
	Atomic van der Waals radii will be scaled by 1.20
 Remove points where switching function is < 1.0e-08
 Keep 2574 surface tesserae and discard 4204 interior tesserae
 Molecular Surface Area = 363.457 Angst**2
 Requested basis set is rimp2-cc-pVTZ
 There are 770 shells and 2648 basis functions
 A cutoff of  1.0D-10 yielded  34182 shell pairs
 There are    258606 function pairs (    334696 Cartesian)
 Smallest overlap matrix eigenvalue = 8.96E-06

 Q-Chem warning in module stvman/mkSTV.C, line 323:

 Overlap eigenvalue is smaller than square root of threshold
 Use THRESH >= 12 to get rid of this warning


 Scale SEOQF with 1.000000e-01/1.000000e-02/1.000000e-02

 Standard Electronic Orientation quadrupole field applied
 Nucleus-field energy     =     0.0000000099 hartrees
 Guess from superposition of atomic densities
 Warning:  Energy on first SCF cycle will be non-variational
 SAD guess density has 196.000000 electrons

 -----------------------------------------------------------------------
  General SCF calculation program by
  Eric Jon Sundstrom, Paul Horn, Yuezhi Mao, Dmitri Zuev, Alec White,
  David Stuck, Shaama M.S., Shane Yost, Joonho Lee, David Small,
  Daniel Levine, Susi Lehtola, Hugh Burton, Evgeny Epifanovsky,
  Bang C. Huynh
 -----------------------------------------------------------------------
 Hartree-Fock
 using 64 threads for integral computing
 -------------------------------------------------------
 OpenMP Integral computing Module                
 Release: version 1.0, May 2013, Q-Chem Inc. Pittsburgh 
 -------------------------------------------------------
 A restricted SCF calculation will be
 performed using DIIS
 SCF converges when DIIS error is below 1.0e-06
 ---------------------------------------
  Cycle       Energy         DIIS error
 ---------------------------------------
    1   -1583.2020988358      1.87e-02  
    2   -1571.1524831737      2.03e-03  
    3   -1571.4960930962      1.54e-03  
    4   -1571.7175978188      2.54e-04  
    5   -1571.7314464065      7.87e-05  
    6   -1571.7328727116      3.02e-05  
    7   -1571.7332917609      1.55e-05  
    8   -1571.7334060323      6.06e-06  
    9   -1571.7334255202      2.88e-06  
   10   -1571.7334293596      1.22e-06  
   11   -1571.7334306176      5.94e-07  Convergence criterion met
 ---------------------------------------
 SCF time:   CPU 6821.01s  wall 267.00s 

************** Final PCM Free Energy Summary **************
 G_electrostatic  =      -0.02733513 hartree =     -17.15305298 kcal/mol
 G_cavitation     =       0.00000000 hartree =       0.00000000 kcal/mol
 G_dispersion     =       0.00000000 hartree =       0.00000000 kcal/mol
 G_repulsion      =       0.00000000 hartree =       0.00000000 kcal/mol
 --------------------------------------------------
 Non-electrostatic Free Energy =       0.00000000 hartree =       0.00000000 kcal/mol
 Total                         =      -0.02733513 hartree =     -17.15305298 kcal/mol
 --------------------------------------------------
 SCF Energy (H0 + V/2)                       =   -1571.73343062 
 Solute Internal Energy (H0)                 =   -1571.70609549 
 Total Free Energy (H0 + V/2 + non-elec)     =   -1571.73343062 hartree
                                             = -986277.61359984 kcal/mol
***********************************************************

 SCF   energy in the final basis set =    -1571.7334306176
 Total energy in the final basis set =    -1571.7334306176


 --------------------------------------------------------------
  Generalized many-body perturbation theory program
  by Joonho Lee, Fazle Rob, Xintian Feng, Evgeny Epifanovsky

 No regularization used 
 (reg. param. = 0.0000e+00)
  (P|Q)^-1/2 Time:  CPU 150.26 s  wall 3.06 s

 In RI-MP2 calculation: 
 # of frozen core orbitals: 31

 Components of the RIMP2 correlation energy:
        aaaa    correlation energy =        -0.6160144756 a.u.
        abab    correlation energy =        -3.4264509886 a.u.
        bbbb    correlation energy =        -0.6160144756 a.u.
        non-Brillouin singles      =        -0.0000000000 a.u.
        total same-spin energy     =        -1.2320289511 a.u.
        total opposite-spin energy =        -3.4264509886 a.u.

 Total  RIMP2   correlation energy =        -4.6584799397 a.u.
        RIMP2         total energy =     -1576.3919105573 a.u.

 RI-MP2 Energy Time:  CPU 2050.81 s  wall 34.55 s
 
 --------------------------------------------------------------
 
                    Orbital Energies (a.u.)
 --------------------------------------------------------------
 
 Alpha MOs
 -- Occupied --
-91.9894 -20.5541 -20.5461 -20.5428 -20.5418 -15.6295 -15.6222 -11.3984
-11.3868 -11.3846 -11.3803 -11.3106 -11.3101 -11.3069 -11.3058 -11.2985
-11.2981 -11.2930 -11.2737 -11.2711 -11.2695 -11.2679 -11.2645 -11.2598
-11.2540 -11.2459 -11.2344  -8.9894  -6.6703  -6.6698  -6.6691  -1.4243
 -1.4132  -1.4004  -1.3924  -1.2651  -1.2565  -1.2323  -1.1878  -1.1501
 -1.1159  -1.0879  -1.0493  -0.9957  -0.9890  -0.9814  -0.9562  -0.9495
 -0.8986  -0.8915  -0.8787  -0.8621  -0.7955  -0.7814  -0.7733  -0.7585
 -0.7401  -0.7211  -0.7025  -0.6899  -0.6829  -0.6748  -0.6689  -0.6586
 -0.6497  -0.6476  -0.6389  -0.6327  -0.6320  -0.6299  -0.6245  -0.6057
 -0.5933  -0.5714  -0.5637  -0.5607  -0.5576  -0.5526  -0.5520  -0.5494
 -0.5486  -0.5429  -0.5168  -0.5151  -0.5127  -0.4868  -0.4745  -0.4593
 -0.4582  -0.4498  -0.4433  -0.4369  -0.4163  -0.4086  -0.3579  -0.3495
 -0.3319  -0.2781
 -- Virtual --
  0.0112   0.0389   0.0876   0.1057   0.1436   0.1503   0.1568   0.1603
  0.1633   0.1701   0.1763   0.1792   0.1898   0.1965   0.2030   0.2064
  0.2149   0.2241   0.2260   0.2289   0.2318   0.2360   0.2477   0.2613
  0.2640   0.2730   0.3022   0.3119   0.3197   0.3212   0.3331   0.3353
  0.3381   0.3412   0.3460   0.3528   0.3543   0.3589   0.3645   0.3697
  0.3713   0.3859   0.3867   0.3879   0.3961   0.4000   0.4125   0.4166
  0.4219   0.4252   0.4286   0.4335   0.4402   0.4425   0.4467   0.4503
  0.4556   0.4591   0.4634   0.4706   0.4785   0.4835   0.4905   0.4942
  0.4958   0.5030   0.5127   0.5142   0.5185   0.5240   0.5263   0.5325
  0.5369   0.5395   0.5452   0.5501   0.5520   0.5598   0.5624   0.5652
  0.5753   0.5806   0.5841   0.5861   0.5896   0.5915   0.5957   0.6026
  0.6042   0.6068   0.6111   0.6119   0.6145   0.6167   0.6265   0.6278
  0.6292   0.6329   0.6346   0.6371   0.6389   0.6480   0.6607   0.6635
  0.6664   0.6714   0.6840   0.6891   0.6954   0.6970   0.7027   0.7055
  0.7093   0.7141   0.7266   0.7360   0.7391   0.7393   0.7579   0.7678
  0.7686   0.7708   0.7759   0.7871   0.7901   0.7979   0.8072   0.8093
  0.8178   0.8213   0.8259   0.8323   0.8351   0.8402   0.8409   0.8482
  0.8539   0.8616   0.8649   0.8701   0.8726   0.8758   0.8858   0.8901
  0.8961   0.8990   0.9125   0.9170   0.9194   0.9232   0.9272   0.9380
  0.9418   0.9442   0.9484   0.9585   0.9610   0.9687   0.9752   0.9803
  0.9831   0.9889   0.9958   1.0054   1.0085   1.0114   1.0182   1.0262
  1.0299   1.0381   1.0447   1.0530   1.0568   1.0582   1.0651   1.0679
  1.0703   1.0732   1.0745   1.0849   1.0860   1.0888   1.0961   1.1091
  1.1100   1.1182   1.1192   1.1208   1.1286   1.1311   1.1382   1.1437
  1.1520   1.1638   1.1659   1.1694   1.1802   1.1876   1.1898   1.1928
  1.1959   1.1967   1.2019   1.2078   1.2122   1.2212   1.2224   1.2275
  1.2301   1.2378   1.2406   1.2471   1.2504   1.2534   1.2707   1.2778
  1.2836   1.2869   1.2974   1.3044   1.3174   1.3215   1.3319   1.3418
  1.3484   1.3524   1.3638   1.3744   1.3812   1.3815   1.3831   1.3865
  1.3923   1.3965   1.4041   1.4077   1.4189   1.4265   1.4406   1.4457
  1.4524   1.4579   1.4677   1.4736   1.4786   1.4799   1.4923   1.4925
  1.5005   1.5062   1.5110   1.5147   1.5187   1.5305   1.5372   1.5448
  1.5499   1.5528   1.5594   1.5621   1.5695   1.5730   1.5759   1.5935
  1.5974   1.6017   1.6038   1.6109   1.6225   1.6332   1.6398   1.6462
  1.6540   1.6588   1.6655   1.6747   1.6807   1.6916   1.6955   1.7036
  1.7112   1.7184   1.7320   1.7351   1.7464   1.7475   1.7604   1.7635
  1.7691   1.7725   1.7787   1.7861   1.8036   1.8082   1.8132   1.8190
  1.8345   1.8382   1.8403   1.8550   1.8634   1.8683   1.8716   1.8730
  1.8750   1.8849   1.8947   1.9023   1.9199   1.9292   1.9396   1.9527
  1.9568   1.9668   1.9734   1.9846   1.9887   1.9923   2.0241   2.0281
  2.0408   2.0446   2.0686   2.0752   2.0956   2.0984   2.1084   2.1312
  2.1353   2.1556   2.1693   2.1759   2.1767   2.2165   2.2236   2.2271
  2.2441   2.2520   2.2634   2.2836   2.2888   2.2979   2.3018   2.3171
  2.3250   2.3308   2.3365   2.3530   2.3580   2.3615   2.3805   2.3959
  2.4149   2.4224   2.4316   2.4381   2.4491   2.4567   2.4647   2.4702
  2.4904   2.4965   2.5081   2.5082   2.5202   2.5419   2.5533   2.5638
  2.5683   2.5746   2.5776   2.5862   2.5908   2.5943   2.6105   2.6150
  2.6294   2.6391   2.6415   2.6520   2.6609   2.6723   2.6765   2.6802
  2.6920   2.6988   2.7044   2.7066   2.7158   2.7272   2.7334   2.7406
  2.7455   2.7468   2.7551   2.7606   2.7725   2.7785   2.7826   2.7976
  2.8181   2.8306   2.8346   2.8422   2.8537   2.8605   2.8642   2.8777
  2.8784   2.8808   2.8845   2.8893   2.8921   2.9062   2.9143   2.9161
  2.9192   2.9376   2.9436   2.9486   2.9573   2.9621   2.9736   2.9814
  2.9867   2.9925   2.9963   3.0004   3.0097   3.0149   3.0168   3.0306
  3.0329   3.0361   3.0395   3.0479   3.0618   3.0713   3.0793   3.0932
  3.0964   3.0995   3.1029   3.1041   3.1081   3.1127   3.1221   3.1266
  3.1319   3.1346   3.1459   3.1518   3.1633   3.1655   3.1770   3.1787
  3.1898   3.1949   3.2037   3.2064   3.2095   3.2108   3.2157   3.2294
  3.2345   3.2376   3.2455   3.2488   3.2540   3.2616   3.2635   3.2689
  3.2715   3.2769   3.2800   3.2879   3.2951   3.2977   3.2998   3.3068
  3.3140   3.3149   3.3167   3.3187   3.3283   3.3292   3.3355   3.3410
  3.3438   3.3493   3.3519   3.3555   3.3600   3.3664   3.3703   3.3768
  3.3806   3.3825   3.3916   3.3944   3.4003   3.4076   3.4121   3.4150
  3.4201   3.4266   3.4293   3.4372   3.4391   3.4453   3.4461   3.4505
  3.4579   3.4621   3.4710   3.4731   3.4739   3.4801   3.4872   3.4931
  3.4968   3.5036   3.5070   3.5120   3.5139   3.5213   3.5224   3.5292
  3.5354   3.5416   3.5443   3.5508   3.5606   3.5667   3.5782   3.5820
  3.5833   3.5905   3.5977   3.6045   3.6159   3.6224   3.6262   3.6317
  3.6321   3.6352   3.6412   3.6458   3.6519   3.6544   3.6568   3.6595
  3.6674   3.6800   3.6817   3.6900   3.6985   3.7016   3.7031   3.7107
  3.7144   3.7295   3.7309   3.7346   3.7376   3.7424   3.7455   3.7583
  3.7593   3.7641   3.7724   3.7758   3.7825   3.7920   3.8030   3.8052
  3.8118   3.8145   3.8183   3.8309   3.8339   3.8385   3.8413   3.8451
  3.8528   3.8645   3.8702   3.8740   3.8819   3.8953   3.8990   3.9089
  3.9144   3.9218   3.9242   3.9332   3.9469   3.9483   3.9518   3.9582
  3.9682   3.9718   3.9736   3.9840   3.9988   4.0008   4.0113   4.0179
  4.0269   4.0377   4.0425   4.0558   4.0617   4.0657   4.0694   4.0794
  4.0943   4.1034   4.1113   4.1212   4.1229   4.1314   4.1388   4.1439
  4.1532   4.1570   4.1614   4.1686   4.1708   4.1769   4.1823   4.2045
  4.2110   4.2221   4.2394   4.2424   4.2500   4.2538   4.2647   4.2685
  4.2728   4.2804   4.2810   4.2878   4.2907   4.3002   4.3067   4.3113
  4.3206   4.3236   4.3295   4.3329   4.3354   4.3444   4.3481   4.3598
  4.3659   4.3682   4.3709   4.3738   4.3822   4.3874   4.4000   4.4018
  4.4060   4.4089   4.4192   4.4237   4.4335   4.4450   4.4509   4.4632
  4.4735   4.4943   4.5005   4.5056   4.5145   4.5240   4.5246   4.5365
  4.5396   4.5485   4.5600   4.5628   4.5697   4.5752   4.5864   4.5920
  4.5973   4.6028   4.6098   4.6172   4.6213   4.6242   4.6323   4.6489
  4.6603   4.6699   4.6806   4.6896   4.6910   4.6991   4.7065   4.7131
  4.7204   4.7367   4.7504   4.7650   4.7843   4.7902   4.7988   4.8105
  4.8181   4.8374   4.8418   4.8505   4.8580   4.8629   4.8810   4.8860
  4.8909   4.9071   4.9198   4.9322   4.9463   4.9614   4.9819   4.9907
  4.9928   5.0016   5.0099   5.0172   5.0311   5.0422   5.0556   5.0618
  5.0892   5.1040   5.1144   5.1207   5.1264   5.1343   5.1401   5.1479
  5.1646   5.1734   5.1817   5.1908   5.1990   5.2214   5.2260   5.2437
  5.2611   5.2650   5.2850   5.2987   5.3007   5.3103   5.3290   5.3306
  5.3418   5.3443   5.3620   5.3766   5.3815   5.3901   5.4018   5.4144
  5.4421   5.4456   5.4731   5.4911   5.4962   5.5124   5.5155   5.5186
  5.5241   5.5296   5.5481   5.5552   5.5577   5.5647   5.5676   5.5721
  5.5798   5.5857   5.5953   5.6028   5.6092   5.6229   5.6286   5.6385
  5.6425   5.6487   5.6602   5.6618   5.6656   5.6692   5.6792   5.6916
  5.6941   5.7090   5.7215   5.7515   5.7568   5.7669   5.7720   5.7830
  5.7891   5.8025   5.8289   5.8338   5.8495   5.8676   5.9068   5.9201
  5.9519   5.9664   5.9785   5.9916   6.0161   6.0345   6.0415   6.0486
  6.0801   6.1102   6.1187   6.1217   6.1250   6.1478   6.1802   6.1905
  6.2096   6.2187   6.2251   6.2292   6.2567   6.2791   6.2824   6.2997
  6.3118   6.3210   6.3276   6.3660   6.3754   6.4027   6.4630   6.4943
  6.5263   6.5350   6.5715   6.5816   6.6042   6.6397   6.6564   6.6710
  6.6735   6.7938   6.8527   6.8574   6.8938   6.8997   6.9039   6.9257
  6.9323   6.9388   7.1055   7.1387   7.1588   7.2046   7.2155   7.2731
  7.3442   7.3498   7.3526   7.3584   7.4795   7.5459   7.5716   7.5841
  7.5947   7.6498   7.6583   7.6941   7.7090   7.8375   8.9586  10.1289
 10.4650  11.2991  11.5715  11.7910  12.0590  12.1896  12.4322  12.5546
 13.0449  13.2765  13.4968  13.6059  13.8198  13.9442  14.1734  14.3157
 14.3401  14.3876  14.6044  14.8654  15.1177  15.6429  15.8747  16.3769
 --------------------------------------------------------------
 
          Ground-State Mulliken Net Atomic Charges

     Atom                 Charge (a.u.)
  ----------------------------------------
      1 C                    -0.083939
      2 C                    -0.031512
      3 C                    -0.102985
      4 C                    -0.121978
      5 H                     0.199351
      6 C                     0.025223
      7 C                     0.114640
      8 C                    -0.038287
      9 C                    -0.199091
     10 C                    -0.167949
     11 C                     0.174765
     12 H                     0.183366
     13 C                     0.341940
     14 C                     0.349058
     15 N                    -0.090054
     16 C                     0.358528
     17 C                     0.388880
     18 N                    -0.087093
     19 O                    -0.493091
     20 O                    -0.505977
     21 O                    -0.500266
     22 O                    -0.481852
     23 C                    -0.204632
     24 H                     0.139573
     25 H                     0.109795
     26 H                     0.109477
     27 C                    -0.198610
     28 H                     0.134567
     29 H                     0.111680
     30 H                     0.112400
     31 C                    -0.022901
     32 S                    -0.015022
     33 C                    -0.236343
     34 C                    -0.164099
     35 C                    -0.240039
     36 H                     0.228967
     37 H                     0.189471
     38 H                     0.215572
     39 H                     0.138415
     40 H                     0.138705
     41 H                     0.221342
  ----------------------------------------
  Sum of atomic charges =     0.000000

 -----------------------------------------------------------------
                    Cartesian Multipole Moments
 -----------------------------------------------------------------
    Charge (ESU x 10^10)
                -0.0000
    Dipole Moment (Debye)
         X       0.9306      Y       1.3464      Z      -2.2810
       Tot       2.8074
    Quadrupole Moments (Debye-Ang)
        XX    -162.4344     XY       0.6421     YY    -175.6522
        XZ      -0.8720     YZ       9.1956     ZZ    -188.5084
    Octopole Moments (Debye-Ang^2)
       XXX    -132.2925    XXY     454.0892    XYY     -64.8255
       YYY    1658.6964    XXZ      -2.6446    XYZ       5.2684
       YYZ     -55.3216    XZZ     -56.5927    YZZ     601.6502
       ZZZ      -8.5928
    Hexadecapole Moments (Debye-Ang^3)
      XXXX    -308.4120   XXXY     645.2554   XXYY   -2663.9979
      XYYY     850.8484   YYYY  -17803.6931   XXXZ     -33.0004
      XXYZ     113.4138   XYYZ     -78.6523   YYYZ    1132.1346
      XXZZ   -1099.0386   XYZZ     291.8160   YYZZ   -4457.7572
      XZZZ      -3.4256   YZZZ      -0.2919   ZZZZ   -6615.2252
 -----------------------------------------------------------------
 Total job time:  309.35s(wall), 9032.59s(cpu) 
 Wed Dec 27 09:55:55 2023

        *************************************************************
        *                                                           *
        *  Thank you very much for using Q-Chem.  Have a nice day.  *
        *                                                           *
        *************************************************************


0 sent ACK to 0 
now end server 0 ... 
cleanup process ... done
remove work dirs ./qchem393829.0 -- ./qchem393829.0
rm -rf ./qchem393829.0
rm -rf ./qchem393829
