You are running Q-Chem version: 5.4.0

#
# job setting
#
local host:  exp-2-23
current dir: /home/rramji/project-csd799/aromodel/pndit-qchem/hydrogenated-rotation-run
input file:  Dimethyl_Naphthalene_Dicarboximide_Phi_30_Theta_210_Thiophene_Hydrogenated.qcin
output file: 
nprocs     : 1
nthreads   : 64
#
# qchem installation setting
#
QC:          /cm/shared/apps/spack/cpu/opt/spack/linux-centos8-zen2/gcc-10.2.0/qchem-5.4-akfmr7b3t57bfs6qan3padb2wnb2i7cl
QCAUX:       /cm/shared/apps/spack/cpu/opt/spack/linux-centos8-zen2/gcc-10.2.0/qchem-5.4-akfmr7b3t57bfs6qan3padb2wnb2i7cl/qcaux
QCPROG:      /cm/shared/apps/spack/cpu/opt/spack/linux-centos8-zen2/gcc-10.2.0/qchem-5.4-akfmr7b3t57bfs6qan3padb2wnb2i7cl/exe/qcprog.exe
QCPROG_S:    /cm/shared/apps/spack/cpu/opt/spack/linux-centos8-zen2/gcc-10.2.0/qchem-5.4-akfmr7b3t57bfs6qan3padb2wnb2i7cl/exe/qcprog.exe_s
PARALLEL:    -DPARALLEL
QCMPI:       mpich
#
# qchem directory setting
#
qcrun:       qchem1340622
QCSCRATCH:   .
QCLOCALSCR:  
QCTMPDIR:    .
QCFILEPREF:  ./qchem1340622
QCSAVEDIR:   
workdirs:    ./qchem1340622
workdir0:    ./qchem1340622
partmpdirs =  
#
# parallel setting
#
QCRSH:           ssh
QCMPI:           mpich
QCMPIRUN:        /cm/shared/apps/spack/cpu/opt/spack/linux-centos8-zen2/gcc-10.2.0/qchem-5.4-akfmr7b3t57bfs6qan3padb2wnb2i7cl/bin/mpi/mpirun_qchem
QCMACHINEFILE:   ./qchem1340622/hostfile
exp-2-23

#
# env setting
#
exported envs:   QC QCAUX QCSCRATCH QCRUNNAME QCFILEPREF QCPROG QCPROG_S GUIFILE

Running Job 1 of 1 Dimethyl_Naphthalene_Dicarboximide_Phi_30_Theta_210_Thiophene_Hydrogenated.qcin
qchem Dimethyl_Naphthalene_Dicarboximide_Phi_30_Theta_210_Thiophene_Hydrogenated.qcin_1340622.0 ./qchem1340622/ 1
/cm/shared/apps/spack/cpu/opt/spack/linux-centos8-zen2/gcc-10.2.0/qchem-5.4-akfmr7b3t57bfs6qan3padb2wnb2i7cl/bin/mpi/mpirun_qchem -machinefile ./qchem1340622/hostfile -np 1 /cm/shared/apps/spack/cpu/opt/spack/linux-centos8-zen2/gcc-10.2.0/qchem-5.4-akfmr7b3t57bfs6qan3padb2wnb2i7cl/exe/qcprog.exe Dimethyl_Naphthalene_Dicarboximide_Phi_30_Theta_210_Thiophene_Hydrogenated.qcin_1340622.0 ./qchem1340622/

Process 0 of 1 is on exp-2-23 - thread support 0
initial socket setup ...start
initial socket setup ...done 
now start server 0 ... 
                  Welcome to Q-Chem
     A Quantum Leap Into The Future Of Chemistry


 Q-Chem 5.4, Q-Chem, Inc., Pleasanton, CA (2021)

 License issued to: University of California, San Diego (site)

 E. Epifanovsky,  A. T. B. Gilbert,  Xintian Feng,  Joonho Lee,  Yuezhi Mao,  
 N. Mardirossian,  P. Pokhilko,  A. White,  M. Wormit,  M. P. Coons,  
 A. L. Dempwolff,  Zhengting Gan,  D. Hait,  P. R. Horn,  L. D. Jacobson,  
 I. Kaliman,  J. Kussmann,  A. W. Lange,  Ka Un Lao,  D. S. Levine,  Jie Liu,  
 S. C. McKenzie,  A. F. Morrison,  K. Nanda,  F. Plasser,  D. R. Rehn,  
 M. L. Vidal,  Zhi-Qiang You,  Ying Zhu,  B. Alam,  B. Albrecht,  
 A. Aldossary,  E. Alguire,  J. H. Andersen,  D. Barton,  K. Begam,  A. Behn,  
 Y. A. Bernard,  E. J. Berquist,  H. Burton,  A. Carreras,  K. Carter-Fenk,  
 R. Chakraborty,  A. D. Chien,  K. D. Closser,  V. Cofer-Shabica,  
 S. Dasgupta,  Jia Deng,  M. de Wergifosse,  M. Diedenhofen,  Hainam Do,  
 S. Ehlert,  Po-Tung Fang,  S. Fatehi,  Qingguo Feng,  J. Gayvert,  
 Qinghui Ge,  G. Gidofalvi,  M. Goldey,  J. Gomes,  C. Gonzalez-Espinoza,  
 S. Gulania,  A. Gunina,  M. W. D. Hanson-Heine,  P. H. P. Harbach,  
 A. W. Hauser,  M. F. Herbst,  M. Hernandez Vera,  M. Hodecker,  
 Z. C. Holden,  S. Houck,  Xunkun Huang,  Kerwin Hui,  B. C. Huynh,  
 M. Ivanov,  Hyunjun Ji,  Hanjie Jiang,  B. Kaduk,  S. Kaehler,  
 K. Khistyaev,  Jaehoon Kim,  P. Klunzinger,  Z. Koczor-Benda,  
 Joong Hoon Koh,  D. Kosenkov,  L. Koulias,  T. Kowalczyk,  C. M. Krauter,  
 K. Kue,  A. Kunitsa,  T. Kus,  A. Landau,  K. V. Lawler,  D. Lefrancois,  
 S. Lehtola,  Rain Li,  Yi-Pei Li,  Jiashu Liang,  M. Liebenthal,  
 Hung-Hsuan Lin,  You-Sheng Lin,  Fenglai Liu,  Kuan-Yu Liu,  
 M. Loipersberger,  A. Luenser,  A. Manjanath,  P. Manohar,  E. Mansoor,  
 S. F. Manzer,  Shan-Ping Mao,  A. V. Marenich,  T. Markovich,  S. Mason,  
 S. A. Maurer,  P. F. McLaughlin,  M. F. S. J. Menger,  J.-M. Mewes,  
 S. A. Mewes,  P. Morgante,  J. W. Mullinax,  T. S. Nguyen-Beck,  
 K. J. Oosterbaan,  G. Paran,  Alexander C. Paul,  Suranjan K. Paul,  
 F. Pavosevic,  Zheng Pei,  S. Prager,  E. I. Proynov,  E. Ramos,  B. Rana,  
 A. E. Rask,  A. Rettig,  R. M. Richard,  F. Rob,  E. Rossomme,  T. Scheele,  
 M. Scheurer,  M. Schneider,  N. Sergueev,  S. M. Sharada,  W. Skomorowski,  
 D. W. Small,  C. J. Stein,  Yu-Chuan Su,  E. J. Sundstrom,  Zhen Tao,  
 J. Thirman,  T. Tsuchimochi,  N. M. Tubman,  S. P. Veccham,  O. Vydrov,  
 J. Wenzel,  J. Witte,  A. Yamada,  Kun Yao,  S. Yeganeh,  S. R. Yost,  
 A. Zech,  Igor Ying Zhang,  Xing Zhang,  Yu Zhang,  D. Zuev,  
 A. Aspuru-Guzik,  A. T. Bell,  N. A. Besley,  K. B. Bravaya,  B. R. Brooks,  
 D. Casanova,  Jeng-Da Chai,  S. Coriani,  C. J. Cramer,  
 A. E. DePrince, III,  R. A. DiStasio Jr.,  A. Dreuw,  B. D. Dunietz,  
 T. R. Furlani,  W. A. Goddard III,  S. Grimme,  S. Hammes-Schiffer,  
 T. Head-Gordon,  W. J. Hehre,  Chao-Ping Hsu,  T.-C. Jagau,  Yousung Jung,  
 A. Klamt,  Jing Kong,  D. S. Lambrecht,  WanZhen Liang,  N. J. Mayhall,  
 C. W. McCurdy,  J. B. Neaton,  C. Ochsenfeld,  J. A. Parkhill,  R. Peverati,  
 V. A. Rassolov,  Yihan Shao,  L. V. Slipchenko,  T. Stauch,  R. P. Steele,  
 J. E. Subotnik,  A. J. W. Thom,  A. Tkatchenko,  D. G. Truhlar,  
 T. Van Voorhis,  T. A. Wesolowski,  K. B. Whaley,  H. L. Woodcock III,  
 P. M. Zimmerman,  S. Faraji,  P. M. W. Gill,  M. Head-Gordon,  
 J. M. Herbert,  A. I. Krylov

 Contributors to earlier versions of Q-Chem not listed above: 
 R. D. Adamson,  B. Austin,  R. Baer,  J. Baker,  G. J. O. Beran,  
 K. Brandhorst,  S. T. Brown,  E. F. C. Byrd,  A. K. Chakraborty,  
 G. K. L. Chan,  Chun-Min Chang,  Yunqing Chen,  C.-L. Cheng,  
 Siu Hung Chien,  D. M. Chipman,  D. L. Crittenden,  H. Dachsel,  
 R. J. Doerksen,  A. D. Dutoi,  R. G. Edgar,  J. Fosso-Tande,  
 L. Fusti-Molnar,  D. Ghosh,  A. Ghysels,  A. Golubeva-Zadorozhnaya,  
 J. Gonthier,  M. S. Gordon,  S. R. Gwaltney,  G. Hawkins,  J. E. Herr,  
 A. Heyden,  S. Hirata,  E. G. Hohenstein,  G. Kedziora,  F. J. Keil,  
 C. Kelley,  Jihan Kim,  R. A. King,  R. Z. Khaliullin,  P. P. Korambath,  
 W. Kurlancheek,  A. Laurent,  A. M. Lee,  M. S. Lee,  S. V. Levchenko,  
 Ching Yeh Lin,  D. Liotard,  E. Livshits,  R. C. Lochan,  I. Lotan,  
 L. A. Martinez-Martinez,  P. E. Maslen,  N. Nair,  D. P. O'Neill,  
 D. Neuhauser,  E. Neuscamman,  C. M. Oana,  R. Olivares-Amaya,  R. Olson,  
 T. M. Perrine,  B. Peters,  P. A. Pieniazek,  A. Prociuk,  Y. M. Rhee,  
 J. Ritchie,  M. A. Rohrdanz,  E. Rosta,  N. J. Russ,  H. F. Schaefer III,  
 M. W. Schmidt,  N. E. Schultz,  S. Sharma,  N. Shenvi,  C. D. Sherrill,  
 A. C. Simmonett,  A. Sodt,  T. Stein,  D. Stuck,  K. S. Thanthiriwatte,  
 V. Vanovschi,  L. Vogt,  Tao Wang,  A. Warshel,  M. A. Watson,  
 C. F. Williams,  Q. Wu,  X. Xu,  Jun Yang,  W. Zhang,  Yan Zhao

 Please cite Q-Chem as follows:
 Y. Shao et al., Mol. Phys. 113, 184-215 (2015)
 DOI: 10.1080/00268976.2014.952696

 Q-Chem 5.4.0 for Intel X86 EM64T Linux

 Parts of Q-Chem use Armadillo 9.800.1 (Horizon Scraper).
 http://arma.sourceforge.net/

 Q-Chem begins on Wed Dec 27 11:41:53 2023  

 Host: 
0

     Scratch files written to ./qchem1340622//
 May1621 |scratch|qcdevops|jenkins|workspace|build_RNUM    
 Parallel job on  1  processors
 Processing $rem in /cm/shared/apps/spack/cpu/opt/spack/linux-centos8-zen2/gcc-10.2.0/qchem-5.4-akfmr7b3t57bfs6qan3padb2wnb2i7cl/config/preferences:
 Processing $rem in /home/rramji/.qchemrc:
 Symmetry turned off for PCM/SM12/SMD calculation
 Core orbitals will be frozen

 Checking the input file for inconsistencies... 	...done.

 Q-Chem warning in module forms1/BasisType.C, line 2236:

 You are not using the predefined 5D/6D in this basis set.


--------------------------------------------------------------
User input:
--------------------------------------------------------------
$molecule
0 1
C	-0.127184	-6.741404	0.223244
C	-0.779949	-6.155638	1.354118
C	0.415271	-5.791452	-0.715408
C	-0.919437	-4.803786	1.595259
H	-1.218801	-6.821518	2.114613
C	0.268806	-4.378638	-0.463133
C	-0.396744	-3.838032	0.688925
C	0.790835	-3.413062	-1.368449
C	-0.542026	-2.426473	0.939189
C	0.652669	-2.059348	-1.130363
C	0.000000	-1.478216	0.000000
H	1.091814	-1.394783	-1.891815
C	1.138124	-6.187987	-1.963749
C	1.506241	-3.798164	-2.607351
N	1.629443	-5.170003	-2.817348
C	-1.636646	-4.424987	2.837621
C	-1.264474	-2.036627	2.188982
N	-1.756205	-3.049156	3.042637
O	1.336258	-7.353131	-2.301222
O	1.967056	-2.986854	-3.407386
O	-2.092167	-5.248946	3.628041
O	-1.472160	-0.878829	2.545844
C	2.336642	-5.563799	-4.040164
H	2.360245	-6.664085	-4.078749
H	3.361968	-5.147101	-4.027880
H	1.813424	-5.148785	-4.922811
C	-2.452149	-2.587487	4.247167
H	-2.772531	-3.483329	4.804209
H	-3.322697	-1.964972	3.965991
H	-1.774507	-1.962932	4.859678
C	0.000000	0.000000	0.000000
S	0.396411	0.687007	1.580530
C	1.215245	2.105322	0.904911
C	0.498850	0.864369	-0.985400
C	1.158885	2.007781	-0.493528
H	0.381046	0.660280	-2.059934
H	1.599289	2.770727	-1.152593
H	1.655514	2.868056	1.556025
H	-0.851574	-7.361589	-0.318588
H	0.704181	-7.361192	0.580522
H	-0.935042	-1.478831	-0.540459
$end

$rem
JOBTYPE		SP
EXCHANGE	HF
CORRELATION	pRIMP2
BASIS		cc-pvtz
METHOD		rimp2
AUX_BASIS	rimp2-cc-pvtz
SOLVENT_METHOD	PCM
PURECART	11111
SYMMETRY	false
MEM_TOTAL	110000
SCF_CONVERGENCE = 6
THRESH=10
GUI = 2
$end



$solvent
dielectric 4.90
$end
--------------------------------------------------------------
 ----------------------------------------------------------------
             Standard Nuclear Orientation (Angstroms)
    I     Atom           X                Y                Z
 ----------------------------------------------------------------
    1      C      -0.1271840000    -6.7414040000     0.2232440000
    2      C      -0.7799490000    -6.1556380000     1.3541180000
    3      C       0.4152710000    -5.7914520000    -0.7154080000
    4      C      -0.9194370000    -4.8037860000     1.5952590000
    5      H      -1.2188010000    -6.8215180000     2.1146130000
    6      C       0.2688060000    -4.3786380000    -0.4631330000
    7      C      -0.3967440000    -3.8380320000     0.6889250000
    8      C       0.7908350000    -3.4130620000    -1.3684490000
    9      C      -0.5420260000    -2.4264730000     0.9391890000
   10      C       0.6526690000    -2.0593480000    -1.1303630000
   11      C       0.0000000000    -1.4782160000     0.0000000000
   12      H       1.0918140000    -1.3947830000    -1.8918150000
   13      C       1.1381240000    -6.1879870000    -1.9637490000
   14      C       1.5062410000    -3.7981640000    -2.6073510000
   15      N       1.6294430000    -5.1700030000    -2.8173480000
   16      C      -1.6366460000    -4.4249870000     2.8376210000
   17      C      -1.2644740000    -2.0366270000     2.1889820000
   18      N      -1.7562050000    -3.0491560000     3.0426370000
   19      O       1.3362580000    -7.3531310000    -2.3012220000
   20      O       1.9670560000    -2.9868540000    -3.4073860000
   21      O      -2.0921670000    -5.2489460000     3.6280410000
   22      O      -1.4721600000    -0.8788290000     2.5458440000
   23      C       2.3366420000    -5.5637990000    -4.0401640000
   24      H       2.3602450000    -6.6640850000    -4.0787490000
   25      H       3.3619680000    -5.1471010000    -4.0278800000
   26      H       1.8134240000    -5.1487850000    -4.9228110000
   27      C      -2.4521490000    -2.5874870000     4.2471670000
   28      H      -2.7725310000    -3.4833290000     4.8042090000
   29      H      -3.3226970000    -1.9649720000     3.9659910000
   30      H      -1.7745070000    -1.9629320000     4.8596780000
   31      C       0.0000000000     0.0000000000     0.0000000000
   32      S       0.3964110000     0.6870070000     1.5805300000
   33      C       1.2152450000     2.1053220000     0.9049110000
   34      C       0.4988500000     0.8643690000    -0.9854000000
   35      C       1.1588850000     2.0077810000    -0.4935280000
   36      H       0.3810460000     0.6602800000    -2.0599340000
   37      H       1.5992890000     2.7707270000    -1.1525930000
   38      H       1.6555140000     2.8680560000     1.5560250000
   39      H      -0.8515740000    -7.3615890000    -0.3185880000
   40      H       0.7041810000    -7.3611920000     0.5805220000
   41      H      -0.9350420000    -1.4788310000    -0.5404590000
 ----------------------------------------------------------------
 Nuclear Repulsion Energy =        2567.18041136 hartrees
 There are       98 alpha and       98 beta electrons
 Requested basis set is cc-pVTZ
 There are 356 shells and 1010 basis functions

 Total QAlloc Memory Limit 110000 MB
 Mega-Array Size       188 MB
 MEM_STATIC part       192 MB
 Discretize the solute cavity surface with Lebedev spheres
	Using 110 Lebedev grid points for each H atom
	Using 194 Lebedev grid points for other atoms
	Atomic van der Waals radii will be scaled by 1.20
 Remove points where switching function is < 1.0e-08
 Keep 2571 surface tesserae and discard 4207 interior tesserae
 Molecular Surface Area = 363.913 Angst**2
 Requested basis set is rimp2-cc-pVTZ
 There are 770 shells and 2648 basis functions
 A cutoff of  1.0D-10 yielded  34278 shell pairs
 There are    259244 function pairs (    335468 Cartesian)
 Smallest overlap matrix eigenvalue = 8.86E-06

 Q-Chem warning in module stvman/mkSTV.C, line 323:

 Overlap eigenvalue is smaller than square root of threshold
 Use THRESH >= 12 to get rid of this warning


 Scale SEOQF with 1.000000e-01/1.000000e-02/1.000000e-01

 Standard Electronic Orientation quadrupole field applied
 Nucleus-field energy     =    -0.0000000725 hartrees
 Guess from superposition of atomic densities
 Warning:  Energy on first SCF cycle will be non-variational
 SAD guess density has 196.000000 electrons

 -----------------------------------------------------------------------
  General SCF calculation program by
  Eric Jon Sundstrom, Paul Horn, Yuezhi Mao, Dmitri Zuev, Alec White,
  David Stuck, Shaama M.S., Shane Yost, Joonho Lee, David Small,
  Daniel Levine, Susi Lehtola, Hugh Burton, Evgeny Epifanovsky,
  Bang C. Huynh
 -----------------------------------------------------------------------
 Hartree-Fock
 using 64 threads for integral computing
 -------------------------------------------------------
 OpenMP Integral computing Module                
 Release: version 1.0, May 2013, Q-Chem Inc. Pittsburgh 
 -------------------------------------------------------
 A restricted SCF calculation will be
 performed using DIIS
 SCF converges when DIIS error is below 1.0e-06
 ---------------------------------------
  Cycle       Energy         DIIS error
 ---------------------------------------
    1   -1583.1613960681      1.86e-02  
    2   -1571.1437195210      2.03e-03  
    3   -1571.4830616828      1.55e-03  
    4   -1571.7034748005      2.53e-04  
    5   -1571.7173002851      7.78e-05  
    6   -1571.7187190617      3.01e-05  
    7   -1571.7191443887      1.57e-05  
    8   -1571.7192629208      6.43e-06  
    9   -1571.7192839184      2.96e-06  
   10   -1571.7192882132      1.23e-06  
   11   -1571.7192894628      5.84e-07  Convergence criterion met
 ---------------------------------------
 SCF time:   CPU 6846.47s  wall 256.00s 

************** Final PCM Free Energy Summary **************
 G_electrostatic  =      -0.02999019 hartree =     -18.81912528 kcal/mol
 G_cavitation     =       0.00000000 hartree =       0.00000000 kcal/mol
 G_dispersion     =       0.00000000 hartree =       0.00000000 kcal/mol
 G_repulsion      =       0.00000000 hartree =       0.00000000 kcal/mol
 --------------------------------------------------
 Non-electrostatic Free Energy =       0.00000000 hartree =       0.00000000 kcal/mol
 Total                         =      -0.02999019 hartree =     -18.81912528 kcal/mol
 --------------------------------------------------
 SCF Energy (H0 + V/2)                       =   -1571.71928946 
 Solute Internal Energy (H0)                 =   -1571.68929928 
 Total Free Energy (H0 + V/2 + non-elec)     =   -1571.71928946 hartree
                                             = -986268.73989127 kcal/mol
***********************************************************

 SCF   energy in the final basis set =    -1571.7192894628
 Total energy in the final basis set =    -1571.7192894628


 --------------------------------------------------------------
  Generalized many-body perturbation theory program
  by Joonho Lee, Fazle Rob, Xintian Feng, Evgeny Epifanovsky

 No regularization used 
 (reg. param. = 0.0000e+00)
  (P|Q)^-1/2 Time:  CPU 174.64 s  wall 3.14 s

 In RI-MP2 calculation: 
 # of frozen core orbitals: 31

 Components of the RIMP2 correlation energy:
        aaaa    correlation energy =        -0.6172144987 a.u.
        abab    correlation energy =        -3.4303831661 a.u.
        bbbb    correlation energy =        -0.6172144987 a.u.
        non-Brillouin singles      =        -0.0000000000 a.u.
        total same-spin energy     =        -1.2344289975 a.u.
        total opposite-spin energy =        -3.4303831661 a.u.

 Total  RIMP2   correlation energy =        -4.6648121636 a.u.
        RIMP2         total energy =     -1576.3841016263 a.u.

 RI-MP2 Energy Time:  CPU 2034.84 s  wall 33.31 s
 
 --------------------------------------------------------------
 
                    Orbital Energies (a.u.)
 --------------------------------------------------------------
 
 Alpha MOs
 -- Occupied --
-91.9800 -20.5542 -20.5450 -20.5411 -20.5405 -15.6282 -15.6212 -11.3959
-11.3858 -11.3830 -11.3791 -11.3097 -11.3084 -11.3067 -11.3046 -11.2972
-11.2913 -11.2890 -11.2762 -11.2686 -11.2682 -11.2642 -11.2634 -11.2595
-11.2563 -11.2527 -11.2467  -8.9798  -6.6604  -6.6596  -6.6591  -1.4231
 -1.4120  -1.3993  -1.3912  -1.2637  -1.2554  -1.2305  -1.1867  -1.1503
 -1.1144  -1.0859  -1.0474  -0.9950  -0.9883  -0.9817  -0.9553  -0.9494
 -0.8968  -0.8889  -0.8775  -0.8604  -0.7922  -0.7784  -0.7727  -0.7624
 -0.7344  -0.7176  -0.7027  -0.6918  -0.6830  -0.6746  -0.6675  -0.6576
 -0.6481  -0.6453  -0.6368  -0.6326  -0.6309  -0.6294  -0.6211  -0.6057
 -0.5870  -0.5743  -0.5658  -0.5628  -0.5591  -0.5522  -0.5513  -0.5481
 -0.5476  -0.5443  -0.5235  -0.5108  -0.5089  -0.4834  -0.4734  -0.4603
 -0.4553  -0.4449  -0.4392  -0.4332  -0.4123  -0.4075  -0.3547  -0.3463
 -0.3303  -0.2788
 -- Virtual --
  0.0120   0.0424   0.0856   0.0941   0.1382   0.1501   0.1582   0.1600
  0.1634   0.1729   0.1785   0.1816   0.1843   0.1896   0.2001   0.2041
  0.2166   0.2217   0.2283   0.2298   0.2308   0.2354   0.2515   0.2581
  0.2680   0.2716   0.3029   0.3077   0.3162   0.3207   0.3223   0.3294
  0.3369   0.3414   0.3451   0.3495   0.3529   0.3633   0.3643   0.3696
  0.3748   0.3774   0.3861   0.3879   0.3917   0.3949   0.4023   0.4116
  0.4155   0.4223   0.4266   0.4312   0.4352   0.4439   0.4463   0.4490
  0.4524   0.4605   0.4646   0.4729   0.4733   0.4866   0.4888   0.4942
  0.4955   0.5043   0.5075   0.5096   0.5123   0.5194   0.5254   0.5282
  0.5324   0.5363   0.5468   0.5527   0.5553   0.5608   0.5646   0.5702
  0.5710   0.5756   0.5806   0.5856   0.5904   0.5935   0.5948   0.6005
  0.6025   0.6075   0.6088   0.6102   0.6154   0.6184   0.6236   0.6237
  0.6268   0.6298   0.6337   0.6365   0.6379   0.6403   0.6501   0.6540
  0.6594   0.6702   0.6765   0.6830   0.6914   0.6926   0.6959   0.7018
  0.7092   0.7206   0.7280   0.7347   0.7364   0.7413   0.7549   0.7618
  0.7655   0.7667   0.7737   0.7766   0.7815   0.7968   0.7992   0.8070
  0.8125   0.8168   0.8194   0.8239   0.8313   0.8411   0.8423   0.8488
  0.8502   0.8550   0.8647   0.8682   0.8707   0.8783   0.8819   0.8912
  0.8935   0.8971   0.9055   0.9098   0.9146   0.9211   0.9271   0.9320
  0.9332   0.9349   0.9442   0.9552   0.9670   0.9676   0.9771   0.9801
  0.9839   0.9850   0.9972   0.9997   1.0013   1.0041   1.0109   1.0178
  1.0296   1.0319   1.0385   1.0408   1.0417   1.0489   1.0619   1.0645
  1.0653   1.0731   1.0772   1.0826   1.0868   1.0896   1.0992   1.1026
  1.1073   1.1168   1.1222   1.1259   1.1294   1.1322   1.1382   1.1471
  1.1506   1.1551   1.1578   1.1663   1.1695   1.1748   1.1817   1.1872
  1.1921   1.1952   1.2021   1.2061   1.2125   1.2155   1.2165   1.2271
  1.2346   1.2377   1.2391   1.2466   1.2498   1.2637   1.2734   1.2784
  1.2844   1.2879   1.3038   1.3065   1.3121   1.3231   1.3313   1.3369
  1.3422   1.3485   1.3578   1.3630   1.3732   1.3765   1.3835   1.3873
  1.3919   1.3940   1.3983   1.4098   1.4161   1.4222   1.4356   1.4433
  1.4477   1.4574   1.4647   1.4709   1.4756   1.4778   1.4888   1.4925
  1.4956   1.5028   1.5073   1.5157   1.5236   1.5295   1.5321   1.5383
  1.5412   1.5484   1.5535   1.5571   1.5669   1.5706   1.5728   1.5808
  1.5847   1.5937   1.6025   1.6094   1.6172   1.6270   1.6358   1.6419
  1.6465   1.6587   1.6653   1.6758   1.6830   1.6910   1.6933   1.7002
  1.7027   1.7099   1.7219   1.7275   1.7340   1.7384   1.7520   1.7555
  1.7617   1.7684   1.7815   1.7838   1.7938   1.8043   1.8067   1.8157
  1.8196   1.8269   1.8390   1.8418   1.8518   1.8629   1.8702   1.8728
  1.8762   1.8848   1.8918   1.8968   1.9033   1.9278   1.9346   1.9514
  1.9656   1.9668   1.9743   1.9843   1.9931   2.0005   2.0110   2.0248
  2.0376   2.0431   2.0631   2.0693   2.0922   2.0987   2.1163   2.1363
  2.1410   2.1500   2.1613   2.1667   2.1853   2.2046   2.2176   2.2288
  2.2340   2.2367   2.2612   2.2845   2.2880   2.2903   2.2968   2.3062
  2.3174   2.3233   2.3363   2.3422   2.3624   2.3694   2.3748   2.3938
  2.4135   2.4212   2.4318   2.4428   2.4483   2.4613   2.4667   2.4687
  2.4776   2.4888   2.5006   2.5084   2.5126   2.5256   2.5386   2.5566
  2.5636   2.5679   2.5728   2.5865   2.5967   2.6024   2.6055   2.6153
  2.6237   2.6246   2.6431   2.6444   2.6574   2.6625   2.6668   2.6714
  2.6823   2.6885   2.6951   2.7046   2.7167   2.7230   2.7301   2.7398
  2.7411   2.7476   2.7537   2.7606   2.7687   2.7758   2.7766   2.7854
  2.8043   2.8249   2.8392   2.8444   2.8514   2.8565   2.8682   2.8732
  2.8763   2.8820   2.8869   2.8927   2.8985   2.9004   2.9114   2.9158
  2.9195   2.9293   2.9348   2.9411   2.9506   2.9665   2.9686   2.9721
  2.9816   2.9904   2.9985   2.9990   3.0084   3.0135   3.0213   3.0283
  3.0328   3.0467   3.0510   3.0565   3.0627   3.0712   3.0777   3.0889
  3.0910   3.0992   3.1014   3.1057   3.1085   3.1107   3.1145   3.1217
  3.1265   3.1361   3.1410   3.1534   3.1562   3.1598   3.1640   3.1732
  3.1803   3.1819   3.1929   3.2005   3.2054   3.2147   3.2179   3.2235
  3.2303   3.2360   3.2365   3.2444   3.2498   3.2555   3.2602   3.2654
  3.2679   3.2743   3.2771   3.2815   3.2841   3.2922   3.2997   3.3079
  3.3097   3.3123   3.3162   3.3199   3.3266   3.3277   3.3340   3.3405
  3.3469   3.3512   3.3515   3.3560   3.3606   3.3684   3.3702   3.3779
  3.3797   3.3851   3.3909   3.3933   3.3994   3.4022   3.4049   3.4069
  3.4096   3.4185   3.4247   3.4294   3.4331   3.4411   3.4435   3.4447
  3.4536   3.4574   3.4694   3.4716   3.4764   3.4799   3.4834   3.4870
  3.4972   3.5008   3.5065   3.5095   3.5156   3.5162   3.5253   3.5289
  3.5313   3.5356   3.5439   3.5545   3.5598   3.5733   3.5765   3.5810
  3.5847   3.5901   3.5981   3.6090   3.6120   3.6180   3.6209   3.6295
  3.6322   3.6354   3.6385   3.6436   3.6479   3.6564   3.6588   3.6624
  3.6656   3.6736   3.6856   3.6901   3.6933   3.6985   3.7049   3.7124
  3.7146   3.7271   3.7299   3.7378   3.7411   3.7473   3.7524   3.7570
  3.7620   3.7682   3.7764   3.7774   3.7845   3.7873   3.7965   3.8028
  3.8062   3.8158   3.8217   3.8223   3.8293   3.8358   3.8397   3.8454
  3.8531   3.8662   3.8686   3.8769   3.8807   3.8874   3.8908   3.9120
  3.9145   3.9180   3.9262   3.9317   3.9435   3.9469   3.9541   3.9566
  3.9602   3.9701   3.9763   3.9785   3.9890   3.9953   3.9979   4.0103
  4.0147   4.0258   4.0296   4.0410   4.0482   4.0599   4.0641   4.0788
  4.0901   4.1065   4.1090   4.1214   4.1277   4.1290   4.1417   4.1496
  4.1515   4.1585   4.1603   4.1684   4.1757   4.1827   4.1858   4.2091
  4.2131   4.2312   4.2356   4.2409   4.2466   4.2552   4.2598   4.2637
  4.2699   4.2816   4.2846   4.2895   4.2951   4.3035   4.3044   4.3097
  4.3166   4.3231   4.3279   4.3395   4.3421   4.3431   4.3473   4.3571
  4.3599   4.3698   4.3716   4.3738   4.3805   4.3873   4.3931   4.3955
  4.4015   4.4084   4.4138   4.4217   4.4293   4.4406   4.4464   4.4591
  4.4734   4.4821   4.4898   4.4966   4.5098   4.5139   4.5232   4.5298
  4.5320   4.5421   4.5459   4.5537   4.5652   4.5733   4.5866   4.5887
  4.5945   4.5986   4.6057   4.6169   4.6205   4.6276   4.6309   4.6418
  4.6463   4.6618   4.6663   4.6775   4.6950   4.6989   4.7049   4.7108
  4.7186   4.7291   4.7389   4.7765   4.7807   4.7831   4.7875   4.8030
  4.8116   4.8238   4.8395   4.8402   4.8499   4.8586   4.8709   4.8827
  4.8912   4.9002   4.9055   4.9255   4.9350   4.9510   4.9589   4.9719
  4.9884   5.0068   5.0113   5.0238   5.0321   5.0388   5.0460   5.0653
  5.0753   5.0976   5.1115   5.1184   5.1224   5.1264   5.1356   5.1389
  5.1491   5.1567   5.1662   5.1849   5.1890   5.2035   5.2162   5.2213
  5.2520   5.2626   5.2744   5.2861   5.2982   5.3049   5.3162   5.3289
  5.3301   5.3366   5.3468   5.3714   5.3781   5.3910   5.4046   5.4167
  5.4358   5.4530   5.4559   5.4889   5.5004   5.5088   5.5143   5.5161
  5.5171   5.5304   5.5444   5.5547   5.5586   5.5620   5.5670   5.5765
  5.5803   5.5863   5.5904   5.6044   5.6086   5.6171   5.6268   5.6373
  5.6432   5.6503   5.6592   5.6626   5.6665   5.6677   5.6940   5.6967
  5.7004   5.7115   5.7380   5.7408   5.7485   5.7576   5.7674   5.7744
  5.7858   5.7904   5.8071   5.8299   5.8391   5.8583   5.8835   5.9096
  5.9461   5.9530   5.9732   5.9916   6.0142   6.0283   6.0378   6.0399
  6.0464   6.0536   6.0974   6.1118   6.1233   6.1404   6.1552   6.1863
  6.1946   6.2197   6.2211   6.2255   6.2419   6.2522   6.2771   6.2832
  6.3024   6.3116   6.3239   6.3467   6.3665   6.3804   6.4214   6.4842
  6.5193   6.5327   6.5728   6.5830   6.5951   6.6167   6.6276   6.6580
  6.6743   6.6965   6.8488   6.8513   6.8898   6.9030   6.9065   6.9269
  6.9282   6.9846   7.1039   7.1114   7.1496   7.1950   7.1980   7.2368
  7.3475   7.3520   7.3581   7.3623   7.4758   7.5419   7.5717   7.5833
  7.5925   7.6058   7.6548   7.6879   7.6933   7.7152   8.8767  10.0946
 10.3236  11.2854  11.5298  11.7738  12.0038  12.2227  12.4390  12.4611
 12.9376  13.2307  13.3193  13.5677  13.7943  13.9283  14.0722  14.3047
 14.3518  14.3900  14.5165  14.6354  14.9959  15.6246  15.7975  16.3145
 --------------------------------------------------------------
 
          Ground-State Mulliken Net Atomic Charges

     Atom                 Charge (a.u.)
  ----------------------------------------
      1 C                    -0.084508
      2 C                    -0.030370
      3 C                    -0.109662
      4 C                    -0.124396
      5 H                     0.199220
      6 C                     0.024554
      7 C                     0.122904
      8 C                    -0.090974
      9 C                    -0.172560
     10 C                    -0.160316
     11 C                     0.203172
     12 H                     0.191603
     13 C                     0.340572
     14 C                     0.349312
     15 N                    -0.089764
     16 C                     0.356954
     17 C                     0.366456
     18 N                    -0.090439
     19 O                    -0.495654
     20 O                    -0.509564
     21 O                    -0.500828
     22 O                    -0.476245
     23 C                    -0.205103
     24 H                     0.139579
     25 H                     0.109268
     26 H                     0.108831
     27 C                    -0.197739
     28 H                     0.133910
     29 H                     0.111771
     30 H                     0.112425
     31 C                    -0.007387
     32 S                     0.065441
     33 C                    -0.229894
     34 C                    -0.236746
     35 C                    -0.193469
     36 H                     0.183506
     37 H                     0.189746
     38 H                     0.207808
     39 H                     0.137351
     40 H                     0.137843
     41 H                     0.213392
  ----------------------------------------
  Sum of atomic charges =     0.000000

 -----------------------------------------------------------------
                    Cartesian Multipole Moments
 -----------------------------------------------------------------
    Charge (ESU x 10^10)
                 0.0000
    Dipole Moment (Debye)
         X      -0.6096      Y       1.7336      Z      -0.1367
       Tot       1.8427
    Quadrupole Moments (Debye-Ang)
        XX    -168.1801     XY      10.3993     YY    -181.4610
        XZ      14.3133     YZ      -7.0886     ZZ    -180.5441
    Octopole Moments (Debye-Ang^2)
       XXX     -47.9865    XXY     506.3744    XYY     -35.2956
       YYY    1693.4078    XXZ     -28.8445    XYZ     -56.5714
       YYZ      30.4161    XZZ     -11.8067    YZZ     578.5171
       ZZZ     -90.6759
    Hexadecapole Moments (Debye-Ang^3)
      XXXX   -1796.6105   XXXY      40.8735   XXYY   -3079.7073
      XYYY     530.7240   YYYY  -18019.5839   XXXZ    1265.2392
      XXYZ     -47.4947   XYYZ     804.4183   YYYZ   -1063.4623
      XXZZ   -1166.6137   XYZZ     -80.8524   YYZZ   -4030.2468
      XZZZ    1358.0778   YZZZ    -156.8750   ZZZZ   -5005.7035
 -----------------------------------------------------------------
 Total job time:  295.35s(wall), 9058.36s(cpu) 
 Wed Dec 27 11:46:48 2023

        *************************************************************
        *                                                           *
        *  Thank you very much for using Q-Chem.  Have a nice day.  *
        *                                                           *
        *************************************************************


0 sent ACK to 0 
now end server 0 ... 
cleanup process ... done
remove work dirs ./qchem1340622.0 -- ./qchem1340622.0
rm -rf ./qchem1340622.0
rm -rf ./qchem1340622
