You are running Q-Chem version: 5.4.0

#
# job setting
#
local host:  exp-2-17
current dir: /home/rramji/project-csd799/aromodel/pndit-qchem/hydrogenated-rotation-run
input file:  Dimethyl_Naphthalene_Dicarboximide_Phi_25_Theta_310_Thiophene_Hydrogenated.qcin
output file: 
nprocs     : 1
nthreads   : 64
#
# qchem installation setting
#
QC:          /cm/shared/apps/spack/cpu/opt/spack/linux-centos8-zen2/gcc-10.2.0/qchem-5.4-akfmr7b3t57bfs6qan3padb2wnb2i7cl
QCAUX:       /cm/shared/apps/spack/cpu/opt/spack/linux-centos8-zen2/gcc-10.2.0/qchem-5.4-akfmr7b3t57bfs6qan3padb2wnb2i7cl/qcaux
QCPROG:      /cm/shared/apps/spack/cpu/opt/spack/linux-centos8-zen2/gcc-10.2.0/qchem-5.4-akfmr7b3t57bfs6qan3padb2wnb2i7cl/exe/qcprog.exe
QCPROG_S:    /cm/shared/apps/spack/cpu/opt/spack/linux-centos8-zen2/gcc-10.2.0/qchem-5.4-akfmr7b3t57bfs6qan3padb2wnb2i7cl/exe/qcprog.exe_s
PARALLEL:    -DPARALLEL
QCMPI:       mpich
#
# qchem directory setting
#
qcrun:       qchem46653
QCSCRATCH:   .
QCLOCALSCR:  
QCTMPDIR:    .
QCFILEPREF:  ./qchem46653
QCSAVEDIR:   
workdirs:    ./qchem46653
workdir0:    ./qchem46653
partmpdirs =  
#
# parallel setting
#
QCRSH:           ssh
QCMPI:           mpich
QCMPIRUN:        /cm/shared/apps/spack/cpu/opt/spack/linux-centos8-zen2/gcc-10.2.0/qchem-5.4-akfmr7b3t57bfs6qan3padb2wnb2i7cl/bin/mpi/mpirun_qchem
QCMACHINEFILE:   ./qchem46653/hostfile
exp-2-17

#
# env setting
#
exported envs:   QC QCAUX QCSCRATCH QCRUNNAME QCFILEPREF QCPROG QCPROG_S GUIFILE

Running Job 1 of 1 Dimethyl_Naphthalene_Dicarboximide_Phi_25_Theta_310_Thiophene_Hydrogenated.qcin
qchem Dimethyl_Naphthalene_Dicarboximide_Phi_25_Theta_310_Thiophene_Hydrogenated.qcin_46653.0 ./qchem46653/ 1
/cm/shared/apps/spack/cpu/opt/spack/linux-centos8-zen2/gcc-10.2.0/qchem-5.4-akfmr7b3t57bfs6qan3padb2wnb2i7cl/bin/mpi/mpirun_qchem -machinefile ./qchem46653/hostfile -np 1 /cm/shared/apps/spack/cpu/opt/spack/linux-centos8-zen2/gcc-10.2.0/qchem-5.4-akfmr7b3t57bfs6qan3padb2wnb2i7cl/exe/qcprog.exe Dimethyl_Naphthalene_Dicarboximide_Phi_25_Theta_310_Thiophene_Hydrogenated.qcin_46653.0 ./qchem46653/

Process 0 of 1 is on exp-2-17 - thread support 0
initial socket setup ...start
initial socket setup ...done 
now start server 0 ... 
                  Welcome to Q-Chem
     A Quantum Leap Into The Future Of Chemistry


 Q-Chem 5.4, Q-Chem, Inc., Pleasanton, CA (2021)

 License issued to: University of California, San Diego (site)

 E. Epifanovsky,  A. T. B. Gilbert,  Xintian Feng,  Joonho Lee,  Yuezhi Mao,  
 N. Mardirossian,  P. Pokhilko,  A. White,  M. Wormit,  M. P. Coons,  
 A. L. Dempwolff,  Zhengting Gan,  D. Hait,  P. R. Horn,  L. D. Jacobson,  
 I. Kaliman,  J. Kussmann,  A. W. Lange,  Ka Un Lao,  D. S. Levine,  Jie Liu,  
 S. C. McKenzie,  A. F. Morrison,  K. Nanda,  F. Plasser,  D. R. Rehn,  
 M. L. Vidal,  Zhi-Qiang You,  Ying Zhu,  B. Alam,  B. Albrecht,  
 A. Aldossary,  E. Alguire,  J. H. Andersen,  D. Barton,  K. Begam,  A. Behn,  
 Y. A. Bernard,  E. J. Berquist,  H. Burton,  A. Carreras,  K. Carter-Fenk,  
 R. Chakraborty,  A. D. Chien,  K. D. Closser,  V. Cofer-Shabica,  
 S. Dasgupta,  Jia Deng,  M. de Wergifosse,  M. Diedenhofen,  Hainam Do,  
 S. Ehlert,  Po-Tung Fang,  S. Fatehi,  Qingguo Feng,  J. Gayvert,  
 Qinghui Ge,  G. Gidofalvi,  M. Goldey,  J. Gomes,  C. Gonzalez-Espinoza,  
 S. Gulania,  A. Gunina,  M. W. D. Hanson-Heine,  P. H. P. Harbach,  
 A. W. Hauser,  M. F. Herbst,  M. Hernandez Vera,  M. Hodecker,  
 Z. C. Holden,  S. Houck,  Xunkun Huang,  Kerwin Hui,  B. C. Huynh,  
 M. Ivanov,  Hyunjun Ji,  Hanjie Jiang,  B. Kaduk,  S. Kaehler,  
 K. Khistyaev,  Jaehoon Kim,  P. Klunzinger,  Z. Koczor-Benda,  
 Joong Hoon Koh,  D. Kosenkov,  L. Koulias,  T. Kowalczyk,  C. M. Krauter,  
 K. Kue,  A. Kunitsa,  T. Kus,  A. Landau,  K. V. Lawler,  D. Lefrancois,  
 S. Lehtola,  Rain Li,  Yi-Pei Li,  Jiashu Liang,  M. Liebenthal,  
 Hung-Hsuan Lin,  You-Sheng Lin,  Fenglai Liu,  Kuan-Yu Liu,  
 M. Loipersberger,  A. Luenser,  A. Manjanath,  P. Manohar,  E. Mansoor,  
 S. F. Manzer,  Shan-Ping Mao,  A. V. Marenich,  T. Markovich,  S. Mason,  
 S. A. Maurer,  P. F. McLaughlin,  M. F. S. J. Menger,  J.-M. Mewes,  
 S. A. Mewes,  P. Morgante,  J. W. Mullinax,  T. S. Nguyen-Beck,  
 K. J. Oosterbaan,  G. Paran,  Alexander C. Paul,  Suranjan K. Paul,  
 F. Pavosevic,  Zheng Pei,  S. Prager,  E. I. Proynov,  E. Ramos,  B. Rana,  
 A. E. Rask,  A. Rettig,  R. M. Richard,  F. Rob,  E. Rossomme,  T. Scheele,  
 M. Scheurer,  M. Schneider,  N. Sergueev,  S. M. Sharada,  W. Skomorowski,  
 D. W. Small,  C. J. Stein,  Yu-Chuan Su,  E. J. Sundstrom,  Zhen Tao,  
 J. Thirman,  T. Tsuchimochi,  N. M. Tubman,  S. P. Veccham,  O. Vydrov,  
 J. Wenzel,  J. Witte,  A. Yamada,  Kun Yao,  S. Yeganeh,  S. R. Yost,  
 A. Zech,  Igor Ying Zhang,  Xing Zhang,  Yu Zhang,  D. Zuev,  
 A. Aspuru-Guzik,  A. T. Bell,  N. A. Besley,  K. B. Bravaya,  B. R. Brooks,  
 D. Casanova,  Jeng-Da Chai,  S. Coriani,  C. J. Cramer,  
 A. E. DePrince, III,  R. A. DiStasio Jr.,  A. Dreuw,  B. D. Dunietz,  
 T. R. Furlani,  W. A. Goddard III,  S. Grimme,  S. Hammes-Schiffer,  
 T. Head-Gordon,  W. J. Hehre,  Chao-Ping Hsu,  T.-C. Jagau,  Yousung Jung,  
 A. Klamt,  Jing Kong,  D. S. Lambrecht,  WanZhen Liang,  N. J. Mayhall,  
 C. W. McCurdy,  J. B. Neaton,  C. Ochsenfeld,  J. A. Parkhill,  R. Peverati,  
 V. A. Rassolov,  Yihan Shao,  L. V. Slipchenko,  T. Stauch,  R. P. Steele,  
 J. E. Subotnik,  A. J. W. Thom,  A. Tkatchenko,  D. G. Truhlar,  
 T. Van Voorhis,  T. A. Wesolowski,  K. B. Whaley,  H. L. Woodcock III,  
 P. M. Zimmerman,  S. Faraji,  P. M. W. Gill,  M. Head-Gordon,  
 J. M. Herbert,  A. I. Krylov

 Contributors to earlier versions of Q-Chem not listed above: 
 R. D. Adamson,  B. Austin,  R. Baer,  J. Baker,  G. J. O. Beran,  
 K. Brandhorst,  S. T. Brown,  E. F. C. Byrd,  A. K. Chakraborty,  
 G. K. L. Chan,  Chun-Min Chang,  Yunqing Chen,  C.-L. Cheng,  
 Siu Hung Chien,  D. M. Chipman,  D. L. Crittenden,  H. Dachsel,  
 R. J. Doerksen,  A. D. Dutoi,  R. G. Edgar,  J. Fosso-Tande,  
 L. Fusti-Molnar,  D. Ghosh,  A. Ghysels,  A. Golubeva-Zadorozhnaya,  
 J. Gonthier,  M. S. Gordon,  S. R. Gwaltney,  G. Hawkins,  J. E. Herr,  
 A. Heyden,  S. Hirata,  E. G. Hohenstein,  G. Kedziora,  F. J. Keil,  
 C. Kelley,  Jihan Kim,  R. A. King,  R. Z. Khaliullin,  P. P. Korambath,  
 W. Kurlancheek,  A. Laurent,  A. M. Lee,  M. S. Lee,  S. V. Levchenko,  
 Ching Yeh Lin,  D. Liotard,  E. Livshits,  R. C. Lochan,  I. Lotan,  
 L. A. Martinez-Martinez,  P. E. Maslen,  N. Nair,  D. P. O'Neill,  
 D. Neuhauser,  E. Neuscamman,  C. M. Oana,  R. Olivares-Amaya,  R. Olson,  
 T. M. Perrine,  B. Peters,  P. A. Pieniazek,  A. Prociuk,  Y. M. Rhee,  
 J. Ritchie,  M. A. Rohrdanz,  E. Rosta,  N. J. Russ,  H. F. Schaefer III,  
 M. W. Schmidt,  N. E. Schultz,  S. Sharma,  N. Shenvi,  C. D. Sherrill,  
 A. C. Simmonett,  A. Sodt,  T. Stein,  D. Stuck,  K. S. Thanthiriwatte,  
 V. Vanovschi,  L. Vogt,  Tao Wang,  A. Warshel,  M. A. Watson,  
 C. F. Williams,  Q. Wu,  X. Xu,  Jun Yang,  W. Zhang,  Yan Zhao

 Please cite Q-Chem as follows:
 Y. Shao et al., Mol. Phys. 113, 184-215 (2015)
 DOI: 10.1080/00268976.2014.952696

 Q-Chem 5.4.0 for Intel X86 EM64T Linux

 Parts of Q-Chem use Armadillo 9.800.1 (Horizon Scraper).
 http://arma.sourceforge.net/

 Q-Chem begins on Wed Dec 27 12:26:17 2023  

 Host: 
0

     Scratch files written to ./qchem46653//
 May1621 |scratch|qcdevops|jenkins|workspace|build_RNUM    
 Parallel job on  1  processors
 Processing $rem in /cm/shared/apps/spack/cpu/opt/spack/linux-centos8-zen2/gcc-10.2.0/qchem-5.4-akfmr7b3t57bfs6qan3padb2wnb2i7cl/config/preferences:
 Processing $rem in /home/rramji/.qchemrc:
 Symmetry turned off for PCM/SM12/SMD calculation
 Core orbitals will be frozen

 Checking the input file for inconsistencies... 	...done.

 Q-Chem warning in module forms1/BasisType.C, line 2236:

 You are not using the predefined 5D/6D in this basis set.


--------------------------------------------------------------
User input:
--------------------------------------------------------------
$molecule
0 1
C	-0.197767	-6.741404	-0.164018
C	-1.198109	-6.155638	-1.003240
C	0.632428	-5.791452	0.533192
C	-1.411364	-4.803786	-1.182482
H	-1.870845	-6.821518	-1.567483
C	0.409419	-4.378638	0.345145
C	-0.609565	-3.838032	-0.510347
C	1.210332	-3.413062	1.016449
C	-0.830799	-2.426473	-0.696879
C	0.999856	-2.059348	0.839039
C	-0.000000	-1.478216	-0.000000
H	1.673483	-1.394783	1.403737
C	1.736282	-6.187987	1.461835
C	2.306183	-3.798164	1.936119
N	2.491597	-5.170003	2.093916
C	-2.510310	-4.424987	-2.104529
C	-1.936153	-2.036627	-1.625377
N	-2.691451	-3.049156	-2.257873
O	2.034222	-7.353131	1.715561
O	3.014044	-2.986854	2.528858
O	-3.209622	-5.248946	-2.690385
O	-2.251529	-0.878829	-1.891876
C	3.573032	-5.563799	3.002711
H	3.606932	-6.664085	3.032655
H	3.382888	-5.147101	4.010326
H	4.533125	-5.148785	2.640711
C	-3.756832	-2.587487	-3.152408
H	-4.249778	-3.483329	-3.564653
H	-3.328759	-1.964972	-3.960905
H	-4.477709	-1.962932	-2.591422
C	0.000000	0.000000	0.000000
S	0.335026	0.718942	1.580530
C	1.027130	2.203226	0.904911
C	0.421617	0.904557	-0.985400
C	0.979485	2.101144	-0.493528
H	0.322049	0.690978	-2.059934
H	1.351718	2.899571	-1.152593
H	1.399246	3.001430	1.556025
H	0.461623	-7.361589	-0.783314
H	-0.693983	-7.361192	0.592677
H	0.694617	-1.478831	-0.826987
$end

$rem
JOBTYPE		SP
EXCHANGE	HF
CORRELATION	pRIMP2
BASIS		cc-pvtz
METHOD		rimp2
AUX_BASIS	rimp2-cc-pvtz
SOLVENT_METHOD	PCM
PURECART	11111
SYMMETRY	false
MEM_TOTAL	110000
SCF_CONVERGENCE = 6
THRESH=10
GUI = 2
$end



$solvent
dielectric 4.90
$end
--------------------------------------------------------------
 ----------------------------------------------------------------
             Standard Nuclear Orientation (Angstroms)
    I     Atom           X                Y                Z
 ----------------------------------------------------------------
    1      C      -0.1977670000    -6.7414040000    -0.1640180000
    2      C      -1.1981090000    -6.1556380000    -1.0032400000
    3      C       0.6324280000    -5.7914520000     0.5331920000
    4      C      -1.4113640000    -4.8037860000    -1.1824820000
    5      H      -1.8708450000    -6.8215180000    -1.5674830000
    6      C       0.4094190000    -4.3786380000     0.3451450000
    7      C      -0.6095650000    -3.8380320000    -0.5103470000
    8      C       1.2103320000    -3.4130620000     1.0164490000
    9      C      -0.8307990000    -2.4264730000    -0.6968790000
   10      C       0.9998560000    -2.0593480000     0.8390390000
   11      C       0.0000000000    -1.4782160000     0.0000000000
   12      H       1.6734830000    -1.3947830000     1.4037370000
   13      C       1.7362820000    -6.1879870000     1.4618350000
   14      C       2.3061830000    -3.7981640000     1.9361190000
   15      N       2.4915970000    -5.1700030000     2.0939160000
   16      C      -2.5103100000    -4.4249870000    -2.1045290000
   17      C      -1.9361530000    -2.0366270000    -1.6253770000
   18      N      -2.6914510000    -3.0491560000    -2.2578730000
   19      O       2.0342220000    -7.3531310000     1.7155610000
   20      O       3.0140440000    -2.9868540000     2.5288580000
   21      O      -3.2096220000    -5.2489460000    -2.6903850000
   22      O      -2.2515290000    -0.8788290000    -1.8918760000
   23      C       3.5730320000    -5.5637990000     3.0027110000
   24      H       3.6069320000    -6.6640850000     3.0326550000
   25      H       3.3828880000    -5.1471010000     4.0103260000
   26      H       4.5331250000    -5.1487850000     2.6407110000
   27      C      -3.7568320000    -2.5874870000    -3.1524080000
   28      H      -4.2497780000    -3.4833290000    -3.5646530000
   29      H      -3.3287590000    -1.9649720000    -3.9609050000
   30      H      -4.4777090000    -1.9629320000    -2.5914220000
   31      C       0.0000000000     0.0000000000     0.0000000000
   32      S       0.3350260000     0.7189420000     1.5805300000
   33      C       1.0271300000     2.2032260000     0.9049110000
   34      C       0.4216170000     0.9045570000    -0.9854000000
   35      C       0.9794850000     2.1011440000    -0.4935280000
   36      H       0.3220490000     0.6909780000    -2.0599340000
   37      H       1.3517180000     2.8995710000    -1.1525930000
   38      H       1.3992460000     3.0014300000     1.5560250000
   39      H       0.4616230000    -7.3615890000    -0.7833140000
   40      H      -0.6939830000    -7.3611920000     0.5926770000
   41      H       0.6946170000    -1.4788310000    -0.8269870000
 ----------------------------------------------------------------
 Nuclear Repulsion Energy =        2552.49274118 hartrees
 There are       98 alpha and       98 beta electrons
 Requested basis set is cc-pVTZ
 There are 356 shells and 1010 basis functions

 Total QAlloc Memory Limit 110000 MB
 Mega-Array Size       188 MB
 MEM_STATIC part       192 MB
 Discretize the solute cavity surface with Lebedev spheres
	Using 110 Lebedev grid points for each H atom
	Using 194 Lebedev grid points for other atoms
	Atomic van der Waals radii will be scaled by 1.20
 Remove points where switching function is < 1.0e-08
 Keep 2595 surface tesserae and discard 4183 interior tesserae
 Molecular Surface Area = 368.926 Angst**2
 Requested basis set is rimp2-cc-pVTZ
 There are 770 shells and 2648 basis functions
 A cutoff of  1.0D-10 yielded  34095 shell pairs
 There are    257951 function pairs (    333916 Cartesian)
 Smallest overlap matrix eigenvalue = 8.85E-06

 Q-Chem warning in module stvman/mkSTV.C, line 323:

 Overlap eigenvalue is smaller than square root of threshold
 Use THRESH >= 12 to get rid of this warning


 Scale SEOQF with 1.000000e-01/1.000000e-02/1.000000e-01

 Standard Electronic Orientation quadrupole field applied
 Nucleus-field energy     =    -0.0000000125 hartrees
 Guess from superposition of atomic densities
 Warning:  Energy on first SCF cycle will be non-variational
 SAD guess density has 196.000000 electrons

 -----------------------------------------------------------------------
  General SCF calculation program by
  Eric Jon Sundstrom, Paul Horn, Yuezhi Mao, Dmitri Zuev, Alec White,
  David Stuck, Shaama M.S., Shane Yost, Joonho Lee, David Small,
  Daniel Levine, Susi Lehtola, Hugh Burton, Evgeny Epifanovsky,
  Bang C. Huynh
 -----------------------------------------------------------------------
 Hartree-Fock
 using 64 threads for integral computing
 -------------------------------------------------------
 OpenMP Integral computing Module                
 Release: version 1.0, May 2013, Q-Chem Inc. Pittsburgh 
 -------------------------------------------------------
 A restricted SCF calculation will be
 performed using DIIS
 SCF converges when DIIS error is below 1.0e-06
 ---------------------------------------
  Cycle       Energy         DIIS error
 ---------------------------------------
    1   -1583.1353335742      1.86e-02  
    2   -1571.1580134056      2.03e-03  
    3   -1571.4977179858      1.55e-03  
    4   -1571.7186014692      2.52e-04  
    5   -1571.7323974546      7.77e-05  
    6   -1571.7338141664      3.00e-05  
    7   -1571.7342361612      1.54e-05  
    8   -1571.7343504585      6.22e-06  
    9   -1571.7343700668      2.86e-06  
   10   -1571.7343739171      1.22e-06  
   11   -1571.7343750930      5.69e-07  Convergence criterion met
 ---------------------------------------
 SCF time:   CPU 6736.49s  wall 253.00s 

************** Final PCM Free Energy Summary **************
 G_electrostatic  =      -0.03044362 hartree =     -19.10366187 kcal/mol
 G_cavitation     =       0.00000000 hartree =       0.00000000 kcal/mol
 G_dispersion     =       0.00000000 hartree =       0.00000000 kcal/mol
 G_repulsion      =       0.00000000 hartree =       0.00000000 kcal/mol
 --------------------------------------------------
 Non-electrostatic Free Energy =       0.00000000 hartree =       0.00000000 kcal/mol
 Total                         =      -0.03044362 hartree =     -19.10366187 kcal/mol
 --------------------------------------------------
 SCF Energy (H0 + V/2)                       =   -1571.73437509 
 Solute Internal Energy (H0)                 =   -1571.70393147 
 Total Free Energy (H0 + V/2 + non-elec)     =   -1571.73437509 hartree
                                             = -986278.20626710 kcal/mol
***********************************************************

 SCF   energy in the final basis set =    -1571.7343750930
 Total energy in the final basis set =    -1571.7343750930


 --------------------------------------------------------------
  Generalized many-body perturbation theory program
  by Joonho Lee, Fazle Rob, Xintian Feng, Evgeny Epifanovsky

 No regularization used 
 (reg. param. = 0.0000e+00)
  (P|Q)^-1/2 Time:  CPU 119.63 s  wall 2.03 s

 In RI-MP2 calculation: 
 # of frozen core orbitals: 31

 Components of the RIMP2 correlation energy:
        aaaa    correlation energy =        -0.6157727294 a.u.
        abab    correlation energy =        -3.4271928784 a.u.
        bbbb    correlation energy =        -0.6157727294 a.u.
        non-Brillouin singles      =        -0.0000000000 a.u.
        total same-spin energy     =        -1.2315454588 a.u.
        total opposite-spin energy =        -3.4271928784 a.u.

 Total  RIMP2   correlation energy =        -4.6587383372 a.u.
        RIMP2         total energy =     -1576.3931134302 a.u.

 RI-MP2 Energy Time:  CPU 2002.06 s  wall 32.43 s
 
 --------------------------------------------------------------
 
                    Orbital Energies (a.u.)
 --------------------------------------------------------------
 
 Alpha MOs
 -- Occupied --
-91.9906 -20.5531 -20.5445 -20.5412 -20.5404 -15.6272 -15.6210 -11.3939
-11.3851 -11.3831 -11.3790 -11.3074 -11.3073 -11.3045 -11.3042 -11.2970
-11.2960 -11.2898 -11.2824 -11.2681 -11.2677 -11.2647 -11.2631 -11.2593
-11.2546 -11.2522 -11.2515  -8.9905  -6.6713  -6.6708  -6.6703  -1.4199
 -1.4119  -1.3975  -1.3911  -1.2623  -1.2552  -1.2307  -1.1885  -1.1521
 -1.1138  -1.0861  -1.0466  -0.9963  -0.9879  -0.9867  -0.9551  -0.9498
 -0.8967  -0.8879  -0.8763  -0.8592  -0.7957  -0.7787  -0.7706  -0.7611
 -0.7409  -0.7168  -0.7030  -0.6919  -0.6823  -0.6716  -0.6666  -0.6571
 -0.6469  -0.6447  -0.6363  -0.6324  -0.6305  -0.6275  -0.6221  -0.6044
 -0.5867  -0.5752  -0.5668  -0.5613  -0.5565  -0.5513  -0.5506  -0.5494
 -0.5475  -0.5434  -0.5192  -0.5127  -0.5095  -0.4848  -0.4760  -0.4659
 -0.4577  -0.4513  -0.4426  -0.4343  -0.4136  -0.4073  -0.3562  -0.3505
 -0.3308  -0.2833
 -- Virtual --
  0.0146   0.0423   0.0841   0.0907   0.1380   0.1501   0.1539   0.1594
  0.1639   0.1713   0.1783   0.1842   0.1879   0.1937   0.2029   0.2066
  0.2082   0.2210   0.2240   0.2269   0.2294   0.2322   0.2339   0.2379
  0.2650   0.2693   0.2994   0.3037   0.3126   0.3203   0.3221   0.3265
  0.3320   0.3374   0.3433   0.3468   0.3531   0.3559   0.3641   0.3678
  0.3721   0.3780   0.3801   0.3881   0.3887   0.3951   0.4016   0.4045
  0.4175   0.4211   0.4275   0.4348   0.4389   0.4438   0.4478   0.4488
  0.4553   0.4593   0.4620   0.4634   0.4748   0.4825   0.4856   0.4920
  0.4931   0.5015   0.5036   0.5114   0.5171   0.5185   0.5254   0.5278
  0.5286   0.5343   0.5439   0.5503   0.5533   0.5580   0.5605   0.5678
  0.5729   0.5757   0.5779   0.5836   0.5861   0.5879   0.5975   0.6001
  0.6033   0.6052   0.6068   0.6086   0.6116   0.6163   0.6230   0.6271
  0.6292   0.6329   0.6350   0.6366   0.6416   0.6448   0.6480   0.6510
  0.6554   0.6625   0.6660   0.6768   0.6846   0.6926   0.6976   0.7013
  0.7041   0.7109   0.7201   0.7269   0.7354   0.7379   0.7455   0.7595
  0.7628   0.7663   0.7720   0.7764   0.7827   0.7843   0.7888   0.7914
  0.8044   0.8089   0.8184   0.8245   0.8295   0.8374   0.8431   0.8453
  0.8542   0.8549   0.8580   0.8625   0.8703   0.8718   0.8811   0.8825
  0.8899   0.8963   0.9021   0.9124   0.9176   0.9236   0.9238   0.9286
  0.9332   0.9421   0.9453   0.9481   0.9535   0.9650   0.9690   0.9754
  0.9798   0.9812   0.9947   0.9980   1.0003   1.0077   1.0113   1.0162
  1.0254   1.0263   1.0356   1.0394   1.0501   1.0550   1.0592   1.0634
  1.0651   1.0684   1.0730   1.0813   1.0879   1.0890   1.0958   1.1042
  1.1104   1.1168   1.1231   1.1252   1.1318   1.1363   1.1394   1.1438
  1.1505   1.1550   1.1592   1.1648   1.1688   1.1739   1.1751   1.1800
  1.1889   1.1937   1.1968   1.2041   1.2092   1.2129   1.2201   1.2285
  1.2308   1.2354   1.2402   1.2456   1.2517   1.2583   1.2668   1.2722
  1.2766   1.2845   1.2865   1.3066   1.3107   1.3258   1.3296   1.3454
  1.3469   1.3514   1.3575   1.3631   1.3683   1.3689   1.3857   1.3861
  1.3898   1.3962   1.3989   1.4005   1.4195   1.4200   1.4246   1.4378
  1.4463   1.4531   1.4614   1.4676   1.4774   1.4851   1.4928   1.4954
  1.5008   1.5077   1.5134   1.5174   1.5213   1.5231   1.5336   1.5386
  1.5462   1.5512   1.5559   1.5575   1.5635   1.5671   1.5709   1.5761
  1.5780   1.5891   1.5945   1.6062   1.6134   1.6266   1.6370   1.6403
  1.6504   1.6568   1.6603   1.6763   1.6859   1.6887   1.6935   1.6982
  1.7097   1.7130   1.7187   1.7242   1.7314   1.7443   1.7475   1.7549
  1.7640   1.7717   1.7777   1.7815   1.7840   1.7935   1.7993   1.8047
  1.8173   1.8245   1.8352   1.8452   1.8484   1.8572   1.8660   1.8695
  1.8740   1.8805   1.8853   1.8973   1.9103   1.9214   1.9404   1.9453
  1.9486   1.9579   1.9674   1.9834   1.9861   2.0026   2.0096   2.0170
  2.0345   2.0388   2.0449   2.0566   2.0868   2.0959   2.1098   2.1162
  2.1338   2.1411   2.1528   2.1601   2.1808   2.2063   2.2113   2.2210
  2.2307   2.2389   2.2481   2.2636   2.2838   2.2929   2.3025   2.3099
  2.3122   2.3266   2.3331   2.3379   2.3515   2.3627   2.3655   2.3875
  2.3883   2.4144   2.4274   2.4394   2.4434   2.4579   2.4596   2.4698
  2.4739   2.4780   2.4855   2.5084   2.5119   2.5190   2.5358   2.5542
  2.5621   2.5696   2.5817   2.5875   2.5990   2.6001   2.6103   2.6138
  2.6213   2.6346   2.6391   2.6443   2.6476   2.6658   2.6775   2.6819
  2.6853   2.6933   2.6980   2.7112   2.7157   2.7215   2.7228   2.7380
  2.7411   2.7515   2.7557   2.7677   2.7698   2.7747   2.7827   2.8083
  2.8156   2.8329   2.8388   2.8397   2.8490   2.8557   2.8629   2.8682
  2.8703   2.8833   2.8896   2.8928   2.8941   2.8989   2.9041   2.9137
  2.9178   2.9223   2.9293   2.9351   2.9507   2.9527   2.9581   2.9712
  2.9816   2.9846   2.9889   3.0032   3.0070   3.0105   3.0210   3.0265
  3.0320   3.0386   3.0420   3.0521   3.0669   3.0743   3.0802   3.0904
  3.0918   3.0983   3.1049   3.1054   3.1080   3.1115   3.1131   3.1255
  3.1368   3.1437   3.1469   3.1555   3.1572   3.1642   3.1659   3.1758
  3.1799   3.1913   3.1957   3.1990   3.2030   3.2118   3.2141   3.2226
  3.2296   3.2373   3.2419   3.2447   3.2469   3.2551   3.2625   3.2634
  3.2686   3.2699   3.2825   3.2855   3.2928   3.3008   3.3026   3.3096
  3.3108   3.3128   3.3239   3.3260   3.3263   3.3295   3.3369   3.3389
  3.3420   3.3504   3.3514   3.3551   3.3631   3.3674   3.3739   3.3764
  3.3784   3.3825   3.3849   3.3899   3.3940   3.3962   3.4034   3.4148
  3.4180   3.4204   3.4239   3.4290   3.4349   3.4406   3.4418   3.4448
  3.4559   3.4584   3.4636   3.4665   3.4704   3.4783   3.4841   3.4862
  3.4938   3.5015   3.5063   3.5110   3.5128   3.5204   3.5214   3.5285
  3.5329   3.5365   3.5443   3.5472   3.5537   3.5561   3.5735   3.5829
  3.5880   3.5914   3.5970   3.6012   3.6098   3.6159   3.6220   3.6256
  3.6289   3.6324   3.6344   3.6364   3.6403   3.6456   3.6492   3.6577
  3.6610   3.6706   3.6797   3.6865   3.6939   3.7005   3.7035   3.7136
  3.7285   3.7292   3.7341   3.7402   3.7432   3.7475   3.7514   3.7544
  3.7570   3.7646   3.7704   3.7788   3.7804   3.7874   3.7988   3.8021
  3.8051   3.8141   3.8180   3.8201   3.8273   3.8403   3.8418   3.8430
  3.8544   3.8590   3.8637   3.8692   3.8746   3.8863   3.8959   3.9014
  3.9096   3.9165   3.9263   3.9313   3.9382   3.9480   3.9511   3.9575
  3.9624   3.9638   3.9661   3.9759   3.9782   3.9836   3.9972   4.0139
  4.0162   4.0258   4.0322   4.0386   4.0420   4.0574   4.0619   4.0689
  4.0812   4.0960   4.1134   4.1194   4.1263   4.1315   4.1373   4.1397
  4.1461   4.1555   4.1617   4.1719   4.1765   4.1837   4.1868   4.2028
  4.2065   4.2219   4.2320   4.2407   4.2424   4.2500   4.2587   4.2685
  4.2704   4.2775   4.2839   4.2866   4.2937   4.2959   4.3032   4.3101
  4.3109   4.3188   4.3252   4.3306   4.3385   4.3445   4.3480   4.3518
  4.3548   4.3638   4.3679   4.3713   4.3755   4.3815   4.3927   4.3982
  4.4004   4.4035   4.4067   4.4222   4.4312   4.4365   4.4471   4.4623
  4.4705   4.4749   4.4827   4.4898   4.4996   4.5139   4.5187   4.5267
  4.5368   4.5460   4.5494   4.5573   4.5629   4.5761   4.5797   4.5874
  4.5970   4.5987   4.6048   4.6111   4.6144   4.6205   4.6296   4.6443
  4.6564   4.6596   4.6634   4.6727   4.6922   4.7000   4.7082   4.7094
  4.7218   4.7278   4.7422   4.7519   4.7641   4.7833   4.7902   4.7931
  4.8189   4.8275   4.8373   4.8437   4.8526   4.8597   4.8770   4.8852
  4.8864   4.8916   4.9149   4.9275   4.9359   4.9391   4.9600   4.9696
  4.9901   5.0013   5.0198   5.0283   5.0301   5.0368   5.0498   5.0643
  5.0660   5.0904   5.1140   5.1208   5.1224   5.1267   5.1322   5.1333
  5.1463   5.1571   5.1721   5.1733   5.1961   5.2023   5.2111   5.2226
  5.2590   5.2639   5.2723   5.2834   5.2947   5.3119   5.3250   5.3298
  5.3325   5.3414   5.3467   5.3673   5.3787   5.3899   5.4029   5.4152
  5.4294   5.4457   5.4762   5.4874   5.4930   5.5101   5.5118   5.5143
  5.5174   5.5269   5.5391   5.5513   5.5564   5.5620   5.5661   5.5686
  5.5794   5.5864   5.5907   5.6023   5.6122   5.6138   5.6211   5.6279
  5.6433   5.6501   5.6610   5.6618   5.6667   5.6713   5.6931   5.6948
  5.7000   5.7047   5.7203   5.7361   5.7448   5.7576   5.7696   5.7763
  5.7846   5.7868   5.8191   5.8346   5.8465   5.8624   5.8860   5.9081
  5.9390   5.9600   5.9756   5.9892   6.0070   6.0261   6.0314   6.0417
  6.0467   6.0569   6.0941   6.1117   6.1231   6.1412   6.1494   6.1847
  6.1988   6.2191   6.2234   6.2257   6.2421   6.2600   6.2653   6.2838
  6.3095   6.3116   6.3239   6.3492   6.3662   6.3833   6.4135   6.4843
  6.5200   6.5316   6.5739   6.5831   6.6045   6.6156   6.6256   6.6589
  6.6704   6.6749   6.8442   6.8502   6.8888   6.9019   6.9051   6.9218
  6.9272   6.9341   7.1026   7.1083   7.1478   7.1919   7.1985   7.2347
  7.3473   7.3520   7.3564   7.3603   7.4751   7.5411   7.5704   7.5827
  7.5867   7.5962   7.6541   7.6759   7.6910   7.7121   8.8358   9.9791
 10.3235  11.3097  11.5044  11.7617  12.0082  12.0875  12.4117  12.4618
 12.9711  13.2120  13.3383  13.5650  13.7674  13.9244  14.0958  14.2778
 14.3101  14.3600  14.4827  14.6020  14.9867  15.6138  15.7942  16.3228
 --------------------------------------------------------------
 
          Ground-State Mulliken Net Atomic Charges

     Atom                 Charge (a.u.)
  ----------------------------------------
      1 C                    -0.084568
      2 C                    -0.032153
      3 C                    -0.112652
      4 C                    -0.122063
      5 H                     0.198498
      6 C                     0.021160
      7 C                     0.114714
      8 C                    -0.081430
      9 C                    -0.173198
     10 C                    -0.143568
     11 C                     0.169521
     12 H                     0.198895
     13 C                     0.342460
     14 C                     0.346489
     15 N                    -0.089763
     16 C                     0.357122
     17 C                     0.346510
     18 N                    -0.091194
     19 O                    -0.495219
     20 O                    -0.507205
     21 O                    -0.501484
     22 O                    -0.472586
     23 C                    -0.204906
     24 H                     0.139429
     25 H                     0.109273
     26 H                     0.108851
     27 C                    -0.197528
     28 H                     0.133388
     29 H                     0.110742
     30 H                     0.112317
     31 C                     0.015458
     32 S                     0.006511
     33 C                    -0.205737
     34 C                    -0.179546
     35 C                    -0.211165
     36 H                     0.185905
     37 H                     0.192019
     38 H                     0.211327
     39 H                     0.137068
     40 H                     0.137313
     41 H                     0.210995
  ----------------------------------------
  Sum of atomic charges =     0.000000

 -----------------------------------------------------------------
                    Cartesian Multipole Moments
 -----------------------------------------------------------------
    Charge (ESU x 10^10)
                 0.0000
    Dipole Moment (Debye)
         X       0.7307      Y       2.1950      Z      -2.2008
       Tot       3.1930
    Quadrupole Moments (Debye-Ang)
        XX    -180.2488     XY      10.1598     YY    -180.7498
        XZ     -16.2310     YZ       7.2997     ZZ    -169.8724
    Octopole Moments (Debye-Ang^2)
       XXX     -25.7080    XXY     549.2083    XYY     -39.8646
       YYY    1699.1729    XXZ      -5.3300    XYZ      71.2540
       YYZ     -42.0865    XZZ      -2.1808    YZZ     531.6131
       ZZZ     -23.1341
    Hexadecapole Moments (Debye-Ang^3)
      XXXX   -3813.4653   XXXY      38.4467   XXYY   -3711.7440
      XYYY     842.8725   YYYY  -18068.9389   XXXZ   -1559.4199
      XXYZ     -56.0901   XYYZ    -913.4059   YYYZ     732.3643
      XXZZ   -1188.3927   XYZZ     -29.2310   YYZZ   -3410.8509
      XZZZ   -1519.9577   YZZZ     115.6978   ZZZZ   -2913.7736
 -----------------------------------------------------------------
 Total job time:  288.79s(wall), 8836.45s(cpu) 
 Wed Dec 27 12:31:06 2023

        *************************************************************
        *                                                           *
        *  Thank you very much for using Q-Chem.  Have a nice day.  *
        *                                                           *
        *************************************************************


0 sent ACK to 0 
now end server 0 ... 
cleanup process ... done
remove work dirs ./qchem46653.0 -- ./qchem46653.0
rm -rf ./qchem46653.0
rm -rf ./qchem46653
