You are running Q-Chem version: 5.4.0

#
# job setting
#
local host:  exp-1-49
current dir: /home/rramji/project-csd799/aromodel/pndit-qchem/hydrogenated-rotation-run
input file:  Dimethyl_Naphthalene_Dicarboximide_Phi_5_Theta_50_Thiophene_Hydrogenated.qcin
output file: 
nprocs     : 1
nthreads   : 64
#
# qchem installation setting
#
QC:          /cm/shared/apps/spack/cpu/opt/spack/linux-centos8-zen2/gcc-10.2.0/qchem-5.4-akfmr7b3t57bfs6qan3padb2wnb2i7cl
QCAUX:       /cm/shared/apps/spack/cpu/opt/spack/linux-centos8-zen2/gcc-10.2.0/qchem-5.4-akfmr7b3t57bfs6qan3padb2wnb2i7cl/qcaux
QCPROG:      /cm/shared/apps/spack/cpu/opt/spack/linux-centos8-zen2/gcc-10.2.0/qchem-5.4-akfmr7b3t57bfs6qan3padb2wnb2i7cl/exe/qcprog.exe
QCPROG_S:    /cm/shared/apps/spack/cpu/opt/spack/linux-centos8-zen2/gcc-10.2.0/qchem-5.4-akfmr7b3t57bfs6qan3padb2wnb2i7cl/exe/qcprog.exe_s
PARALLEL:    -DPARALLEL
QCMPI:       mpich
#
# qchem directory setting
#
qcrun:       qchem398576
QCSCRATCH:   .
QCLOCALSCR:  
QCTMPDIR:    .
QCFILEPREF:  ./qchem398576
QCSAVEDIR:   
workdirs:    ./qchem398576
workdir0:    ./qchem398576
partmpdirs =  
#
# parallel setting
#
QCRSH:           ssh
QCMPI:           mpich
QCMPIRUN:        /cm/shared/apps/spack/cpu/opt/spack/linux-centos8-zen2/gcc-10.2.0/qchem-5.4-akfmr7b3t57bfs6qan3padb2wnb2i7cl/bin/mpi/mpirun_qchem
QCMACHINEFILE:   ./qchem398576/hostfile
exp-1-49

#
# env setting
#
exported envs:   QC QCAUX QCSCRATCH QCRUNNAME QCFILEPREF QCPROG QCPROG_S GUIFILE

Running Job 1 of 1 Dimethyl_Naphthalene_Dicarboximide_Phi_5_Theta_50_Thiophene_Hydrogenated.qcin
qchem Dimethyl_Naphthalene_Dicarboximide_Phi_5_Theta_50_Thiophene_Hydrogenated.qcin_398576.0 ./qchem398576/ 1
/cm/shared/apps/spack/cpu/opt/spack/linux-centos8-zen2/gcc-10.2.0/qchem-5.4-akfmr7b3t57bfs6qan3padb2wnb2i7cl/bin/mpi/mpirun_qchem -machinefile ./qchem398576/hostfile -np 1 /cm/shared/apps/spack/cpu/opt/spack/linux-centos8-zen2/gcc-10.2.0/qchem-5.4-akfmr7b3t57bfs6qan3padb2wnb2i7cl/exe/qcprog.exe Dimethyl_Naphthalene_Dicarboximide_Phi_5_Theta_50_Thiophene_Hydrogenated.qcin_398576.0 ./qchem398576/

Process 0 of 1 is on exp-1-49 - thread support 0
initial socket setup ...start
initial socket setup ...done 
now start server 0 ... 
                  Welcome to Q-Chem
     A Quantum Leap Into The Future Of Chemistry


 Q-Chem 5.4, Q-Chem, Inc., Pleasanton, CA (2021)

 License issued to: University of California, San Diego (site)

 E. Epifanovsky,  A. T. B. Gilbert,  Xintian Feng,  Joonho Lee,  Yuezhi Mao,  
 N. Mardirossian,  P. Pokhilko,  A. White,  M. Wormit,  M. P. Coons,  
 A. L. Dempwolff,  Zhengting Gan,  D. Hait,  P. R. Horn,  L. D. Jacobson,  
 I. Kaliman,  J. Kussmann,  A. W. Lange,  Ka Un Lao,  D. S. Levine,  Jie Liu,  
 S. C. McKenzie,  A. F. Morrison,  K. Nanda,  F. Plasser,  D. R. Rehn,  
 M. L. Vidal,  Zhi-Qiang You,  Ying Zhu,  B. Alam,  B. Albrecht,  
 A. Aldossary,  E. Alguire,  J. H. Andersen,  D. Barton,  K. Begam,  A. Behn,  
 Y. A. Bernard,  E. J. Berquist,  H. Burton,  A. Carreras,  K. Carter-Fenk,  
 R. Chakraborty,  A. D. Chien,  K. D. Closser,  V. Cofer-Shabica,  
 S. Dasgupta,  Jia Deng,  M. de Wergifosse,  M. Diedenhofen,  Hainam Do,  
 S. Ehlert,  Po-Tung Fang,  S. Fatehi,  Qingguo Feng,  J. Gayvert,  
 Qinghui Ge,  G. Gidofalvi,  M. Goldey,  J. Gomes,  C. Gonzalez-Espinoza,  
 S. Gulania,  A. Gunina,  M. W. D. Hanson-Heine,  P. H. P. Harbach,  
 A. W. Hauser,  M. F. Herbst,  M. Hernandez Vera,  M. Hodecker,  
 Z. C. Holden,  S. Houck,  Xunkun Huang,  Kerwin Hui,  B. C. Huynh,  
 M. Ivanov,  Hyunjun Ji,  Hanjie Jiang,  B. Kaduk,  S. Kaehler,  
 K. Khistyaev,  Jaehoon Kim,  P. Klunzinger,  Z. Koczor-Benda,  
 Joong Hoon Koh,  D. Kosenkov,  L. Koulias,  T. Kowalczyk,  C. M. Krauter,  
 K. Kue,  A. Kunitsa,  T. Kus,  A. Landau,  K. V. Lawler,  D. Lefrancois,  
 S. Lehtola,  Rain Li,  Yi-Pei Li,  Jiashu Liang,  M. Liebenthal,  
 Hung-Hsuan Lin,  You-Sheng Lin,  Fenglai Liu,  Kuan-Yu Liu,  
 M. Loipersberger,  A. Luenser,  A. Manjanath,  P. Manohar,  E. Mansoor,  
 S. F. Manzer,  Shan-Ping Mao,  A. V. Marenich,  T. Markovich,  S. Mason,  
 S. A. Maurer,  P. F. McLaughlin,  M. F. S. J. Menger,  J.-M. Mewes,  
 S. A. Mewes,  P. Morgante,  J. W. Mullinax,  T. S. Nguyen-Beck,  
 K. J. Oosterbaan,  G. Paran,  Alexander C. Paul,  Suranjan K. Paul,  
 F. Pavosevic,  Zheng Pei,  S. Prager,  E. I. Proynov,  E. Ramos,  B. Rana,  
 A. E. Rask,  A. Rettig,  R. M. Richard,  F. Rob,  E. Rossomme,  T. Scheele,  
 M. Scheurer,  M. Schneider,  N. Sergueev,  S. M. Sharada,  W. Skomorowski,  
 D. W. Small,  C. J. Stein,  Yu-Chuan Su,  E. J. Sundstrom,  Zhen Tao,  
 J. Thirman,  T. Tsuchimochi,  N. M. Tubman,  S. P. Veccham,  O. Vydrov,  
 J. Wenzel,  J. Witte,  A. Yamada,  Kun Yao,  S. Yeganeh,  S. R. Yost,  
 A. Zech,  Igor Ying Zhang,  Xing Zhang,  Yu Zhang,  D. Zuev,  
 A. Aspuru-Guzik,  A. T. Bell,  N. A. Besley,  K. B. Bravaya,  B. R. Brooks,  
 D. Casanova,  Jeng-Da Chai,  S. Coriani,  C. J. Cramer,  
 A. E. DePrince, III,  R. A. DiStasio Jr.,  A. Dreuw,  B. D. Dunietz,  
 T. R. Furlani,  W. A. Goddard III,  S. Grimme,  S. Hammes-Schiffer,  
 T. Head-Gordon,  W. J. Hehre,  Chao-Ping Hsu,  T.-C. Jagau,  Yousung Jung,  
 A. Klamt,  Jing Kong,  D. S. Lambrecht,  WanZhen Liang,  N. J. Mayhall,  
 C. W. McCurdy,  J. B. Neaton,  C. Ochsenfeld,  J. A. Parkhill,  R. Peverati,  
 V. A. Rassolov,  Yihan Shao,  L. V. Slipchenko,  T. Stauch,  R. P. Steele,  
 J. E. Subotnik,  A. J. W. Thom,  A. Tkatchenko,  D. G. Truhlar,  
 T. Van Voorhis,  T. A. Wesolowski,  K. B. Whaley,  H. L. Woodcock III,  
 P. M. Zimmerman,  S. Faraji,  P. M. W. Gill,  M. Head-Gordon,  
 J. M. Herbert,  A. I. Krylov

 Contributors to earlier versions of Q-Chem not listed above: 
 R. D. Adamson,  B. Austin,  R. Baer,  J. Baker,  G. J. O. Beran,  
 K. Brandhorst,  S. T. Brown,  E. F. C. Byrd,  A. K. Chakraborty,  
 G. K. L. Chan,  Chun-Min Chang,  Yunqing Chen,  C.-L. Cheng,  
 Siu Hung Chien,  D. M. Chipman,  D. L. Crittenden,  H. Dachsel,  
 R. J. Doerksen,  A. D. Dutoi,  R. G. Edgar,  J. Fosso-Tande,  
 L. Fusti-Molnar,  D. Ghosh,  A. Ghysels,  A. Golubeva-Zadorozhnaya,  
 J. Gonthier,  M. S. Gordon,  S. R. Gwaltney,  G. Hawkins,  J. E. Herr,  
 A. Heyden,  S. Hirata,  E. G. Hohenstein,  G. Kedziora,  F. J. Keil,  
 C. Kelley,  Jihan Kim,  R. A. King,  R. Z. Khaliullin,  P. P. Korambath,  
 W. Kurlancheek,  A. Laurent,  A. M. Lee,  M. S. Lee,  S. V. Levchenko,  
 Ching Yeh Lin,  D. Liotard,  E. Livshits,  R. C. Lochan,  I. Lotan,  
 L. A. Martinez-Martinez,  P. E. Maslen,  N. Nair,  D. P. O'Neill,  
 D. Neuhauser,  E. Neuscamman,  C. M. Oana,  R. Olivares-Amaya,  R. Olson,  
 T. M. Perrine,  B. Peters,  P. A. Pieniazek,  A. Prociuk,  Y. M. Rhee,  
 J. Ritchie,  M. A. Rohrdanz,  E. Rosta,  N. J. Russ,  H. F. Schaefer III,  
 M. W. Schmidt,  N. E. Schultz,  S. Sharma,  N. Shenvi,  C. D. Sherrill,  
 A. C. Simmonett,  A. Sodt,  T. Stein,  D. Stuck,  K. S. Thanthiriwatte,  
 V. Vanovschi,  L. Vogt,  Tao Wang,  A. Warshel,  M. A. Watson,  
 C. F. Williams,  Q. Wu,  X. Xu,  Jun Yang,  W. Zhang,  Yan Zhao

 Please cite Q-Chem as follows:
 Y. Shao et al., Mol. Phys. 113, 184-215 (2015)
 DOI: 10.1080/00268976.2014.952696

 Q-Chem 5.4.0 for Intel X86 EM64T Linux

 Parts of Q-Chem use Armadillo 9.800.1 (Horizon Scraper).
 http://arma.sourceforge.net/

 Q-Chem begins on Wed Dec 27 10:16:23 2023  

 Host: 
0

     Scratch files written to ./qchem398576//
 May1621 |scratch|qcdevops|jenkins|workspace|build_RNUM    
 Parallel job on  1  processors
 Processing $rem in /cm/shared/apps/spack/cpu/opt/spack/linux-centos8-zen2/gcc-10.2.0/qchem-5.4-akfmr7b3t57bfs6qan3padb2wnb2i7cl/config/preferences:
 Processing $rem in /home/rramji/.qchemrc:
 Symmetry turned off for PCM/SM12/SMD calculation
 Core orbitals will be frozen

 Checking the input file for inconsistencies... 	...done.

 Q-Chem warning in module forms1/BasisType.C, line 2236:

 You are not using the predefined 5D/6D in this basis set.


--------------------------------------------------------------
User input:
--------------------------------------------------------------
$molecule
0 1
C	0.195868	-6.741404	-0.166281
C	1.196048	-6.155638	-1.005696
C	-0.634911	-5.791452	0.530233
C	1.409599	-4.803786	-1.184587
H	1.868538	-6.821518	-1.570232
C	-0.410996	-4.378638	0.343266
C	0.608444	-3.838032	-0.511683
C	-1.211179	-3.413062	1.015440
C	0.830559	-2.426473	-0.697165
C	-0.999915	-2.059348	0.838968
C	0.000000	-1.478216	0.000000
H	-1.673009	-1.394783	1.404302
C	-1.741129	-6.187987	1.456059
C	-2.307170	-3.798164	1.934944
N	-2.494766	-5.170003	2.090139
C	2.508468	-4.424987	-2.106725
C	1.936893	-2.036627	-1.624494
N	2.690936	-3.049156	-2.258486
O	-2.042736	-7.353131	1.705414
O	-3.013823	-2.986854	2.529122
O	3.206857	-5.248946	-2.693680
O	2.254108	-0.878829	-1.888802
C	-3.577543	-5.563799	2.997334
H	-3.612920	-6.664085	3.025519
H	-4.536833	-5.147101	2.635109
H	-3.387762	-5.148785	4.005702
C	3.756883	-2.587487	-3.152347
H	4.248464	-3.483329	-3.566218
H	4.478763	-1.964972	-2.590383
H	3.329599	-1.962932	-3.959687
C	0.000000	0.000000	0.000000
S	0.068929	0.790170	1.580530
C	0.211639	2.421655	0.904911
C	0.086813	0.994207	-0.985400
C	0.201782	2.309433	-0.493528
H	0.066299	0.759454	-2.059934
H	0.278488	3.187020	-1.152593
H	0.288312	3.298992	1.556025
H	0.691254	-7.361589	0.590631
H	-0.463164	-7.361192	-0.786357
H	0.693804	-1.478831	0.827669
$end

$rem
JOBTYPE		SP
EXCHANGE	HF
CORRELATION	pRIMP2
BASIS		cc-pvtz
METHOD		rimp2
AUX_BASIS	rimp2-cc-pvtz
SOLVENT_METHOD	PCM
PURECART	11111
SYMMETRY	false
MEM_TOTAL	110000
SCF_CONVERGENCE = 6
THRESH=10
GUI = 2
$end



$solvent
dielectric 4.90
$end
--------------------------------------------------------------
 ----------------------------------------------------------------
             Standard Nuclear Orientation (Angstroms)
    I     Atom           X                Y                Z
 ----------------------------------------------------------------
    1      C       0.1958680000    -6.7414040000    -0.1662810000
    2      C       1.1960480000    -6.1556380000    -1.0056960000
    3      C      -0.6349110000    -5.7914520000     0.5302330000
    4      C       1.4095990000    -4.8037860000    -1.1845870000
    5      H       1.8685380000    -6.8215180000    -1.5702320000
    6      C      -0.4109960000    -4.3786380000     0.3432660000
    7      C       0.6084440000    -3.8380320000    -0.5116830000
    8      C      -1.2111790000    -3.4130620000     1.0154400000
    9      C       0.8305590000    -2.4264730000    -0.6971650000
   10      C      -0.9999150000    -2.0593480000     0.8389680000
   11      C       0.0000000000    -1.4782160000     0.0000000000
   12      H      -1.6730090000    -1.3947830000     1.4043020000
   13      C      -1.7411290000    -6.1879870000     1.4560590000
   14      C      -2.3071700000    -3.7981640000     1.9349440000
   15      N      -2.4947660000    -5.1700030000     2.0901390000
   16      C       2.5084680000    -4.4249870000    -2.1067250000
   17      C       1.9368930000    -2.0366270000    -1.6244940000
   18      N       2.6909360000    -3.0491560000    -2.2584860000
   19      O      -2.0427360000    -7.3531310000     1.7054140000
   20      O      -3.0138230000    -2.9868540000     2.5291220000
   21      O       3.2068570000    -5.2489460000    -2.6936800000
   22      O       2.2541080000    -0.8788290000    -1.8888020000
   23      C      -3.5775430000    -5.5637990000     2.9973340000
   24      H      -3.6129200000    -6.6640850000     3.0255190000
   25      H      -4.5368330000    -5.1471010000     2.6351090000
   26      H      -3.3877620000    -5.1487850000     4.0057020000
   27      C       3.7568830000    -2.5874870000    -3.1523470000
   28      H       4.2484640000    -3.4833290000    -3.5662180000
   29      H       4.4787630000    -1.9649720000    -2.5903830000
   30      H       3.3295990000    -1.9629320000    -3.9596870000
   31      C       0.0000000000     0.0000000000     0.0000000000
   32      S       0.0689290000     0.7901700000     1.5805300000
   33      C       0.2116390000     2.4216550000     0.9049110000
   34      C       0.0868130000     0.9942070000    -0.9854000000
   35      C       0.2017820000     2.3094330000    -0.4935280000
   36      H       0.0662990000     0.7594540000    -2.0599340000
   37      H       0.2784880000     3.1870200000    -1.1525930000
   38      H       0.2883120000     3.2989920000     1.5560250000
   39      H       0.6912540000    -7.3615890000     0.5906310000
   40      H      -0.4631640000    -7.3611920000    -0.7863570000
   41      H       0.6938040000    -1.4788310000     0.8276690000
 ----------------------------------------------------------------
 Nuclear Repulsion Energy =        2549.32786304 hartrees
 There are       98 alpha and       98 beta electrons
 Requested basis set is cc-pVTZ
 There are 356 shells and 1010 basis functions

 Total QAlloc Memory Limit 110000 MB
 Mega-Array Size       188 MB
 MEM_STATIC part       192 MB
 Discretize the solute cavity surface with Lebedev spheres
	Using 110 Lebedev grid points for each H atom
	Using 194 Lebedev grid points for other atoms
	Atomic van der Waals radii will be scaled by 1.20
 Remove points where switching function is < 1.0e-08
 Keep 2597 surface tesserae and discard 4181 interior tesserae
 Molecular Surface Area = 368.099 Angst**2
 Requested basis set is rimp2-cc-pVTZ
 There are 770 shells and 2648 basis functions
 A cutoff of  1.0D-10 yielded  34119 shell pairs
 There are    258295 function pairs (    334412 Cartesian)
 Smallest overlap matrix eigenvalue = 9.22E-06

 Q-Chem warning in module stvman/mkSTV.C, line 323:

 Overlap eigenvalue is smaller than square root of threshold
 Use THRESH >= 12 to get rid of this warning


 Scale SEOQF with 1.000000e-01/1.000000e-02/1.000000e-01

 Standard Electronic Orientation quadrupole field applied
 Nucleus-field energy     =    -0.0000000129 hartrees
 Guess from superposition of atomic densities
 Warning:  Energy on first SCF cycle will be non-variational
 SAD guess density has 196.000000 electrons

 -----------------------------------------------------------------------
  General SCF calculation program by
  Eric Jon Sundstrom, Paul Horn, Yuezhi Mao, Dmitri Zuev, Alec White,
  David Stuck, Shaama M.S., Shane Yost, Joonho Lee, David Small,
  Daniel Levine, Susi Lehtola, Hugh Burton, Evgeny Epifanovsky,
  Bang C. Huynh
 -----------------------------------------------------------------------
 Hartree-Fock
 using 64 threads for integral computing
 -------------------------------------------------------
 OpenMP Integral computing Module                
 Release: version 1.0, May 2013, Q-Chem Inc. Pittsburgh 
 -------------------------------------------------------
 A restricted SCF calculation will be
 performed using DIIS
 SCF converges when DIIS error is below 1.0e-06
 ---------------------------------------
  Cycle       Energy         DIIS error
 ---------------------------------------
    1   -1583.1135027808      1.86e-02  
    2   -1571.1643247699      2.03e-03  
    3   -1571.5049940493      1.56e-03  
    4   -1571.7286257619      2.52e-04  
    5   -1571.7424353167      7.82e-05  
    6   -1571.7438676591      3.04e-05  
    7   -1571.7442940545      1.56e-05  
    8   -1571.7444113799      6.28e-06  
    9   -1571.7444312762      2.87e-06  
   10   -1571.7444351916      1.23e-06  
   11   -1571.7444363935      5.71e-07  Convergence criterion met
 ---------------------------------------
 SCF time:   CPU 6546.67s  wall 263.00s 

************** Final PCM Free Energy Summary **************
 G_electrostatic  =      -0.02910264 hartree =     -18.26218368 kcal/mol
 G_cavitation     =       0.00000000 hartree =       0.00000000 kcal/mol
 G_dispersion     =       0.00000000 hartree =       0.00000000 kcal/mol
 G_repulsion      =       0.00000000 hartree =       0.00000000 kcal/mol
 --------------------------------------------------
 Non-electrostatic Free Energy =       0.00000000 hartree =       0.00000000 kcal/mol
 Total                         =      -0.02910264 hartree =     -18.26218368 kcal/mol
 --------------------------------------------------
 SCF Energy (H0 + V/2)                       =   -1571.74443639 
 Solute Internal Energy (H0)                 =   -1571.71533375 
 Total Free Energy (H0 + V/2 + non-elec)     =   -1571.74443639 hartree
                                             = -986284.51982847 kcal/mol
***********************************************************

 SCF   energy in the final basis set =    -1571.7444363935
 Total energy in the final basis set =    -1571.7444363935


 --------------------------------------------------------------
  Generalized many-body perturbation theory program
  by Joonho Lee, Fazle Rob, Xintian Feng, Evgeny Epifanovsky

 No regularization used 
 (reg. param. = 0.0000e+00)
  (P|Q)^-1/2 Time:  CPU 143.10 s  wall 2.26 s

 In RI-MP2 calculation: 
 # of frozen core orbitals: 31

 Components of the RIMP2 correlation energy:
        aaaa    correlation energy =        -0.6148791805 a.u.
        abab    correlation energy =        -3.4251289105 a.u.
        bbbb    correlation energy =        -0.6148791805 a.u.
        non-Brillouin singles      =        -0.0000000000 a.u.
        total same-spin energy     =        -1.2297583611 a.u.
        total opposite-spin energy =        -3.4251289105 a.u.

 Total  RIMP2   correlation energy =        -4.6548872716 a.u.
        RIMP2         total energy =     -1576.3993236651 a.u.

 RI-MP2 Energy Time:  CPU 1900.00 s  wall 31.59 s
 
 --------------------------------------------------------------
 
                    Orbital Energies (a.u.)
 --------------------------------------------------------------
 
 Alpha MOs
 -- Occupied --
-91.9922 -20.5513 -20.5446 -20.5420 -20.5408 -15.6270 -15.6214 -11.3933
-11.3853 -11.3838 -11.3794 -11.3089 -11.3088 -11.3054 -11.3049 -11.2968
-11.2951 -11.2903 -11.2806 -11.2696 -11.2683 -11.2656 -11.2631 -11.2594
-11.2530 -11.2503 -11.2490  -8.9920  -6.6729  -6.6724  -6.6717  -1.4195
 -1.4124  -1.3973  -1.3916  -1.2622  -1.2556  -1.2307  -1.1872  -1.1520
 -1.1144  -1.0872  -1.0471  -0.9961  -0.9879  -0.9830  -0.9552  -0.9505
 -0.8966  -0.8881  -0.8771  -0.8604  -0.7940  -0.7764  -0.7711  -0.7663
 -0.7414  -0.7150  -0.7030  -0.6912  -0.6770  -0.6722  -0.6675  -0.6574
 -0.6474  -0.6440  -0.6385  -0.6317  -0.6310  -0.6271  -0.6227  -0.6053
 -0.5865  -0.5741  -0.5650  -0.5606  -0.5569  -0.5516  -0.5500  -0.5479
 -0.5475  -0.5436  -0.5207  -0.5170  -0.5096  -0.4835  -0.4754  -0.4678
 -0.4579  -0.4514  -0.4430  -0.4350  -0.4134  -0.4077  -0.3545  -0.3529
 -0.3290  -0.2847
 -- Virtual --
  0.0140   0.0422   0.0906   0.0925   0.1365   0.1496   0.1529   0.1612
  0.1642   0.1730   0.1811   0.1841   0.1875   0.1924   0.1983   0.2044
  0.2104   0.2170   0.2230   0.2290   0.2315   0.2325   0.2367   0.2429
  0.2661   0.2693   0.2963   0.3036   0.3130   0.3188   0.3242   0.3271
  0.3318   0.3416   0.3457   0.3506   0.3563   0.3595   0.3636   0.3689
  0.3719   0.3795   0.3845   0.3866   0.3911   0.3970   0.4025   0.4066
  0.4192   0.4218   0.4288   0.4343   0.4360   0.4414   0.4462   0.4491
  0.4572   0.4584   0.4652   0.4713   0.4752   0.4831   0.4880   0.4927
  0.4955   0.5013   0.5025   0.5097   0.5155   0.5229   0.5246   0.5254
  0.5304   0.5374   0.5415   0.5434   0.5511   0.5521   0.5606   0.5662
  0.5702   0.5769   0.5804   0.5852   0.5889   0.5897   0.5948   0.5962
  0.6019   0.6050   0.6070   0.6094   0.6150   0.6166   0.6206   0.6238
  0.6301   0.6343   0.6350   0.6410   0.6427   0.6434   0.6477   0.6557
  0.6577   0.6629   0.6731   0.6772   0.6847   0.6920   0.6939   0.6999
  0.7060   0.7117   0.7223   0.7304   0.7354   0.7422   0.7510   0.7579
  0.7640   0.7675   0.7762   0.7781   0.7842   0.7874   0.7958   0.8000
  0.8030   0.8159   0.8227   0.8238   0.8277   0.8338   0.8400   0.8444
  0.8497   0.8521   0.8595   0.8657   0.8685   0.8706   0.8785   0.8838
  0.8911   0.8964   0.9041   0.9138   0.9172   0.9187   0.9257   0.9296
  0.9383   0.9403   0.9490   0.9533   0.9618   0.9715   0.9743   0.9757
  0.9801   0.9826   0.9871   0.9983   1.0011   1.0052   1.0086   1.0124
  1.0221   1.0295   1.0408   1.0435   1.0505   1.0548   1.0589   1.0607
  1.0666   1.0717   1.0727   1.0755   1.0864   1.0881   1.0941   1.1014
  1.1055   1.1103   1.1191   1.1276   1.1335   1.1358   1.1382   1.1456
  1.1535   1.1573   1.1593   1.1672   1.1741   1.1750   1.1798   1.1893
  1.1945   1.1978   1.2031   1.2085   1.2116   1.2190   1.2207   1.2276
  1.2294   1.2334   1.2388   1.2429   1.2501   1.2626   1.2661   1.2773
  1.2783   1.2870   1.2995   1.3060   1.3128   1.3189   1.3356   1.3413
  1.3474   1.3552   1.3598   1.3624   1.3702   1.3714   1.3806   1.3856
  1.3901   1.3946   1.4010   1.4039   1.4161   1.4226   1.4252   1.4412
  1.4447   1.4530   1.4634   1.4687   1.4778   1.4862   1.4924   1.4929
  1.4978   1.5050   1.5097   1.5150   1.5244   1.5292   1.5310   1.5383
  1.5417   1.5476   1.5503   1.5568   1.5635   1.5708   1.5717   1.5770
  1.5843   1.5944   1.6054   1.6084   1.6153   1.6272   1.6309   1.6409
  1.6456   1.6539   1.6604   1.6763   1.6836   1.6888   1.6901   1.6961
  1.7010   1.7144   1.7155   1.7264   1.7396   1.7478   1.7514   1.7558
  1.7615   1.7676   1.7738   1.7906   1.7940   1.7961   1.8093   1.8147
  1.8205   1.8261   1.8447   1.8460   1.8559   1.8614   1.8681   1.8723
  1.8799   1.8856   1.8944   1.8996   1.9058   1.9118   1.9267   1.9353
  1.9496   1.9590   1.9691   1.9816   1.9888   1.9950   1.9988   2.0192
  2.0275   2.0372   2.0557   2.0643   2.0820   2.0884   2.1010   2.1201
  2.1336   2.1367   2.1594   2.1649   2.1853   2.2032   2.2138   2.2192
  2.2318   2.2443   2.2490   2.2656   2.2737   2.2934   2.3026   2.3084
  2.3215   2.3270   2.3331   2.3453   2.3595   2.3641   2.3744   2.3843
  2.3977   2.4160   2.4223   2.4290   2.4405   2.4535   2.4569   2.4624
  2.4713   2.4851   2.4904   2.4978   2.5144   2.5252   2.5355   2.5446
  2.5558   2.5646   2.5790   2.5836   2.5889   2.6053   2.6098   2.6139
  2.6285   2.6314   2.6393   2.6442   2.6544   2.6584   2.6707   2.6728
  2.6863   2.6894   2.6906   2.7009   2.7186   2.7222   2.7259   2.7396
  2.7467   2.7494   2.7568   2.7593   2.7711   2.7757   2.7848   2.7902
  2.8200   2.8247   2.8380   2.8425   2.8533   2.8554   2.8608   2.8687
  2.8743   2.8765   2.8857   2.8894   2.8949   2.9032   2.9095   2.9234
  2.9259   2.9292   2.9352   2.9385   2.9449   2.9562   2.9654   2.9706
  2.9757   2.9794   2.9836   2.9985   3.0061   3.0098   3.0169   3.0263
  3.0290   3.0376   3.0507   3.0556   3.0591   3.0688   3.0765   3.0867
  3.0929   3.0973   3.1025   3.1061   3.1083   3.1114   3.1193   3.1227
  3.1300   3.1376   3.1462   3.1549   3.1605   3.1623   3.1659   3.1716
  3.1823   3.1885   3.1934   3.2006   3.2079   3.2107   3.2154   3.2197
  3.2280   3.2355   3.2468   3.2504   3.2556   3.2604   3.2611   3.2686
  3.2688   3.2762   3.2820   3.2854   3.2886   3.2983   3.3016   3.3093
  3.3113   3.3169   3.3246   3.3266   3.3279   3.3291   3.3322   3.3372
  3.3445   3.3493   3.3523   3.3573   3.3593   3.3678   3.3713   3.3755
  3.3770   3.3827   3.3922   3.3943   3.3953   3.3998   3.4014   3.4073
  3.4177   3.4201   3.4276   3.4295   3.4348   3.4394   3.4447   3.4475
  3.4547   3.4581   3.4612   3.4733   3.4774   3.4799   3.4821   3.4910
  3.4953   3.4987   3.5031   3.5075   3.5135   3.5167   3.5242   3.5277
  3.5336   3.5361   3.5394   3.5512   3.5533   3.5570   3.5673   3.5725
  3.5844   3.5860   3.5957   3.6002   3.6036   3.6122   3.6188   3.6262
  3.6311   3.6360   3.6390   3.6417   3.6434   3.6499   3.6572   3.6605
  3.6715   3.6806   3.6848   3.6863   3.6921   3.6957   3.7030   3.7104
  3.7176   3.7218   3.7283   3.7379   3.7401   3.7423   3.7488   3.7554
  3.7618   3.7637   3.7683   3.7791   3.7835   3.7927   3.7970   3.8002
  3.8098   3.8136   3.8172   3.8252   3.8323   3.8385   3.8405   3.8475
  3.8500   3.8582   3.8652   3.8698   3.8805   3.8852   3.8884   3.9045
  3.9135   3.9147   3.9187   3.9259   3.9313   3.9480   3.9494   3.9523
  3.9577   3.9685   3.9694   3.9800   3.9850   3.9881   4.0029   4.0122
  4.0183   4.0235   4.0288   4.0368   4.0476   4.0594   4.0630   4.0724
  4.0940   4.1051   4.1114   4.1188   4.1231   4.1340   4.1391   4.1416
  4.1478   4.1558   4.1665   4.1688   4.1729   4.1809   4.1854   4.2012
  4.2108   4.2216   4.2304   4.2349   4.2388   4.2446   4.2506   4.2619
  4.2680   4.2743   4.2810   4.2842   4.2906   4.2916   4.2993   4.3021
  4.3079   4.3173   4.3261   4.3286   4.3324   4.3439   4.3466   4.3508
  4.3548   4.3662   4.3705   4.3721   4.3753   4.3819   4.3887   4.3943
  4.4033   4.4090   4.4119   4.4193   4.4309   4.4347   4.4438   4.4538
  4.4756   4.4805   4.4902   4.4956   4.5052   4.5130   4.5217   4.5232
  4.5356   4.5428   4.5470   4.5552   4.5699   4.5757   4.5792   4.5838
  4.5919   4.5981   4.6063   4.6099   4.6219   4.6270   4.6305   4.6339
  4.6457   4.6582   4.6645   4.6826   4.6890   4.6977   4.7016   4.7071
  4.7135   4.7335   4.7344   4.7442   4.7722   4.7813   4.7966   4.8022
  4.8123   4.8233   4.8353   4.8465   4.8488   4.8583   4.8644   4.8722
  4.8825   4.8846   4.9030   4.9184   4.9402   4.9479   4.9491   4.9731
  4.9786   4.9949   5.0061   5.0264   5.0372   5.0430   5.0432   5.0574
  5.0698   5.0988   5.1051   5.1211   5.1229   5.1275   5.1351   5.1365
  5.1554   5.1695   5.1739   5.1795   5.1971   5.2069   5.2249   5.2505
  5.2583   5.2627   5.2692   5.2847   5.3043   5.3124   5.3195   5.3260
  5.3305   5.3378   5.3499   5.3730   5.3772   5.3830   5.4031   5.4157
  5.4397   5.4409   5.4723   5.4897   5.4941   5.5076   5.5137   5.5157
  5.5190   5.5348   5.5424   5.5541   5.5585   5.5610   5.5623   5.5674
  5.5789   5.5852   5.5890   5.5971   5.6083   5.6158   5.6208   5.6344
  5.6459   5.6512   5.6589   5.6617   5.6663   5.6729   5.6873   5.6936
  5.6957   5.7062   5.7200   5.7389   5.7503   5.7616   5.7696   5.7807
  5.7841   5.7878   5.7941   5.8313   5.8420   5.8544   5.8863   5.9046
  5.9145   5.9555   5.9593   5.9862   6.0064   6.0318   6.0386   6.0414
  6.0554   6.0838   6.0998   6.1115   6.1231   6.1394   6.1515   6.1852
  6.2047   6.2194   6.2255   6.2275   6.2430   6.2630   6.2705   6.2832
  6.3091   6.3150   6.3233   6.3507   6.3667   6.3904   6.4369   6.4862
  6.5195   6.5311   6.5747   6.5826   6.6027   6.6139   6.6590   6.6655
  6.6744   6.7242   6.8472   6.8511   6.8889   6.9020   6.9050   6.9243
  6.9270   6.9415   7.1021   7.1078   7.1480   7.1931   7.2004   7.2360
  7.3474   7.3519   7.3574   7.3615   7.4760   7.5444   7.5705   7.5829
  7.5908   7.6025   7.6537   7.6792   7.6924   7.7152   8.8935  10.1107
 10.3393  11.2988  11.5510  11.7491  12.0661  12.0949  12.4250  12.4627
 12.9557  13.2320  13.3259  13.5577  13.8012  13.9266  14.1569  14.2796
 14.3162  14.3632  14.5425  14.5740  15.0348  15.6118  15.8262  16.3347
 --------------------------------------------------------------
 
          Ground-State Mulliken Net Atomic Charges

     Atom                 Charge (a.u.)
  ----------------------------------------
      1 C                    -0.085352
      2 C                    -0.029182
      3 C                    -0.110845
      4 C                    -0.126703
      5 H                     0.198962
      6 C                     0.018724
      7 C                     0.123582
      8 C                    -0.075642
      9 C                    -0.152686
     10 C                    -0.175410
     11 C                     0.250925
     12 H                     0.194084
     13 C                     0.344005
     14 C                     0.349853
     15 N                    -0.089951
     16 C                     0.357720
     17 C                     0.350500
     18 N                    -0.088799
     19 O                    -0.494038
     20 O                    -0.506608
     21 O                    -0.501717
     22 O                    -0.469439
     23 C                    -0.204633
     24 H                     0.139442
     25 H                     0.109262
     26 H                     0.109226
     27 C                    -0.197279
     28 H                     0.133435
     29 H                     0.111650
     30 H                     0.111103
     31 C                    -0.089434
     32 S                     0.009382
     33 C                    -0.220747
     34 C                    -0.145922
     35 C                    -0.208093
     36 H                     0.184168
     37 H                     0.190645
     38 H                     0.212586
     39 H                     0.137722
     40 H                     0.138069
     41 H                     0.197434
  ----------------------------------------
  Sum of atomic charges =     0.000000

 -----------------------------------------------------------------
                    Cartesian Multipole Moments
 -----------------------------------------------------------------
    Charge (ESU x 10^10)
                 0.0000
    Dipole Moment (Debye)
         X       1.4241      Y       2.1281      Z      -1.0774
       Tot       2.7781
    Quadrupole Moments (Debye-Ang)
        XX    -181.9647     XY      -6.4512     YY    -177.1588
        XZ      16.4071     YZ       5.1702     ZZ    -170.1130
    Octopole Moments (Debye-Ang^2)
       XXX     -51.1304    XXY     536.7748    XYY      35.3037
       YYY    1684.3577    XXZ      -6.2929    XYZ     -67.4429
       YYZ     -37.2176    XZZ     -15.6034    YZZ     528.2369
       ZZZ     -25.1170
    Hexadecapole Moments (Debye-Ang^3)
      XXXX   -3718.9191   XXXY    -164.3202   XXYY   -3734.3877
      XYYY    -910.9662   YYYY  -18033.9440   XXXZ    1533.2815
      XXYZ     -65.2283   XYYZ     912.8425   YYYZ     719.0767
      XXZZ   -1180.0765   XYZZ       5.8409   YYZZ   -3413.2724
      XZZZ    1497.8610   YZZZ     109.3327   ZZZZ   -2912.3271
 -----------------------------------------------------------------
 Total job time:  302.07s(wall), 8681.78s(cpu) 
 Wed Dec 27 10:21:25 2023

        *************************************************************
        *                                                           *
        *  Thank you very much for using Q-Chem.  Have a nice day.  *
        *                                                           *
        *************************************************************


0 sent ACK to 0 
now end server 0 ... 
cleanup process ... done
remove work dirs ./qchem398576.0 -- ./qchem398576.0
rm -rf ./qchem398576.0
rm -rf ./qchem398576
