You are running Q-Chem version: 5.4.0

#
# job setting
#
local host:  exp-3-40
current dir: /home/rramji/project-csd799/aromodel/pndit-qchem/hydrogenated-rotation-run
input file:  Dimethyl_Naphthalene_Dicarboximide_Phi_50_Theta_10_Thiophene_Hydrogenated.qcin
output file: 
nprocs     : 1
nthreads   : 64
#
# qchem installation setting
#
QC:          /cm/shared/apps/spack/cpu/opt/spack/linux-centos8-zen2/gcc-10.2.0/qchem-5.4-akfmr7b3t57bfs6qan3padb2wnb2i7cl
QCAUX:       /cm/shared/apps/spack/cpu/opt/spack/linux-centos8-zen2/gcc-10.2.0/qchem-5.4-akfmr7b3t57bfs6qan3padb2wnb2i7cl/qcaux
QCPROG:      /cm/shared/apps/spack/cpu/opt/spack/linux-centos8-zen2/gcc-10.2.0/qchem-5.4-akfmr7b3t57bfs6qan3padb2wnb2i7cl/exe/qcprog.exe
QCPROG_S:    /cm/shared/apps/spack/cpu/opt/spack/linux-centos8-zen2/gcc-10.2.0/qchem-5.4-akfmr7b3t57bfs6qan3padb2wnb2i7cl/exe/qcprog.exe_s
PARALLEL:    -DPARALLEL
QCMPI:       mpich
#
# qchem directory setting
#
qcrun:       qchem1977705
QCSCRATCH:   .
QCLOCALSCR:  
QCTMPDIR:    .
QCFILEPREF:  ./qchem1977705
QCSAVEDIR:   
workdirs:    ./qchem1977705
workdir0:    ./qchem1977705
partmpdirs =  
#
# parallel setting
#
QCRSH:           ssh
QCMPI:           mpich
QCMPIRUN:        /cm/shared/apps/spack/cpu/opt/spack/linux-centos8-zen2/gcc-10.2.0/qchem-5.4-akfmr7b3t57bfs6qan3padb2wnb2i7cl/bin/mpi/mpirun_qchem
QCMACHINEFILE:   ./qchem1977705/hostfile
exp-3-40

#
# env setting
#
exported envs:   QC QCAUX QCSCRATCH QCRUNNAME QCFILEPREF QCPROG QCPROG_S GUIFILE

Running Job 1 of 1 Dimethyl_Naphthalene_Dicarboximide_Phi_50_Theta_10_Thiophene_Hydrogenated.qcin
qchem Dimethyl_Naphthalene_Dicarboximide_Phi_50_Theta_10_Thiophene_Hydrogenated.qcin_1977705.0 ./qchem1977705/ 1
/cm/shared/apps/spack/cpu/opt/spack/linux-centos8-zen2/gcc-10.2.0/qchem-5.4-akfmr7b3t57bfs6qan3padb2wnb2i7cl/bin/mpi/mpirun_qchem -machinefile ./qchem1977705/hostfile -np 1 /cm/shared/apps/spack/cpu/opt/spack/linux-centos8-zen2/gcc-10.2.0/qchem-5.4-akfmr7b3t57bfs6qan3padb2wnb2i7cl/exe/qcprog.exe Dimethyl_Naphthalene_Dicarboximide_Phi_50_Theta_10_Thiophene_Hydrogenated.qcin_1977705.0 ./qchem1977705/

Process 0 of 1 is on exp-3-40 - thread support 0
initial socket setup ...start
initial socket setup ...done 
now start server 0 ... 
                  Welcome to Q-Chem
     A Quantum Leap Into The Future Of Chemistry


 Q-Chem 5.4, Q-Chem, Inc., Pleasanton, CA (2021)

 License issued to: University of California, San Diego (site)

 E. Epifanovsky,  A. T. B. Gilbert,  Xintian Feng,  Joonho Lee,  Yuezhi Mao,  
 N. Mardirossian,  P. Pokhilko,  A. White,  M. Wormit,  M. P. Coons,  
 A. L. Dempwolff,  Zhengting Gan,  D. Hait,  P. R. Horn,  L. D. Jacobson,  
 I. Kaliman,  J. Kussmann,  A. W. Lange,  Ka Un Lao,  D. S. Levine,  Jie Liu,  
 S. C. McKenzie,  A. F. Morrison,  K. Nanda,  F. Plasser,  D. R. Rehn,  
 M. L. Vidal,  Zhi-Qiang You,  Ying Zhu,  B. Alam,  B. Albrecht,  
 A. Aldossary,  E. Alguire,  J. H. Andersen,  D. Barton,  K. Begam,  A. Behn,  
 Y. A. Bernard,  E. J. Berquist,  H. Burton,  A. Carreras,  K. Carter-Fenk,  
 R. Chakraborty,  A. D. Chien,  K. D. Closser,  V. Cofer-Shabica,  
 S. Dasgupta,  Jia Deng,  M. de Wergifosse,  M. Diedenhofen,  Hainam Do,  
 S. Ehlert,  Po-Tung Fang,  S. Fatehi,  Qingguo Feng,  J. Gayvert,  
 Qinghui Ge,  G. Gidofalvi,  M. Goldey,  J. Gomes,  C. Gonzalez-Espinoza,  
 S. Gulania,  A. Gunina,  M. W. D. Hanson-Heine,  P. H. P. Harbach,  
 A. W. Hauser,  M. F. Herbst,  M. Hernandez Vera,  M. Hodecker,  
 Z. C. Holden,  S. Houck,  Xunkun Huang,  Kerwin Hui,  B. C. Huynh,  
 M. Ivanov,  Hyunjun Ji,  Hanjie Jiang,  B. Kaduk,  S. Kaehler,  
 K. Khistyaev,  Jaehoon Kim,  P. Klunzinger,  Z. Koczor-Benda,  
 Joong Hoon Koh,  D. Kosenkov,  L. Koulias,  T. Kowalczyk,  C. M. Krauter,  
 K. Kue,  A. Kunitsa,  T. Kus,  A. Landau,  K. V. Lawler,  D. Lefrancois,  
 S. Lehtola,  Rain Li,  Yi-Pei Li,  Jiashu Liang,  M. Liebenthal,  
 Hung-Hsuan Lin,  You-Sheng Lin,  Fenglai Liu,  Kuan-Yu Liu,  
 M. Loipersberger,  A. Luenser,  A. Manjanath,  P. Manohar,  E. Mansoor,  
 S. F. Manzer,  Shan-Ping Mao,  A. V. Marenich,  T. Markovich,  S. Mason,  
 S. A. Maurer,  P. F. McLaughlin,  M. F. S. J. Menger,  J.-M. Mewes,  
 S. A. Mewes,  P. Morgante,  J. W. Mullinax,  T. S. Nguyen-Beck,  
 K. J. Oosterbaan,  G. Paran,  Alexander C. Paul,  Suranjan K. Paul,  
 F. Pavosevic,  Zheng Pei,  S. Prager,  E. I. Proynov,  E. Ramos,  B. Rana,  
 A. E. Rask,  A. Rettig,  R. M. Richard,  F. Rob,  E. Rossomme,  T. Scheele,  
 M. Scheurer,  M. Schneider,  N. Sergueev,  S. M. Sharada,  W. Skomorowski,  
 D. W. Small,  C. J. Stein,  Yu-Chuan Su,  E. J. Sundstrom,  Zhen Tao,  
 J. Thirman,  T. Tsuchimochi,  N. M. Tubman,  S. P. Veccham,  O. Vydrov,  
 J. Wenzel,  J. Witte,  A. Yamada,  Kun Yao,  S. Yeganeh,  S. R. Yost,  
 A. Zech,  Igor Ying Zhang,  Xing Zhang,  Yu Zhang,  D. Zuev,  
 A. Aspuru-Guzik,  A. T. Bell,  N. A. Besley,  K. B. Bravaya,  B. R. Brooks,  
 D. Casanova,  Jeng-Da Chai,  S. Coriani,  C. J. Cramer,  
 A. E. DePrince, III,  R. A. DiStasio Jr.,  A. Dreuw,  B. D. Dunietz,  
 T. R. Furlani,  W. A. Goddard III,  S. Grimme,  S. Hammes-Schiffer,  
 T. Head-Gordon,  W. J. Hehre,  Chao-Ping Hsu,  T.-C. Jagau,  Yousung Jung,  
 A. Klamt,  Jing Kong,  D. S. Lambrecht,  WanZhen Liang,  N. J. Mayhall,  
 C. W. McCurdy,  J. B. Neaton,  C. Ochsenfeld,  J. A. Parkhill,  R. Peverati,  
 V. A. Rassolov,  Yihan Shao,  L. V. Slipchenko,  T. Stauch,  R. P. Steele,  
 J. E. Subotnik,  A. J. W. Thom,  A. Tkatchenko,  D. G. Truhlar,  
 T. Van Voorhis,  T. A. Wesolowski,  K. B. Whaley,  H. L. Woodcock III,  
 P. M. Zimmerman,  S. Faraji,  P. M. W. Gill,  M. Head-Gordon,  
 J. M. Herbert,  A. I. Krylov

 Contributors to earlier versions of Q-Chem not listed above: 
 R. D. Adamson,  B. Austin,  R. Baer,  J. Baker,  G. J. O. Beran,  
 K. Brandhorst,  S. T. Brown,  E. F. C. Byrd,  A. K. Chakraborty,  
 G. K. L. Chan,  Chun-Min Chang,  Yunqing Chen,  C.-L. Cheng,  
 Siu Hung Chien,  D. M. Chipman,  D. L. Crittenden,  H. Dachsel,  
 R. J. Doerksen,  A. D. Dutoi,  R. G. Edgar,  J. Fosso-Tande,  
 L. Fusti-Molnar,  D. Ghosh,  A. Ghysels,  A. Golubeva-Zadorozhnaya,  
 J. Gonthier,  M. S. Gordon,  S. R. Gwaltney,  G. Hawkins,  J. E. Herr,  
 A. Heyden,  S. Hirata,  E. G. Hohenstein,  G. Kedziora,  F. J. Keil,  
 C. Kelley,  Jihan Kim,  R. A. King,  R. Z. Khaliullin,  P. P. Korambath,  
 W. Kurlancheek,  A. Laurent,  A. M. Lee,  M. S. Lee,  S. V. Levchenko,  
 Ching Yeh Lin,  D. Liotard,  E. Livshits,  R. C. Lochan,  I. Lotan,  
 L. A. Martinez-Martinez,  P. E. Maslen,  N. Nair,  D. P. O'Neill,  
 D. Neuhauser,  E. Neuscamman,  C. M. Oana,  R. Olivares-Amaya,  R. Olson,  
 T. M. Perrine,  B. Peters,  P. A. Pieniazek,  A. Prociuk,  Y. M. Rhee,  
 J. Ritchie,  M. A. Rohrdanz,  E. Rosta,  N. J. Russ,  H. F. Schaefer III,  
 M. W. Schmidt,  N. E. Schultz,  S. Sharma,  N. Shenvi,  C. D. Sherrill,  
 A. C. Simmonett,  A. Sodt,  T. Stein,  D. Stuck,  K. S. Thanthiriwatte,  
 V. Vanovschi,  L. Vogt,  Tao Wang,  A. Warshel,  M. A. Watson,  
 C. F. Williams,  Q. Wu,  X. Xu,  Jun Yang,  W. Zhang,  Yan Zhao

 Please cite Q-Chem as follows:
 Y. Shao et al., Mol. Phys. 113, 184-215 (2015)
 DOI: 10.1080/00268976.2014.952696

 Q-Chem 5.4.0 for Intel X86 EM64T Linux

 Parts of Q-Chem use Armadillo 9.800.1 (Horizon Scraper).
 http://arma.sourceforge.net/

 Q-Chem begins on Wed Dec 27 09:57:27 2023  

 Host: 
0

     Scratch files written to ./qchem1977705//
 May1621 |scratch|qcdevops|jenkins|workspace|build_RNUM    
 Parallel job on  1  processors
 Processing $rem in /cm/shared/apps/spack/cpu/opt/spack/linux-centos8-zen2/gcc-10.2.0/qchem-5.4-akfmr7b3t57bfs6qan3padb2wnb2i7cl/config/preferences:
 Processing $rem in /home/rramji/.qchemrc:
 Symmetry turned off for PCM/SM12/SMD calculation
 Core orbitals will be frozen

 Checking the input file for inconsistencies... 	...done.

 Q-Chem warning in module forms1/BasisType.C, line 2236:

 You are not using the predefined 5D/6D in this basis set.


--------------------------------------------------------------
User input:
--------------------------------------------------------------
$molecule
0 1
C	0.043160	-6.741404	-0.253280
C	0.269777	-6.155638	-1.539213
C	-0.145543	-5.791452	0.814295
C	0.318377	-4.803786	-1.813519
H	0.422058	-6.821518	-2.403941
C	-0.094194	-4.378638	0.527140
C	0.137191	-3.838032	-0.783072
C	-0.275104	-3.413062	1.556403
C	0.188116	-2.426473	-1.067932
C	-0.226701	-2.059348	1.285420
C	-0.000000	-1.478216	-0.000000
H	-0.378931	-1.394783	2.151147
C	-0.397845	-6.187987	2.234582
C	-0.523637	-3.798164	2.965273
N	-0.567586	-5.170003	3.204744
C	0.567421	-4.424987	-3.226257
C	0.439541	-2.036627	-2.489446
N	0.609650	-3.049156	-3.459801
O	-0.468608	-7.353131	2.619468
O	-0.683034	-2.986854	3.874668
O	0.725131	-5.248946	-4.124806
O	0.512648	-0.878829	-2.895819
C	-0.813908	-5.563799	4.595691
H	-0.822891	-6.664085	4.640022
H	-1.781600	-5.147101	4.934830
H	-0.020360	-5.148785	5.246157
C	0.851649	-2.587487	-4.829716
H	0.962191	-3.483329	-5.462742
H	1.765865	-1.964972	-4.863242
H	0.005383	-1.962932	-5.173521
C	0.000000	0.000000	0.000000
S	0.607475	0.509994	1.580530
C	1.862020	1.562717	0.904911
C	0.764397	0.641624	-0.985400
C	1.775697	1.490335	-0.493528
H	0.583895	0.490135	-2.059934
H	2.450484	2.056643	-1.152593
H	2.536607	2.128872	1.556025
H	0.909181	-7.361589	0.008120
H	-0.860264	-7.361192	-0.304668
H	1.063500	-1.478831	0.188062
$end

$rem
JOBTYPE		SP
EXCHANGE	HF
CORRELATION	pRIMP2
BASIS		cc-pvtz
METHOD		rimp2
AUX_BASIS	rimp2-cc-pvtz
SOLVENT_METHOD	PCM
PURECART	11111
SYMMETRY	false
MEM_TOTAL	110000
SCF_CONVERGENCE = 6
THRESH=10
GUI = 2
$end



$solvent
dielectric 4.90
$end
--------------------------------------------------------------
 ----------------------------------------------------------------
             Standard Nuclear Orientation (Angstroms)
    I     Atom           X                Y                Z
 ----------------------------------------------------------------
    1      C       0.0431600000    -6.7414040000    -0.2532800000
    2      C       0.2697770000    -6.1556380000    -1.5392130000
    3      C      -0.1455430000    -5.7914520000     0.8142950000
    4      C       0.3183770000    -4.8037860000    -1.8135190000
    5      H       0.4220580000    -6.8215180000    -2.4039410000
    6      C      -0.0941940000    -4.3786380000     0.5271400000
    7      C       0.1371910000    -3.8380320000    -0.7830720000
    8      C      -0.2751040000    -3.4130620000     1.5564030000
    9      C       0.1881160000    -2.4264730000    -1.0679320000
   10      C      -0.2267010000    -2.0593480000     1.2854200000
   11      C       0.0000000000    -1.4782160000     0.0000000000
   12      H      -0.3789310000    -1.3947830000     2.1511470000
   13      C      -0.3978450000    -6.1879870000     2.2345820000
   14      C      -0.5236370000    -3.7981640000     2.9652730000
   15      N      -0.5675860000    -5.1700030000     3.2047440000
   16      C       0.5674210000    -4.4249870000    -3.2262570000
   17      C       0.4395410000    -2.0366270000    -2.4894460000
   18      N       0.6096500000    -3.0491560000    -3.4598010000
   19      O      -0.4686080000    -7.3531310000     2.6194680000
   20      O      -0.6830340000    -2.9868540000     3.8746680000
   21      O       0.7251310000    -5.2489460000    -4.1248060000
   22      O       0.5126480000    -0.8788290000    -2.8958190000
   23      C      -0.8139080000    -5.5637990000     4.5956910000
   24      H      -0.8228910000    -6.6640850000     4.6400220000
   25      H      -1.7816000000    -5.1471010000     4.9348300000
   26      H      -0.0203600000    -5.1487850000     5.2461570000
   27      C       0.8516490000    -2.5874870000    -4.8297160000
   28      H       0.9621910000    -3.4833290000    -5.4627420000
   29      H       1.7658650000    -1.9649720000    -4.8632420000
   30      H       0.0053830000    -1.9629320000    -5.1735210000
   31      C       0.0000000000     0.0000000000     0.0000000000
   32      S       0.6074750000     0.5099940000     1.5805300000
   33      C       1.8620200000     1.5627170000     0.9049110000
   34      C       0.7643970000     0.6416240000    -0.9854000000
   35      C       1.7756970000     1.4903350000    -0.4935280000
   36      H       0.5838950000     0.4901350000    -2.0599340000
   37      H       2.4504840000     2.0566430000    -1.1525930000
   38      H       2.5366070000     2.1288720000     1.5560250000
   39      H       0.9091810000    -7.3615890000     0.0081200000
   40      H      -0.8602640000    -7.3611920000    -0.3046680000
   41      H       1.0635000000    -1.4788310000     0.1880620000
 ----------------------------------------------------------------
 Nuclear Repulsion Energy =        2583.00873255 hartrees
 There are       98 alpha and       98 beta electrons
 Requested basis set is cc-pVTZ
 There are 356 shells and 1010 basis functions

 Total QAlloc Memory Limit 110000 MB
 Mega-Array Size       188 MB
 MEM_STATIC part       192 MB
 Discretize the solute cavity surface with Lebedev spheres
	Using 110 Lebedev grid points for each H atom
	Using 194 Lebedev grid points for other atoms
	Atomic van der Waals radii will be scaled by 1.20
 Remove points where switching function is < 1.0e-08
 Keep 2567 surface tesserae and discard 4211 interior tesserae
 Molecular Surface Area = 357.913 Angst**2
 Requested basis set is rimp2-cc-pVTZ
 There are 770 shells and 2648 basis functions
 A cutoff of  1.0D-10 yielded  34937 shell pairs
 There are    264083 function pairs (    341674 Cartesian)
 Smallest overlap matrix eigenvalue = 8.91E-06

 Q-Chem warning in module stvman/mkSTV.C, line 323:

 Overlap eigenvalue is smaller than square root of threshold
 Use THRESH >= 12 to get rid of this warning


 Scale SEOQF with 1.000000e-01/1.000000e-02/1.000000e-02

 Standard Electronic Orientation quadrupole field applied
 Nucleus-field energy     =     0.0000000127 hartrees
 Guess from superposition of atomic densities
 Warning:  Energy on first SCF cycle will be non-variational
 SAD guess density has 196.000000 electrons

 -----------------------------------------------------------------------
  General SCF calculation program by
  Eric Jon Sundstrom, Paul Horn, Yuezhi Mao, Dmitri Zuev, Alec White,
  David Stuck, Shaama M.S., Shane Yost, Joonho Lee, David Small,
  Daniel Levine, Susi Lehtola, Hugh Burton, Evgeny Epifanovsky,
  Bang C. Huynh
 -----------------------------------------------------------------------
 Hartree-Fock
 using 64 threads for integral computing
 -------------------------------------------------------
 OpenMP Integral computing Module                
 Release: version 1.0, May 2013, Q-Chem Inc. Pittsburgh 
 -------------------------------------------------------
 A restricted SCF calculation will be
 performed using DIIS
 SCF converges when DIIS error is below 1.0e-06
 ---------------------------------------
  Cycle       Energy         DIIS error
 ---------------------------------------
    1   -1583.3842560031      1.87e-02  
    2   -1571.0920241434      2.01e-03  
    3   -1571.4345970263      1.52e-03  
    4   -1571.6489948980      2.57e-04  
    5   -1571.6633431955      8.00e-05  
    6   -1571.6648732536      3.13e-05  
    7   -1571.6653479159      1.56e-05  
    8   -1571.6654723057      6.41e-06  
    9   -1571.6654926890      2.73e-06  
   10   -1571.6654963869      1.19e-06  
   11   -1571.6654974505      5.39e-07  Convergence criterion met
 ---------------------------------------
 SCF time:   CPU 7345.11s  wall 293.00s 

************** Final PCM Free Energy Summary **************
 G_electrostatic  =      -0.02661515 hartree =     -16.70125998 kcal/mol
 G_cavitation     =       0.00000000 hartree =       0.00000000 kcal/mol
 G_dispersion     =       0.00000000 hartree =       0.00000000 kcal/mol
 G_repulsion      =       0.00000000 hartree =       0.00000000 kcal/mol
 --------------------------------------------------
 Non-electrostatic Free Energy =       0.00000000 hartree =       0.00000000 kcal/mol
 Total                         =      -0.02661515 hartree =     -16.70125998 kcal/mol
 --------------------------------------------------
 SCF Energy (H0 + V/2)                       =   -1571.66549745 
 Solute Internal Energy (H0)                 =   -1571.63888230 
 Total Free Energy (H0 + V/2 + non-elec)     =   -1571.66549745 hartree
                                             = -986234.98489413 kcal/mol
***********************************************************

 SCF   energy in the final basis set =    -1571.6654974505
 Total energy in the final basis set =    -1571.6654974505


 --------------------------------------------------------------
  Generalized many-body perturbation theory program
  by Joonho Lee, Fazle Rob, Xintian Feng, Evgeny Epifanovsky

 No regularization used 
 (reg. param. = 0.0000e+00)
  (P|Q)^-1/2 Time:  CPU 158.67 s  wall 2.70 s

 In RI-MP2 calculation: 
 # of frozen core orbitals: 31

 Components of the RIMP2 correlation energy:
        aaaa    correlation energy =        -0.6189848811 a.u.
        abab    correlation energy =        -3.4342473753 a.u.
        bbbb    correlation energy =        -0.6189848811 a.u.
        non-Brillouin singles      =        -0.0000000000 a.u.
        total same-spin energy     =        -1.2379697622 a.u.
        total opposite-spin energy =        -3.4342473753 a.u.

 Total  RIMP2   correlation energy =        -4.6722171375 a.u.
        RIMP2         total energy =     -1576.3377145880 a.u.

 RI-MP2 Energy Time:  CPU 3563.08 s  wall 60.30 s
 
 --------------------------------------------------------------
 
                    Orbital Energies (a.u.)
 --------------------------------------------------------------
 
 Alpha MOs
 -- Occupied --
-91.9832 -20.5541 -20.5462 -20.5405 -20.5394 -15.6307 -15.6202 -11.4011
-11.3868 -11.3824 -11.3777 -11.3078 -11.3045 -11.3042 -11.3036 -11.2968
-11.2926 -11.2859 -11.2746 -11.2684 -11.2676 -11.2652 -11.2630 -11.2587
-11.2524 -11.2464 -11.2397  -8.9847  -6.6655  -6.6648  -6.6643  -1.4289
 -1.4111  -1.4020  -1.3902  -1.2667  -1.2546  -1.2326  -1.1916  -1.1494
 -1.1133  -1.0845  -1.0475  -0.9976  -0.9888  -0.9871  -0.9554  -0.9471
 -0.8980  -0.8881  -0.8777  -0.8603  -0.7929  -0.7819  -0.7740  -0.7617
 -0.7389  -0.7317  -0.7017  -0.6887  -0.6826  -0.6742  -0.6679  -0.6577
 -0.6494  -0.6480  -0.6370  -0.6319  -0.6308  -0.6306  -0.6239  -0.6040
 -0.5928  -0.5694  -0.5673  -0.5639  -0.5574  -0.5531  -0.5522  -0.5479
 -0.5470  -0.5419  -0.5171  -0.5120  -0.5036  -0.4765  -0.4710  -0.4598
 -0.4555  -0.4444  -0.4389  -0.4348  -0.4176  -0.4071  -0.3594  -0.3443
 -0.3329  -0.2744
 -- Virtual --
  0.0114   0.0393   0.0713   0.0926   0.1458   0.1500   0.1575   0.1606
  0.1638   0.1688   0.1774   0.1789   0.1885   0.1966   0.2031   0.2051
  0.2132   0.2250   0.2263   0.2286   0.2329   0.2370   0.2471   0.2619
  0.2649   0.2743   0.3031   0.3076   0.3183   0.3222   0.3237   0.3252
  0.3364   0.3409   0.3460   0.3517   0.3558   0.3619   0.3636   0.3689
  0.3735   0.3824   0.3832   0.3873   0.3887   0.3986   0.4088   0.4092
  0.4146   0.4251   0.4290   0.4325   0.4330   0.4363   0.4444   0.4456
  0.4518   0.4577   0.4663   0.4677   0.4733   0.4840   0.4861   0.4972
  0.4989   0.5026   0.5049   0.5124   0.5147   0.5193   0.5266   0.5309
  0.5328   0.5394   0.5473   0.5499   0.5507   0.5559   0.5639   0.5686
  0.5727   0.5800   0.5808   0.5877   0.5906   0.5942   0.5985   0.6029
  0.6052   0.6078   0.6104   0.6155   0.6175   0.6209   0.6229   0.6291
  0.6332   0.6367   0.6372   0.6416   0.6437   0.6463   0.6536   0.6583
  0.6671   0.6735   0.6785   0.6808   0.6871   0.6916   0.6959   0.7044
  0.7112   0.7147   0.7275   0.7311   0.7395   0.7498   0.7580   0.7623
  0.7670   0.7709   0.7726   0.7785   0.7891   0.7958   0.8011   0.8038
  0.8069   0.8173   0.8187   0.8317   0.8374   0.8407   0.8474   0.8501
  0.8526   0.8595   0.8631   0.8680   0.8693   0.8745   0.8788   0.8878
  0.8929   0.9022   0.9075   0.9151   0.9193   0.9207   0.9285   0.9301
  0.9366   0.9397   0.9429   0.9551   0.9572   0.9675   0.9753   0.9849
  0.9870   0.9909   0.9983   0.9998   1.0098   1.0129   1.0218   1.0311
  1.0320   1.0360   1.0438   1.0501   1.0516   1.0581   1.0647   1.0666
  1.0701   1.0735   1.0777   1.0787   1.0923   1.0957   1.1018   1.1025
  1.1136   1.1163   1.1197   1.1288   1.1323   1.1363   1.1437   1.1484
  1.1513   1.1612   1.1654   1.1698   1.1742   1.1847   1.1856   1.1923
  1.1979   1.2058   1.2068   1.2116   1.2148   1.2167   1.2294   1.2331
  1.2398   1.2415   1.2468   1.2528   1.2555   1.2693   1.2741   1.2789
  1.2848   1.2919   1.2969   1.3063   1.3138   1.3263   1.3369   1.3387
  1.3524   1.3537   1.3644   1.3654   1.3742   1.3790   1.3821   1.3879
  1.3932   1.3952   1.4072   1.4080   1.4160   1.4258   1.4290   1.4430
  1.4498   1.4609   1.4630   1.4692   1.4762   1.4832   1.4963   1.5001
  1.5037   1.5052   1.5132   1.5208   1.5236   1.5291   1.5398   1.5419
  1.5490   1.5513   1.5579   1.5625   1.5649   1.5694   1.5772   1.5822
  1.5939   1.5995   1.6092   1.6115   1.6268   1.6309   1.6351   1.6493
  1.6556   1.6624   1.6650   1.6723   1.6814   1.6861   1.6977   1.7004
  1.7076   1.7205   1.7255   1.7326   1.7483   1.7504   1.7564   1.7631
  1.7721   1.7809   1.7858   1.7936   1.7980   1.8014   1.8076   1.8188
  1.8252   1.8438   1.8472   1.8518   1.8608   1.8674   1.8688   1.8780
  1.8784   1.8796   1.8901   1.9029   1.9085   1.9220   1.9425   1.9523
  1.9625   1.9703   1.9780   1.9893   2.0016   2.0094   2.0204   2.0342
  2.0364   2.0455   2.0594   2.0962   2.1028   2.1120   2.1220   2.1324
  2.1464   2.1571   2.1657   2.1751   2.1807   2.2054   2.2250   2.2346
  2.2367   2.2636   2.2702   2.2859   2.2920   2.2976   2.3100   2.3249
  2.3304   2.3355   2.3487   2.3566   2.3701   2.3724   2.3840   2.3925
  2.4067   2.4158   2.4289   2.4403   2.4511   2.4579   2.4634   2.4736
  2.4834   2.4964   2.5063   2.5131   2.5228   2.5448   2.5479   2.5550
  2.5672   2.5685   2.5759   2.5856   2.5897   2.5977   2.6149   2.6267
  2.6330   2.6383   2.6432   2.6498   2.6575   2.6654   2.6737   2.6824
  2.6837   2.6941   2.6991   2.7098   2.7254   2.7347   2.7376   2.7420
  2.7467   2.7516   2.7579   2.7736   2.7749   2.7876   2.7992   2.8116
  2.8264   2.8303   2.8434   2.8482   2.8570   2.8604   2.8642   2.8712
  2.8787   2.8924   2.8954   2.9003   2.9064   2.9088   2.9132   2.9201
  2.9296   2.9403   2.9448   2.9605   2.9644   2.9657   2.9741   2.9811
  2.9833   2.9902   3.0006   3.0021   3.0131   3.0221   3.0237   3.0315
  3.0325   3.0511   3.0583   3.0602   3.0669   3.0762   3.0827   3.0926
  3.0938   3.1027   3.1051   3.1098   3.1107   3.1145   3.1263   3.1340
  3.1399   3.1452   3.1470   3.1588   3.1644   3.1682   3.1705   3.1784
  3.1904   3.1952   3.1968   3.2034   3.2060   3.2179   3.2262   3.2295
  3.2377   3.2421   3.2439   3.2508   3.2568   3.2606   3.2651   3.2680
  3.2719   3.2788   3.2833   3.2890   3.2923   3.2940   3.3020   3.3040
  3.3114   3.3153   3.3253   3.3266   3.3303   3.3313   3.3400   3.3424
  3.3458   3.3518   3.3555   3.3616   3.3632   3.3721   3.3777   3.3797
  3.3834   3.3878   3.3880   3.3978   3.4037   3.4066   3.4114   3.4125
  3.4181   3.4244   3.4300   3.4333   3.4368   3.4436   3.4455   3.4537
  3.4586   3.4638   3.4689   3.4721   3.4812   3.4855   3.4900   3.4952
  3.4988   3.5026   3.5121   3.5134   3.5194   3.5260   3.5276   3.5355
  3.5451   3.5475   3.5579   3.5612   3.5697   3.5771   3.5816   3.5848
  3.5916   3.6020   3.6029   3.6126   3.6167   3.6223   3.6260   3.6320
  3.6343   3.6387   3.6418   3.6508   3.6551   3.6577   3.6611   3.6733
  3.6820   3.6863   3.6926   3.6979   3.7013   3.7133   3.7181   3.7243
  3.7320   3.7366   3.7415   3.7474   3.7556   3.7583   3.7615   3.7649
  3.7705   3.7755   3.7764   3.7837   3.7872   3.7979   3.8038   3.8087
  3.8134   3.8196   3.8279   3.8351   3.8384   3.8455   3.8504   3.8540
  3.8607   3.8714   3.8757   3.8826   3.8861   3.8964   3.9094   3.9143
  3.9205   3.9228   3.9385   3.9440   3.9490   3.9509   3.9546   3.9601
  3.9654   3.9807   3.9870   3.9936   4.0024   4.0097   4.0148   4.0167
  4.0303   4.0401   4.0522   4.0589   4.0611   4.0616   4.0699   4.0865
  4.0965   4.1051   4.1166   4.1306   4.1315   4.1437   4.1482   4.1578
  4.1633   4.1656   4.1697   4.1721   4.1873   4.1893   4.1962   4.2100
  4.2233   4.2377   4.2415   4.2492   4.2587   4.2655   4.2729   4.2760
  4.2826   4.2902   4.2949   4.2973   4.3007   4.3097   4.3139   4.3167
  4.3222   4.3314   4.3351   4.3404   4.3474   4.3511   4.3557   4.3653
  4.3700   4.3738   4.3750   4.3818   4.3846   4.3932   4.4012   4.4075
  4.4120   4.4171   4.4236   4.4307   4.4350   4.4455   4.4500   4.4677
  4.4858   4.4949   4.5003   4.5100   4.5157   4.5218   4.5321   4.5362
  4.5484   4.5493   4.5687   4.5730   4.5819   4.5845   4.5937   4.5974
  4.6026   4.6058   4.6122   4.6206   4.6242   4.6280   4.6419   4.6483
  4.6584   4.6679   4.6797   4.6911   4.6951   4.6968   4.7108   4.7192
  4.7332   4.7398   4.7523   4.7646   4.7747   4.7881   4.8078   4.8161
  4.8254   4.8276   4.8352   4.8473   4.8551   4.8614   4.8695   4.8810
  4.8917   4.8974   4.9198   4.9269   4.9478   4.9708   4.9747   4.9817
  4.9937   5.0014   5.0216   5.0326   5.0372   5.0482   5.0501   5.0669
  5.0775   5.1112   5.1138   5.1194   5.1276   5.1323   5.1368   5.1557
  5.1648   5.1761   5.1874   5.1956   5.2060   5.2188   5.2306   5.2606
  5.2625   5.2734   5.2867   5.2911   5.3022   5.3185   5.3243   5.3309
  5.3349   5.3450   5.3616   5.3743   5.3793   5.3919   5.4030   5.4163
  5.4376   5.4586   5.4768   5.4852   5.4970   5.5119   5.5147   5.5175
  5.5183   5.5376   5.5498   5.5588   5.5625   5.5662   5.5682   5.5762
  5.5865   5.6012   5.6032   5.6105   5.6218   5.6225   5.6246   5.6461
  5.6495   5.6531   5.6595   5.6656   5.6673   5.6764   5.6950   5.6962
  5.7030   5.7162   5.7265   5.7484   5.7614   5.7641   5.7781   5.7875
  5.7931   5.8070   5.8270   5.8385   5.8523   5.8604   5.9018   5.9238
  5.9437   5.9611   5.9684   5.9993   6.0083   6.0131   6.0412   6.0453
  6.0540   6.0697   6.1075   6.1168   6.1334   6.1442   6.1652   6.1883
  6.1976   6.2211   6.2223   6.2264   6.2572   6.2757   6.2839   6.3037
  6.3103   6.3223   6.3264   6.3600   6.3673   6.4002   6.4567   6.4933
  6.5241   6.5453   6.5793   6.5838   6.5875   6.6103   6.6553   6.6589
  6.6754   6.7209   6.8527   6.8587   6.9002   6.9033   6.9064   6.9265
  6.9286   7.0065   7.1067   7.1502   7.1636   7.2197   7.2257   7.3336
  7.3483   7.3525   7.3603   7.3979   7.4822   7.5505   7.5740   7.5856
  7.5960   7.6555   7.6767   7.6939   7.7127   7.9655   8.9481  10.0791
 10.3977  11.3873  11.5843  11.8065  12.0177  12.2974  12.4347  12.5424
 13.0323  13.2090  13.4162  13.5623  13.8110  13.9387  14.1175  14.2888
 14.3256  14.3748  14.5481  14.6914  15.0095  15.6148  15.8202  16.3054
 --------------------------------------------------------------
 
          Ground-State Mulliken Net Atomic Charges

     Atom                 Charge (a.u.)
  ----------------------------------------
      1 C                    -0.083976
      2 C                    -0.032304
      3 C                    -0.111967
      4 C                    -0.116485
      5 H                     0.198453
      6 C                     0.017220
      7 C                     0.123473
      8 C                    -0.059837
      9 C                    -0.211299
     10 C                    -0.138048
     11 C                     0.171461
     12 H                     0.182831
     13 C                     0.341660
     14 C                     0.344554
     15 N                    -0.089692
     16 C                     0.357643
     17 C                     0.388490
     18 N                    -0.086509
     19 O                    -0.496120
     20 O                    -0.508531
     21 O                    -0.499610
     22 O                    -0.465866
     23 C                    -0.205303
     24 H                     0.139252
     25 H                     0.109141
     26 H                     0.108957
     27 C                    -0.199397
     28 H                     0.135037
     29 H                     0.111642
     30 H                     0.112762
     31 C                    -0.057237
     32 S                    -0.010539
     33 C                    -0.182656
     34 C                    -0.171433
     35 C                    -0.235145
     36 H                     0.239321
     37 H                     0.191434
     38 H                     0.214617
     39 H                     0.137237
     40 H                     0.137693
     41 H                     0.199075
  ----------------------------------------
  Sum of atomic charges =     0.000000

 -----------------------------------------------------------------
                    Cartesian Multipole Moments
 -----------------------------------------------------------------
    Charge (ESU x 10^10)
                 0.0000
    Dipole Moment (Debye)
         X       3.0486      Y       1.7787      Z      -2.6493
       Tot       4.4132
    Quadrupole Moments (Debye-Ang)
        XX    -156.7409     XY       2.8119     YY    -184.6736
        XZ       5.7945     YZ      10.1177     ZZ    -187.0356
    Octopole Moments (Debye-Ang^2)
       XXX    -103.3738    XXY     495.7370    XYY     -13.3806
       YYY    1717.2917    XXZ       2.3625    XYZ     -18.8530
       YYZ     -63.3887    XZZ     -29.7566    YZZ     616.8465
       ZZZ     -15.7203
    Hexadecapole Moments (Debye-Ang^3)
      XXXX    -653.7502   XXXY    -159.0579   XXYY   -2660.9779
      XYYY    -324.2266   YYYY  -17909.9572   XXXZ     465.6050
      XXYZ     116.0108   XYYZ     314.2641   YYYZ    1159.9640
      XXZZ   -1113.6286   XYZZ       8.1413   YYZZ   -4416.7601
      XZZZ     525.8584   YZZZ      40.3340   ZZZZ   -6422.1311
 -----------------------------------------------------------------
 Total job time:  362.25s(wall), 11153.53s(cpu) 
 Wed Dec 27 10:03:29 2023

        *************************************************************
        *                                                           *
        *  Thank you very much for using Q-Chem.  Have a nice day.  *
        *                                                           *
        *************************************************************


0 sent ACK to 0 
now end server 0 ... 
cleanup process ... done
remove work dirs ./qchem1977705.0 -- ./qchem1977705.0
rm -rf ./qchem1977705.0
rm -rf ./qchem1977705
