You are running Q-Chem version: 5.4.0

#
# job setting
#
local host:  exp-1-36
current dir: /home/rramji/project-csd799/aromodel/pndit-qchem/hydrogenated-rotation-run
input file:  Dimethyl_Naphthalene_Dicarboximide_Phi_0_Theta_270_Thiophene_Hydrogenated.qcin
output file: 
nprocs     : 1
nthreads   : 64
#
# qchem installation setting
#
QC:          /cm/shared/apps/spack/cpu/opt/spack/linux-centos8-zen2/gcc-10.2.0/qchem-5.4-akfmr7b3t57bfs6qan3padb2wnb2i7cl
QCAUX:       /cm/shared/apps/spack/cpu/opt/spack/linux-centos8-zen2/gcc-10.2.0/qchem-5.4-akfmr7b3t57bfs6qan3padb2wnb2i7cl/qcaux
QCPROG:      /cm/shared/apps/spack/cpu/opt/spack/linux-centos8-zen2/gcc-10.2.0/qchem-5.4-akfmr7b3t57bfs6qan3padb2wnb2i7cl/exe/qcprog.exe
QCPROG_S:    /cm/shared/apps/spack/cpu/opt/spack/linux-centos8-zen2/gcc-10.2.0/qchem-5.4-akfmr7b3t57bfs6qan3padb2wnb2i7cl/exe/qcprog.exe_s
PARALLEL:    -DPARALLEL
QCMPI:       mpich
#
# qchem directory setting
#
qcrun:       qchem2714048
QCSCRATCH:   .
QCLOCALSCR:  
QCTMPDIR:    .
QCFILEPREF:  ./qchem2714048
QCSAVEDIR:   
workdirs:    ./qchem2714048
workdir0:    ./qchem2714048
partmpdirs =  
#
# parallel setting
#
QCRSH:           ssh
QCMPI:           mpich
QCMPIRUN:        /cm/shared/apps/spack/cpu/opt/spack/linux-centos8-zen2/gcc-10.2.0/qchem-5.4-akfmr7b3t57bfs6qan3padb2wnb2i7cl/bin/mpi/mpirun_qchem
QCMACHINEFILE:   ./qchem2714048/hostfile
exp-1-36

#
# env setting
#
exported envs:   QC QCAUX QCSCRATCH QCRUNNAME QCFILEPREF QCPROG QCPROG_S GUIFILE

Running Job 1 of 1 Dimethyl_Naphthalene_Dicarboximide_Phi_0_Theta_270_Thiophene_Hydrogenated.qcin
qchem Dimethyl_Naphthalene_Dicarboximide_Phi_0_Theta_270_Thiophene_Hydrogenated.qcin_2714048.0 ./qchem2714048/ 1
/cm/shared/apps/spack/cpu/opt/spack/linux-centos8-zen2/gcc-10.2.0/qchem-5.4-akfmr7b3t57bfs6qan3padb2wnb2i7cl/bin/mpi/mpirun_qchem -machinefile ./qchem2714048/hostfile -np 1 /cm/shared/apps/spack/cpu/opt/spack/linux-centos8-zen2/gcc-10.2.0/qchem-5.4-akfmr7b3t57bfs6qan3padb2wnb2i7cl/exe/qcprog.exe Dimethyl_Naphthalene_Dicarboximide_Phi_0_Theta_270_Thiophene_Hydrogenated.qcin_2714048.0 ./qchem2714048/

Process 0 of 1 is on exp-1-36 - thread support 0
initial socket setup ...start
initial socket setup ...done 
now start server 0 ... 
                  Welcome to Q-Chem
     A Quantum Leap Into The Future Of Chemistry


 Q-Chem 5.4, Q-Chem, Inc., Pleasanton, CA (2021)

 License issued to: University of California, San Diego (site)

 E. Epifanovsky,  A. T. B. Gilbert,  Xintian Feng,  Joonho Lee,  Yuezhi Mao,  
 N. Mardirossian,  P. Pokhilko,  A. White,  M. Wormit,  M. P. Coons,  
 A. L. Dempwolff,  Zhengting Gan,  D. Hait,  P. R. Horn,  L. D. Jacobson,  
 I. Kaliman,  J. Kussmann,  A. W. Lange,  Ka Un Lao,  D. S. Levine,  Jie Liu,  
 S. C. McKenzie,  A. F. Morrison,  K. Nanda,  F. Plasser,  D. R. Rehn,  
 M. L. Vidal,  Zhi-Qiang You,  Ying Zhu,  B. Alam,  B. Albrecht,  
 A. Aldossary,  E. Alguire,  J. H. Andersen,  D. Barton,  K. Begam,  A. Behn,  
 Y. A. Bernard,  E. J. Berquist,  H. Burton,  A. Carreras,  K. Carter-Fenk,  
 R. Chakraborty,  A. D. Chien,  K. D. Closser,  V. Cofer-Shabica,  
 S. Dasgupta,  Jia Deng,  M. de Wergifosse,  M. Diedenhofen,  Hainam Do,  
 S. Ehlert,  Po-Tung Fang,  S. Fatehi,  Qingguo Feng,  J. Gayvert,  
 Qinghui Ge,  G. Gidofalvi,  M. Goldey,  J. Gomes,  C. Gonzalez-Espinoza,  
 S. Gulania,  A. Gunina,  M. W. D. Hanson-Heine,  P. H. P. Harbach,  
 A. W. Hauser,  M. F. Herbst,  M. Hernandez Vera,  M. Hodecker,  
 Z. C. Holden,  S. Houck,  Xunkun Huang,  Kerwin Hui,  B. C. Huynh,  
 M. Ivanov,  Hyunjun Ji,  Hanjie Jiang,  B. Kaduk,  S. Kaehler,  
 K. Khistyaev,  Jaehoon Kim,  P. Klunzinger,  Z. Koczor-Benda,  
 Joong Hoon Koh,  D. Kosenkov,  L. Koulias,  T. Kowalczyk,  C. M. Krauter,  
 K. Kue,  A. Kunitsa,  T. Kus,  A. Landau,  K. V. Lawler,  D. Lefrancois,  
 S. Lehtola,  Rain Li,  Yi-Pei Li,  Jiashu Liang,  M. Liebenthal,  
 Hung-Hsuan Lin,  You-Sheng Lin,  Fenglai Liu,  Kuan-Yu Liu,  
 M. Loipersberger,  A. Luenser,  A. Manjanath,  P. Manohar,  E. Mansoor,  
 S. F. Manzer,  Shan-Ping Mao,  A. V. Marenich,  T. Markovich,  S. Mason,  
 S. A. Maurer,  P. F. McLaughlin,  M. F. S. J. Menger,  J.-M. Mewes,  
 S. A. Mewes,  P. Morgante,  J. W. Mullinax,  T. S. Nguyen-Beck,  
 K. J. Oosterbaan,  G. Paran,  Alexander C. Paul,  Suranjan K. Paul,  
 F. Pavosevic,  Zheng Pei,  S. Prager,  E. I. Proynov,  E. Ramos,  B. Rana,  
 A. E. Rask,  A. Rettig,  R. M. Richard,  F. Rob,  E. Rossomme,  T. Scheele,  
 M. Scheurer,  M. Schneider,  N. Sergueev,  S. M. Sharada,  W. Skomorowski,  
 D. W. Small,  C. J. Stein,  Yu-Chuan Su,  E. J. Sundstrom,  Zhen Tao,  
 J. Thirman,  T. Tsuchimochi,  N. M. Tubman,  S. P. Veccham,  O. Vydrov,  
 J. Wenzel,  J. Witte,  A. Yamada,  Kun Yao,  S. Yeganeh,  S. R. Yost,  
 A. Zech,  Igor Ying Zhang,  Xing Zhang,  Yu Zhang,  D. Zuev,  
 A. Aspuru-Guzik,  A. T. Bell,  N. A. Besley,  K. B. Bravaya,  B. R. Brooks,  
 D. Casanova,  Jeng-Da Chai,  S. Coriani,  C. J. Cramer,  
 A. E. DePrince, III,  R. A. DiStasio Jr.,  A. Dreuw,  B. D. Dunietz,  
 T. R. Furlani,  W. A. Goddard III,  S. Grimme,  S. Hammes-Schiffer,  
 T. Head-Gordon,  W. J. Hehre,  Chao-Ping Hsu,  T.-C. Jagau,  Yousung Jung,  
 A. Klamt,  Jing Kong,  D. S. Lambrecht,  WanZhen Liang,  N. J. Mayhall,  
 C. W. McCurdy,  J. B. Neaton,  C. Ochsenfeld,  J. A. Parkhill,  R. Peverati,  
 V. A. Rassolov,  Yihan Shao,  L. V. Slipchenko,  T. Stauch,  R. P. Steele,  
 J. E. Subotnik,  A. J. W. Thom,  A. Tkatchenko,  D. G. Truhlar,  
 T. Van Voorhis,  T. A. Wesolowski,  K. B. Whaley,  H. L. Woodcock III,  
 P. M. Zimmerman,  S. Faraji,  P. M. W. Gill,  M. Head-Gordon,  
 J. M. Herbert,  A. I. Krylov

 Contributors to earlier versions of Q-Chem not listed above: 
 R. D. Adamson,  B. Austin,  R. Baer,  J. Baker,  G. J. O. Beran,  
 K. Brandhorst,  S. T. Brown,  E. F. C. Byrd,  A. K. Chakraborty,  
 G. K. L. Chan,  Chun-Min Chang,  Yunqing Chen,  C.-L. Cheng,  
 Siu Hung Chien,  D. M. Chipman,  D. L. Crittenden,  H. Dachsel,  
 R. J. Doerksen,  A. D. Dutoi,  R. G. Edgar,  J. Fosso-Tande,  
 L. Fusti-Molnar,  D. Ghosh,  A. Ghysels,  A. Golubeva-Zadorozhnaya,  
 J. Gonthier,  M. S. Gordon,  S. R. Gwaltney,  G. Hawkins,  J. E. Herr,  
 A. Heyden,  S. Hirata,  E. G. Hohenstein,  G. Kedziora,  F. J. Keil,  
 C. Kelley,  Jihan Kim,  R. A. King,  R. Z. Khaliullin,  P. P. Korambath,  
 W. Kurlancheek,  A. Laurent,  A. M. Lee,  M. S. Lee,  S. V. Levchenko,  
 Ching Yeh Lin,  D. Liotard,  E. Livshits,  R. C. Lochan,  I. Lotan,  
 L. A. Martinez-Martinez,  P. E. Maslen,  N. Nair,  D. P. O'Neill,  
 D. Neuhauser,  E. Neuscamman,  C. M. Oana,  R. Olivares-Amaya,  R. Olson,  
 T. M. Perrine,  B. Peters,  P. A. Pieniazek,  A. Prociuk,  Y. M. Rhee,  
 J. Ritchie,  M. A. Rohrdanz,  E. Rosta,  N. J. Russ,  H. F. Schaefer III,  
 M. W. Schmidt,  N. E. Schultz,  S. Sharma,  N. Shenvi,  C. D. Sherrill,  
 A. C. Simmonett,  A. Sodt,  T. Stein,  D. Stuck,  K. S. Thanthiriwatte,  
 V. Vanovschi,  L. Vogt,  Tao Wang,  A. Warshel,  M. A. Watson,  
 C. F. Williams,  Q. Wu,  X. Xu,  Jun Yang,  W. Zhang,  Yan Zhao

 Please cite Q-Chem as follows:
 Y. Shao et al., Mol. Phys. 113, 184-215 (2015)
 DOI: 10.1080/00268976.2014.952696

 Q-Chem 5.4.0 for Intel X86 EM64T Linux

 Parts of Q-Chem use Armadillo 9.800.1 (Horizon Scraper).
 http://arma.sourceforge.net/

 Q-Chem begins on Wed Dec 27 12:17:04 2023  

 Host: 
0

     Scratch files written to ./qchem2714048//
 May1621 |scratch|qcdevops|jenkins|workspace|build_RNUM    
 Parallel job on  1  processors
 Processing $rem in /cm/shared/apps/spack/cpu/opt/spack/linux-centos8-zen2/gcc-10.2.0/qchem-5.4-akfmr7b3t57bfs6qan3padb2wnb2i7cl/config/preferences:
 Processing $rem in /home/rramji/.qchemrc:
 Symmetry turned off for PCM/SM12/SMD calculation
 Core orbitals will be frozen

 Checking the input file for inconsistencies... 	...done.

 Q-Chem warning in module forms1/BasisType.C, line 2236:

 You are not using the predefined 5D/6D in this basis set.


--------------------------------------------------------------
User input:
--------------------------------------------------------------
$molecule
0 1
C	-0.256927	-6.741404	0.001478
C	-1.562675	-6.155638	0.001603
C	0.827197	-5.791452	0.001931
C	-1.841253	-4.803786	0.001374
H	-2.440709	-6.821518	0.001794
C	0.535488	-4.378638	0.001227
C	-0.794999	-3.838032	0.000872
C	1.580529	-3.413062	0.000658
C	-1.084374	-2.426473	0.000186
C	1.305258	-2.059348	0.000046
C	-0.000000	-1.478216	-0.000000
H	2.184267	-1.394783	-0.000369
C	2.269719	-6.187987	0.003770
C	3.011152	-3.798164	0.000767
N	3.254617	-5.170003	0.002465
C	-3.275775	-4.424987	0.001433
C	-2.527951	-2.036627	-0.000576
N	-3.513104	-3.049156	0.000400
O	2.661046	-7.353131	0.006623
O	3.934410	-2.986854	-0.000172
O	-4.188059	-5.248946	0.002151
O	-2.940845	-0.878829	-0.002006
C	4.667206	-5.563799	0.003509
H	4.712423	-6.664085	0.004658
H	5.169231	-5.147101	0.897610
H	5.169992	-5.148785	-0.890935
C	-4.904229	-2.587487	-0.000039
H	-5.546833	-3.483329	0.001022
H	-5.095998	-1.964972	-0.894545
H	-5.095858	-1.962932	0.893071
C	0.000000	0.000000	0.000000
S	-0.000201	0.793171	1.580530
C	-0.000228	2.430885	0.904911
C	-0.000168	0.997990	-0.985400
C	-0.000267	2.318231	-0.493528
H	-0.000145	0.762343	-2.059934
H	-0.000339	3.199164	-1.152593
H	-0.000311	3.311566	1.556025
H	-0.149881	-7.361589	-0.896779
H	-0.150656	-7.361192	0.900100
H	0.000531	-1.478831	-1.080000
$end

$rem
JOBTYPE		SP
EXCHANGE	HF
CORRELATION	pRIMP2
BASIS		cc-pvtz
METHOD		rimp2
AUX_BASIS	rimp2-cc-pvtz
SOLVENT_METHOD	PCM
PURECART	11111
SYMMETRY	false
MEM_TOTAL	110000
SCF_CONVERGENCE = 6
THRESH=10
GUI = 2
$end



$solvent
dielectric 4.90
$end
--------------------------------------------------------------
 ----------------------------------------------------------------
             Standard Nuclear Orientation (Angstroms)
    I     Atom           X                Y                Z
 ----------------------------------------------------------------
    1      C      -0.2569270000    -6.7414040000     0.0014780000
    2      C      -1.5626750000    -6.1556380000     0.0016030000
    3      C       0.8271970000    -5.7914520000     0.0019310000
    4      C      -1.8412530000    -4.8037860000     0.0013740000
    5      H      -2.4407090000    -6.8215180000     0.0017940000
    6      C       0.5354880000    -4.3786380000     0.0012270000
    7      C      -0.7949990000    -3.8380320000     0.0008720000
    8      C       1.5805290000    -3.4130620000     0.0006580000
    9      C      -1.0843740000    -2.4264730000     0.0001860000
   10      C       1.3052580000    -2.0593480000     0.0000460000
   11      C       0.0000000000    -1.4782160000     0.0000000000
   12      H       2.1842670000    -1.3947830000    -0.0003690000
   13      C       2.2697190000    -6.1879870000     0.0037700000
   14      C       3.0111520000    -3.7981640000     0.0007670000
   15      N       3.2546170000    -5.1700030000     0.0024650000
   16      C      -3.2757750000    -4.4249870000     0.0014330000
   17      C      -2.5279510000    -2.0366270000    -0.0005760000
   18      N      -3.5131040000    -3.0491560000     0.0004000000
   19      O       2.6610460000    -7.3531310000     0.0066230000
   20      O       3.9344100000    -2.9868540000    -0.0001720000
   21      O      -4.1880590000    -5.2489460000     0.0021510000
   22      O      -2.9408450000    -0.8788290000    -0.0020060000
   23      C       4.6672060000    -5.5637990000     0.0035090000
   24      H       4.7124230000    -6.6640850000     0.0046580000
   25      H       5.1692310000    -5.1471010000     0.8976100000
   26      H       5.1699920000    -5.1487850000    -0.8909350000
   27      C      -4.9042290000    -2.5874870000    -0.0000390000
   28      H      -5.5468330000    -3.4833290000     0.0010220000
   29      H      -5.0959980000    -1.9649720000    -0.8945450000
   30      H      -5.0958580000    -1.9629320000     0.8930710000
   31      C       0.0000000000     0.0000000000     0.0000000000
   32      S      -0.0002010000     0.7931710000     1.5805300000
   33      C      -0.0002280000     2.4308850000     0.9049110000
   34      C      -0.0001680000     0.9979900000    -0.9854000000
   35      C      -0.0002670000     2.3182310000    -0.4935280000
   36      H      -0.0001450000     0.7623430000    -2.0599340000
   37      H      -0.0003390000     3.1991640000    -1.1525930000
   38      H      -0.0003110000     3.3115660000     1.5560250000
   39      H      -0.1498810000    -7.3615890000    -0.8967790000
   40      H      -0.1506560000    -7.3611920000     0.9001000000
   41      H       0.0005310000    -1.4788310000    -1.0800000000
 ----------------------------------------------------------------
 Nuclear Repulsion Energy =        2546.68744884 hartrees
 There are       98 alpha and       98 beta electrons
 Requested basis set is cc-pVTZ
 There are 356 shells and 1010 basis functions

 Total QAlloc Memory Limit 110000 MB
 Mega-Array Size       188 MB
 MEM_STATIC part       192 MB
 Discretize the solute cavity surface with Lebedev spheres
	Using 110 Lebedev grid points for each H atom
	Using 194 Lebedev grid points for other atoms
	Atomic van der Waals radii will be scaled by 1.20
 Remove points where switching function is < 1.0e-08
 Keep 2623 surface tesserae and discard 4155 interior tesserae
 Molecular Surface Area = 375.238 Angst**2
 Requested basis set is rimp2-cc-pVTZ
 There are 770 shells and 2648 basis functions
 A cutoff of  1.0D-10 yielded  33988 shell pairs
 There are    256934 function pairs (    332634 Cartesian)
 Smallest overlap matrix eigenvalue = 8.93E-06

 Q-Chem warning in module stvman/mkSTV.C, line 323:

 Overlap eigenvalue is smaller than square root of threshold
 Use THRESH >= 12 to get rid of this warning


 Scale SEOQF with 1.000000e-02/1.000000e-02/1.000000e-01

 Standard Electronic Orientation quadrupole field applied
 Nucleus-field energy     =     0.0000000205 hartrees
 Guess from superposition of atomic densities
 Warning:  Energy on first SCF cycle will be non-variational
 SAD guess density has 196.000000 electrons

 -----------------------------------------------------------------------
  General SCF calculation program by
  Eric Jon Sundstrom, Paul Horn, Yuezhi Mao, Dmitri Zuev, Alec White,
  David Stuck, Shaama M.S., Shane Yost, Joonho Lee, David Small,
  Daniel Levine, Susi Lehtola, Hugh Burton, Evgeny Epifanovsky,
  Bang C. Huynh
 -----------------------------------------------------------------------
 Hartree-Fock
 using 64 threads for integral computing
 -------------------------------------------------------
 OpenMP Integral computing Module                
 Release: version 1.0, May 2013, Q-Chem Inc. Pittsburgh 
 -------------------------------------------------------
 A restricted SCF calculation will be
 performed using DIIS
 SCF converges when DIIS error is below 1.0e-06
 ---------------------------------------
  Cycle       Energy         DIIS error
 ---------------------------------------
    1   -1583.0791157474      1.86e-02  
    2   -1571.1750890366      2.03e-03  
    3   -1571.5138156224      1.55e-03  
    4   -1571.7351264929      2.52e-04  
    5   -1571.7487205548      7.68e-05  
    6   -1571.7500776139      2.93e-05  
    7   -1571.7504699334      1.51e-05  
    8   -1571.7505756250      6.05e-06  
    9   -1571.7505933357      2.77e-06  
   10   -1571.7505967608      1.16e-06  
   11   -1571.7505977900      5.43e-07  Convergence criterion met
 ---------------------------------------
 SCF time:   CPU 6904.65s  wall 273.00s 

************** Final PCM Free Energy Summary **************
 G_electrostatic  =      -0.03198470 hartree =     -20.07070386 kcal/mol
 G_cavitation     =       0.00000000 hartree =       0.00000000 kcal/mol
 G_dispersion     =       0.00000000 hartree =       0.00000000 kcal/mol
 G_repulsion      =       0.00000000 hartree =       0.00000000 kcal/mol
 --------------------------------------------------
 Non-electrostatic Free Energy =       0.00000000 hartree =       0.00000000 kcal/mol
 Total                         =      -0.03198470 hartree =     -20.07070386 kcal/mol
 --------------------------------------------------
 SCF Energy (H0 + V/2)                       =   -1571.75059779 
 Solute Internal Energy (H0)                 =   -1571.71861309 
 Total Free Energy (H0 + V/2 + non-elec)     =   -1571.75059779 hartree
                                             = -986288.38616311 kcal/mol
***********************************************************

 SCF   energy in the final basis set =    -1571.7505977900
 Total energy in the final basis set =    -1571.7505977900


 --------------------------------------------------------------
  Generalized many-body perturbation theory program
  by Joonho Lee, Fazle Rob, Xintian Feng, Evgeny Epifanovsky

 No regularization used 
 (reg. param. = 0.0000e+00)
  (P|Q)^-1/2 Time:  CPU 257.96 s  wall 4.55 s

 In RI-MP2 calculation: 
 # of frozen core orbitals: 31

 Components of the RIMP2 correlation energy:
        aaaa    correlation energy =        -0.6145603245 a.u.
        abab    correlation energy =        -3.4243854277 a.u.
        bbbb    correlation energy =        -0.6145603245 a.u.
        non-Brillouin singles      =        -0.0000000000 a.u.
        total same-spin energy     =        -1.2291206489 a.u.
        total opposite-spin energy =        -3.4243854277 a.u.

 Total  RIMP2   correlation energy =        -4.6535060766 a.u.
        RIMP2         total energy =     -1576.4041038666 a.u.

 RI-MP2 Energy Time:  CPU 2129.00 s  wall 35.33 s
 
 --------------------------------------------------------------
 
                    Orbital Energies (a.u.)
 --------------------------------------------------------------
 
 Alpha MOs
 -- Occupied --
-91.9873 -20.5520 -20.5444 -20.5420 -20.5407 -15.6267 -15.6214 -11.3932
-11.3851 -11.3839 -11.3794 -11.3092 -11.3086 -11.3053 -11.3049 -11.2973
-11.2965 -11.2898 -11.2816 -11.2695 -11.2681 -11.2649 -11.2626 -11.2595
-11.2576 -11.2529 -11.2507  -8.9870  -6.6679  -6.6674  -6.6668  -1.4192
 -1.4124  -1.3970  -1.3916  -1.2619  -1.2556  -1.2296  -1.1861  -1.1527
 -1.1142  -1.0866  -1.0467  -0.9952  -0.9878  -0.9843  -0.9551  -0.9515
 -0.8964  -0.8876  -0.8767  -0.8601  -0.7949  -0.7770  -0.7708  -0.7620
 -0.7427  -0.7175  -0.7045  -0.6918  -0.6803  -0.6719  -0.6665  -0.6572
 -0.6471  -0.6439  -0.6361  -0.6329  -0.6310  -0.6277  -0.6221  -0.6045
 -0.5848  -0.5755  -0.5669  -0.5614  -0.5571  -0.5512  -0.5506  -0.5481
 -0.5467  -0.5437  -0.5193  -0.5166  -0.5093  -0.4827  -0.4749  -0.4616
 -0.4577  -0.4511  -0.4429  -0.4347  -0.4133  -0.4075  -0.3558  -0.3506
 -0.3278  -0.2908
 -- Virtual --
  0.0146   0.0430   0.0899   0.0954   0.1358   0.1498   0.1542   0.1603
  0.1636   0.1727   0.1786   0.1830   0.1870   0.1883   0.1951   0.1984
  0.2047   0.2217   0.2277   0.2296   0.2304   0.2318   0.2335   0.2370
  0.2653   0.2687   0.2890   0.3026   0.3123   0.3188   0.3202   0.3234
  0.3280   0.3395   0.3473   0.3520   0.3554   0.3614   0.3659   0.3715
  0.3746   0.3768   0.3805   0.3835   0.3886   0.3926   0.3986   0.4038
  0.4114   0.4190   0.4245   0.4327   0.4365   0.4387   0.4437   0.4488
  0.4490   0.4536   0.4582   0.4673   0.4694   0.4753   0.4795   0.4928
  0.4948   0.4993   0.5028   0.5076   0.5152   0.5240   0.5264   0.5297
  0.5322   0.5400   0.5407   0.5471   0.5507   0.5602   0.5620   0.5660
  0.5677   0.5724   0.5793   0.5831   0.5873   0.5912   0.5930   0.5995
  0.6014   0.6038   0.6073   0.6121   0.6142   0.6176   0.6230   0.6270
  0.6271   0.6324   0.6352   0.6362   0.6367   0.6408   0.6468   0.6523
  0.6555   0.6619   0.6626   0.6752   0.6799   0.6898   0.6942   0.6983
  0.7029   0.7103   0.7219   0.7309   0.7329   0.7374   0.7490   0.7576
  0.7613   0.7656   0.7710   0.7769   0.7809   0.7863   0.7880   0.7957
  0.8044   0.8092   0.8163   0.8183   0.8259   0.8300   0.8424   0.8477
  0.8492   0.8534   0.8590   0.8628   0.8670   0.8720   0.8739   0.8829
  0.8938   0.8984   0.9024   0.9082   0.9112   0.9186   0.9240   0.9322
  0.9333   0.9417   0.9449   0.9588   0.9593   0.9646   0.9694   0.9704
  0.9797   0.9831   0.9920   0.9966   1.0015   1.0026   1.0100   1.0181
  1.0204   1.0281   1.0330   1.0423   1.0493   1.0534   1.0593   1.0624
  1.0692   1.0710   1.0723   1.0766   1.0799   1.0891   1.0914   1.0995
  1.1061   1.1183   1.1211   1.1295   1.1305   1.1348   1.1392   1.1473
  1.1507   1.1584   1.1613   1.1628   1.1644   1.1706   1.1805   1.1833
  1.1900   1.1960   1.1990   1.2038   1.2087   1.2126   1.2234   1.2254
  1.2316   1.2366   1.2386   1.2423   1.2537   1.2580   1.2612   1.2681
  1.2792   1.2871   1.2971   1.3048   1.3132   1.3249   1.3314   1.3344
  1.3430   1.3496   1.3578   1.3619   1.3678   1.3713   1.3791   1.3863
  1.3904   1.3933   1.3956   1.4048   1.4131   1.4249   1.4313   1.4379
  1.4493   1.4547   1.4661   1.4726   1.4790   1.4851   1.4910   1.4931
  1.5015   1.5032   1.5073   1.5155   1.5276   1.5299   1.5369   1.5403
  1.5425   1.5455   1.5544   1.5566   1.5628   1.5682   1.5720   1.5755
  1.5770   1.5875   1.5978   1.6084   1.6142   1.6254   1.6353   1.6364
  1.6413   1.6550   1.6664   1.6752   1.6782   1.6876   1.6893   1.6940
  1.7027   1.7097   1.7201   1.7251   1.7399   1.7458   1.7526   1.7608
  1.7625   1.7659   1.7733   1.7781   1.7813   1.7941   1.8046   1.8145
  1.8188   1.8299   1.8413   1.8455   1.8523   1.8619   1.8647   1.8725
  1.8734   1.8771   1.8895   1.9040   1.9097   1.9216   1.9274   1.9330
  1.9458   1.9628   1.9679   1.9728   1.9875   1.9898   2.0095   2.0110
  2.0281   2.0468   2.0515   2.0730   2.0844   2.0962   2.1051   2.1228
  2.1302   2.1406   2.1499   2.1645   2.1732   2.1844   2.2011   2.2220
  2.2292   2.2332   2.2438   2.2739   2.2844   2.2919   2.2950   2.3004
  2.3106   2.3172   2.3339   2.3399   2.3505   2.3677   2.3683   2.3883
  2.4045   2.4197   2.4242   2.4356   2.4449   2.4589   2.4594   2.4617
  2.4749   2.4870   2.4930   2.5030   2.5080   2.5259   2.5338   2.5409
  2.5607   2.5620   2.5754   2.5844   2.5894   2.5929   2.6007   2.6135
  2.6248   2.6281   2.6376   2.6411   2.6490   2.6613   2.6673   2.6776
  2.6823   2.6876   2.6956   2.7034   2.7155   2.7200   2.7268   2.7372
  2.7446   2.7488   2.7515   2.7592   2.7698   2.7735   2.7820   2.7860
  2.8157   2.8266   2.8317   2.8377   2.8492   2.8500   2.8571   2.8619
  2.8696   2.8792   2.8834   2.8937   2.8960   2.9081   2.9098   2.9158
  2.9209   2.9246   2.9287   2.9391   2.9549   2.9574   2.9685   2.9738
  2.9778   2.9868   2.9916   2.9954   3.0023   3.0118   3.0158   3.0251
  3.0326   3.0408   3.0473   3.0496   3.0660   3.0721   3.0843   3.0855
  3.0927   3.1004   3.1038   3.1066   3.1092   3.1158   3.1248   3.1279
  3.1362   3.1401   3.1492   3.1529   3.1580   3.1640   3.1711   3.1783
  3.1834   3.1922   3.1946   3.2020   3.2075   3.2087   3.2167   3.2231
  3.2302   3.2342   3.2385   3.2455   3.2484   3.2543   3.2627   3.2656
  3.2699   3.2725   3.2844   3.2859   3.2914   3.2937   3.2994   3.3079
  3.3099   3.3134   3.3205   3.3220   3.3247   3.3296   3.3349   3.3385
  3.3420   3.3448   3.3495   3.3508   3.3555   3.3671   3.3706   3.3751
  3.3794   3.3806   3.3851   3.3881   3.3961   3.3982   3.3986   3.4062
  3.4192   3.4216   3.4251   3.4302   3.4325   3.4344   3.4447   3.4501
  3.4539   3.4607   3.4630   3.4746   3.4752   3.4812   3.4871   3.4910
  3.4955   3.4980   3.5068   3.5093   3.5116   3.5168   3.5191   3.5264
  3.5314   3.5344   3.5409   3.5481   3.5528   3.5630   3.5701   3.5821
  3.5903   3.5941   3.5986   3.6031   3.6081   3.6136   3.6216   3.6260
  3.6288   3.6329   3.6361   3.6399   3.6445   3.6511   3.6558   3.6606
  3.6697   3.6734   3.6814   3.6880   3.6930   3.7025   3.7033   3.7078
  3.7202   3.7319   3.7344   3.7363   3.7403   3.7418   3.7510   3.7529
  3.7598   3.7657   3.7678   3.7741   3.7802   3.7835   3.7921   3.7950
  3.8025   3.8119   3.8134   3.8205   3.8266   3.8305   3.8393   3.8421
  3.8499   3.8538   3.8595   3.8665   3.8793   3.8931   3.8952   3.8990
  3.9077   3.9093   3.9209   3.9318   3.9412   3.9462   3.9512   3.9528
  3.9578   3.9626   3.9728   3.9764   3.9822   3.9857   3.9954   4.0097
  4.0108   4.0183   4.0286   4.0354   4.0403   4.0582   4.0620   4.0740
  4.0868   4.0947   4.1121   4.1166   4.1190   4.1274   4.1325   4.1372
  4.1427   4.1474   4.1612   4.1682   4.1713   4.1757   4.1837   4.1999
  4.2125   4.2139   4.2357   4.2387   4.2417   4.2481   4.2530   4.2549
  4.2680   4.2741   4.2783   4.2877   4.2884   4.2917   4.2978   4.3073
  4.3085   4.3176   4.3192   4.3255   4.3393   4.3407   4.3455   4.3523
  4.3618   4.3639   4.3685   4.3703   4.3764   4.3904   4.3932   4.3964
  4.4026   4.4060   4.4124   4.4159   4.4307   4.4321   4.4441   4.4512
  4.4691   4.4739   4.4864   4.4964   4.5048   4.5147   4.5204   4.5248
  4.5301   4.5369   4.5456   4.5563   4.5638   4.5742   4.5782   4.5895
  4.5923   4.6002   4.6038   4.6082   4.6177   4.6240   4.6308   4.6362
  4.6446   4.6580   4.6614   4.6723   4.6860   4.6893   4.7020   4.7101
  4.7253   4.7279   4.7364   4.7510   4.7687   4.7817   4.7872   4.8021
  4.8122   4.8311   4.8365   4.8463   4.8532   4.8634   4.8770   4.8789
  4.8893   4.8916   4.9004   4.9205   4.9274   4.9455   4.9679   4.9779
  4.9838   4.9975   5.0045   5.0176   5.0239   5.0335   5.0490   5.0616
  5.0694   5.0963   5.0980   5.1157   5.1223   5.1232   5.1270   5.1369
  5.1461   5.1642   5.1711   5.1770   5.1940   5.2058   5.2121   5.2230
  5.2581   5.2637   5.2707   5.2837   5.2903   5.2965   5.3204   5.3288
  5.3315   5.3414   5.3513   5.3560   5.3778   5.3833   5.4033   5.4146
  5.4300   5.4457   5.4717   5.4865   5.4881   5.5048   5.5144   5.5154
  5.5181   5.5365   5.5387   5.5520   5.5574   5.5602   5.5668   5.5681
  5.5792   5.5860   5.5935   5.6081   5.6154   5.6199   5.6237   5.6374
  5.6418   5.6496   5.6590   5.6622   5.6663   5.6758   5.6822   5.6936
  5.6970   5.7044   5.7206   5.7411   5.7433   5.7579   5.7697   5.7842
  5.7865   5.7888   5.8026   5.8324   5.8433   5.8479   5.8867   5.9148
  5.9381   5.9575   5.9658   5.9905   6.0152   6.0220   6.0320   6.0416
  6.0484   6.0846   6.0939   6.1115   6.1233   6.1315   6.1450   6.1843
  6.1994   6.2193   6.2253   6.2255   6.2411   6.2594   6.2638   6.2830
  6.3090   6.3135   6.3236   6.3486   6.3644   6.3862   6.4300   6.4836
  6.5160   6.5328   6.5751   6.5825   6.6033   6.6158   6.6596   6.6666
  6.6733   6.6852   6.8432   6.8498   6.8872   6.9007   6.9042   6.9197
  6.9252   6.9291   7.0999   7.1076   7.1463   7.1915   7.1990   7.2343
  7.3470   7.3514   7.3554   7.3595   7.4750   7.5423   7.5693   7.5816
  7.5850   7.5948   7.6530   7.6707   7.6908   7.7124   8.8323  10.0357
 10.3020  11.3409  11.5036  11.7468  12.0379  12.0575  12.4117  12.4600
 12.9322  13.1823  13.3271  13.5520  13.7540  13.9218  14.0964  14.2714
 14.3136  14.3580  14.5179  14.5594  15.0072  15.6062  15.8040  16.3485
 --------------------------------------------------------------
 
          Ground-State Mulliken Net Atomic Charges

     Atom                 Charge (a.u.)
  ----------------------------------------
      1 C                    -0.084906
      2 C                    -0.030655
      3 C                    -0.110170
      4 C                    -0.122109
      5 H                     0.198776
      6 C                     0.013464
      7 C                     0.122056
      8 C                    -0.087903
      9 C                    -0.180562
     10 C                    -0.115561
     11 C                     0.196825
     12 H                     0.192884
     13 C                     0.343773
     14 C                     0.349274
     15 N                    -0.090317
     16 C                     0.357578
     17 C                     0.351458
     18 N                    -0.092465
     19 O                    -0.494015
     20 O                    -0.507091
     21 O                    -0.501606
     22 O                    -0.472195
     23 C                    -0.204678
     24 H                     0.139475
     25 H                     0.109413
     26 H                     0.108976
     27 C                    -0.196950
     28 H                     0.133237
     29 H                     0.111068
     30 H                     0.112153
     31 C                    -0.023516
     32 S                     0.014549
     33 C                    -0.207434
     34 C                    -0.183425
     35 C                    -0.209643
     36 H                     0.184509
     37 H                     0.191762
     38 H                     0.210502
     39 H                     0.137606
     40 H                     0.137918
     41 H                     0.197945
  ----------------------------------------
  Sum of atomic charges =     0.000000

 -----------------------------------------------------------------
                    Cartesian Multipole Moments
 -----------------------------------------------------------------
    Charge (ESU x 10^10)
                 0.0000
    Dipole Moment (Debye)
         X      -0.8789      Y       2.1592      Z      -1.8553
       Tot       2.9795
    Quadrupole Moments (Debye-Ang)
        XX    -196.0332     XY       8.6445     YY    -177.1216
        XZ       0.0142     YZ       1.9202     ZZ    -156.3416
    Octopole Moments (Debye-Ang^2)
       XXX      49.0447    XXY     593.5850    XYY     -44.9921
       YYY    1685.9758    XXZ     -16.4627    XYZ      -0.0642
       YYZ     -11.4951    XZZ      15.4028    YZZ     470.6976
       ZZZ     -54.9741
    Hexadecapole Moments (Debye-Ang^3)
      XXXX   -6370.0963   XXXY      41.7781   XXYY   -4501.3580
      XYYY    1169.5871   YYYY  -18042.5327   XXXZ      -0.7951
      XXYZ     -18.5310   XYYZ      -0.8956   YYYZ     -22.4183
      XXZZ   -1074.5731   XYZZ     126.1228   YYZZ   -2649.4974
      XZZZ      -0.7336   YZZZ     -41.3795   ZZZZ    -468.5456
 -----------------------------------------------------------------
 Total job time:  313.08s(wall), 9149.56s(cpu) 
 Wed Dec 27 12:22:17 2023

        *************************************************************
        *                                                           *
        *  Thank you very much for using Q-Chem.  Have a nice day.  *
        *                                                           *
        *************************************************************


0 sent ACK to 0 
now end server 0 ... 
cleanup process ... done
remove work dirs ./qchem2714048.0 -- ./qchem2714048.0
rm -rf ./qchem2714048.0
rm -rf ./qchem2714048
