You are running Q-Chem version: 5.4.0

#
# job setting
#
local host:  exp-2-17
current dir: /home/rramji/project-csd799/aromodel/pndit-qchem/hydrogenated-rotation-run
input file:  Dimethyl_Naphthalene_Dicarboximide_Phi_20_Theta_40_Thiophene_Hydrogenated.qcin
output file: 
nprocs     : 1
nthreads   : 64
#
# qchem installation setting
#
QC:          /cm/shared/apps/spack/cpu/opt/spack/linux-centos8-zen2/gcc-10.2.0/qchem-5.4-akfmr7b3t57bfs6qan3padb2wnb2i7cl
QCAUX:       /cm/shared/apps/spack/cpu/opt/spack/linux-centos8-zen2/gcc-10.2.0/qchem-5.4-akfmr7b3t57bfs6qan3padb2wnb2i7cl/qcaux
QCPROG:      /cm/shared/apps/spack/cpu/opt/spack/linux-centos8-zen2/gcc-10.2.0/qchem-5.4-akfmr7b3t57bfs6qan3padb2wnb2i7cl/exe/qcprog.exe
QCPROG_S:    /cm/shared/apps/spack/cpu/opt/spack/linux-centos8-zen2/gcc-10.2.0/qchem-5.4-akfmr7b3t57bfs6qan3padb2wnb2i7cl/exe/qcprog.exe_s
PARALLEL:    -DPARALLEL
QCMPI:       mpich
#
# qchem directory setting
#
qcrun:       qchem20522
QCSCRATCH:   .
QCLOCALSCR:  
QCTMPDIR:    .
QCFILEPREF:  ./qchem20522
QCSAVEDIR:   
workdirs:    ./qchem20522
workdir0:    ./qchem20522
partmpdirs =  
#
# parallel setting
#
QCRSH:           ssh
QCMPI:           mpich
QCMPIRUN:        /cm/shared/apps/spack/cpu/opt/spack/linux-centos8-zen2/gcc-10.2.0/qchem-5.4-akfmr7b3t57bfs6qan3padb2wnb2i7cl/bin/mpi/mpirun_qchem
QCMACHINEFILE:   ./qchem20522/hostfile
exp-2-17

#
# env setting
#
exported envs:   QC QCAUX QCSCRATCH QCRUNNAME QCFILEPREF QCPROG QCPROG_S GUIFILE

Running Job 1 of 1 Dimethyl_Naphthalene_Dicarboximide_Phi_20_Theta_40_Thiophene_Hydrogenated.qcin
qchem Dimethyl_Naphthalene_Dicarboximide_Phi_20_Theta_40_Thiophene_Hydrogenated.qcin_20522.0 ./qchem20522/ 1
/cm/shared/apps/spack/cpu/opt/spack/linux-centos8-zen2/gcc-10.2.0/qchem-5.4-akfmr7b3t57bfs6qan3padb2wnb2i7cl/bin/mpi/mpirun_qchem -machinefile ./qchem20522/hostfile -np 1 /cm/shared/apps/spack/cpu/opt/spack/linux-centos8-zen2/gcc-10.2.0/qchem-5.4-akfmr7b3t57bfs6qan3padb2wnb2i7cl/exe/qcprog.exe Dimethyl_Naphthalene_Dicarboximide_Phi_20_Theta_40_Thiophene_Hydrogenated.qcin_20522.0 ./qchem20522/

Process 0 of 1 is on exp-2-17 - thread support 0
initial socket setup ...start
initial socket setup ...done 
now start server 0 ... 
                  Welcome to Q-Chem
     A Quantum Leap Into The Future Of Chemistry


 Q-Chem 5.4, Q-Chem, Inc., Pleasanton, CA (2021)

 License issued to: University of California, San Diego (site)

 E. Epifanovsky,  A. T. B. Gilbert,  Xintian Feng,  Joonho Lee,  Yuezhi Mao,  
 N. Mardirossian,  P. Pokhilko,  A. White,  M. Wormit,  M. P. Coons,  
 A. L. Dempwolff,  Zhengting Gan,  D. Hait,  P. R. Horn,  L. D. Jacobson,  
 I. Kaliman,  J. Kussmann,  A. W. Lange,  Ka Un Lao,  D. S. Levine,  Jie Liu,  
 S. C. McKenzie,  A. F. Morrison,  K. Nanda,  F. Plasser,  D. R. Rehn,  
 M. L. Vidal,  Zhi-Qiang You,  Ying Zhu,  B. Alam,  B. Albrecht,  
 A. Aldossary,  E. Alguire,  J. H. Andersen,  D. Barton,  K. Begam,  A. Behn,  
 Y. A. Bernard,  E. J. Berquist,  H. Burton,  A. Carreras,  K. Carter-Fenk,  
 R. Chakraborty,  A. D. Chien,  K. D. Closser,  V. Cofer-Shabica,  
 S. Dasgupta,  Jia Deng,  M. de Wergifosse,  M. Diedenhofen,  Hainam Do,  
 S. Ehlert,  Po-Tung Fang,  S. Fatehi,  Qingguo Feng,  J. Gayvert,  
 Qinghui Ge,  G. Gidofalvi,  M. Goldey,  J. Gomes,  C. Gonzalez-Espinoza,  
 S. Gulania,  A. Gunina,  M. W. D. Hanson-Heine,  P. H. P. Harbach,  
 A. W. Hauser,  M. F. Herbst,  M. Hernandez Vera,  M. Hodecker,  
 Z. C. Holden,  S. Houck,  Xunkun Huang,  Kerwin Hui,  B. C. Huynh,  
 M. Ivanov,  Hyunjun Ji,  Hanjie Jiang,  B. Kaduk,  S. Kaehler,  
 K. Khistyaev,  Jaehoon Kim,  P. Klunzinger,  Z. Koczor-Benda,  
 Joong Hoon Koh,  D. Kosenkov,  L. Koulias,  T. Kowalczyk,  C. M. Krauter,  
 K. Kue,  A. Kunitsa,  T. Kus,  A. Landau,  K. V. Lawler,  D. Lefrancois,  
 S. Lehtola,  Rain Li,  Yi-Pei Li,  Jiashu Liang,  M. Liebenthal,  
 Hung-Hsuan Lin,  You-Sheng Lin,  Fenglai Liu,  Kuan-Yu Liu,  
 M. Loipersberger,  A. Luenser,  A. Manjanath,  P. Manohar,  E. Mansoor,  
 S. F. Manzer,  Shan-Ping Mao,  A. V. Marenich,  T. Markovich,  S. Mason,  
 S. A. Maurer,  P. F. McLaughlin,  M. F. S. J. Menger,  J.-M. Mewes,  
 S. A. Mewes,  P. Morgante,  J. W. Mullinax,  T. S. Nguyen-Beck,  
 K. J. Oosterbaan,  G. Paran,  Alexander C. Paul,  Suranjan K. Paul,  
 F. Pavosevic,  Zheng Pei,  S. Prager,  E. I. Proynov,  E. Ramos,  B. Rana,  
 A. E. Rask,  A. Rettig,  R. M. Richard,  F. Rob,  E. Rossomme,  T. Scheele,  
 M. Scheurer,  M. Schneider,  N. Sergueev,  S. M. Sharada,  W. Skomorowski,  
 D. W. Small,  C. J. Stein,  Yu-Chuan Su,  E. J. Sundstrom,  Zhen Tao,  
 J. Thirman,  T. Tsuchimochi,  N. M. Tubman,  S. P. Veccham,  O. Vydrov,  
 J. Wenzel,  J. Witte,  A. Yamada,  Kun Yao,  S. Yeganeh,  S. R. Yost,  
 A. Zech,  Igor Ying Zhang,  Xing Zhang,  Yu Zhang,  D. Zuev,  
 A. Aspuru-Guzik,  A. T. Bell,  N. A. Besley,  K. B. Bravaya,  B. R. Brooks,  
 D. Casanova,  Jeng-Da Chai,  S. Coriani,  C. J. Cramer,  
 A. E. DePrince, III,  R. A. DiStasio Jr.,  A. Dreuw,  B. D. Dunietz,  
 T. R. Furlani,  W. A. Goddard III,  S. Grimme,  S. Hammes-Schiffer,  
 T. Head-Gordon,  W. J. Hehre,  Chao-Ping Hsu,  T.-C. Jagau,  Yousung Jung,  
 A. Klamt,  Jing Kong,  D. S. Lambrecht,  WanZhen Liang,  N. J. Mayhall,  
 C. W. McCurdy,  J. B. Neaton,  C. Ochsenfeld,  J. A. Parkhill,  R. Peverati,  
 V. A. Rassolov,  Yihan Shao,  L. V. Slipchenko,  T. Stauch,  R. P. Steele,  
 J. E. Subotnik,  A. J. W. Thom,  A. Tkatchenko,  D. G. Truhlar,  
 T. Van Voorhis,  T. A. Wesolowski,  K. B. Whaley,  H. L. Woodcock III,  
 P. M. Zimmerman,  S. Faraji,  P. M. W. Gill,  M. Head-Gordon,  
 J. M. Herbert,  A. I. Krylov

 Contributors to earlier versions of Q-Chem not listed above: 
 R. D. Adamson,  B. Austin,  R. Baer,  J. Baker,  G. J. O. Beran,  
 K. Brandhorst,  S. T. Brown,  E. F. C. Byrd,  A. K. Chakraborty,  
 G. K. L. Chan,  Chun-Min Chang,  Yunqing Chen,  C.-L. Cheng,  
 Siu Hung Chien,  D. M. Chipman,  D. L. Crittenden,  H. Dachsel,  
 R. J. Doerksen,  A. D. Dutoi,  R. G. Edgar,  J. Fosso-Tande,  
 L. Fusti-Molnar,  D. Ghosh,  A. Ghysels,  A. Golubeva-Zadorozhnaya,  
 J. Gonthier,  M. S. Gordon,  S. R. Gwaltney,  G. Hawkins,  J. E. Herr,  
 A. Heyden,  S. Hirata,  E. G. Hohenstein,  G. Kedziora,  F. J. Keil,  
 C. Kelley,  Jihan Kim,  R. A. King,  R. Z. Khaliullin,  P. P. Korambath,  
 W. Kurlancheek,  A. Laurent,  A. M. Lee,  M. S. Lee,  S. V. Levchenko,  
 Ching Yeh Lin,  D. Liotard,  E. Livshits,  R. C. Lochan,  I. Lotan,  
 L. A. Martinez-Martinez,  P. E. Maslen,  N. Nair,  D. P. O'Neill,  
 D. Neuhauser,  E. Neuscamman,  C. M. Oana,  R. Olivares-Amaya,  R. Olson,  
 T. M. Perrine,  B. Peters,  P. A. Pieniazek,  A. Prociuk,  Y. M. Rhee,  
 J. Ritchie,  M. A. Rohrdanz,  E. Rosta,  N. J. Russ,  H. F. Schaefer III,  
 M. W. Schmidt,  N. E. Schultz,  S. Sharma,  N. Shenvi,  C. D. Sherrill,  
 A. C. Simmonett,  A. Sodt,  T. Stein,  D. Stuck,  K. S. Thanthiriwatte,  
 V. Vanovschi,  L. Vogt,  Tao Wang,  A. Warshel,  M. A. Watson,  
 C. F. Williams,  Q. Wu,  X. Xu,  Jun Yang,  W. Zhang,  Yan Zhao

 Please cite Q-Chem as follows:
 Y. Shao et al., Mol. Phys. 113, 184-215 (2015)
 DOI: 10.1080/00268976.2014.952696

 Q-Chem 5.4.0 for Intel X86 EM64T Linux

 Parts of Q-Chem use Armadillo 9.800.1 (Horizon Scraper).
 http://arma.sourceforge.net/

 Q-Chem begins on Wed Dec 27 10:11:30 2023  

 Host: 
0

     Scratch files written to ./qchem20522//
 May1621 |scratch|qcdevops|jenkins|workspace|build_RNUM    
 Parallel job on  1  processors
 Processing $rem in /cm/shared/apps/spack/cpu/opt/spack/linux-centos8-zen2/gcc-10.2.0/qchem-5.4-akfmr7b3t57bfs6qan3padb2wnb2i7cl/config/preferences:
 Processing $rem in /home/rramji/.qchemrc:
 Symmetry turned off for PCM/SM12/SMD calculation
 Core orbitals will be frozen

 Checking the input file for inconsistencies... 	...done.

 Q-Chem warning in module forms1/BasisType.C, line 2236:

 You are not using the predefined 5D/6D in this basis set.


--------------------------------------------------------------
User input:
--------------------------------------------------------------
$molecule
0 1
C	0.164018	-6.741404	-0.197767
C	1.003240	-6.155638	-1.198109
C	-0.533192	-5.791452	0.632428
C	1.182482	-4.803786	-1.411364
H	1.567483	-6.821518	-1.870845
C	-0.345145	-4.378638	0.409419
C	0.510347	-3.838032	-0.609565
C	-1.016449	-3.413062	1.210332
C	0.696879	-2.426473	-0.830799
C	-0.839039	-2.059348	0.999856
C	-0.000000	-1.478216	-0.000000
H	-1.403737	-1.394783	1.673483
C	-1.461835	-6.187987	1.736282
C	-1.936119	-3.798164	2.306183
N	-2.093916	-5.170003	2.491597
C	2.104529	-4.424987	-2.510310
C	1.625377	-2.036627	-1.936153
N	2.257873	-3.049156	-2.691451
O	-1.715561	-7.353131	2.034222
O	-2.528858	-2.986854	3.014044
O	2.690385	-5.248946	-3.209622
O	1.891876	-0.878829	-2.251529
C	-3.002711	-5.563799	3.573032
H	-3.032655	-6.664085	3.606932
H	-4.010326	-5.147101	3.382888
H	-2.640711	-5.148785	4.533125
C	3.152408	-2.587487	-3.756832
H	3.564653	-3.483329	-4.249778
H	3.960905	-1.964972	-3.328759
H	2.591422	-1.962932	-4.477709
C	0.000000	0.000000	0.000000
S	0.271091	0.745405	1.580530
C	0.831198	2.284363	0.904911
C	0.341175	0.937861	-0.985400
C	0.792631	2.178516	-0.493528
H	0.260601	0.716417	-2.059934
H	1.093860	3.006347	-1.152593
H	1.132330	3.111961	1.556025
H	0.783314	-7.361589	0.461623
H	-0.592677	-7.361192	-0.693983
H	0.826987	-1.478831	0.694617
$end

$rem
JOBTYPE		SP
EXCHANGE	HF
CORRELATION	pRIMP2
BASIS		cc-pvtz
METHOD		rimp2
AUX_BASIS	rimp2-cc-pvtz
SOLVENT_METHOD	PCM
PURECART	11111
SYMMETRY	false
MEM_TOTAL	110000
SCF_CONVERGENCE = 6
THRESH=10
GUI = 2
$end



$solvent
dielectric 4.90
$end
--------------------------------------------------------------
 ----------------------------------------------------------------
             Standard Nuclear Orientation (Angstroms)
    I     Atom           X                Y                Z
 ----------------------------------------------------------------
    1      C       0.1640180000    -6.7414040000    -0.1977670000
    2      C       1.0032400000    -6.1556380000    -1.1981090000
    3      C      -0.5331920000    -5.7914520000     0.6324280000
    4      C       1.1824820000    -4.8037860000    -1.4113640000
    5      H       1.5674830000    -6.8215180000    -1.8708450000
    6      C      -0.3451450000    -4.3786380000     0.4094190000
    7      C       0.5103470000    -3.8380320000    -0.6095650000
    8      C      -1.0164490000    -3.4130620000     1.2103320000
    9      C       0.6968790000    -2.4264730000    -0.8307990000
   10      C      -0.8390390000    -2.0593480000     0.9998560000
   11      C       0.0000000000    -1.4782160000     0.0000000000
   12      H      -1.4037370000    -1.3947830000     1.6734830000
   13      C      -1.4618350000    -6.1879870000     1.7362820000
   14      C      -1.9361190000    -3.7981640000     2.3061830000
   15      N      -2.0939160000    -5.1700030000     2.4915970000
   16      C       2.1045290000    -4.4249870000    -2.5103100000
   17      C       1.6253770000    -2.0366270000    -1.9361530000
   18      N       2.2578730000    -3.0491560000    -2.6914510000
   19      O      -1.7155610000    -7.3531310000     2.0342220000
   20      O      -2.5288580000    -2.9868540000     3.0140440000
   21      O       2.6903850000    -5.2489460000    -3.2096220000
   22      O       1.8918760000    -0.8788290000    -2.2515290000
   23      C      -3.0027110000    -5.5637990000     3.5730320000
   24      H      -3.0326550000    -6.6640850000     3.6069320000
   25      H      -4.0103260000    -5.1471010000     3.3828880000
   26      H      -2.6407110000    -5.1487850000     4.5331250000
   27      C       3.1524080000    -2.5874870000    -3.7568320000
   28      H       3.5646530000    -3.4833290000    -4.2497780000
   29      H       3.9609050000    -1.9649720000    -3.3287590000
   30      H       2.5914220000    -1.9629320000    -4.4777090000
   31      C       0.0000000000     0.0000000000     0.0000000000
   32      S       0.2710910000     0.7454050000     1.5805300000
   33      C       0.8311980000     2.2843630000     0.9049110000
   34      C       0.3411750000     0.9378610000    -0.9854000000
   35      C       0.7926310000     2.1785160000    -0.4935280000
   36      H       0.2606010000     0.7164170000    -2.0599340000
   37      H       1.0938600000     3.0063470000    -1.1525930000
   38      H       1.1323300000     3.1119610000     1.5560250000
   39      H       0.7833140000    -7.3615890000     0.4616230000
   40      H      -0.5926770000    -7.3611920000    -0.6939830000
   41      H       0.8269870000    -1.4788310000     0.6946170000
 ----------------------------------------------------------------
 Nuclear Repulsion Energy =        2556.68498568 hartrees
 There are       98 alpha and       98 beta electrons
 Requested basis set is cc-pVTZ
 There are 356 shells and 1010 basis functions

 Total QAlloc Memory Limit 110000 MB
 Mega-Array Size       188 MB
 MEM_STATIC part       192 MB
 Discretize the solute cavity surface with Lebedev spheres
	Using 110 Lebedev grid points for each H atom
	Using 194 Lebedev grid points for other atoms
	Atomic van der Waals radii will be scaled by 1.20
 Remove points where switching function is < 1.0e-08
 Keep 2576 surface tesserae and discard 4202 interior tesserae
 Molecular Surface Area = 364.708 Angst**2
 Requested basis set is rimp2-cc-pVTZ
 There are 770 shells and 2648 basis functions
 A cutoff of  1.0D-10 yielded  34330 shell pairs
 There are    259682 function pairs (    336113 Cartesian)
 Smallest overlap matrix eigenvalue = 9.26E-06

 Q-Chem warning in module stvman/mkSTV.C, line 323:

 Overlap eigenvalue is smaller than square root of threshold
 Use THRESH >= 12 to get rid of this warning


 Scale SEOQF with 1.000000e-01/1.000000e-02/1.000000e-01

 Standard Electronic Orientation quadrupole field applied
 Nucleus-field energy     =    -0.0000000437 hartrees
 Guess from superposition of atomic densities
 Warning:  Energy on first SCF cycle will be non-variational
 SAD guess density has 196.000000 electrons

 -----------------------------------------------------------------------
  General SCF calculation program by
  Eric Jon Sundstrom, Paul Horn, Yuezhi Mao, Dmitri Zuev, Alec White,
  David Stuck, Shaama M.S., Shane Yost, Joonho Lee, David Small,
  Daniel Levine, Susi Lehtola, Hugh Burton, Evgeny Epifanovsky,
  Bang C. Huynh
 -----------------------------------------------------------------------
 Hartree-Fock
 using 64 threads for integral computing
 -------------------------------------------------------
 OpenMP Integral computing Module                
 Release: version 1.0, May 2013, Q-Chem Inc. Pittsburgh 
 -------------------------------------------------------
 A restricted SCF calculation will be
 performed using DIIS
 SCF converges when DIIS error is below 1.0e-06
 ---------------------------------------
  Cycle       Energy         DIIS error
 ---------------------------------------
    1   -1583.1475679170      1.86e-02  
    2   -1571.1531001828      2.03e-03  
    3   -1571.4933746972      1.56e-03  
    4   -1571.7171951054      2.53e-04  
    5   -1571.7311356689      7.86e-05  
    6   -1571.7325917861      3.07e-05  
    7   -1571.7330324757      1.57e-05  
    8   -1571.7331534838      6.35e-06  
    9   -1571.7331740458      2.87e-06  
   10   -1571.7331780619      1.24e-06  
   11   -1571.7331792715      5.76e-07  Convergence criterion met
 ---------------------------------------
 SCF time:   CPU 6762.97s  wall 251.00s 

************** Final PCM Free Energy Summary **************
 G_electrostatic  =      -0.02780275 hartree =     -17.44648974 kcal/mol
 G_cavitation     =       0.00000000 hartree =       0.00000000 kcal/mol
 G_dispersion     =       0.00000000 hartree =       0.00000000 kcal/mol
 G_repulsion      =       0.00000000 hartree =       0.00000000 kcal/mol
 --------------------------------------------------
 Non-electrostatic Free Energy =       0.00000000 hartree =       0.00000000 kcal/mol
 Total                         =      -0.02780275 hartree =     -17.44648974 kcal/mol
 --------------------------------------------------
 SCF Energy (H0 + V/2)                       =   -1571.73317927 
 Solute Internal Energy (H0)                 =   -1571.70537652 
 Total Free Energy (H0 + V/2 + non-elec)     =   -1571.73317927 hartree
                                             = -986277.45587780 kcal/mol
***********************************************************

 SCF   energy in the final basis set =    -1571.7331792715
 Total energy in the final basis set =    -1571.7331792715


 --------------------------------------------------------------
  Generalized many-body perturbation theory program
  by Joonho Lee, Fazle Rob, Xintian Feng, Evgeny Epifanovsky

 No regularization used 
 (reg. param. = 0.0000e+00)
  (P|Q)^-1/2 Time:  CPU 120.26 s  wall 1.96 s

 In RI-MP2 calculation: 
 # of frozen core orbitals: 31

 Components of the RIMP2 correlation energy:
        aaaa    correlation energy =        -0.6155434276 a.u.
        abab    correlation energy =        -3.4267686788 a.u.
        bbbb    correlation energy =        -0.6155434276 a.u.
        non-Brillouin singles      =        -0.0000000000 a.u.
        total same-spin energy     =        -1.2310868551 a.u.
        total opposite-spin energy =        -3.4267686788 a.u.

 Total  RIMP2   correlation energy =        -4.6578555340 a.u.
        RIMP2         total energy =     -1576.3910348055 a.u.

 RI-MP2 Energy Time:  CPU 1993.36 s  wall 32.34 s
 
 --------------------------------------------------------------
 
                    Orbital Energies (a.u.)
 --------------------------------------------------------------
 
 Alpha MOs
 -- Occupied --
-91.9892 -20.5506 -20.5448 -20.5417 -20.5407 -15.6273 -15.6212 -11.3940
-11.3854 -11.3836 -11.3792 -11.3085 -11.3079 -11.3055 -11.3047 -11.2966
-11.2902 -11.2888 -11.2821 -11.2692 -11.2682 -11.2656 -11.2635 -11.2593
-11.2528 -11.2493 -11.2482  -8.9893  -6.6702  -6.6697  -6.6691  -1.4203
 -1.4122  -1.3978  -1.3914  -1.2626  -1.2555  -1.2305  -1.1874  -1.1513
 -1.1141  -1.0866  -1.0471  -0.9957  -0.9880  -0.9827  -0.9552  -0.9498
 -0.8963  -0.8878  -0.8772  -0.8605  -0.7931  -0.7769  -0.7712  -0.7645
 -0.7409  -0.7161  -0.7025  -0.6898  -0.6776  -0.6733  -0.6671  -0.6574
 -0.6474  -0.6453  -0.6380  -0.6315  -0.6309  -0.6276  -0.6227  -0.6050
 -0.5874  -0.5723  -0.5657  -0.5600  -0.5572  -0.5518  -0.5498  -0.5478
 -0.5477  -0.5433  -0.5211  -0.5149  -0.5085  -0.4833  -0.4748  -0.4659
 -0.4574  -0.4511  -0.4429  -0.4349  -0.4137  -0.4076  -0.3539  -0.3514
 -0.3295  -0.2811
 -- Virtual --
  0.0136   0.0414   0.0872   0.0917   0.1419   0.1501   0.1537   0.1614
  0.1642   0.1725   0.1797   0.1823   0.1857   0.1928   0.2010   0.2051
  0.2133   0.2177   0.2266   0.2287   0.2315   0.2335   0.2427   0.2491
  0.2653   0.2700   0.3004   0.3034   0.3153   0.3198   0.3242   0.3288
  0.3356   0.3409   0.3469   0.3521   0.3561   0.3587   0.3638   0.3677
  0.3735   0.3791   0.3843   0.3870   0.3907   0.4017   0.4039   0.4072
  0.4184   0.4218   0.4278   0.4345   0.4389   0.4420   0.4466   0.4495
  0.4563   0.4595   0.4611   0.4692   0.4710   0.4867   0.4906   0.4946
  0.4963   0.5010   0.5048   0.5114   0.5168   0.5225   0.5254   0.5279
  0.5311   0.5377   0.5399   0.5439   0.5508   0.5557   0.5630   0.5653
  0.5686   0.5754   0.5822   0.5882   0.5911   0.5927   0.5970   0.5996
  0.6033   0.6063   0.6090   0.6127   0.6160   0.6173   0.6204   0.6279
  0.6312   0.6351   0.6360   0.6415   0.6432   0.6451   0.6529   0.6561
  0.6569   0.6650   0.6735   0.6792   0.6848   0.6902   0.6968   0.6973
  0.7084   0.7165   0.7295   0.7365   0.7394   0.7406   0.7560   0.7590
  0.7673   0.7694   0.7705   0.7793   0.7835   0.7882   0.8002   0.8040
  0.8052   0.8069   0.8146   0.8195   0.8302   0.8369   0.8431   0.8459
  0.8511   0.8565   0.8648   0.8675   0.8721   0.8764   0.8820   0.8854
  0.8923   0.9004   0.9011   0.9096   0.9165   0.9204   0.9267   0.9328
  0.9376   0.9432   0.9496   0.9560   0.9610   0.9648   0.9655   0.9761
  0.9812   0.9853   0.9864   0.9950   0.9991   1.0066   1.0079   1.0124
  1.0260   1.0280   1.0430   1.0444   1.0511   1.0561   1.0577   1.0654
  1.0697   1.0710   1.0745   1.0848   1.0874   1.0886   1.0957   1.1020
  1.1081   1.1163   1.1181   1.1255   1.1322   1.1345   1.1418   1.1491
  1.1538   1.1549   1.1663   1.1713   1.1742   1.1783   1.1807   1.1924
  1.1982   1.2028   1.2043   1.2094   1.2136   1.2219   1.2234   1.2288
  1.2319   1.2349   1.2384   1.2460   1.2535   1.2593   1.2682   1.2739
  1.2860   1.2874   1.3083   1.3095   1.3206   1.3241   1.3364   1.3410
  1.3494   1.3570   1.3616   1.3666   1.3752   1.3780   1.3867   1.3886
  1.3903   1.3944   1.4006   1.4038   1.4144   1.4210   1.4251   1.4413
  1.4434   1.4586   1.4647   1.4704   1.4733   1.4811   1.4922   1.4938
  1.4971   1.5056   1.5139   1.5151   1.5259   1.5310   1.5342   1.5415
  1.5463   1.5498   1.5549   1.5572   1.5691   1.5716   1.5747   1.5801
  1.5846   1.5934   1.6020   1.6055   1.6215   1.6277   1.6383   1.6455
  1.6500   1.6512   1.6674   1.6730   1.6831   1.6872   1.6904   1.6955
  1.7035   1.7143   1.7212   1.7234   1.7426   1.7463   1.7532   1.7578
  1.7623   1.7690   1.7771   1.7893   1.7939   1.8031   1.8092   1.8121
  1.8201   1.8253   1.8418   1.8454   1.8530   1.8612   1.8668   1.8747
  1.8789   1.8850   1.8888   1.9015   1.9159   1.9272   1.9373   1.9457
  1.9567   1.9639   1.9685   1.9803   1.9881   1.9973   2.0073   2.0209
  2.0245   2.0382   2.0598   2.0673   2.0839   2.0931   2.1051   2.1249
  2.1359   2.1407   2.1590   2.1648   2.1758   2.1939   2.2135   2.2185
  2.2304   2.2409   2.2477   2.2621   2.2752   2.2929   2.2987   2.3069
  2.3128   2.3281   2.3364   2.3407   2.3547   2.3663   2.3740   2.3837
  2.4006   2.4116   2.4185   2.4350   2.4466   2.4541   2.4644   2.4704
  2.4773   2.4796   2.4913   2.5012   2.5124   2.5204   2.5426   2.5488
  2.5549   2.5671   2.5829   2.5845   2.5912   2.6044   2.6163   2.6221
  2.6247   2.6387   2.6413   2.6485   2.6511   2.6604   2.6732   2.6761
  2.6878   2.6907   2.6924   2.7055   2.7150   2.7252   2.7294   2.7381
  2.7429   2.7510   2.7583   2.7613   2.7672   2.7791   2.7812   2.7970
  2.8079   2.8271   2.8372   2.8510   2.8544   2.8617   2.8691   2.8705
  2.8760   2.8820   2.8839   2.8925   2.8978   2.9106   2.9123   2.9193
  2.9246   2.9330   2.9403   2.9443   2.9478   2.9571   2.9709   2.9736
  2.9741   2.9792   2.9883   2.9970   3.0082   3.0142   3.0233   3.0260
  3.0306   3.0421   3.0493   3.0546   3.0578   3.0757   3.0764   3.0878
  3.0934   3.1014   3.1033   3.1055   3.1082   3.1115   3.1191   3.1252
  3.1314   3.1440   3.1473   3.1543   3.1582   3.1639   3.1690   3.1722
  3.1853   3.1857   3.1909   3.1997   3.2052   3.2085   3.2161   3.2229
  3.2305   3.2381   3.2426   3.2500   3.2533   3.2558   3.2638   3.2662
  3.2667   3.2693   3.2755   3.2800   3.2847   3.2945   3.3045   3.3051
  3.3082   3.3172   3.3218   3.3263   3.3269   3.3326   3.3372   3.3413
  3.3444   3.3512   3.3544   3.3569   3.3603   3.3681   3.3747   3.3761
  3.3830   3.3889   3.3903   3.3928   3.3934   3.4005   3.4029   3.4141
  3.4155   3.4248   3.4285   3.4314   3.4384   3.4387   3.4417   3.4456
  3.4537   3.4601   3.4626   3.4765   3.4779   3.4791   3.4875   3.4978
  3.4983   3.5018   3.5047   3.5092   3.5176   3.5201   3.5226   3.5299
  3.5367   3.5433   3.5515   3.5576   3.5618   3.5713   3.5746   3.5757
  3.5830   3.5910   3.5950   3.5995   3.6054   3.6143   3.6199   3.6290
  3.6322   3.6368   3.6404   3.6459   3.6487   3.6538   3.6551   3.6591
  3.6648   3.6748   3.6846   3.6929   3.6961   3.6970   3.7047   3.7135
  3.7191   3.7239   3.7332   3.7372   3.7414   3.7477   3.7534   3.7581
  3.7653   3.7683   3.7736   3.7794   3.7845   3.7932   3.7991   3.8022
  3.8069   3.8133   3.8162   3.8252   3.8285   3.8342   3.8423   3.8450
  3.8539   3.8591   3.8642   3.8702   3.8799   3.8833   3.8916   3.9128
  3.9156   3.9183   3.9243   3.9308   3.9343   3.9445   3.9510   3.9534
  3.9596   3.9653   3.9706   3.9753   3.9847   3.9959   3.9984   4.0128
  4.0236   4.0304   4.0336   4.0366   4.0472   4.0610   4.0680   4.0729
  4.0973   4.1055   4.1166   4.1202   4.1288   4.1327   4.1389   4.1476
  4.1498   4.1593   4.1624   4.1702   4.1768   4.1804   4.1872   4.2075
  4.2105   4.2244   4.2299   4.2367   4.2405   4.2500   4.2569   4.2574
  4.2655   4.2781   4.2827   4.2847   4.2892   4.2977   4.3046   4.3063
  4.3137   4.3274   4.3321   4.3369   4.3389   4.3411   4.3474   4.3535
  4.3573   4.3685   4.3706   4.3755   4.3765   4.3823   4.3878   4.3996
  4.4037   4.4119   4.4151   4.4195   4.4372   4.4385   4.4469   4.4562
  4.4691   4.4799   4.4903   4.4936   4.5098   4.5110   4.5191   4.5236
  4.5341   4.5431   4.5493   4.5544   4.5628   4.5760   4.5788   4.5883
  4.5926   4.6049   4.6088   4.6113   4.6191   4.6264   4.6328   4.6486
  4.6582   4.6631   4.6700   4.6837   4.6873   4.6935   4.7012   4.7105
  4.7148   4.7350   4.7446   4.7483   4.7771   4.7822   4.7896   4.7966
  4.8085   4.8227   4.8298   4.8401   4.8515   4.8646   4.8725   4.8803
  4.8847   4.8943   4.9068   4.9147   4.9325   4.9509   4.9628   4.9743
  4.9821   5.0004   5.0148   5.0312   5.0370   5.0395   5.0452   5.0531
  5.0648   5.1003   5.1098   5.1223   5.1246   5.1308   5.1358   5.1400
  5.1612   5.1662   5.1695   5.1823   5.1861   5.1988   5.2189   5.2388
  5.2571   5.2632   5.2762   5.2866   5.3038   5.3124   5.3191   5.3220
  5.3313   5.3347   5.3531   5.3734   5.3776   5.3822   5.4031   5.4158
  5.4322   5.4398   5.4673   5.4893   5.4986   5.5089   5.5139   5.5163
  5.5174   5.5378   5.5413   5.5529   5.5559   5.5628   5.5668   5.5675
  5.5786   5.5797   5.5858   5.5925   5.6059   5.6155   5.6215   5.6307
  5.6403   5.6498   5.6585   5.6617   5.6664   5.6728   5.6937   5.6976
  5.6988   5.7092   5.7153   5.7426   5.7513   5.7628   5.7680   5.7796
  5.7863   5.7922   5.8069   5.8331   5.8419   5.8531   5.8828   5.9058
  5.9235   5.9551   5.9604   5.9823   6.0072   6.0280   6.0398   6.0429
  6.0482   6.0785   6.0994   6.1144   6.1231   6.1455   6.1511   6.1881
  6.2046   6.2204   6.2255   6.2265   6.2447   6.2586   6.2791   6.2835
  6.3108   6.3145   6.3237   6.3500   6.3663   6.3885   6.4276   6.4869
  6.5202   6.5315   6.5751   6.5829   6.6026   6.6174   6.6588   6.6644
  6.6747   6.7121   6.8499   6.8514   6.8904   6.9023   6.9061   6.9262
  6.9272   6.9714   7.1039   7.1144   7.1487   7.1965   7.2011   7.2384
  7.3472   7.3518   7.3569   7.3608   7.4768   7.5451   7.5714   7.5831
  7.5916   7.6121   7.6545   7.6895   7.6977   7.7258   8.8987  10.0570
 10.3665  11.3175  11.5645  11.7586  12.0212  12.1070  12.4262  12.4659
 12.9163  13.2262  13.3394  13.5552  13.8031  13.9310  14.1283  14.2859
 14.3215  14.3732  14.5380  14.6748  15.0348  15.6128  15.8230  16.3146
 --------------------------------------------------------------
 
          Ground-State Mulliken Net Atomic Charges

     Atom                 Charge (a.u.)
  ----------------------------------------
      1 C                    -0.085229
      2 C                    -0.029719
      3 C                    -0.111892
      4 C                    -0.127227
      5 H                     0.198720
      6 C                     0.017495
      7 C                     0.127059
      8 C                    -0.064134
      9 C                    -0.166463
     10 C                    -0.182157
     11 C                     0.232370
     12 H                     0.187253
     13 C                     0.344279
     14 C                     0.347906
     15 N                    -0.089683
     16 C                     0.357727
     17 C                     0.370487
     18 N                    -0.088311
     19 O                    -0.494323
     20 O                    -0.506412
     21 O                    -0.501663
     22 O                    -0.474928
     23 C                    -0.204716
     24 H                     0.139415
     25 H                     0.109285
     26 H                     0.109176
     27 C                    -0.197795
     28 H                     0.133805
     29 H                     0.111555
     30 H                     0.111087
     31 C                    -0.070540
     32 S                     0.005884
     33 C                    -0.221540
     34 C                    -0.159219
     35 C                    -0.198486
     36 H                     0.186158
     37 H                     0.190891
     38 H                     0.212860
     39 H                     0.137529
     40 H                     0.137921
     41 H                     0.205576
  ----------------------------------------
  Sum of atomic charges =     0.000000

 -----------------------------------------------------------------
                    Cartesian Multipole Moments
 -----------------------------------------------------------------
    Charge (ESU x 10^10)
                 0.0000
    Dipole Moment (Debye)
         X       2.0556      Y       2.1110      Z      -1.5143
       Tot       3.3128
    Quadrupole Moments (Debye-Ang)
        XX    -174.8489     XY      -2.9261     YY    -178.8263
        XZ      16.3777     YZ       6.3540     ZZ    -175.8381
    Octopole Moments (Debye-Ang^2)
       XXX     -81.6714    XXY     520.6509    XYY      27.0924
       YYY    1688.6067    XXZ      -3.8696    XYZ     -65.7205
       YYZ     -43.8803    XZZ     -22.9741    YZZ     554.4127
       ZZZ     -20.1320
    Hexadecapole Moments (Debye-Ang^3)
      XXXX   -2709.5334   XXXY    -243.5414   XXYY   -3395.4331
      XYYY    -802.9878   YYYY  -18027.9316   XXXZ    1483.3587
      XXYZ     -25.1797   XYYZ     914.9113   YYYZ     865.2967
      XXZZ   -1185.1610   XYZZ      30.4162   YYZZ   -3730.8755
      XZZZ    1523.6832   YZZZ      96.2679   ZZZZ   -3984.7860
 -----------------------------------------------------------------
 Total job time:  287.04s(wall), 8867.53s(cpu) 
 Wed Dec 27 10:16:17 2023

        *************************************************************
        *                                                           *
        *  Thank you very much for using Q-Chem.  Have a nice day.  *
        *                                                           *
        *************************************************************


0 sent ACK to 0 
now end server 0 ... 
cleanup process ... done
remove work dirs ./qchem20522.0 -- ./qchem20522.0
rm -rf ./qchem20522.0
rm -rf ./qchem20522
