You are running Q-Chem version: 5.4.0

#
# job setting
#
local host:  exp-2-05
current dir: /home/rramji/project-csd799/aromodel/pndit-qchem/hydrogenated-rotation-run
input file:  Dimethyl_Naphthalene_Dicarboximide_Phi_15_Theta_210_Thiophene_Hydrogenated.qcin
output file: 
nprocs     : 1
nthreads   : 64
#
# qchem installation setting
#
QC:          /cm/shared/apps/spack/cpu/opt/spack/linux-centos8-zen2/gcc-10.2.0/qchem-5.4-akfmr7b3t57bfs6qan3padb2wnb2i7cl
QCAUX:       /cm/shared/apps/spack/cpu/opt/spack/linux-centos8-zen2/gcc-10.2.0/qchem-5.4-akfmr7b3t57bfs6qan3padb2wnb2i7cl/qcaux
QCPROG:      /cm/shared/apps/spack/cpu/opt/spack/linux-centos8-zen2/gcc-10.2.0/qchem-5.4-akfmr7b3t57bfs6qan3padb2wnb2i7cl/exe/qcprog.exe
QCPROG_S:    /cm/shared/apps/spack/cpu/opt/spack/linux-centos8-zen2/gcc-10.2.0/qchem-5.4-akfmr7b3t57bfs6qan3padb2wnb2i7cl/exe/qcprog.exe_s
PARALLEL:    -DPARALLEL
QCMPI:       mpich
#
# qchem directory setting
#
qcrun:       qchem1519010
QCSCRATCH:   .
QCLOCALSCR:  
QCTMPDIR:    .
QCFILEPREF:  ./qchem1519010
QCSAVEDIR:   
workdirs:    ./qchem1519010
workdir0:    ./qchem1519010
partmpdirs =  
#
# parallel setting
#
QCRSH:           ssh
QCMPI:           mpich
QCMPIRUN:        /cm/shared/apps/spack/cpu/opt/spack/linux-centos8-zen2/gcc-10.2.0/qchem-5.4-akfmr7b3t57bfs6qan3padb2wnb2i7cl/bin/mpi/mpirun_qchem
QCMACHINEFILE:   ./qchem1519010/hostfile
exp-2-05

#
# env setting
#
exported envs:   QC QCAUX QCSCRATCH QCRUNNAME QCFILEPREF QCPROG QCPROG_S GUIFILE

Running Job 1 of 1 Dimethyl_Naphthalene_Dicarboximide_Phi_15_Theta_210_Thiophene_Hydrogenated.qcin
qchem Dimethyl_Naphthalene_Dicarboximide_Phi_15_Theta_210_Thiophene_Hydrogenated.qcin_1519010.0 ./qchem1519010/ 1
/cm/shared/apps/spack/cpu/opt/spack/linux-centos8-zen2/gcc-10.2.0/qchem-5.4-akfmr7b3t57bfs6qan3padb2wnb2i7cl/bin/mpi/mpirun_qchem -machinefile ./qchem1519010/hostfile -np 1 /cm/shared/apps/spack/cpu/opt/spack/linux-centos8-zen2/gcc-10.2.0/qchem-5.4-akfmr7b3t57bfs6qan3padb2wnb2i7cl/exe/qcprog.exe Dimethyl_Naphthalene_Dicarboximide_Phi_15_Theta_210_Thiophene_Hydrogenated.qcin_1519010.0 ./qchem1519010/

Process 0 of 1 is on exp-2-05 - thread support 0
initial socket setup ...start
initial socket setup ...done 
now start server 0 ... 
                  Welcome to Q-Chem
     A Quantum Leap Into The Future Of Chemistry


 Q-Chem 5.4, Q-Chem, Inc., Pleasanton, CA (2021)

 License issued to: University of California, San Diego (site)

 E. Epifanovsky,  A. T. B. Gilbert,  Xintian Feng,  Joonho Lee,  Yuezhi Mao,  
 N. Mardirossian,  P. Pokhilko,  A. White,  M. Wormit,  M. P. Coons,  
 A. L. Dempwolff,  Zhengting Gan,  D. Hait,  P. R. Horn,  L. D. Jacobson,  
 I. Kaliman,  J. Kussmann,  A. W. Lange,  Ka Un Lao,  D. S. Levine,  Jie Liu,  
 S. C. McKenzie,  A. F. Morrison,  K. Nanda,  F. Plasser,  D. R. Rehn,  
 M. L. Vidal,  Zhi-Qiang You,  Ying Zhu,  B. Alam,  B. Albrecht,  
 A. Aldossary,  E. Alguire,  J. H. Andersen,  D. Barton,  K. Begam,  A. Behn,  
 Y. A. Bernard,  E. J. Berquist,  H. Burton,  A. Carreras,  K. Carter-Fenk,  
 R. Chakraborty,  A. D. Chien,  K. D. Closser,  V. Cofer-Shabica,  
 S. Dasgupta,  Jia Deng,  M. de Wergifosse,  M. Diedenhofen,  Hainam Do,  
 S. Ehlert,  Po-Tung Fang,  S. Fatehi,  Qingguo Feng,  J. Gayvert,  
 Qinghui Ge,  G. Gidofalvi,  M. Goldey,  J. Gomes,  C. Gonzalez-Espinoza,  
 S. Gulania,  A. Gunina,  M. W. D. Hanson-Heine,  P. H. P. Harbach,  
 A. W. Hauser,  M. F. Herbst,  M. Hernandez Vera,  M. Hodecker,  
 Z. C. Holden,  S. Houck,  Xunkun Huang,  Kerwin Hui,  B. C. Huynh,  
 M. Ivanov,  Hyunjun Ji,  Hanjie Jiang,  B. Kaduk,  S. Kaehler,  
 K. Khistyaev,  Jaehoon Kim,  P. Klunzinger,  Z. Koczor-Benda,  
 Joong Hoon Koh,  D. Kosenkov,  L. Koulias,  T. Kowalczyk,  C. M. Krauter,  
 K. Kue,  A. Kunitsa,  T. Kus,  A. Landau,  K. V. Lawler,  D. Lefrancois,  
 S. Lehtola,  Rain Li,  Yi-Pei Li,  Jiashu Liang,  M. Liebenthal,  
 Hung-Hsuan Lin,  You-Sheng Lin,  Fenglai Liu,  Kuan-Yu Liu,  
 M. Loipersberger,  A. Luenser,  A. Manjanath,  P. Manohar,  E. Mansoor,  
 S. F. Manzer,  Shan-Ping Mao,  A. V. Marenich,  T. Markovich,  S. Mason,  
 S. A. Maurer,  P. F. McLaughlin,  M. F. S. J. Menger,  J.-M. Mewes,  
 S. A. Mewes,  P. Morgante,  J. W. Mullinax,  T. S. Nguyen-Beck,  
 K. J. Oosterbaan,  G. Paran,  Alexander C. Paul,  Suranjan K. Paul,  
 F. Pavosevic,  Zheng Pei,  S. Prager,  E. I. Proynov,  E. Ramos,  B. Rana,  
 A. E. Rask,  A. Rettig,  R. M. Richard,  F. Rob,  E. Rossomme,  T. Scheele,  
 M. Scheurer,  M. Schneider,  N. Sergueev,  S. M. Sharada,  W. Skomorowski,  
 D. W. Small,  C. J. Stein,  Yu-Chuan Su,  E. J. Sundstrom,  Zhen Tao,  
 J. Thirman,  T. Tsuchimochi,  N. M. Tubman,  S. P. Veccham,  O. Vydrov,  
 J. Wenzel,  J. Witte,  A. Yamada,  Kun Yao,  S. Yeganeh,  S. R. Yost,  
 A. Zech,  Igor Ying Zhang,  Xing Zhang,  Yu Zhang,  D. Zuev,  
 A. Aspuru-Guzik,  A. T. Bell,  N. A. Besley,  K. B. Bravaya,  B. R. Brooks,  
 D. Casanova,  Jeng-Da Chai,  S. Coriani,  C. J. Cramer,  
 A. E. DePrince, III,  R. A. DiStasio Jr.,  A. Dreuw,  B. D. Dunietz,  
 T. R. Furlani,  W. A. Goddard III,  S. Grimme,  S. Hammes-Schiffer,  
 T. Head-Gordon,  W. J. Hehre,  Chao-Ping Hsu,  T.-C. Jagau,  Yousung Jung,  
 A. Klamt,  Jing Kong,  D. S. Lambrecht,  WanZhen Liang,  N. J. Mayhall,  
 C. W. McCurdy,  J. B. Neaton,  C. Ochsenfeld,  J. A. Parkhill,  R. Peverati,  
 V. A. Rassolov,  Yihan Shao,  L. V. Slipchenko,  T. Stauch,  R. P. Steele,  
 J. E. Subotnik,  A. J. W. Thom,  A. Tkatchenko,  D. G. Truhlar,  
 T. Van Voorhis,  T. A. Wesolowski,  K. B. Whaley,  H. L. Woodcock III,  
 P. M. Zimmerman,  S. Faraji,  P. M. W. Gill,  M. Head-Gordon,  
 J. M. Herbert,  A. I. Krylov

 Contributors to earlier versions of Q-Chem not listed above: 
 R. D. Adamson,  B. Austin,  R. Baer,  J. Baker,  G. J. O. Beran,  
 K. Brandhorst,  S. T. Brown,  E. F. C. Byrd,  A. K. Chakraborty,  
 G. K. L. Chan,  Chun-Min Chang,  Yunqing Chen,  C.-L. Cheng,  
 Siu Hung Chien,  D. M. Chipman,  D. L. Crittenden,  H. Dachsel,  
 R. J. Doerksen,  A. D. Dutoi,  R. G. Edgar,  J. Fosso-Tande,  
 L. Fusti-Molnar,  D. Ghosh,  A. Ghysels,  A. Golubeva-Zadorozhnaya,  
 J. Gonthier,  M. S. Gordon,  S. R. Gwaltney,  G. Hawkins,  J. E. Herr,  
 A. Heyden,  S. Hirata,  E. G. Hohenstein,  G. Kedziora,  F. J. Keil,  
 C. Kelley,  Jihan Kim,  R. A. King,  R. Z. Khaliullin,  P. P. Korambath,  
 W. Kurlancheek,  A. Laurent,  A. M. Lee,  M. S. Lee,  S. V. Levchenko,  
 Ching Yeh Lin,  D. Liotard,  E. Livshits,  R. C. Lochan,  I. Lotan,  
 L. A. Martinez-Martinez,  P. E. Maslen,  N. Nair,  D. P. O'Neill,  
 D. Neuhauser,  E. Neuscamman,  C. M. Oana,  R. Olivares-Amaya,  R. Olson,  
 T. M. Perrine,  B. Peters,  P. A. Pieniazek,  A. Prociuk,  Y. M. Rhee,  
 J. Ritchie,  M. A. Rohrdanz,  E. Rosta,  N. J. Russ,  H. F. Schaefer III,  
 M. W. Schmidt,  N. E. Schultz,  S. Sharma,  N. Shenvi,  C. D. Sherrill,  
 A. C. Simmonett,  A. Sodt,  T. Stein,  D. Stuck,  K. S. Thanthiriwatte,  
 V. Vanovschi,  L. Vogt,  Tao Wang,  A. Warshel,  M. A. Watson,  
 C. F. Williams,  Q. Wu,  X. Xu,  Jun Yang,  W. Zhang,  Yan Zhao

 Please cite Q-Chem as follows:
 Y. Shao et al., Mol. Phys. 113, 184-215 (2015)
 DOI: 10.1080/00268976.2014.952696

 Q-Chem 5.4.0 for Intel X86 EM64T Linux

 Parts of Q-Chem use Armadillo 9.800.1 (Horizon Scraper).
 http://arma.sourceforge.net/

 Q-Chem begins on Wed Dec 27 11:36:33 2023  

 Host: 
0

     Scratch files written to ./qchem1519010//
 May1621 |scratch|qcdevops|jenkins|workspace|build_RNUM    
 Parallel job on  1  processors
 Processing $rem in /cm/shared/apps/spack/cpu/opt/spack/linux-centos8-zen2/gcc-10.2.0/qchem-5.4-akfmr7b3t57bfs6qan3padb2wnb2i7cl/config/preferences:
 Processing $rem in /home/rramji/.qchemrc:
 Symmetry turned off for PCM/SM12/SMD calculation
 Core orbitals will be frozen

 Checking the input file for inconsistencies... 	...done.

 Q-Chem warning in module forms1/BasisType.C, line 2236:

 You are not using the predefined 5D/6D in this basis set.


--------------------------------------------------------------
User input:
--------------------------------------------------------------
$molecule
0 1
C	-0.127184	-6.741404	0.223244
C	-0.779949	-6.155638	1.354118
C	0.415271	-5.791452	-0.715408
C	-0.919437	-4.803786	1.595259
H	-1.218801	-6.821518	2.114613
C	0.268806	-4.378638	-0.463133
C	-0.396744	-3.838032	0.688925
C	0.790835	-3.413062	-1.368449
C	-0.542026	-2.426473	0.939189
C	0.652669	-2.059348	-1.130363
C	0.000000	-1.478216	0.000000
H	1.091814	-1.394783	-1.891815
C	1.138124	-6.187987	-1.963749
C	1.506241	-3.798164	-2.607351
N	1.629443	-5.170003	-2.817348
C	-1.636646	-4.424987	2.837621
C	-1.264474	-2.036627	2.188982
N	-1.756205	-3.049156	3.042637
O	1.336258	-7.353131	-2.301222
O	1.967056	-2.986854	-3.407386
O	-2.092167	-5.248946	3.628041
O	-1.472160	-0.878829	2.545844
C	2.336642	-5.563799	-4.040164
H	2.360245	-6.664085	-4.078749
H	3.361968	-5.147101	-4.027880
H	1.813424	-5.148785	-4.922811
C	-2.452149	-2.587487	4.247167
H	-2.772531	-3.483329	4.804209
H	-3.322697	-1.964972	3.965991
H	-1.774507	-1.962932	4.859678
C	0.000000	0.000000	0.000000
S	0.205093	0.766196	1.580530
C	0.628939	2.348114	0.904911
C	0.258137	0.964028	-0.985400
C	0.599745	2.239309	-0.493528
H	0.197169	0.736404	-2.059934
H	0.827678	3.090243	-1.152593
H	0.856796	3.198808	1.556025
H	-0.851574	-7.361589	-0.318588
H	0.704181	-7.361192	0.580522
H	-0.935042	-1.478831	-0.540459
$end

$rem
JOBTYPE		SP
EXCHANGE	HF
CORRELATION	pRIMP2
BASIS		cc-pvtz
METHOD		rimp2
AUX_BASIS	rimp2-cc-pvtz
SOLVENT_METHOD	PCM
PURECART	11111
SYMMETRY	false
MEM_TOTAL	110000
SCF_CONVERGENCE = 6
THRESH=10
GUI = 2
$end



$solvent
dielectric 4.90
$end
--------------------------------------------------------------
 ----------------------------------------------------------------
             Standard Nuclear Orientation (Angstroms)
    I     Atom           X                Y                Z
 ----------------------------------------------------------------
    1      C      -0.1271840000    -6.7414040000     0.2232440000
    2      C      -0.7799490000    -6.1556380000     1.3541180000
    3      C       0.4152710000    -5.7914520000    -0.7154080000
    4      C      -0.9194370000    -4.8037860000     1.5952590000
    5      H      -1.2188010000    -6.8215180000     2.1146130000
    6      C       0.2688060000    -4.3786380000    -0.4631330000
    7      C      -0.3967440000    -3.8380320000     0.6889250000
    8      C       0.7908350000    -3.4130620000    -1.3684490000
    9      C      -0.5420260000    -2.4264730000     0.9391890000
   10      C       0.6526690000    -2.0593480000    -1.1303630000
   11      C       0.0000000000    -1.4782160000     0.0000000000
   12      H       1.0918140000    -1.3947830000    -1.8918150000
   13      C       1.1381240000    -6.1879870000    -1.9637490000
   14      C       1.5062410000    -3.7981640000    -2.6073510000
   15      N       1.6294430000    -5.1700030000    -2.8173480000
   16      C      -1.6366460000    -4.4249870000     2.8376210000
   17      C      -1.2644740000    -2.0366270000     2.1889820000
   18      N      -1.7562050000    -3.0491560000     3.0426370000
   19      O       1.3362580000    -7.3531310000    -2.3012220000
   20      O       1.9670560000    -2.9868540000    -3.4073860000
   21      O      -2.0921670000    -5.2489460000     3.6280410000
   22      O      -1.4721600000    -0.8788290000     2.5458440000
   23      C       2.3366420000    -5.5637990000    -4.0401640000
   24      H       2.3602450000    -6.6640850000    -4.0787490000
   25      H       3.3619680000    -5.1471010000    -4.0278800000
   26      H       1.8134240000    -5.1487850000    -4.9228110000
   27      C      -2.4521490000    -2.5874870000     4.2471670000
   28      H      -2.7725310000    -3.4833290000     4.8042090000
   29      H      -3.3226970000    -1.9649720000     3.9659910000
   30      H      -1.7745070000    -1.9629320000     4.8596780000
   31      C       0.0000000000     0.0000000000     0.0000000000
   32      S       0.2050930000     0.7661960000     1.5805300000
   33      C       0.6289390000     2.3481140000     0.9049110000
   34      C       0.2581370000     0.9640280000    -0.9854000000
   35      C       0.5997450000     2.2393090000    -0.4935280000
   36      H       0.1971690000     0.7364040000    -2.0599340000
   37      H       0.8276780000     3.0902430000    -1.1525930000
   38      H       0.8567960000     3.1988080000     1.5560250000
   39      H      -0.8515740000    -7.3615890000    -0.3185880000
   40      H       0.7041810000    -7.3611920000     0.5805220000
   41      H      -0.9350420000    -1.4788310000    -0.5404590000
 ----------------------------------------------------------------
 Nuclear Repulsion Energy =        2562.31146494 hartrees
 There are       98 alpha and       98 beta electrons
 Requested basis set is cc-pVTZ
 There are 356 shells and 1010 basis functions

 Total QAlloc Memory Limit 110000 MB
 Mega-Array Size       188 MB
 MEM_STATIC part       192 MB
 Discretize the solute cavity surface with Lebedev spheres
	Using 110 Lebedev grid points for each H atom
	Using 194 Lebedev grid points for other atoms
	Atomic van der Waals radii will be scaled by 1.20
 Remove points where switching function is < 1.0e-08
 Keep 2583 surface tesserae and discard 4195 interior tesserae
 Molecular Surface Area = 364.030 Angst**2
 Requested basis set is rimp2-cc-pVTZ
 There are 770 shells and 2648 basis functions
 A cutoff of  1.0D-10 yielded  34138 shell pairs
 There are    258304 function pairs (    334303 Cartesian)
 Smallest overlap matrix eigenvalue = 9.14E-06

 Q-Chem warning in module stvman/mkSTV.C, line 323:

 Overlap eigenvalue is smaller than square root of threshold
 Use THRESH >= 12 to get rid of this warning


 Scale SEOQF with 1.000000e-01/1.000000e-02/1.000000e-01

 Standard Electronic Orientation quadrupole field applied
 Nucleus-field energy     =    -0.0000000731 hartrees
 Guess from superposition of atomic densities
 Warning:  Energy on first SCF cycle will be non-variational
 SAD guess density has 196.000000 electrons

 -----------------------------------------------------------------------
  General SCF calculation program by
  Eric Jon Sundstrom, Paul Horn, Yuezhi Mao, Dmitri Zuev, Alec White,
  David Stuck, Shaama M.S., Shane Yost, Joonho Lee, David Small,
  Daniel Levine, Susi Lehtola, Hugh Burton, Evgeny Epifanovsky,
  Bang C. Huynh
 -----------------------------------------------------------------------
 Hartree-Fock
 using 64 threads for integral computing
 -------------------------------------------------------
 OpenMP Integral computing Module                
 Release: version 1.0, May 2013, Q-Chem Inc. Pittsburgh 
 -------------------------------------------------------
 A restricted SCF calculation will be
 performed using DIIS
 SCF converges when DIIS error is below 1.0e-06
 ---------------------------------------
  Cycle       Energy         DIIS error
 ---------------------------------------
    1   -1583.1493105198      1.86e-02  
    2   -1571.1495635600      2.03e-03  
    3   -1571.4890636955      1.55e-03  
    4   -1571.7114840968      2.53e-04  
    5   -1571.7252326116      7.80e-05  
    6   -1571.7266343276      3.00e-05  
    7   -1571.7270484062      1.57e-05  
    8   -1571.7271644302      6.32e-06  
    9   -1571.7271848857      2.96e-06  
   10   -1571.7271890549      1.22e-06  
   11   -1571.7271902996      5.87e-07  Convergence criterion met
 ---------------------------------------
 SCF time:   CPU 6905.89s  wall 260.00s 

************** Final PCM Free Energy Summary **************
 G_electrostatic  =      -0.02993749 hartree =     -18.78605572 kcal/mol
 G_cavitation     =       0.00000000 hartree =       0.00000000 kcal/mol
 G_dispersion     =       0.00000000 hartree =       0.00000000 kcal/mol
 G_repulsion      =       0.00000000 hartree =       0.00000000 kcal/mol
 --------------------------------------------------
 Non-electrostatic Free Energy =       0.00000000 hartree =       0.00000000 kcal/mol
 Total                         =      -0.02993749 hartree =     -18.78605572 kcal/mol
 --------------------------------------------------
 SCF Energy (H0 + V/2)                       =   -1571.72719030 
 Solute Internal Energy (H0)                 =   -1571.69725281 
 Total Free Energy (H0 + V/2 + non-elec)     =   -1571.72719030 hartree
                                             = -986273.69774119 kcal/mol
***********************************************************

 SCF   energy in the final basis set =    -1571.7271902996
 Total energy in the final basis set =    -1571.7271902996


 --------------------------------------------------------------
  Generalized many-body perturbation theory program
  by Joonho Lee, Fazle Rob, Xintian Feng, Evgeny Epifanovsky

 No regularization used 
 (reg. param. = 0.0000e+00)
  (P|Q)^-1/2 Time:  CPU 127.43 s  wall 2.75 s

 In RI-MP2 calculation: 
 # of frozen core orbitals: 31

 Components of the RIMP2 correlation energy:
        aaaa    correlation energy =        -0.6168190586 a.u.
        abab    correlation energy =        -3.4287992018 a.u.
        bbbb    correlation energy =        -0.6168190586 a.u.
        non-Brillouin singles      =        -0.0000000000 a.u.
        total same-spin energy     =        -1.2336381172 a.u.
        total opposite-spin energy =        -3.4287992018 a.u.

 Total  RIMP2   correlation energy =        -4.6624373190 a.u.
        RIMP2         total energy =     -1576.3896276186 a.u.

 RI-MP2 Energy Time:  CPU 2018.94 s  wall 33.42 s
 
 --------------------------------------------------------------
 
                    Orbital Energies (a.u.)
 --------------------------------------------------------------
 
 Alpha MOs
 -- Occupied --
-91.9782 -20.5532 -20.5454 -20.5421 -20.5411 -15.6284 -15.6219 -11.3960
-11.3861 -11.3840 -11.3798 -11.3111 -11.3096 -11.3074 -11.3054 -11.2981
-11.2958 -11.2911 -11.2699 -11.2699 -11.2693 -11.2655 -11.2636 -11.2598
-11.2535 -11.2513 -11.2437  -8.9780  -6.6586  -6.6578  -6.6573  -1.4236
 -1.4127  -1.3997  -1.3919  -1.2641  -1.2561  -1.2310  -1.1859  -1.1492
 -1.1152  -1.0868  -1.0482  -0.9943  -0.9887  -0.9788  -0.9557  -0.9494
 -0.8971  -0.8897  -0.8783  -0.8614  -0.7928  -0.7788  -0.7729  -0.7600
 -0.7348  -0.7185  -0.7025  -0.6913  -0.6832  -0.6754  -0.6677  -0.6581
 -0.6487  -0.6465  -0.6371  -0.6330  -0.6316  -0.6305  -0.6216  -0.6056
 -0.5870  -0.5740  -0.5640  -0.5621  -0.5593  -0.5526  -0.5517  -0.5488
 -0.5482  -0.5447  -0.5208  -0.5124  -0.5110  -0.4841  -0.4765  -0.4614
 -0.4557  -0.4450  -0.4383  -0.4322  -0.4120  -0.4080  -0.3547  -0.3422
 -0.3286  -0.2798
 -- Virtual --
  0.0113   0.0418   0.0897   0.1039   0.1374   0.1498   0.1579   0.1597
  0.1633   0.1726   0.1785   0.1810   0.1845   0.1906   0.2027   0.2043
  0.2151   0.2224   0.2279   0.2293   0.2307   0.2353   0.2513   0.2572
  0.2669   0.2708   0.3025   0.3081   0.3119   0.3219   0.3231   0.3287
  0.3349   0.3445   0.3469   0.3483   0.3530   0.3630   0.3667   0.3696
  0.3731   0.3785   0.3858   0.3882   0.3905   0.3970   0.3996   0.4111
  0.4178   0.4253   0.4281   0.4341   0.4365   0.4436   0.4463   0.4518
  0.4543   0.4602   0.4632   0.4757   0.4779   0.4834   0.4889   0.4939
  0.4960   0.5041   0.5076   0.5104   0.5156   0.5179   0.5235   0.5301
  0.5350   0.5362   0.5463   0.5526   0.5547   0.5588   0.5621   0.5669
  0.5725   0.5742   0.5777   0.5843   0.5891   0.5932   0.5985   0.6013
  0.6019   0.6048   0.6083   0.6094   0.6137   0.6183   0.6222   0.6269
  0.6280   0.6307   0.6325   0.6369   0.6393   0.6398   0.6486   0.6554
  0.6570   0.6676   0.6779   0.6853   0.6914   0.6944   0.6981   0.7020
  0.7076   0.7239   0.7263   0.7328   0.7363   0.7430   0.7518   0.7597
  0.7643   0.7679   0.7735   0.7755   0.7836   0.8003   0.8033   0.8115
  0.8141   0.8190   0.8247   0.8258   0.8295   0.8413   0.8439   0.8486
  0.8507   0.8576   0.8630   0.8677   0.8744   0.8795   0.8816   0.8832
  0.8899   0.9046   0.9054   0.9104   0.9174   0.9208   0.9276   0.9326
  0.9346   0.9385   0.9481   0.9537   0.9626   0.9687   0.9748   0.9802
  0.9828   0.9882   0.9907   0.9973   1.0076   1.0096   1.0145   1.0175
  1.0279   1.0339   1.0390   1.0425   1.0491   1.0542   1.0573   1.0627
  1.0664   1.0726   1.0769   1.0815   1.0834   1.0943   1.0959   1.1041
  1.1067   1.1162   1.1221   1.1255   1.1281   1.1323   1.1385   1.1431
  1.1493   1.1534   1.1598   1.1632   1.1677   1.1752   1.1809   1.1908
  1.1942   1.2002   1.2017   1.2085   1.2115   1.2129   1.2192   1.2287
  1.2320   1.2364   1.2389   1.2448   1.2512   1.2596   1.2699   1.2770
  1.2835   1.2867   1.2996   1.3030   1.3130   1.3255   1.3296   1.3346
  1.3414   1.3489   1.3583   1.3635   1.3681   1.3764   1.3813   1.3853
  1.3869   1.3927   1.3961   1.4061   1.4158   1.4208   1.4355   1.4435
  1.4468   1.4632   1.4657   1.4673   1.4734   1.4770   1.4901   1.4922
  1.4976   1.5058   1.5099   1.5163   1.5242   1.5329   1.5353   1.5392
  1.5402   1.5510   1.5547   1.5578   1.5653   1.5689   1.5725   1.5831
  1.5849   1.5994   1.6038   1.6076   1.6142   1.6257   1.6388   1.6417
  1.6449   1.6589   1.6663   1.6780   1.6847   1.6875   1.6904   1.6993
  1.7027   1.7124   1.7278   1.7281   1.7333   1.7376   1.7493   1.7525
  1.7635   1.7665   1.7805   1.7828   1.7968   1.8033   1.8075   1.8173
  1.8240   1.8258   1.8415   1.8460   1.8535   1.8635   1.8685   1.8687
  1.8716   1.8817   1.8902   1.8974   1.8994   1.9138   1.9316   1.9435
  1.9550   1.9637   1.9687   1.9848   1.9958   1.9998   2.0188   2.0270
  2.0409   2.0497   2.0643   2.0703   2.0884   2.1000   2.1150   2.1365
  2.1435   2.1587   2.1602   2.1716   2.1814   2.2062   2.2220   2.2329
  2.2397   2.2458   2.2613   2.2798   2.2836   2.2942   2.2976   2.3080
  2.3195   2.3264   2.3361   2.3483   2.3615   2.3693   2.3831   2.4026
  2.4165   2.4252   2.4424   2.4453   2.4548   2.4593   2.4726   2.4773
  2.4792   2.4891   2.4989   2.5111   2.5165   2.5216   2.5294   2.5585
  2.5624   2.5707   2.5722   2.5881   2.5962   2.6046   2.6149   2.6203
  2.6284   2.6290   2.6418   2.6459   2.6586   2.6627   2.6667   2.6732
  2.6842   2.6884   2.6947   2.7044   2.7193   2.7220   2.7322   2.7360
  2.7433   2.7479   2.7534   2.7590   2.7652   2.7728   2.7764   2.7843
  2.8036   2.8083   2.8319   2.8413   2.8448   2.8564   2.8628   2.8694
  2.8709   2.8810   2.8860   2.8898   2.8916   2.8993   2.9024   2.9085
  2.9147   2.9229   2.9315   2.9351   2.9462   2.9584   2.9643   2.9719
  2.9796   2.9907   2.9933   2.9976   3.0051   3.0168   3.0247   3.0262
  3.0322   3.0346   3.0460   3.0532   3.0550   3.0690   3.0722   3.0846
  3.0879   3.1009   3.1017   3.1030   3.1085   3.1118   3.1137   3.1233
  3.1254   3.1342   3.1488   3.1540   3.1549   3.1612   3.1699   3.1756
  3.1791   3.1830   3.1965   3.2028   3.2040   3.2149   3.2242   3.2250
  3.2299   3.2323   3.2401   3.2450   3.2479   3.2533   3.2619   3.2660
  3.2690   3.2739   3.2784   3.2829   3.2882   3.2940   3.3003   3.3081
  3.3117   3.3133   3.3185   3.3218   3.3264   3.3296   3.3344   3.3413
  3.3447   3.3488   3.3510   3.3548   3.3583   3.3680   3.3720   3.3746
  3.3781   3.3825   3.3868   3.3942   3.3979   3.4020   3.4038   3.4062
  3.4224   3.4240   3.4254   3.4329   3.4366   3.4388   3.4432   3.4451
  3.4511   3.4588   3.4694   3.4736   3.4762   3.4831   3.4838   3.4890
  3.4926   3.5003   3.5072   3.5126   3.5159   3.5197   3.5242   3.5264
  3.5315   3.5339   3.5418   3.5538   3.5577   3.5636   3.5717   3.5784
  3.5815   3.5890   3.5918   3.6074   3.6090   3.6140   3.6219   3.6248
  3.6289   3.6313   3.6366   3.6419   3.6475   3.6488   3.6544   3.6596
  3.6658   3.6693   3.6838   3.6870   3.6880   3.6897   3.7061   3.7119
  3.7139   3.7308   3.7331   3.7353   3.7391   3.7470   3.7493   3.7534
  3.7650   3.7657   3.7694   3.7762   3.7823   3.7854   3.7871   3.7993
  3.8051   3.8103   3.8149   3.8247   3.8290   3.8335   3.8405   3.8423
  3.8516   3.8647   3.8664   3.8761   3.8791   3.8848   3.8906   3.8986
  3.9140   3.9205   3.9250   3.9306   3.9428   3.9483   3.9528   3.9545
  3.9613   3.9685   3.9734   3.9760   3.9839   3.9928   4.0057   4.0087
  4.0165   4.0285   4.0354   4.0459   4.0496   4.0585   4.0655   4.0732
  4.0933   4.0994   4.1074   4.1162   4.1259   4.1291   4.1381   4.1440
  4.1479   4.1554   4.1617   4.1651   4.1677   4.1773   4.1860   4.2089
  4.2128   4.2280   4.2335   4.2349   4.2431   4.2504   4.2593   4.2608
  4.2639   4.2707   4.2823   4.2881   4.2937   4.2997   4.3026   4.3051
  4.3178   4.3202   4.3280   4.3328   4.3386   4.3431   4.3472   4.3580
  4.3634   4.3684   4.3710   4.3721   4.3779   4.3842   4.3854   4.3961
  4.4029   4.4105   4.4131   4.4234   4.4250   4.4396   4.4453   4.4609
  4.4655   4.4765   4.4910   4.4949   4.5094   4.5162   4.5247   4.5268
  4.5289   4.5369   4.5463   4.5561   4.5607   4.5752   4.5812   4.5870
  4.5904   4.5967   4.6054   4.6174   4.6223   4.6261   4.6360   4.6386
  4.6434   4.6638   4.6705   4.6788   4.6933   4.6989   4.7029   4.7116
  4.7245   4.7298   4.7382   4.7711   4.7805   4.7812   4.7839   4.7993
  4.8098   4.8171   4.8352   4.8406   4.8496   4.8581   4.8731   4.8807
  4.8889   4.9063   4.9120   4.9215   4.9329   4.9494   4.9587   4.9820
  4.9861   5.0081   5.0173   5.0235   5.0310   5.0398   5.0521   5.0591
  5.0725   5.0958   5.1065   5.1106   5.1211   5.1255   5.1342   5.1454
  5.1467   5.1538   5.1730   5.1794   5.1932   5.2015   5.2174   5.2222
  5.2557   5.2621   5.2722   5.2860   5.3008   5.3102   5.3133   5.3290
  5.3295   5.3353   5.3444   5.3694   5.3769   5.3822   5.4038   5.4165
  5.4372   5.4452   5.4559   5.4860   5.4979   5.5091   5.5140   5.5166
  5.5202   5.5239   5.5449   5.5552   5.5598   5.5634   5.5662   5.5733
  5.5780   5.5857   5.5857   5.6066   5.6117   5.6146   5.6235   5.6383
  5.6416   5.6499   5.6571   5.6621   5.6658   5.6662   5.6935   5.6945
  5.6993   5.7105   5.7354   5.7406   5.7486   5.7541   5.7680   5.7729
  5.7856   5.7911   5.8114   5.8296   5.8405   5.8554   5.8849   5.9220
  5.9271   5.9490   5.9725   5.9913   6.0216   6.0324   6.0402   6.0480
  6.0569   6.0738   6.0999   6.1117   6.1233   6.1453   6.1637   6.1862
  6.1978   6.2201   6.2222   6.2252   6.2442   6.2531   6.2771   6.2825
  6.3029   6.3117   6.3238   6.3469   6.3657   6.3761   6.4472   6.4849
  6.5180   6.5313   6.5731   6.5822   6.6019   6.6176   6.6411   6.6577
  6.6738   6.7163   6.8478   6.8514   6.8889   6.9022   6.9061   6.9259
  6.9270   6.9878   7.1038   7.1143   7.1512   7.1961   7.1997   7.2370
  7.3470   7.3514   7.3575   7.3619   7.4752   7.5414   7.5706   7.5827
  7.5919   7.6107   7.6541   7.6856   7.6925   7.7148   8.8809  10.0847
 10.3154  11.2919  11.5265  11.7603  12.0401  12.1366  12.4269  12.4606
 12.9625  13.2614  13.3235  13.5706  13.7984  13.9259  14.0690  14.3046
 14.3573  14.4134  14.5401  14.7154  15.0036  15.6322  15.8088  16.3130
 --------------------------------------------------------------
 
          Ground-State Mulliken Net Atomic Charges

     Atom                 Charge (a.u.)
  ----------------------------------------
      1 C                    -0.084400
      2 C                    -0.029563
      3 C                    -0.108402
      4 C                    -0.125274
      5 H                     0.199700
      6 C                     0.026044
      7 C                     0.126763
      8 C                    -0.093191
      9 C                    -0.169474
     10 C                    -0.159003
     11 C                     0.219985
     12 H                     0.192291
     13 C                     0.341537
     14 C                     0.349418
     15 N                    -0.090026
     16 C                     0.357412
     17 C                     0.368207
     18 N                    -0.091076
     19 O                    -0.494270
     20 O                    -0.508069
     21 O                    -0.500699
     22 O                    -0.473111
     23 C                    -0.204842
     24 H                     0.139626
     25 H                     0.109492
     26 H                     0.109029
     27 C                    -0.197542
     28 H                     0.133954
     29 H                     0.111814
     30 H                     0.112480
     31 C                    -0.028588
     32 S                     0.068358
     33 C                    -0.240683
     34 C                    -0.224175
     35 C                    -0.208270
     36 H                     0.182123
     37 H                     0.186810
     38 H                     0.206367
     39 H                     0.138039
     40 H                     0.138564
     41 H                     0.212646
  ----------------------------------------
  Sum of atomic charges =     0.000000

 -----------------------------------------------------------------
                    Cartesian Multipole Moments
 -----------------------------------------------------------------
    Charge (ESU x 10^10)
                 0.0000
    Dipole Moment (Debye)
         X      -1.1883      Y       1.2357      Z      -0.0329
       Tot       1.7147
    Quadrupole Moments (Debye-Ang)
        XX    -170.0158     XY       8.1698     YY    -178.4020
        XZ      13.8320     YZ      -6.7928     ZZ    -180.2535
    Octopole Moments (Debye-Ang^2)
       XXX     -16.1388    XXY     493.3526    XYY     -28.2338
       YYY    1674.3448    XXZ     -30.2353    XYZ     -57.5518
       YYZ      29.7257    XZZ      -3.0596    YZZ     573.0122
       ZZZ     -90.2927
    Hexadecapole Moments (Debye-Ang^3)
      XXXX   -1697.3125   XXXY      77.4323   XXYY   -3098.9293
      XYYY     563.5629   YYYY  -17994.7151   XXXZ    1273.8474
      XXYZ     -52.3647   XYYZ     801.3811   YYYZ   -1053.8982
      XXZZ   -1155.8446   XYZZ     -73.3891   YYZZ   -4032.7547
      XZZZ    1365.7414   YZZZ    -157.6579   ZZZZ   -5000.9482
 -----------------------------------------------------------------
 Total job time:  299.46s(wall), 9061.36s(cpu) 
 Wed Dec 27 11:41:32 2023

        *************************************************************
        *                                                           *
        *  Thank you very much for using Q-Chem.  Have a nice day.  *
        *                                                           *
        *************************************************************


0 sent ACK to 0 
now end server 0 ... 
cleanup process ... done
remove work dirs ./qchem1519010.0 -- ./qchem1519010.0
rm -rf ./qchem1519010.0
rm -rf ./qchem1519010
