You are running Q-Chem version: 5.4.0

#
# job setting
#
local host:  exp-2-47
current dir: /home/rramji/project-csd799/aromodel/pndit-qchem/hydrogenated-rotation-run
input file:  Dimethyl_Naphthalene_Dicarboximide_Phi_40_Theta_90_Thiophene_Hydrogenated.qcin
output file: 
nprocs     : 1
nthreads   : 64
#
# qchem installation setting
#
QC:          /cm/shared/apps/spack/cpu/opt/spack/linux-centos8-zen2/gcc-10.2.0/qchem-5.4-akfmr7b3t57bfs6qan3padb2wnb2i7cl
QCAUX:       /cm/shared/apps/spack/cpu/opt/spack/linux-centos8-zen2/gcc-10.2.0/qchem-5.4-akfmr7b3t57bfs6qan3padb2wnb2i7cl/qcaux
QCPROG:      /cm/shared/apps/spack/cpu/opt/spack/linux-centos8-zen2/gcc-10.2.0/qchem-5.4-akfmr7b3t57bfs6qan3padb2wnb2i7cl/exe/qcprog.exe
QCPROG_S:    /cm/shared/apps/spack/cpu/opt/spack/linux-centos8-zen2/gcc-10.2.0/qchem-5.4-akfmr7b3t57bfs6qan3padb2wnb2i7cl/exe/qcprog.exe_s
PARALLEL:    -DPARALLEL
QCMPI:       mpich
#
# qchem directory setting
#
qcrun:       qchem3712716
QCSCRATCH:   .
QCLOCALSCR:  
QCTMPDIR:    .
QCFILEPREF:  ./qchem3712716
QCSAVEDIR:   
workdirs:    ./qchem3712716
workdir0:    ./qchem3712716
partmpdirs =  
#
# parallel setting
#
QCRSH:           ssh
QCMPI:           mpich
QCMPIRUN:        /cm/shared/apps/spack/cpu/opt/spack/linux-centos8-zen2/gcc-10.2.0/qchem-5.4-akfmr7b3t57bfs6qan3padb2wnb2i7cl/bin/mpi/mpirun_qchem
QCMACHINEFILE:   ./qchem3712716/hostfile
exp-2-47

#
# env setting
#
exported envs:   QC QCAUX QCSCRATCH QCRUNNAME QCFILEPREF QCPROG QCPROG_S GUIFILE

Running Job 1 of 1 Dimethyl_Naphthalene_Dicarboximide_Phi_40_Theta_90_Thiophene_Hydrogenated.qcin
qchem Dimethyl_Naphthalene_Dicarboximide_Phi_40_Theta_90_Thiophene_Hydrogenated.qcin_3712716.0 ./qchem3712716/ 1
/cm/shared/apps/spack/cpu/opt/spack/linux-centos8-zen2/gcc-10.2.0/qchem-5.4-akfmr7b3t57bfs6qan3padb2wnb2i7cl/bin/mpi/mpirun_qchem -machinefile ./qchem3712716/hostfile -np 1 /cm/shared/apps/spack/cpu/opt/spack/linux-centos8-zen2/gcc-10.2.0/qchem-5.4-akfmr7b3t57bfs6qan3padb2wnb2i7cl/exe/qcprog.exe Dimethyl_Naphthalene_Dicarboximide_Phi_40_Theta_90_Thiophene_Hydrogenated.qcin_3712716.0 ./qchem3712716/

Process 0 of 1 is on exp-2-47 - thread support 0
initial socket setup ...start
initial socket setup ...done 
now start server 0 ... 
                  Welcome to Q-Chem
     A Quantum Leap Into The Future Of Chemistry


 Q-Chem 5.4, Q-Chem, Inc., Pleasanton, CA (2021)

 License issued to: University of California, San Diego (site)

 E. Epifanovsky,  A. T. B. Gilbert,  Xintian Feng,  Joonho Lee,  Yuezhi Mao,  
 N. Mardirossian,  P. Pokhilko,  A. White,  M. Wormit,  M. P. Coons,  
 A. L. Dempwolff,  Zhengting Gan,  D. Hait,  P. R. Horn,  L. D. Jacobson,  
 I. Kaliman,  J. Kussmann,  A. W. Lange,  Ka Un Lao,  D. S. Levine,  Jie Liu,  
 S. C. McKenzie,  A. F. Morrison,  K. Nanda,  F. Plasser,  D. R. Rehn,  
 M. L. Vidal,  Zhi-Qiang You,  Ying Zhu,  B. Alam,  B. Albrecht,  
 A. Aldossary,  E. Alguire,  J. H. Andersen,  D. Barton,  K. Begam,  A. Behn,  
 Y. A. Bernard,  E. J. Berquist,  H. Burton,  A. Carreras,  K. Carter-Fenk,  
 R. Chakraborty,  A. D. Chien,  K. D. Closser,  V. Cofer-Shabica,  
 S. Dasgupta,  Jia Deng,  M. de Wergifosse,  M. Diedenhofen,  Hainam Do,  
 S. Ehlert,  Po-Tung Fang,  S. Fatehi,  Qingguo Feng,  J. Gayvert,  
 Qinghui Ge,  G. Gidofalvi,  M. Goldey,  J. Gomes,  C. Gonzalez-Espinoza,  
 S. Gulania,  A. Gunina,  M. W. D. Hanson-Heine,  P. H. P. Harbach,  
 A. W. Hauser,  M. F. Herbst,  M. Hernandez Vera,  M. Hodecker,  
 Z. C. Holden,  S. Houck,  Xunkun Huang,  Kerwin Hui,  B. C. Huynh,  
 M. Ivanov,  Hyunjun Ji,  Hanjie Jiang,  B. Kaduk,  S. Kaehler,  
 K. Khistyaev,  Jaehoon Kim,  P. Klunzinger,  Z. Koczor-Benda,  
 Joong Hoon Koh,  D. Kosenkov,  L. Koulias,  T. Kowalczyk,  C. M. Krauter,  
 K. Kue,  A. Kunitsa,  T. Kus,  A. Landau,  K. V. Lawler,  D. Lefrancois,  
 S. Lehtola,  Rain Li,  Yi-Pei Li,  Jiashu Liang,  M. Liebenthal,  
 Hung-Hsuan Lin,  You-Sheng Lin,  Fenglai Liu,  Kuan-Yu Liu,  
 M. Loipersberger,  A. Luenser,  A. Manjanath,  P. Manohar,  E. Mansoor,  
 S. F. Manzer,  Shan-Ping Mao,  A. V. Marenich,  T. Markovich,  S. Mason,  
 S. A. Maurer,  P. F. McLaughlin,  M. F. S. J. Menger,  J.-M. Mewes,  
 S. A. Mewes,  P. Morgante,  J. W. Mullinax,  T. S. Nguyen-Beck,  
 K. J. Oosterbaan,  G. Paran,  Alexander C. Paul,  Suranjan K. Paul,  
 F. Pavosevic,  Zheng Pei,  S. Prager,  E. I. Proynov,  E. Ramos,  B. Rana,  
 A. E. Rask,  A. Rettig,  R. M. Richard,  F. Rob,  E. Rossomme,  T. Scheele,  
 M. Scheurer,  M. Schneider,  N. Sergueev,  S. M. Sharada,  W. Skomorowski,  
 D. W. Small,  C. J. Stein,  Yu-Chuan Su,  E. J. Sundstrom,  Zhen Tao,  
 J. Thirman,  T. Tsuchimochi,  N. M. Tubman,  S. P. Veccham,  O. Vydrov,  
 J. Wenzel,  J. Witte,  A. Yamada,  Kun Yao,  S. Yeganeh,  S. R. Yost,  
 A. Zech,  Igor Ying Zhang,  Xing Zhang,  Yu Zhang,  D. Zuev,  
 A. Aspuru-Guzik,  A. T. Bell,  N. A. Besley,  K. B. Bravaya,  B. R. Brooks,  
 D. Casanova,  Jeng-Da Chai,  S. Coriani,  C. J. Cramer,  
 A. E. DePrince, III,  R. A. DiStasio Jr.,  A. Dreuw,  B. D. Dunietz,  
 T. R. Furlani,  W. A. Goddard III,  S. Grimme,  S. Hammes-Schiffer,  
 T. Head-Gordon,  W. J. Hehre,  Chao-Ping Hsu,  T.-C. Jagau,  Yousung Jung,  
 A. Klamt,  Jing Kong,  D. S. Lambrecht,  WanZhen Liang,  N. J. Mayhall,  
 C. W. McCurdy,  J. B. Neaton,  C. Ochsenfeld,  J. A. Parkhill,  R. Peverati,  
 V. A. Rassolov,  Yihan Shao,  L. V. Slipchenko,  T. Stauch,  R. P. Steele,  
 J. E. Subotnik,  A. J. W. Thom,  A. Tkatchenko,  D. G. Truhlar,  
 T. Van Voorhis,  T. A. Wesolowski,  K. B. Whaley,  H. L. Woodcock III,  
 P. M. Zimmerman,  S. Faraji,  P. M. W. Gill,  M. Head-Gordon,  
 J. M. Herbert,  A. I. Krylov

 Contributors to earlier versions of Q-Chem not listed above: 
 R. D. Adamson,  B. Austin,  R. Baer,  J. Baker,  G. J. O. Beran,  
 K. Brandhorst,  S. T. Brown,  E. F. C. Byrd,  A. K. Chakraborty,  
 G. K. L. Chan,  Chun-Min Chang,  Yunqing Chen,  C.-L. Cheng,  
 Siu Hung Chien,  D. M. Chipman,  D. L. Crittenden,  H. Dachsel,  
 R. J. Doerksen,  A. D. Dutoi,  R. G. Edgar,  J. Fosso-Tande,  
 L. Fusti-Molnar,  D. Ghosh,  A. Ghysels,  A. Golubeva-Zadorozhnaya,  
 J. Gonthier,  M. S. Gordon,  S. R. Gwaltney,  G. Hawkins,  J. E. Herr,  
 A. Heyden,  S. Hirata,  E. G. Hohenstein,  G. Kedziora,  F. J. Keil,  
 C. Kelley,  Jihan Kim,  R. A. King,  R. Z. Khaliullin,  P. P. Korambath,  
 W. Kurlancheek,  A. Laurent,  A. M. Lee,  M. S. Lee,  S. V. Levchenko,  
 Ching Yeh Lin,  D. Liotard,  E. Livshits,  R. C. Lochan,  I. Lotan,  
 L. A. Martinez-Martinez,  P. E. Maslen,  N. Nair,  D. P. O'Neill,  
 D. Neuhauser,  E. Neuscamman,  C. M. Oana,  R. Olivares-Amaya,  R. Olson,  
 T. M. Perrine,  B. Peters,  P. A. Pieniazek,  A. Prociuk,  Y. M. Rhee,  
 J. Ritchie,  M. A. Rohrdanz,  E. Rosta,  N. J. Russ,  H. F. Schaefer III,  
 M. W. Schmidt,  N. E. Schultz,  S. Sharma,  N. Shenvi,  C. D. Sherrill,  
 A. C. Simmonett,  A. Sodt,  T. Stein,  D. Stuck,  K. S. Thanthiriwatte,  
 V. Vanovschi,  L. Vogt,  Tao Wang,  A. Warshel,  M. A. Watson,  
 C. F. Williams,  Q. Wu,  X. Xu,  Jun Yang,  W. Zhang,  Yan Zhao

 Please cite Q-Chem as follows:
 Y. Shao et al., Mol. Phys. 113, 184-215 (2015)
 DOI: 10.1080/00268976.2014.952696

 Q-Chem 5.4.0 for Intel X86 EM64T Linux

 Parts of Q-Chem use Armadillo 9.800.1 (Horizon Scraper).
 http://arma.sourceforge.net/

 Q-Chem begins on Wed Dec 27 10:38:02 2023  

 Host: 
0

     Scratch files written to ./qchem3712716//
 May1621 |scratch|qcdevops|jenkins|workspace|build_RNUM    
 Parallel job on  1  processors
 Processing $rem in /cm/shared/apps/spack/cpu/opt/spack/linux-centos8-zen2/gcc-10.2.0/qchem-5.4-akfmr7b3t57bfs6qan3padb2wnb2i7cl/config/preferences:
 Processing $rem in /home/rramji/.qchemrc:
 Symmetry turned off for PCM/SM12/SMD calculation
 Core orbitals will be frozen

 Checking the input file for inconsistencies... 	...done.

 Q-Chem warning in module forms1/BasisType.C, line 2236:

 You are not using the predefined 5D/6D in this basis set.


--------------------------------------------------------------
User input:
--------------------------------------------------------------
$molecule
0 1
C	0.256927	-6.741404	-0.001478
C	1.562675	-6.155638	-0.001603
C	-0.827197	-5.791452	-0.001931
C	1.841253	-4.803786	-0.001374
H	2.440709	-6.821518	-0.001794
C	-0.535488	-4.378638	-0.001227
C	0.794999	-3.838032	-0.000872
C	-1.580529	-3.413062	-0.000658
C	1.084374	-2.426473	-0.000186
C	-1.305258	-2.059348	-0.000046
C	0.000000	-1.478216	0.000000
H	-2.184267	-1.394783	0.000369
C	-2.269719	-6.187987	-0.003770
C	-3.011152	-3.798164	-0.000767
N	-3.254617	-5.170003	-0.002465
C	3.275775	-4.424987	-0.001433
C	2.527951	-2.036627	0.000576
N	3.513104	-3.049156	-0.000400
O	-2.661046	-7.353131	-0.006623
O	-3.934410	-2.986854	0.000172
O	4.188059	-5.248946	-0.002151
O	2.940845	-0.878829	0.002006
C	-4.667206	-5.563799	-0.003509
H	-4.712423	-6.664085	-0.004658
H	-5.169231	-5.147101	-0.897610
H	-5.169992	-5.148785	0.890935
C	4.904229	-2.587487	0.000039
H	5.546833	-3.483329	-0.001022
H	5.095998	-1.964972	0.894545
H	5.095858	-1.962932	-0.893071
C	0.000000	0.000000	0.000000
S	0.509686	0.607733	1.580530
C	1.562368	1.862312	0.904911
C	0.641367	0.764613	-0.985400
C	1.489926	1.776040	-0.493528
H	0.489914	0.584081	-2.059934
H	2.056124	2.450920	-1.152593
H	2.128395	2.537007	1.556025
H	0.149881	-7.361589	0.896779
H	0.150656	-7.361192	-0.900100
H	-0.000531	-1.478831	1.080000
$end

$rem
JOBTYPE		SP
EXCHANGE	HF
CORRELATION	pRIMP2
BASIS		cc-pvtz
METHOD		rimp2
AUX_BASIS	rimp2-cc-pvtz
SOLVENT_METHOD	PCM
PURECART	11111
SYMMETRY	false
MEM_TOTAL	110000
SCF_CONVERGENCE = 6
THRESH=10
GUI = 2
$end



$solvent
dielectric 4.90
$end
--------------------------------------------------------------
 ----------------------------------------------------------------
             Standard Nuclear Orientation (Angstroms)
    I     Atom           X                Y                Z
 ----------------------------------------------------------------
    1      C       0.2569270000    -6.7414040000    -0.0014780000
    2      C       1.5626750000    -6.1556380000    -0.0016030000
    3      C      -0.8271970000    -5.7914520000    -0.0019310000
    4      C       1.8412530000    -4.8037860000    -0.0013740000
    5      H       2.4407090000    -6.8215180000    -0.0017940000
    6      C      -0.5354880000    -4.3786380000    -0.0012270000
    7      C       0.7949990000    -3.8380320000    -0.0008720000
    8      C      -1.5805290000    -3.4130620000    -0.0006580000
    9      C       1.0843740000    -2.4264730000    -0.0001860000
   10      C      -1.3052580000    -2.0593480000    -0.0000460000
   11      C       0.0000000000    -1.4782160000     0.0000000000
   12      H      -2.1842670000    -1.3947830000     0.0003690000
   13      C      -2.2697190000    -6.1879870000    -0.0037700000
   14      C      -3.0111520000    -3.7981640000    -0.0007670000
   15      N      -3.2546170000    -5.1700030000    -0.0024650000
   16      C       3.2757750000    -4.4249870000    -0.0014330000
   17      C       2.5279510000    -2.0366270000     0.0005760000
   18      N       3.5131040000    -3.0491560000    -0.0004000000
   19      O      -2.6610460000    -7.3531310000    -0.0066230000
   20      O      -3.9344100000    -2.9868540000     0.0001720000
   21      O       4.1880590000    -5.2489460000    -0.0021510000
   22      O       2.9408450000    -0.8788290000     0.0020060000
   23      C      -4.6672060000    -5.5637990000    -0.0035090000
   24      H      -4.7124230000    -6.6640850000    -0.0046580000
   25      H      -5.1692310000    -5.1471010000    -0.8976100000
   26      H      -5.1699920000    -5.1487850000     0.8909350000
   27      C       4.9042290000    -2.5874870000     0.0000390000
   28      H       5.5468330000    -3.4833290000    -0.0010220000
   29      H       5.0959980000    -1.9649720000     0.8945450000
   30      H       5.0958580000    -1.9629320000    -0.8930710000
   31      C       0.0000000000     0.0000000000     0.0000000000
   32      S       0.5096860000     0.6077330000     1.5805300000
   33      C       1.5623680000     1.8623120000     0.9049110000
   34      C       0.6413670000     0.7646130000    -0.9854000000
   35      C       1.4899260000     1.7760400000    -0.4935280000
   36      H       0.4899140000     0.5840810000    -2.0599340000
   37      H       2.0561240000     2.4509200000    -1.1525930000
   38      H       2.1283950000     2.5370070000     1.5560250000
   39      H       0.1498810000    -7.3615890000     0.8967790000
   40      H       0.1506560000    -7.3611920000    -0.9001000000
   41      H      -0.0005310000    -1.4788310000     1.0800000000
 ----------------------------------------------------------------
 Nuclear Repulsion Energy =        2578.50817257 hartrees
 There are       98 alpha and       98 beta electrons
 Requested basis set is cc-pVTZ
 There are 356 shells and 1010 basis functions

 Total QAlloc Memory Limit 110000 MB
 Mega-Array Size       188 MB
 MEM_STATIC part       192 MB
 Discretize the solute cavity surface with Lebedev spheres
	Using 110 Lebedev grid points for each H atom
	Using 194 Lebedev grid points for other atoms
	Atomic van der Waals radii will be scaled by 1.20
 Remove points where switching function is < 1.0e-08
 Keep 2543 surface tesserae and discard 4235 interior tesserae
 Molecular Surface Area = 364.506 Angst**2
 Requested basis set is rimp2-cc-pVTZ
 There are 770 shells and 2648 basis functions
 A cutoff of  1.0D-10 yielded  34723 shell pairs
 There are    262869 function pairs (    340420 Cartesian)
 Smallest overlap matrix eigenvalue = 8.95E-06

 Q-Chem warning in module stvman/mkSTV.C, line 323:

 Overlap eigenvalue is smaller than square root of threshold
 Use THRESH >= 12 to get rid of this warning


 Scale SEOQF with 1.000000e-02/1.000000e-02/1.000000e-01

 Standard Electronic Orientation quadrupole field applied
 Nucleus-field energy     =     0.0000000204 hartrees
 Guess from superposition of atomic densities
 Warning:  Energy on first SCF cycle will be non-variational
 SAD guess density has 196.000000 electrons

 -----------------------------------------------------------------------
  General SCF calculation program by
  Eric Jon Sundstrom, Paul Horn, Yuezhi Mao, Dmitri Zuev, Alec White,
  David Stuck, Shaama M.S., Shane Yost, Joonho Lee, David Small,
  Daniel Levine, Susi Lehtola, Hugh Burton, Evgeny Epifanovsky,
  Bang C. Huynh
 -----------------------------------------------------------------------
 Hartree-Fock
 using 64 threads for integral computing
 -------------------------------------------------------
 OpenMP Integral computing Module                
 Release: version 1.0, May 2013, Q-Chem Inc. Pittsburgh 
 -------------------------------------------------------
 A restricted SCF calculation will be
 performed using DIIS
 SCF converges when DIIS error is below 1.0e-06
 ---------------------------------------
  Cycle       Energy         DIIS error
 ---------------------------------------
    1   -1583.1625668518      1.87e-02  
    2   -1571.1353420905      2.03e-03  
    3   -1571.4733630975      1.55e-03  
    4   -1571.6946158904      2.54e-04  
    5   -1571.7086960793      7.92e-05  
    6   -1571.7101785320      3.10e-05  
    7   -1571.7106346045      1.58e-05  
    8   -1571.7107607044      6.65e-06  
    9   -1571.7107828798      2.99e-06  
   10   -1571.7107874159      1.30e-06  
   11   -1571.7107886973      5.85e-07  Convergence criterion met
 ---------------------------------------
 SCF time:   CPU 7033.19s  wall 277.00s 

************** Final PCM Free Energy Summary **************
 G_electrostatic  =      -0.02874562 hartree =     -18.03815174 kcal/mol
 G_cavitation     =       0.00000000 hartree =       0.00000000 kcal/mol
 G_dispersion     =       0.00000000 hartree =       0.00000000 kcal/mol
 G_repulsion      =       0.00000000 hartree =       0.00000000 kcal/mol
 --------------------------------------------------
 Non-electrostatic Free Energy =       0.00000000 hartree =       0.00000000 kcal/mol
 Total                         =      -0.02874562 hartree =     -18.03815174 kcal/mol
 --------------------------------------------------
 SCF Energy (H0 + V/2)                       =   -1571.71078870 
 Solute Internal Energy (H0)                 =   -1571.68204307 
 Total Free Energy (H0 + V/2 + non-elec)     =   -1571.71078870 hartree
                                             = -986263.40558045 kcal/mol
***********************************************************

 SCF   energy in the final basis set =    -1571.7107886973
 Total energy in the final basis set =    -1571.7107886973


 --------------------------------------------------------------
  Generalized many-body perturbation theory program
  by Joonho Lee, Fazle Rob, Xintian Feng, Evgeny Epifanovsky

 No regularization used 
 (reg. param. = 0.0000e+00)
  (P|Q)^-1/2 Time:  CPU 141.03 s  wall 2.32 s

 In RI-MP2 calculation: 
 # of frozen core orbitals: 31

 Components of the RIMP2 correlation energy:
        aaaa    correlation energy =        -0.6167364314 a.u.
        abab    correlation energy =        -3.4303345581 a.u.
        bbbb    correlation energy =        -0.6167364314 a.u.
        non-Brillouin singles      =        -0.0000000000 a.u.
        total same-spin energy     =        -1.2334728628 a.u.
        total opposite-spin energy =        -3.4303345581 a.u.

 Total  RIMP2   correlation energy =        -4.6638074209 a.u.
        RIMP2         total energy =     -1576.3745961182 a.u.

 RI-MP2 Energy Time:  CPU 2049.07 s  wall 33.67 s
 
 --------------------------------------------------------------
 
                    Orbital Energies (a.u.)
 --------------------------------------------------------------
 
 Alpha MOs
 -- Occupied --
-91.9876 -20.5481 -20.5434 -20.5393 -20.5380 -15.6253 -15.6192 -11.3901
-11.3839 -11.3812 -11.3763 -11.3059 -11.3031 -11.3025 -11.3020 -11.2947
-11.2916 -11.2822 -11.2744 -11.2666 -11.2653 -11.2625 -11.2620 -11.2592
-11.2582 -11.2509 -11.2480  -8.9880  -6.6688  -6.6681  -6.6676  -1.4174
 -1.4100  -1.3955  -1.3891  -1.2603  -1.2533  -1.2276  -1.1865  -1.1506
 -1.1110  -1.0835  -1.0438  -0.9943  -0.9863  -0.9860  -0.9534  -0.9496
 -0.8935  -0.8825  -0.8749  -0.8577  -0.7889  -0.7754  -0.7729  -0.7672
 -0.7369  -0.7159  -0.7030  -0.6896  -0.6739  -0.6677  -0.6659  -0.6556
 -0.6452  -0.6396  -0.6354  -0.6298  -0.6292  -0.6249  -0.6219  -0.6026
 -0.5823  -0.5731  -0.5680  -0.5604  -0.5546  -0.5499  -0.5486  -0.5466
 -0.5461  -0.5423  -0.5188  -0.5097  -0.5020  -0.4776  -0.4707  -0.4673
 -0.4526  -0.4448  -0.4401  -0.4323  -0.4125  -0.4057  -0.3525  -0.3488
 -0.3291  -0.2867
 -- Virtual --
  0.0168   0.0464   0.0683   0.0938   0.1323   0.1498   0.1532   0.1622
  0.1653   0.1744   0.1785   0.1837   0.1865   0.1910   0.1964   0.1997
  0.2057   0.2217   0.2253   0.2279   0.2314   0.2337   0.2370   0.2417
  0.2675   0.2702   0.2895   0.3044   0.3112   0.3196   0.3215   0.3256
  0.3294   0.3416   0.3438   0.3511   0.3551   0.3594   0.3641   0.3672
  0.3724   0.3775   0.3837   0.3865   0.3890   0.3934   0.4025   0.4079
  0.4129   0.4207   0.4284   0.4309   0.4363   0.4423   0.4473   0.4485
  0.4544   0.4568   0.4583   0.4675   0.4704   0.4864   0.4915   0.4963
  0.5009   0.5053   0.5082   0.5111   0.5147   0.5188   0.5233   0.5291
  0.5313   0.5388   0.5411   0.5464   0.5522   0.5575   0.5619   0.5674
  0.5720   0.5731   0.5799   0.5831   0.5878   0.5923   0.5977   0.5993
  0.6036   0.6085   0.6098   0.6132   0.6170   0.6189   0.6209   0.6270
  0.6314   0.6345   0.6374   0.6404   0.6453   0.6469   0.6483   0.6579
  0.6661   0.6685   0.6747   0.6829   0.6864   0.6948   0.6991   0.7028
  0.7066   0.7104   0.7192   0.7270   0.7332   0.7400   0.7473   0.7566
  0.7652   0.7678   0.7738   0.7794   0.7813   0.7861   0.7943   0.7987
  0.8032   0.8108   0.8174   0.8250   0.8300   0.8317   0.8417   0.8467
  0.8503   0.8597   0.8651   0.8679   0.8706   0.8761   0.8785   0.8863
  0.8949   0.9030   0.9075   0.9130   0.9188   0.9246   0.9304   0.9317
  0.9363   0.9384   0.9451   0.9506   0.9606   0.9702   0.9768   0.9813
  0.9846   0.9907   0.9931   1.0015   1.0066   1.0103   1.0197   1.0279
  1.0310   1.0337   1.0394   1.0428   1.0500   1.0555   1.0628   1.0643
  1.0709   1.0727   1.0795   1.0845   1.0930   1.0986   1.1036   1.1040
  1.1142   1.1183   1.1221   1.1257   1.1338   1.1369   1.1389   1.1450
  1.1535   1.1605   1.1612   1.1705   1.1777   1.1822   1.1849   1.1946
  1.1997   1.2037   1.2058   1.2097   1.2160   1.2186   1.2217   1.2328
  1.2349   1.2402   1.2444   1.2465   1.2590   1.2635   1.2696   1.2776
  1.2893   1.2992   1.3025   1.3066   1.3156   1.3287   1.3356   1.3409
  1.3516   1.3540   1.3592   1.3646   1.3710   1.3862   1.3873   1.3906
  1.3923   1.3996   1.4041   1.4167   1.4202   1.4256   1.4293   1.4441
  1.4467   1.4573   1.4636   1.4734   1.4786   1.4802   1.4946   1.4975
  1.5045   1.5112   1.5139   1.5151   1.5222   1.5266   1.5322   1.5413
  1.5454   1.5478   1.5531   1.5563   1.5615   1.5697   1.5749   1.5794
  1.5848   1.5921   1.5976   1.6073   1.6197   1.6264   1.6330   1.6443
  1.6543   1.6617   1.6688   1.6779   1.6804   1.6884   1.6944   1.7032
  1.7074   1.7192   1.7283   1.7376   1.7451   1.7507   1.7519   1.7613
  1.7652   1.7704   1.7767   1.7900   1.7935   1.7948   1.8029   1.8131
  1.8198   1.8285   1.8330   1.8433   1.8540   1.8674   1.8685   1.8714
  1.8754   1.8771   1.8919   1.8944   1.9217   1.9268   1.9449   1.9541
  1.9552   1.9607   1.9688   1.9722   1.9887   1.9936   2.0046   2.0116
  2.0335   2.0431   2.0517   2.0663   2.0908   2.1000   2.1074   2.1245
  2.1313   2.1495   2.1576   2.1621   2.1801   2.1954   2.2104   2.2204
  2.2232   2.2380   2.2545   2.2653   2.2810   2.2900   2.2956   2.3089
  2.3195   2.3222   2.3358   2.3392   2.3694   2.3712   2.3784   2.3893
  2.4207   2.4229   2.4348   2.4379   2.4466   2.4600   2.4638   2.4701
  2.4801   2.4904   2.5017   2.5040   2.5215   2.5356   2.5485   2.5536
  2.5633   2.5728   2.5866   2.5885   2.5968   2.6038   2.6052   2.6273
  2.6293   2.6410   2.6424   2.6472   2.6678   2.6732   2.6770   2.6821
  2.6899   2.6929   2.6976   2.7097   2.7161   2.7241   2.7301   2.7358
  2.7448   2.7582   2.7645   2.7685   2.7765   2.7788   2.7863   2.8076
  2.8235   2.8289   2.8340   2.8474   2.8522   2.8580   2.8664   2.8721
  2.8812   2.8862   2.8922   2.8979   2.9049   2.9123   2.9172   2.9222
  2.9236   2.9301   2.9401   2.9476   2.9583   2.9644   2.9647   2.9774
  2.9791   2.9843   2.9897   3.0049   3.0128   3.0157   3.0203   3.0284
  3.0354   3.0408   3.0479   3.0544   3.0565   3.0685   3.0818   3.0912
  3.1018   3.1029   3.1087   3.1090   3.1122   3.1164   3.1235   3.1299
  3.1380   3.1417   3.1493   3.1566   3.1602   3.1651   3.1717   3.1808
  3.1942   3.1973   3.2021   3.2047   3.2125   3.2144   3.2256   3.2294
  3.2348   3.2365   3.2448   3.2514   3.2523   3.2540   3.2611   3.2671
  3.2744   3.2828   3.2833   3.2950   3.2955   3.2975   3.3066   3.3132
  3.3156   3.3174   3.3222   3.3267   3.3314   3.3364   3.3378   3.3449
  3.3468   3.3496   3.3576   3.3589   3.3599   3.3632   3.3720   3.3736
  3.3875   3.3901   3.3959   3.3968   3.4051   3.4077   3.4101   3.4159
  3.4204   3.4235   3.4263   3.4289   3.4408   3.4471   3.4482   3.4541
  3.4631   3.4663   3.4692   3.4705   3.4794   3.4796   3.4835   3.4957
  3.4986   3.5059   3.5084   3.5090   3.5123   3.5254   3.5309   3.5341
  3.5431   3.5486   3.5534   3.5600   3.5657   3.5770   3.5836   3.5856
  3.5938   3.5962   3.5971   3.6039   3.6119   3.6205   3.6290   3.6295
  3.6351   3.6368   3.6420   3.6430   3.6548   3.6587   3.6613   3.6673
  3.6751   3.6806   3.6878   3.6931   3.6949   3.6994   3.7050   3.7169
  3.7272   3.7320   3.7395   3.7424   3.7509   3.7518   3.7576   3.7585
  3.7666   3.7725   3.7758   3.7771   3.7839   3.7950   3.7970   3.8074
  3.8098   3.8160   3.8210   3.8272   3.8357   3.8371   3.8450   3.8521
  3.8557   3.8605   3.8734   3.8750   3.8796   3.8930   3.9068   3.9117
  3.9162   3.9216   3.9293   3.9371   3.9431   3.9456   3.9511   3.9600
  3.9651   3.9686   3.9713   3.9811   3.9853   3.9932   4.0064   4.0157
  4.0204   4.0232   4.0293   4.0402   4.0449   4.0567   4.0667   4.0791
  4.1020   4.1079   4.1096   4.1177   4.1254   4.1324   4.1383   4.1469
  4.1491   4.1611   4.1687   4.1778   4.1798   4.1930   4.2081   4.2117
  4.2171   4.2296   4.2344   4.2425   4.2457   4.2538   4.2606   4.2693
  4.2728   4.2771   4.2826   4.2841   4.2887   4.2981   4.3029   4.3126
  4.3141   4.3181   4.3219   4.3297   4.3351   4.3406   4.3484   4.3523
  4.3648   4.3660   4.3706   4.3730   4.3758   4.3819   4.3932   4.3951
  4.4070   4.4086   4.4169   4.4184   4.4317   4.4371   4.4465   4.4531
  4.4760   4.4828   4.4892   4.4975   4.5047   4.5103   4.5243   4.5297
  4.5398   4.5405   4.5504   4.5550   4.5690   4.5767   4.5823   4.5890
  4.5906   4.5980   4.6077   4.6143   4.6196   4.6250   4.6352   4.6356
  4.6531   4.6590   4.6715   4.6761   4.6845   4.6971   4.7065   4.7198
  4.7220   4.7360   4.7378   4.7450   4.7805   4.7843   4.7921   4.7985
  4.8132   4.8282   4.8354   4.8434   4.8566   4.8629   4.8752   4.8786
  4.8887   4.9022   4.9146   4.9233   4.9328   4.9469   4.9586   4.9691
  4.9862   5.0093   5.0188   5.0284   5.0360   5.0451   5.0541   5.0688
  5.0903   5.0940   5.1025   5.1231   5.1250   5.1319   5.1388   5.1414
  5.1491   5.1570   5.1689   5.1741   5.1908   5.2000   5.2232   5.2329
  5.2645   5.2683   5.2782   5.2831   5.2906   5.3117   5.3187   5.3294
  5.3323   5.3505   5.3603   5.3678   5.3795   5.3873   5.4048   5.4179
  5.4329   5.4494   5.4802   5.4886   5.4934   5.5086   5.5135   5.5156
  5.5188   5.5293   5.5441   5.5534   5.5598   5.5624   5.5661   5.5696
  5.5821   5.5868   5.5883   5.5921   5.6114   5.6239   5.6279   5.6341
  5.6503   5.6577   5.6626   5.6681   5.6711   5.6754   5.6959   5.6973
  5.7047   5.7127   5.7226   5.7426   5.7548   5.7615   5.7683   5.7722
  5.7866   5.7974   5.8051   5.8321   5.8444   5.8831   5.8842   5.9204
  5.9277   5.9493   5.9621   5.9750   5.9908   6.0049   6.0366   6.0441
  6.0456   6.0512   6.0910   6.1135   6.1248   6.1282   6.1509   6.1891
  6.1991   6.2210   6.2251   6.2269   6.2457   6.2634   6.2705   6.2850
  6.3117   6.3200   6.3249   6.3492   6.3680   6.3862   6.4034   6.4884
  6.5208   6.5355   6.5785   6.5851   6.6009   6.6100   6.6244   6.6616
  6.6687   6.6771   6.8514   6.8551   6.8921   6.9044   6.9076   6.9278
  6.9295   6.9594   7.1037   7.1142   7.1494   7.1979   7.2021   7.2380
  7.3493   7.3538   7.3605   7.3672   7.4781   7.5472   7.5731   7.5850
  7.5943   7.6238   7.6563   7.6876   7.6987   7.7235   8.8345  10.0704
 10.3235  11.3343  11.5430  11.7701  11.9965  12.2758  12.4318  12.4744
 12.9248  13.2120  13.3466  13.5552  13.7990  13.9416  14.0618  14.2800
 14.3190  14.3767  14.5001  14.5378  15.0206  15.6060  15.8173  16.2815
 --------------------------------------------------------------
 
          Ground-State Mulliken Net Atomic Charges

     Atom                 Charge (a.u.)
  ----------------------------------------
      1 C                    -0.084111
      2 C                    -0.032911
      3 C                    -0.118388
      4 C                    -0.118809
      5 H                     0.197705
      6 C                     0.011924
      7 C                     0.113200
      8 C                    -0.073358
      9 C                    -0.154314
     10 C                    -0.166625
     11 C                     0.209298
     12 H                     0.191104
     13 C                     0.341869
     14 C                     0.347563
     15 N                    -0.089319
     16 C                     0.355511
     17 C                     0.358431
     18 N                    -0.087111
     19 O                    -0.497643
     20 O                    -0.509563
     21 O                    -0.502937
     22 O                    -0.466656
     23 C                    -0.205326
     24 H                     0.139046
     25 H                     0.108544
     26 H                     0.108619
     27 C                    -0.198082
     28 H                     0.133452
     29 H                     0.110557
     30 H                     0.110240
     31 C                    -0.071835
     32 S                     0.000231
     33 C                    -0.171220
     34 C                    -0.161308
     35 C                    -0.175669
     36 H                     0.188004
     37 H                     0.187179
     38 H                     0.212620
     39 H                     0.136169
     40 H                     0.136307
     41 H                     0.187613
  ----------------------------------------
  Sum of atomic charges =     0.000000

 -----------------------------------------------------------------
                    Cartesian Multipole Moments
 -----------------------------------------------------------------
    Charge (ESU x 10^10)
                 0.0000
    Dipole Moment (Debye)
         X       3.1560      Y       3.0842      Z      -0.3527
       Tot       4.4269
    Quadrupole Moments (Debye-Ang)
        XX    -191.5147     XY      -3.2059     YY    -186.4679
        XZ       0.7719     YZ      -0.5382     ZZ    -156.0070
    Octopole Moments (Debye-Ang^2)
       XXX    -130.2122    XXY     628.8073    XYY      34.8453
       YYY    1730.6322    XXZ     -14.0704    XYZ       4.4868
       YYZ      -9.9889    XZZ     -37.7904    YZZ     480.5569
       ZZZ     -55.9401
    Hexadecapole Moments (Debye-Ang^3)
      XXXX   -6607.5266   XXXY    -153.9335   XXYY   -4489.8848
      XYYY   -1292.0908   YYYY  -18134.7969   XXXZ     -25.2052
      XXYZ      -4.0265   XYYZ      -0.4883   YYYZ     -34.7761
      XXZZ   -1094.3473   XYZZ    -150.1134   YYZZ   -2633.8710
      XZZZ     -27.3913   YZZZ     -35.4622   ZZZZ    -466.8707
 -----------------------------------------------------------------
 Total job time:  316.92s(wall), 9247.02s(cpu) 
 Wed Dec 27 10:43:19 2023

        *************************************************************
        *                                                           *
        *  Thank you very much for using Q-Chem.  Have a nice day.  *
        *                                                           *
        *************************************************************


0 sent ACK to 0 
now end server 0 ... 
cleanup process ... done
remove work dirs ./qchem3712716.0 -- ./qchem3712716.0
rm -rf ./qchem3712716.0
rm -rf ./qchem3712716
