You are running Q-Chem version: 5.4.0

#
# job setting
#
local host:  exp-2-47
current dir: /home/rramji/project-csd799/aromodel/pndit-qchem/hydrogenated-rotation-run
input file:  Dimethyl_Naphthalene_Dicarboximide_Phi_40_Theta_320_Thiophene_Hydrogenated.qcin
output file: 
nprocs     : 1
nthreads   : 64
#
# qchem installation setting
#
QC:          /cm/shared/apps/spack/cpu/opt/spack/linux-centos8-zen2/gcc-10.2.0/qchem-5.4-akfmr7b3t57bfs6qan3padb2wnb2i7cl
QCAUX:       /cm/shared/apps/spack/cpu/opt/spack/linux-centos8-zen2/gcc-10.2.0/qchem-5.4-akfmr7b3t57bfs6qan3padb2wnb2i7cl/qcaux
QCPROG:      /cm/shared/apps/spack/cpu/opt/spack/linux-centos8-zen2/gcc-10.2.0/qchem-5.4-akfmr7b3t57bfs6qan3padb2wnb2i7cl/exe/qcprog.exe
QCPROG_S:    /cm/shared/apps/spack/cpu/opt/spack/linux-centos8-zen2/gcc-10.2.0/qchem-5.4-akfmr7b3t57bfs6qan3padb2wnb2i7cl/exe/qcprog.exe_s
PARALLEL:    -DPARALLEL
QCMPI:       mpich
#
# qchem directory setting
#
qcrun:       qchem3794948
QCSCRATCH:   .
QCLOCALSCR:  
QCTMPDIR:    .
QCFILEPREF:  ./qchem3794948
QCSAVEDIR:   
workdirs:    ./qchem3794948
workdir0:    ./qchem3794948
partmpdirs =  
#
# parallel setting
#
QCRSH:           ssh
QCMPI:           mpich
QCMPIRUN:        /cm/shared/apps/spack/cpu/opt/spack/linux-centos8-zen2/gcc-10.2.0/qchem-5.4-akfmr7b3t57bfs6qan3padb2wnb2i7cl/bin/mpi/mpirun_qchem
QCMACHINEFILE:   ./qchem3794948/hostfile
exp-2-47

#
# env setting
#
exported envs:   QC QCAUX QCSCRATCH QCRUNNAME QCFILEPREF QCPROG QCPROG_S GUIFILE

Running Job 1 of 1 Dimethyl_Naphthalene_Dicarboximide_Phi_40_Theta_320_Thiophene_Hydrogenated.qcin
qchem Dimethyl_Naphthalene_Dicarboximide_Phi_40_Theta_320_Thiophene_Hydrogenated.qcin_3794948.0 ./qchem3794948/ 1
/cm/shared/apps/spack/cpu/opt/spack/linux-centos8-zen2/gcc-10.2.0/qchem-5.4-akfmr7b3t57bfs6qan3padb2wnb2i7cl/bin/mpi/mpirun_qchem -machinefile ./qchem3794948/hostfile -np 1 /cm/shared/apps/spack/cpu/opt/spack/linux-centos8-zen2/gcc-10.2.0/qchem-5.4-akfmr7b3t57bfs6qan3padb2wnb2i7cl/exe/qcprog.exe Dimethyl_Naphthalene_Dicarboximide_Phi_40_Theta_320_Thiophene_Hydrogenated.qcin_3794948.0 ./qchem3794948/

Process 0 of 1 is on exp-2-47 - thread support 0
initial socket setup ...start
initial socket setup ...done 
now start server 0 ... 
                  Welcome to Q-Chem
     A Quantum Leap Into The Future Of Chemistry


 Q-Chem 5.4, Q-Chem, Inc., Pleasanton, CA (2021)

 License issued to: University of California, San Diego (site)

 E. Epifanovsky,  A. T. B. Gilbert,  Xintian Feng,  Joonho Lee,  Yuezhi Mao,  
 N. Mardirossian,  P. Pokhilko,  A. White,  M. Wormit,  M. P. Coons,  
 A. L. Dempwolff,  Zhengting Gan,  D. Hait,  P. R. Horn,  L. D. Jacobson,  
 I. Kaliman,  J. Kussmann,  A. W. Lange,  Ka Un Lao,  D. S. Levine,  Jie Liu,  
 S. C. McKenzie,  A. F. Morrison,  K. Nanda,  F. Plasser,  D. R. Rehn,  
 M. L. Vidal,  Zhi-Qiang You,  Ying Zhu,  B. Alam,  B. Albrecht,  
 A. Aldossary,  E. Alguire,  J. H. Andersen,  D. Barton,  K. Begam,  A. Behn,  
 Y. A. Bernard,  E. J. Berquist,  H. Burton,  A. Carreras,  K. Carter-Fenk,  
 R. Chakraborty,  A. D. Chien,  K. D. Closser,  V. Cofer-Shabica,  
 S. Dasgupta,  Jia Deng,  M. de Wergifosse,  M. Diedenhofen,  Hainam Do,  
 S. Ehlert,  Po-Tung Fang,  S. Fatehi,  Qingguo Feng,  J. Gayvert,  
 Qinghui Ge,  G. Gidofalvi,  M. Goldey,  J. Gomes,  C. Gonzalez-Espinoza,  
 S. Gulania,  A. Gunina,  M. W. D. Hanson-Heine,  P. H. P. Harbach,  
 A. W. Hauser,  M. F. Herbst,  M. Hernandez Vera,  M. Hodecker,  
 Z. C. Holden,  S. Houck,  Xunkun Huang,  Kerwin Hui,  B. C. Huynh,  
 M. Ivanov,  Hyunjun Ji,  Hanjie Jiang,  B. Kaduk,  S. Kaehler,  
 K. Khistyaev,  Jaehoon Kim,  P. Klunzinger,  Z. Koczor-Benda,  
 Joong Hoon Koh,  D. Kosenkov,  L. Koulias,  T. Kowalczyk,  C. M. Krauter,  
 K. Kue,  A. Kunitsa,  T. Kus,  A. Landau,  K. V. Lawler,  D. Lefrancois,  
 S. Lehtola,  Rain Li,  Yi-Pei Li,  Jiashu Liang,  M. Liebenthal,  
 Hung-Hsuan Lin,  You-Sheng Lin,  Fenglai Liu,  Kuan-Yu Liu,  
 M. Loipersberger,  A. Luenser,  A. Manjanath,  P. Manohar,  E. Mansoor,  
 S. F. Manzer,  Shan-Ping Mao,  A. V. Marenich,  T. Markovich,  S. Mason,  
 S. A. Maurer,  P. F. McLaughlin,  M. F. S. J. Menger,  J.-M. Mewes,  
 S. A. Mewes,  P. Morgante,  J. W. Mullinax,  T. S. Nguyen-Beck,  
 K. J. Oosterbaan,  G. Paran,  Alexander C. Paul,  Suranjan K. Paul,  
 F. Pavosevic,  Zheng Pei,  S. Prager,  E. I. Proynov,  E. Ramos,  B. Rana,  
 A. E. Rask,  A. Rettig,  R. M. Richard,  F. Rob,  E. Rossomme,  T. Scheele,  
 M. Scheurer,  M. Schneider,  N. Sergueev,  S. M. Sharada,  W. Skomorowski,  
 D. W. Small,  C. J. Stein,  Yu-Chuan Su,  E. J. Sundstrom,  Zhen Tao,  
 J. Thirman,  T. Tsuchimochi,  N. M. Tubman,  S. P. Veccham,  O. Vydrov,  
 J. Wenzel,  J. Witte,  A. Yamada,  Kun Yao,  S. Yeganeh,  S. R. Yost,  
 A. Zech,  Igor Ying Zhang,  Xing Zhang,  Yu Zhang,  D. Zuev,  
 A. Aspuru-Guzik,  A. T. Bell,  N. A. Besley,  K. B. Bravaya,  B. R. Brooks,  
 D. Casanova,  Jeng-Da Chai,  S. Coriani,  C. J. Cramer,  
 A. E. DePrince, III,  R. A. DiStasio Jr.,  A. Dreuw,  B. D. Dunietz,  
 T. R. Furlani,  W. A. Goddard III,  S. Grimme,  S. Hammes-Schiffer,  
 T. Head-Gordon,  W. J. Hehre,  Chao-Ping Hsu,  T.-C. Jagau,  Yousung Jung,  
 A. Klamt,  Jing Kong,  D. S. Lambrecht,  WanZhen Liang,  N. J. Mayhall,  
 C. W. McCurdy,  J. B. Neaton,  C. Ochsenfeld,  J. A. Parkhill,  R. Peverati,  
 V. A. Rassolov,  Yihan Shao,  L. V. Slipchenko,  T. Stauch,  R. P. Steele,  
 J. E. Subotnik,  A. J. W. Thom,  A. Tkatchenko,  D. G. Truhlar,  
 T. Van Voorhis,  T. A. Wesolowski,  K. B. Whaley,  H. L. Woodcock III,  
 P. M. Zimmerman,  S. Faraji,  P. M. W. Gill,  M. Head-Gordon,  
 J. M. Herbert,  A. I. Krylov

 Contributors to earlier versions of Q-Chem not listed above: 
 R. D. Adamson,  B. Austin,  R. Baer,  J. Baker,  G. J. O. Beran,  
 K. Brandhorst,  S. T. Brown,  E. F. C. Byrd,  A. K. Chakraborty,  
 G. K. L. Chan,  Chun-Min Chang,  Yunqing Chen,  C.-L. Cheng,  
 Siu Hung Chien,  D. M. Chipman,  D. L. Crittenden,  H. Dachsel,  
 R. J. Doerksen,  A. D. Dutoi,  R. G. Edgar,  J. Fosso-Tande,  
 L. Fusti-Molnar,  D. Ghosh,  A. Ghysels,  A. Golubeva-Zadorozhnaya,  
 J. Gonthier,  M. S. Gordon,  S. R. Gwaltney,  G. Hawkins,  J. E. Herr,  
 A. Heyden,  S. Hirata,  E. G. Hohenstein,  G. Kedziora,  F. J. Keil,  
 C. Kelley,  Jihan Kim,  R. A. King,  R. Z. Khaliullin,  P. P. Korambath,  
 W. Kurlancheek,  A. Laurent,  A. M. Lee,  M. S. Lee,  S. V. Levchenko,  
 Ching Yeh Lin,  D. Liotard,  E. Livshits,  R. C. Lochan,  I. Lotan,  
 L. A. Martinez-Martinez,  P. E. Maslen,  N. Nair,  D. P. O'Neill,  
 D. Neuhauser,  E. Neuscamman,  C. M. Oana,  R. Olivares-Amaya,  R. Olson,  
 T. M. Perrine,  B. Peters,  P. A. Pieniazek,  A. Prociuk,  Y. M. Rhee,  
 J. Ritchie,  M. A. Rohrdanz,  E. Rosta,  N. J. Russ,  H. F. Schaefer III,  
 M. W. Schmidt,  N. E. Schultz,  S. Sharma,  N. Shenvi,  C. D. Sherrill,  
 A. C. Simmonett,  A. Sodt,  T. Stein,  D. Stuck,  K. S. Thanthiriwatte,  
 V. Vanovschi,  L. Vogt,  Tao Wang,  A. Warshel,  M. A. Watson,  
 C. F. Williams,  Q. Wu,  X. Xu,  Jun Yang,  W. Zhang,  Yan Zhao

 Please cite Q-Chem as follows:
 Y. Shao et al., Mol. Phys. 113, 184-215 (2015)
 DOI: 10.1080/00268976.2014.952696

 Q-Chem 5.4.0 for Intel X86 EM64T Linux

 Parts of Q-Chem use Armadillo 9.800.1 (Horizon Scraper).
 http://arma.sourceforge.net/

 Q-Chem begins on Wed Dec 27 12:37:05 2023  

 Host: 
0

     Scratch files written to ./qchem3794948//
 May1621 |scratch|qcdevops|jenkins|workspace|build_RNUM    
 Parallel job on  1  processors
 Processing $rem in /cm/shared/apps/spack/cpu/opt/spack/linux-centos8-zen2/gcc-10.2.0/qchem-5.4-akfmr7b3t57bfs6qan3padb2wnb2i7cl/config/preferences:
 Processing $rem in /home/rramji/.qchemrc:
 Symmetry turned off for PCM/SM12/SMD calculation
 Core orbitals will be frozen

 Checking the input file for inconsistencies... 	...done.

 Q-Chem warning in module forms1/BasisType.C, line 2236:

 You are not using the predefined 5D/6D in this basis set.


--------------------------------------------------------------
User input:
--------------------------------------------------------------
$molecule
0 1
C	-0.166281	-6.741404	-0.195868
C	-1.005696	-6.155638	-1.196048
C	0.530233	-5.791452	0.634911
C	-1.184587	-4.803786	-1.409599
H	-1.570232	-6.821518	-1.868538
C	0.343266	-4.378638	0.410996
C	-0.511683	-3.838032	-0.608444
C	1.015440	-3.413062	1.211179
C	-0.697165	-2.426473	-0.830559
C	0.838968	-2.059348	0.999915
C	0.000000	-1.478216	0.000000
H	1.404302	-1.394783	1.673009
C	1.456059	-6.187987	1.741129
C	1.934944	-3.798164	2.307170
N	2.090139	-5.170003	2.494766
C	-2.106725	-4.424987	-2.508468
C	-1.624494	-2.036627	-1.936893
N	-2.258486	-3.049156	-2.690936
O	1.705414	-7.353131	2.042736
O	2.529122	-2.986854	3.013823
O	-2.693680	-5.248946	-3.206857
O	-1.888802	-0.878829	-2.254108
C	2.997334	-5.563799	3.577543
H	3.025519	-6.664085	3.612920
H	2.635109	-5.147101	4.536833
H	4.005702	-5.148785	3.387762
C	-3.152347	-2.587487	-3.756883
H	-3.566218	-3.483329	-4.248464
H	-2.590383	-1.964972	-4.478763
H	-3.959687	-1.962932	-3.329599
C	0.000000	0.000000	0.000000
S	0.509686	0.607733	1.580530
C	1.562368	1.862312	0.904911
C	0.641367	0.764613	-0.985400
C	1.489926	1.776040	-0.493528
H	0.489914	0.584081	-2.059934
H	2.056124	2.450920	-1.152593
H	2.128395	2.537007	1.556025
H	0.590631	-7.361589	-0.691254
H	-0.786357	-7.361192	0.463164
H	0.827669	-1.478831	-0.693804
$end

$rem
JOBTYPE		SP
EXCHANGE	HF
CORRELATION	pRIMP2
BASIS		cc-pvtz
METHOD		rimp2
AUX_BASIS	rimp2-cc-pvtz
SOLVENT_METHOD	PCM
PURECART	11111
SYMMETRY	false
MEM_TOTAL	110000
SCF_CONVERGENCE = 6
THRESH=10
GUI = 2
$end



$solvent
dielectric 4.90
$end
--------------------------------------------------------------
 ----------------------------------------------------------------
             Standard Nuclear Orientation (Angstroms)
    I     Atom           X                Y                Z
 ----------------------------------------------------------------
    1      C      -0.1662810000    -6.7414040000    -0.1958680000
    2      C      -1.0056960000    -6.1556380000    -1.1960480000
    3      C       0.5302330000    -5.7914520000     0.6349110000
    4      C      -1.1845870000    -4.8037860000    -1.4095990000
    5      H      -1.5702320000    -6.8215180000    -1.8685380000
    6      C       0.3432660000    -4.3786380000     0.4109960000
    7      C      -0.5116830000    -3.8380320000    -0.6084440000
    8      C       1.0154400000    -3.4130620000     1.2111790000
    9      C      -0.6971650000    -2.4264730000    -0.8305590000
   10      C       0.8389680000    -2.0593480000     0.9999150000
   11      C       0.0000000000    -1.4782160000     0.0000000000
   12      H       1.4043020000    -1.3947830000     1.6730090000
   13      C       1.4560590000    -6.1879870000     1.7411290000
   14      C       1.9349440000    -3.7981640000     2.3071700000
   15      N       2.0901390000    -5.1700030000     2.4947660000
   16      C      -2.1067250000    -4.4249870000    -2.5084680000
   17      C      -1.6244940000    -2.0366270000    -1.9368930000
   18      N      -2.2584860000    -3.0491560000    -2.6909360000
   19      O       1.7054140000    -7.3531310000     2.0427360000
   20      O       2.5291220000    -2.9868540000     3.0138230000
   21      O      -2.6936800000    -5.2489460000    -3.2068570000
   22      O      -1.8888020000    -0.8788290000    -2.2541080000
   23      C       2.9973340000    -5.5637990000     3.5775430000
   24      H       3.0255190000    -6.6640850000     3.6129200000
   25      H       2.6351090000    -5.1471010000     4.5368330000
   26      H       4.0057020000    -5.1487850000     3.3877620000
   27      C      -3.1523470000    -2.5874870000    -3.7568830000
   28      H      -3.5662180000    -3.4833290000    -4.2484640000
   29      H      -2.5903830000    -1.9649720000    -4.4787630000
   30      H      -3.9596870000    -1.9629320000    -3.3295990000
   31      C       0.0000000000     0.0000000000     0.0000000000
   32      S       0.5096860000     0.6077330000     1.5805300000
   33      C       1.5623680000     1.8623120000     0.9049110000
   34      C       0.6413670000     0.7646130000    -0.9854000000
   35      C       1.4899260000     1.7760400000    -0.4935280000
   36      H       0.4899140000     0.5840810000    -2.0599340000
   37      H       2.0561240000     2.4509200000    -1.1525930000
   38      H       2.1283950000     2.5370070000     1.5560250000
   39      H       0.5906310000    -7.3615890000    -0.6912540000
   40      H      -0.7863570000    -7.3611920000     0.4631640000
   41      H       0.8276690000    -1.4788310000    -0.6938040000
 ----------------------------------------------------------------
 Nuclear Repulsion Energy =        2564.73893612 hartrees
 There are       98 alpha and       98 beta electrons
 Requested basis set is cc-pVTZ
 There are 356 shells and 1010 basis functions

 Total QAlloc Memory Limit 110000 MB
 Mega-Array Size       188 MB
 MEM_STATIC part       192 MB
 Discretize the solute cavity surface with Lebedev spheres
	Using 110 Lebedev grid points for each H atom
	Using 194 Lebedev grid points for other atoms
	Atomic van der Waals radii will be scaled by 1.20
 Remove points where switching function is < 1.0e-08
 Keep 2563 surface tesserae and discard 4215 interior tesserae
 Molecular Surface Area = 366.353 Angst**2
 Requested basis set is rimp2-cc-pVTZ
 There are 770 shells and 2648 basis functions
 A cutoff of  1.0D-10 yielded  34393 shell pairs
 There are    260139 function pairs (    336806 Cartesian)
 Smallest overlap matrix eigenvalue = 8.73E-06

 Q-Chem warning in module stvman/mkSTV.C, line 323:

 Overlap eigenvalue is smaller than square root of threshold
 Use THRESH >= 12 to get rid of this warning


 Scale SEOQF with 1.000000e-01/1.000000e-02/1.000000e-01

 Standard Electronic Orientation quadrupole field applied
 Nucleus-field energy     =    -0.0000000429 hartrees
 Guess from superposition of atomic densities
 Warning:  Energy on first SCF cycle will be non-variational
 SAD guess density has 196.000000 electrons

 -----------------------------------------------------------------------
  General SCF calculation program by
  Eric Jon Sundstrom, Paul Horn, Yuezhi Mao, Dmitri Zuev, Alec White,
  David Stuck, Shaama M.S., Shane Yost, Joonho Lee, David Small,
  Daniel Levine, Susi Lehtola, Hugh Burton, Evgeny Epifanovsky,
  Bang C. Huynh
 -----------------------------------------------------------------------
 Hartree-Fock
 using 64 threads for integral computing
 -------------------------------------------------------
 OpenMP Integral computing Module                
 Release: version 1.0, May 2013, Q-Chem Inc. Pittsburgh 
 -------------------------------------------------------
 A restricted SCF calculation will be
 performed using DIIS
 SCF converges when DIIS error is below 1.0e-06
 ---------------------------------------
  Cycle       Energy         DIIS error
 ---------------------------------------
    1   -1583.2168844251      1.87e-02  
    2   -1571.1306103912      2.02e-03  
    3   -1571.4710137857      1.54e-03  
    4   -1571.6893361112      2.53e-04  
    5   -1571.7033718809      7.86e-05  
    6   -1571.7048559667      3.06e-05  
    7   -1571.7053150050      1.56e-05  
    8   -1571.7054390161      6.48e-06  
    9   -1571.7054606904      2.93e-06  
   10   -1571.7054649789      1.27e-06  
   11   -1571.7054662474      5.84e-07  Convergence criterion met
 ---------------------------------------
 SCF time:   CPU 6694.95s  wall 262.00s 

************** Final PCM Free Energy Summary **************
 G_electrostatic  =      -0.03012053 hartree =     -18.90091763 kcal/mol
 G_cavitation     =       0.00000000 hartree =       0.00000000 kcal/mol
 G_dispersion     =       0.00000000 hartree =       0.00000000 kcal/mol
 G_repulsion      =       0.00000000 hartree =       0.00000000 kcal/mol
 --------------------------------------------------
 Non-electrostatic Free Energy =       0.00000000 hartree =       0.00000000 kcal/mol
 Total                         =      -0.03012053 hartree =     -18.90091763 kcal/mol
 --------------------------------------------------
 SCF Energy (H0 + V/2)                       =   -1571.70546625 
 Solute Internal Energy (H0)                 =   -1571.67534572 
 Total Free Energy (H0 + V/2 + non-elec)     =   -1571.70546625 hartree
                                             = -986260.06569269 kcal/mol
***********************************************************

 SCF   energy in the final basis set =    -1571.7054662474
 Total energy in the final basis set =    -1571.7054662474


 --------------------------------------------------------------
  Generalized many-body perturbation theory program
  by Joonho Lee, Fazle Rob, Xintian Feng, Evgeny Epifanovsky

 No regularization used 
 (reg. param. = 0.0000e+00)
  (P|Q)^-1/2 Time:  CPU 145.84 s  wall 2.65 s

 In RI-MP2 calculation: 
 # of frozen core orbitals: 31

 Components of the RIMP2 correlation energy:
        aaaa    correlation energy =        -0.6174863800 a.u.
        abab    correlation energy =        -3.4313975479 a.u.
        bbbb    correlation energy =        -0.6174863800 a.u.
        non-Brillouin singles      =        -0.0000000000 a.u.
        total same-spin energy     =        -1.2349727600 a.u.
        total opposite-spin energy =        -3.4313975479 a.u.

 Total  RIMP2   correlation energy =        -4.6663703080 a.u.
        RIMP2         total energy =     -1576.3718365553 a.u.

 RI-MP2 Energy Time:  CPU 1968.53 s  wall 32.27 s
 
 --------------------------------------------------------------
 
                    Orbital Energies (a.u.)
 --------------------------------------------------------------
 
 Alpha MOs
 -- Occupied --
-91.9910 -20.5535 -20.5443 -20.5396 -20.5392 -15.6272 -15.6200 -11.3940
-11.3849 -11.3815 -11.3776 -11.3062 -11.3032 -11.3027 -11.3024 -11.2953
-11.2918 -11.2890 -11.2881 -11.2670 -11.2654 -11.2631 -11.2619 -11.2587
-11.2578 -11.2527 -11.2512  -8.9917  -6.6724  -6.6718  -6.6714  -1.4201
 -1.4107  -1.3975  -1.3898  -1.2622  -1.2541  -1.2317  -1.1912  -1.1516
 -1.1125  -1.0849  -1.0459  -0.9974  -0.9917  -0.9869  -0.9546  -0.9483
 -0.8960  -0.8871  -0.8754  -0.8579  -0.7962  -0.7798  -0.7699  -0.7617
 -0.7393  -0.7174  -0.7016  -0.6923  -0.6836  -0.6709  -0.6662  -0.6565
 -0.6463  -0.6461  -0.6355  -0.6317  -0.6296  -0.6267  -0.6215  -0.6039
 -0.5887  -0.5756  -0.5694  -0.5612  -0.5567  -0.5514  -0.5500  -0.5493
 -0.5467  -0.5428  -0.5203  -0.5113  -0.5025  -0.4849  -0.4759  -0.4663
 -0.4565  -0.4509  -0.4415  -0.4333  -0.4135  -0.4064  -0.3542  -0.3500
 -0.3332  -0.2789
 -- Virtual --
  0.0153   0.0433   0.0699   0.0912   0.1403   0.1507   0.1532   0.1584
  0.1640   0.1710   0.1783   0.1844   0.1887   0.1919   0.2031   0.2067
  0.2148   0.2189   0.2242   0.2273   0.2293   0.2338   0.2372   0.2397
  0.2650   0.2704   0.2989   0.3041   0.3128   0.3168   0.3210   0.3256
  0.3351   0.3398   0.3405   0.3461   0.3527   0.3557   0.3643   0.3681
  0.3730   0.3745   0.3812   0.3885   0.3900   0.3963   0.4021   0.4044
  0.4162   0.4220   0.4264   0.4359   0.4369   0.4420   0.4449   0.4492
  0.4552   0.4619   0.4632   0.4636   0.4797   0.4824   0.4857   0.4945
  0.4992   0.5016   0.5078   0.5100   0.5166   0.5197   0.5227   0.5266
  0.5297   0.5402   0.5433   0.5514   0.5554   0.5580   0.5611   0.5709
  0.5746   0.5757   0.5796   0.5840   0.5863   0.5896   0.5978   0.6011
  0.6030   0.6080   0.6091   0.6105   0.6109   0.6181   0.6224   0.6308
  0.6317   0.6351   0.6356   0.6393   0.6424   0.6455   0.6506   0.6524
  0.6571   0.6671   0.6750   0.6771   0.6935   0.6972   0.7004   0.7012
  0.7015   0.7107   0.7192   0.7270   0.7366   0.7383   0.7474   0.7532
  0.7590   0.7657   0.7719   0.7759   0.7814   0.7861   0.7930   0.7971
  0.8070   0.8105   0.8172   0.8205   0.8273   0.8353   0.8447   0.8482
  0.8511   0.8555   0.8608   0.8641   0.8671   0.8726   0.8780   0.8840
  0.8867   0.8988   0.9031   0.9081   0.9146   0.9210   0.9253   0.9272
  0.9380   0.9402   0.9467   0.9503   0.9569   0.9659   0.9735   0.9795
  0.9808   0.9857   0.9948   0.9997   1.0040   1.0069   1.0141   1.0212
  1.0243   1.0287   1.0377   1.0436   1.0523   1.0562   1.0597   1.0656
  1.0681   1.0706   1.0753   1.0839   1.0860   1.0899   1.0984   1.1080
  1.1129   1.1209   1.1246   1.1291   1.1355   1.1391   1.1392   1.1453
  1.1501   1.1577   1.1608   1.1672   1.1704   1.1728   1.1772   1.1853
  1.1894   1.1960   1.1986   1.2043   1.2095   1.2124   1.2204   1.2274
  1.2361   1.2385   1.2468   1.2517   1.2558   1.2628   1.2666   1.2687
  1.2743   1.2814   1.2884   1.3070   1.3137   1.3289   1.3339   1.3457
  1.3502   1.3509   1.3619   1.3661   1.3744   1.3788   1.3813   1.3885
  1.3908   1.3935   1.4019   1.4110   1.4165   1.4221   1.4258   1.4387
  1.4404   1.4513   1.4625   1.4688   1.4748   1.4795   1.4938   1.4967
  1.5035   1.5071   1.5123   1.5193   1.5205   1.5215   1.5346   1.5441
  1.5450   1.5512   1.5571   1.5596   1.5658   1.5670   1.5737   1.5754
  1.5826   1.5872   1.6049   1.6117   1.6171   1.6301   1.6386   1.6452
  1.6489   1.6555   1.6743   1.6783   1.6832   1.6903   1.6933   1.7054
  1.7083   1.7131   1.7193   1.7254   1.7379   1.7463   1.7499   1.7503
  1.7655   1.7708   1.7796   1.7819   1.7888   1.7943   1.8021   1.8063
  1.8150   1.8289   1.8352   1.8468   1.8496   1.8599   1.8668   1.8713
  1.8746   1.8780   1.8919   1.8989   1.9069   1.9336   1.9424   1.9520
  1.9541   1.9626   1.9740   1.9785   1.9905   2.0043   2.0084   2.0235
  2.0329   2.0398   2.0539   2.0689   2.0866   2.0995   2.1146   2.1210
  2.1325   2.1408   2.1600   2.1711   2.1825   2.1899   2.2091   2.2191
  2.2235   2.2334   2.2500   2.2641   2.2751   2.2938   2.2990   2.3137
  2.3143   2.3258   2.3352   2.3423   2.3602   2.3652   2.3670   2.3872
  2.4142   2.4235   2.4302   2.4375   2.4488   2.4582   2.4612   2.4721
  2.4769   2.4933   2.5045   2.5104   2.5236   2.5262   2.5335   2.5536
  2.5634   2.5728   2.5853   2.5871   2.5923   2.6044   2.6073   2.6215
  2.6220   2.6396   2.6435   2.6478   2.6616   2.6701   2.6789   2.6850
  2.6874   2.6911   2.6967   2.7085   2.7135   2.7224   2.7307   2.7356
  2.7439   2.7557   2.7606   2.7663   2.7731   2.7759   2.7942   2.7978
  2.8223   2.8283   2.8442   2.8485   2.8520   2.8588   2.8610   2.8697
  2.8729   2.8782   2.8845   2.8930   2.8966   2.9035   2.9132   2.9181
  2.9205   2.9289   2.9350   2.9469   2.9545   2.9599   2.9670   2.9764
  2.9803   2.9861   2.9938   3.0054   3.0062   3.0134   3.0192   3.0320
  3.0333   3.0425   3.0472   3.0547   3.0704   3.0795   3.0821   3.0886
  3.0925   3.0973   3.1021   3.1072   3.1097   3.1113   3.1210   3.1270
  3.1356   3.1451   3.1480   3.1578   3.1624   3.1689   3.1730   3.1784
  3.1795   3.1873   3.1936   3.2019   3.2084   3.2178   3.2237   3.2263
  3.2291   3.2407   3.2428   3.2456   3.2533   3.2559   3.2578   3.2650
  3.2665   3.2736   3.2793   3.2863   3.2937   3.2969   3.3051   3.3091
  3.3109   3.3171   3.3202   3.3260   3.3279   3.3290   3.3370   3.3426
  3.3452   3.3513   3.3540   3.3558   3.3596   3.3631   3.3675   3.3763
  3.3791   3.3865   3.3881   3.3909   3.3968   3.4005   3.4040   3.4119
  3.4204   3.4213   3.4256   3.4291   3.4346   3.4401   3.4467   3.4488
  3.4518   3.4579   3.4649   3.4687   3.4742   3.4774   3.4828   3.4883
  3.4984   3.5032   3.5095   3.5106   3.5115   3.5198   3.5252   3.5291
  3.5347   3.5390   3.5439   3.5511   3.5580   3.5700   3.5756   3.5846
  3.5886   3.5918   3.5975   3.6026   3.6144   3.6216   3.6251   3.6284
  3.6321   3.6354   3.6383   3.6399   3.6452   3.6521   3.6560   3.6587
  3.6670   3.6751   3.6860   3.6888   3.6982   3.7036   3.7081   3.7203
  3.7253   3.7318   3.7373   3.7373   3.7446   3.7490   3.7548   3.7588
  3.7617   3.7679   3.7724   3.7806   3.7851   3.7904   3.7994   3.8044
  3.8120   3.8183   3.8226   3.8241   3.8319   3.8388   3.8457   3.8485
  3.8573   3.8591   3.8755   3.8792   3.8845   3.8933   3.8976   3.9055
  3.9152   3.9207   3.9291   3.9332   3.9462   3.9494   3.9535   3.9588
  3.9637   3.9702   3.9756   3.9779   3.9850   3.9885   3.9996   4.0087
  4.0189   4.0302   4.0386   4.0406   4.0525   4.0598   4.0687   4.0747
  4.0877   4.1020   4.1169   4.1275   4.1293   4.1376   4.1467   4.1484
  4.1523   4.1549   4.1622   4.1664   4.1736   4.1841   4.1989   4.2100
  4.2139   4.2308   4.2408   4.2445   4.2460   4.2527   4.2583   4.2702
  4.2750   4.2794   4.2878   4.2917   4.2974   4.3010   4.3053   4.3112
  4.3143   4.3226   4.3260   4.3311   4.3377   4.3453   4.3491   4.3565
  4.3607   4.3648   4.3692   4.3728   4.3789   4.3854   4.3935   4.3968
  4.4032   4.4089   4.4140   4.4274   4.4400   4.4452   4.4476   4.4543
  4.4751   4.4827   4.4920   4.4941   4.5063   4.5153   4.5206   4.5324
  4.5397   4.5508   4.5571   4.5629   4.5670   4.5773   4.5798   4.5867
  4.5995   4.6055   4.6081   4.6116   4.6162   4.6224   4.6340   4.6432
  4.6537   4.6570   4.6706   4.6729   4.6914   4.7040   4.7131   4.7174
  4.7253   4.7349   4.7491   4.7613   4.7641   4.7814   4.7921   4.8001
  4.8231   4.8298   4.8414   4.8481   4.8574   4.8611   4.8779   4.8858
  4.8908   4.9014   4.9064   4.9304   4.9477   4.9530   4.9620   4.9803
  4.9968   5.0051   5.0133   5.0263   5.0329   5.0470   5.0532   5.0645
  5.0800   5.0904   5.1183   5.1215   5.1222   5.1255   5.1352   5.1363
  5.1509   5.1584   5.1765   5.1803   5.1972   5.2015   5.2159   5.2246
  5.2574   5.2641   5.2736   5.2844   5.2925   5.3116   5.3235   5.3303
  5.3331   5.3386   5.3505   5.3688   5.3797   5.3911   5.4036   5.4166
  5.4317   5.4487   5.4670   5.4940   5.4960   5.5108   5.5142   5.5152
  5.5182   5.5292   5.5424   5.5525   5.5571   5.5616   5.5680   5.5756
  5.5833   5.5876   5.5981   5.6023   5.6116   5.6133   5.6268   5.6347
  5.6494   5.6517   5.6621   5.6639   5.6677   5.6722   5.6942   5.6957
  5.6998   5.7037   5.7108   5.7373   5.7479   5.7578   5.7707   5.7735
  5.7855   5.7897   5.8213   5.8340   5.8474   5.8628   5.8825   5.9016
  5.9439   5.9612   5.9706   5.9855   6.0019   6.0304   6.0334   6.0430
  6.0457   6.0741   6.1078   6.1126   6.1236   6.1403   6.1497   6.1836
  6.1985   6.2192   6.2241   6.2263   6.2410   6.2651   6.2692   6.2847
  6.3102   6.3179   6.3246   6.3478   6.3671   6.3858   6.3992   6.4850
  6.5232   6.5347   6.5740   6.5833   6.5865   6.6056   6.6185   6.6592
  6.6741   6.6758   6.8458   6.8517   6.8906   6.9027   6.9062   6.9238
  6.9285   6.9356   7.1030   7.1093   7.1484   7.1917   7.1989   7.2358
  7.3482   7.3531   7.3584   7.3622   7.4768   7.5422   7.5722   7.5837
  7.5875   7.5974   7.6557   7.6805   7.6934   7.7143   8.8866   9.9990
 10.3260  11.3241  11.5281  11.7853  12.0172  12.1783  12.4183  12.4598
 13.0030  13.1999  13.3564  13.5636  13.7545  13.9266  14.0811  14.2721
 14.3161  14.3656  14.4964  14.6064  14.9997  15.6152  15.8086  16.3637
 --------------------------------------------------------------
 
          Ground-State Mulliken Net Atomic Charges

     Atom                 Charge (a.u.)
  ----------------------------------------
      1 C                    -0.084886
      2 C                    -0.033183
      3 C                    -0.113947
      4 C                    -0.119682
      5 H                     0.198090
      6 C                     0.016829
      7 C                     0.114356
      8 C                    -0.067152
      9 C                    -0.183589
     10 C                    -0.165520
     11 C                     0.179342
     12 H                     0.194642
     13 C                     0.340315
     14 C                     0.347143
     15 N                    -0.089137
     16 C                     0.356714
     17 C                     0.353666
     18 N                    -0.090592
     19 O                    -0.497645
     20 O                    -0.510212
     21 O                    -0.501698
     22 O                    -0.473684
     23 C                    -0.205376
     24 H                     0.139296
     25 H                     0.108915
     26 H                     0.108527
     27 C                    -0.198054
     28 H                     0.133485
     29 H                     0.110562
     30 H                     0.112329
     31 C                    -0.016558
     32 S                     0.012544
     33 C                    -0.186154
     34 C                    -0.146404
     35 C                    -0.229178
     36 H                     0.193006
     37 H                     0.192648
     38 H                     0.213820
     39 H                     0.136148
     40 H                     0.136419
     41 H                     0.213851
  ----------------------------------------
  Sum of atomic charges =     0.000000

 -----------------------------------------------------------------
                    Cartesian Multipole Moments
 -----------------------------------------------------------------
    Charge (ESU x 10^10)
                 0.0000
    Dipole Moment (Debye)
         X       1.5331      Y       2.5268      Z      -2.1983
       Tot       3.6834
    Quadrupole Moments (Debye-Ang)
        XX    -171.7746     XY      10.7859     YY    -185.8293
        XZ     -16.1837     YZ       8.7259     ZZ    -175.5478
    Octopole Moments (Debye-Ang^2)
       XXX     -56.3531    XXY     541.1899    XYY     -45.7230
       YYY    1726.6754    XXZ      -2.1266    XYZ      73.4825
       YYZ     -51.7688    XZZ     -12.3753    YZZ     562.6330
       ZZZ     -17.1424
    Hexadecapole Moments (Debye-Ang^3)
      XXXX   -2855.6758   XXXY      49.2612   XXYY   -3378.5138
      XYYY     675.8199   YYYY  -18112.3727   XXXZ   -1529.7804
      XXYZ      -9.8819   XYYZ    -921.6318   YYYZ     896.2630
      XXZZ   -1201.1994   XYZZ     -66.9264   YYZZ   -3731.7369
      XZZZ   -1568.5291   YZZZ     110.3240   ZZZZ   -3987.4470
 -----------------------------------------------------------------
 Total job time:  299.47s(wall), 8808.86s(cpu) 
 Wed Dec 27 12:42:04 2023

        *************************************************************
        *                                                           *
        *  Thank you very much for using Q-Chem.  Have a nice day.  *
        *                                                           *
        *************************************************************


0 sent ACK to 0 
now end server 0 ... 
cleanup process ... done
remove work dirs ./qchem3794948.0 -- ./qchem3794948.0
rm -rf ./qchem3794948.0
rm -rf ./qchem3794948
