You are running Q-Chem version: 5.4.0

#
# job setting
#
local host:  exp-2-05
current dir: /home/rramji/project-csd799/aromodel/pndit-qchem/hydrogenated-rotation-run
input file:  Dimethyl_Naphthalene_Dicarboximide_Phi_15_Theta_350_Thiophene_Hydrogenated.qcin
output file: 
nprocs     : 1
nthreads   : 64
#
# qchem installation setting
#
QC:          /cm/shared/apps/spack/cpu/opt/spack/linux-centos8-zen2/gcc-10.2.0/qchem-5.4-akfmr7b3t57bfs6qan3padb2wnb2i7cl
QCAUX:       /cm/shared/apps/spack/cpu/opt/spack/linux-centos8-zen2/gcc-10.2.0/qchem-5.4-akfmr7b3t57bfs6qan3padb2wnb2i7cl/qcaux
QCPROG:      /cm/shared/apps/spack/cpu/opt/spack/linux-centos8-zen2/gcc-10.2.0/qchem-5.4-akfmr7b3t57bfs6qan3padb2wnb2i7cl/exe/qcprog.exe
QCPROG_S:    /cm/shared/apps/spack/cpu/opt/spack/linux-centos8-zen2/gcc-10.2.0/qchem-5.4-akfmr7b3t57bfs6qan3padb2wnb2i7cl/exe/qcprog.exe_s
PARALLEL:    -DPARALLEL
QCMPI:       mpich
#
# qchem directory setting
#
qcrun:       qchem1530456
QCSCRATCH:   .
QCLOCALSCR:  
QCTMPDIR:    .
QCFILEPREF:  ./qchem1530456
QCSAVEDIR:   
workdirs:    ./qchem1530456
workdir0:    ./qchem1530456
partmpdirs =  
#
# parallel setting
#
QCRSH:           ssh
QCMPI:           mpich
QCMPIRUN:        /cm/shared/apps/spack/cpu/opt/spack/linux-centos8-zen2/gcc-10.2.0/qchem-5.4-akfmr7b3t57bfs6qan3padb2wnb2i7cl/bin/mpi/mpirun_qchem
QCMACHINEFILE:   ./qchem1530456/hostfile
exp-2-05

#
# env setting
#
exported envs:   QC QCAUX QCSCRATCH QCRUNNAME QCFILEPREF QCPROG QCPROG_S GUIFILE

Running Job 1 of 1 Dimethyl_Naphthalene_Dicarboximide_Phi_15_Theta_350_Thiophene_Hydrogenated.qcin
qchem Dimethyl_Naphthalene_Dicarboximide_Phi_15_Theta_350_Thiophene_Hydrogenated.qcin_1530456.0 ./qchem1530456/ 1
/cm/shared/apps/spack/cpu/opt/spack/linux-centos8-zen2/gcc-10.2.0/qchem-5.4-akfmr7b3t57bfs6qan3padb2wnb2i7cl/bin/mpi/mpirun_qchem -machinefile ./qchem1530456/hostfile -np 1 /cm/shared/apps/spack/cpu/opt/spack/linux-centos8-zen2/gcc-10.2.0/qchem-5.4-akfmr7b3t57bfs6qan3padb2wnb2i7cl/exe/qcprog.exe Dimethyl_Naphthalene_Dicarboximide_Phi_15_Theta_350_Thiophene_Hydrogenated.qcin_1530456.0 ./qchem1530456/

Process 0 of 1 is on exp-2-05 - thread support 0
initial socket setup ...start
initial socket setup ...done 
now start server 0 ... 
                  Welcome to Q-Chem
     A Quantum Leap Into The Future Of Chemistry


 Q-Chem 5.4, Q-Chem, Inc., Pleasanton, CA (2021)

 License issued to: University of California, San Diego (site)

 E. Epifanovsky,  A. T. B. Gilbert,  Xintian Feng,  Joonho Lee,  Yuezhi Mao,  
 N. Mardirossian,  P. Pokhilko,  A. White,  M. Wormit,  M. P. Coons,  
 A. L. Dempwolff,  Zhengting Gan,  D. Hait,  P. R. Horn,  L. D. Jacobson,  
 I. Kaliman,  J. Kussmann,  A. W. Lange,  Ka Un Lao,  D. S. Levine,  Jie Liu,  
 S. C. McKenzie,  A. F. Morrison,  K. Nanda,  F. Plasser,  D. R. Rehn,  
 M. L. Vidal,  Zhi-Qiang You,  Ying Zhu,  B. Alam,  B. Albrecht,  
 A. Aldossary,  E. Alguire,  J. H. Andersen,  D. Barton,  K. Begam,  A. Behn,  
 Y. A. Bernard,  E. J. Berquist,  H. Burton,  A. Carreras,  K. Carter-Fenk,  
 R. Chakraborty,  A. D. Chien,  K. D. Closser,  V. Cofer-Shabica,  
 S. Dasgupta,  Jia Deng,  M. de Wergifosse,  M. Diedenhofen,  Hainam Do,  
 S. Ehlert,  Po-Tung Fang,  S. Fatehi,  Qingguo Feng,  J. Gayvert,  
 Qinghui Ge,  G. Gidofalvi,  M. Goldey,  J. Gomes,  C. Gonzalez-Espinoza,  
 S. Gulania,  A. Gunina,  M. W. D. Hanson-Heine,  P. H. P. Harbach,  
 A. W. Hauser,  M. F. Herbst,  M. Hernandez Vera,  M. Hodecker,  
 Z. C. Holden,  S. Houck,  Xunkun Huang,  Kerwin Hui,  B. C. Huynh,  
 M. Ivanov,  Hyunjun Ji,  Hanjie Jiang,  B. Kaduk,  S. Kaehler,  
 K. Khistyaev,  Jaehoon Kim,  P. Klunzinger,  Z. Koczor-Benda,  
 Joong Hoon Koh,  D. Kosenkov,  L. Koulias,  T. Kowalczyk,  C. M. Krauter,  
 K. Kue,  A. Kunitsa,  T. Kus,  A. Landau,  K. V. Lawler,  D. Lefrancois,  
 S. Lehtola,  Rain Li,  Yi-Pei Li,  Jiashu Liang,  M. Liebenthal,  
 Hung-Hsuan Lin,  You-Sheng Lin,  Fenglai Liu,  Kuan-Yu Liu,  
 M. Loipersberger,  A. Luenser,  A. Manjanath,  P. Manohar,  E. Mansoor,  
 S. F. Manzer,  Shan-Ping Mao,  A. V. Marenich,  T. Markovich,  S. Mason,  
 S. A. Maurer,  P. F. McLaughlin,  M. F. S. J. Menger,  J.-M. Mewes,  
 S. A. Mewes,  P. Morgante,  J. W. Mullinax,  T. S. Nguyen-Beck,  
 K. J. Oosterbaan,  G. Paran,  Alexander C. Paul,  Suranjan K. Paul,  
 F. Pavosevic,  Zheng Pei,  S. Prager,  E. I. Proynov,  E. Ramos,  B. Rana,  
 A. E. Rask,  A. Rettig,  R. M. Richard,  F. Rob,  E. Rossomme,  T. Scheele,  
 M. Scheurer,  M. Schneider,  N. Sergueev,  S. M. Sharada,  W. Skomorowski,  
 D. W. Small,  C. J. Stein,  Yu-Chuan Su,  E. J. Sundstrom,  Zhen Tao,  
 J. Thirman,  T. Tsuchimochi,  N. M. Tubman,  S. P. Veccham,  O. Vydrov,  
 J. Wenzel,  J. Witte,  A. Yamada,  Kun Yao,  S. Yeganeh,  S. R. Yost,  
 A. Zech,  Igor Ying Zhang,  Xing Zhang,  Yu Zhang,  D. Zuev,  
 A. Aspuru-Guzik,  A. T. Bell,  N. A. Besley,  K. B. Bravaya,  B. R. Brooks,  
 D. Casanova,  Jeng-Da Chai,  S. Coriani,  C. J. Cramer,  
 A. E. DePrince, III,  R. A. DiStasio Jr.,  A. Dreuw,  B. D. Dunietz,  
 T. R. Furlani,  W. A. Goddard III,  S. Grimme,  S. Hammes-Schiffer,  
 T. Head-Gordon,  W. J. Hehre,  Chao-Ping Hsu,  T.-C. Jagau,  Yousung Jung,  
 A. Klamt,  Jing Kong,  D. S. Lambrecht,  WanZhen Liang,  N. J. Mayhall,  
 C. W. McCurdy,  J. B. Neaton,  C. Ochsenfeld,  J. A. Parkhill,  R. Peverati,  
 V. A. Rassolov,  Yihan Shao,  L. V. Slipchenko,  T. Stauch,  R. P. Steele,  
 J. E. Subotnik,  A. J. W. Thom,  A. Tkatchenko,  D. G. Truhlar,  
 T. Van Voorhis,  T. A. Wesolowski,  K. B. Whaley,  H. L. Woodcock III,  
 P. M. Zimmerman,  S. Faraji,  P. M. W. Gill,  M. Head-Gordon,  
 J. M. Herbert,  A. I. Krylov

 Contributors to earlier versions of Q-Chem not listed above: 
 R. D. Adamson,  B. Austin,  R. Baer,  J. Baker,  G. J. O. Beran,  
 K. Brandhorst,  S. T. Brown,  E. F. C. Byrd,  A. K. Chakraborty,  
 G. K. L. Chan,  Chun-Min Chang,  Yunqing Chen,  C.-L. Cheng,  
 Siu Hung Chien,  D. M. Chipman,  D. L. Crittenden,  H. Dachsel,  
 R. J. Doerksen,  A. D. Dutoi,  R. G. Edgar,  J. Fosso-Tande,  
 L. Fusti-Molnar,  D. Ghosh,  A. Ghysels,  A. Golubeva-Zadorozhnaya,  
 J. Gonthier,  M. S. Gordon,  S. R. Gwaltney,  G. Hawkins,  J. E. Herr,  
 A. Heyden,  S. Hirata,  E. G. Hohenstein,  G. Kedziora,  F. J. Keil,  
 C. Kelley,  Jihan Kim,  R. A. King,  R. Z. Khaliullin,  P. P. Korambath,  
 W. Kurlancheek,  A. Laurent,  A. M. Lee,  M. S. Lee,  S. V. Levchenko,  
 Ching Yeh Lin,  D. Liotard,  E. Livshits,  R. C. Lochan,  I. Lotan,  
 L. A. Martinez-Martinez,  P. E. Maslen,  N. Nair,  D. P. O'Neill,  
 D. Neuhauser,  E. Neuscamman,  C. M. Oana,  R. Olivares-Amaya,  R. Olson,  
 T. M. Perrine,  B. Peters,  P. A. Pieniazek,  A. Prociuk,  Y. M. Rhee,  
 J. Ritchie,  M. A. Rohrdanz,  E. Rosta,  N. J. Russ,  H. F. Schaefer III,  
 M. W. Schmidt,  N. E. Schultz,  S. Sharma,  N. Shenvi,  C. D. Sherrill,  
 A. C. Simmonett,  A. Sodt,  T. Stein,  D. Stuck,  K. S. Thanthiriwatte,  
 V. Vanovschi,  L. Vogt,  Tao Wang,  A. Warshel,  M. A. Watson,  
 C. F. Williams,  Q. Wu,  X. Xu,  Jun Yang,  W. Zhang,  Yan Zhao

 Please cite Q-Chem as follows:
 Y. Shao et al., Mol. Phys. 113, 184-215 (2015)
 DOI: 10.1080/00268976.2014.952696

 Q-Chem 5.4.0 for Intel X86 EM64T Linux

 Parts of Q-Chem use Armadillo 9.800.1 (Horizon Scraper).
 http://arma.sourceforge.net/

 Q-Chem begins on Wed Dec 27 12:46:32 2023  

 Host: 
0

     Scratch files written to ./qchem1530456//
 May1621 |scratch|qcdevops|jenkins|workspace|build_RNUM    
 Parallel job on  1  processors
 Processing $rem in /cm/shared/apps/spack/cpu/opt/spack/linux-centos8-zen2/gcc-10.2.0/qchem-5.4-akfmr7b3t57bfs6qan3padb2wnb2i7cl/config/preferences:
 Processing $rem in /home/rramji/.qchemrc:
 Symmetry turned off for PCM/SM12/SMD calculation
 Core orbitals will be frozen

 Checking the input file for inconsistencies... 	...done.

 Q-Chem warning in module forms1/BasisType.C, line 2236:

 You are not using the predefined 5D/6D in this basis set.


--------------------------------------------------------------
User input:
--------------------------------------------------------------
$molecule
0 1
C	-0.046070	-6.741404	-0.252767
C	-0.272935	-6.155638	-1.538656
C	0.141739	-5.791452	0.814966
C	-0.321083	-4.803786	-1.813042
H	-0.425592	-6.821518	-2.403318
C	0.091779	-4.378638	0.527566
C	-0.138909	-3.838032	-0.782769
C	0.273808	-3.413062	1.556632
C	-0.188483	-2.426473	-1.067868
C	0.226610	-2.059348	1.285436
C	0.000000	-1.478216	0.000000
H	0.379657	-1.394783	2.151019
C	0.390420	-6.187987	2.235891
C	0.522125	-3.798164	2.965540
N	0.562731	-5.170003	3.205600
C	-0.570244	-4.424987	-3.225760
C	-0.438407	-2.036627	-2.489646
N	-0.610438	-3.049156	-3.459662
O	0.455563	-7.353131	2.621768
O	0.683373	-2.986854	3.874608
O	-0.729367	-5.248946	-4.124059
O	-0.508697	-0.878829	-2.896516
C	0.806996	-5.563799	4.596910
H	0.813717	-6.664085	4.641640
H	0.013655	-5.147101	5.246567
H	1.775159	-5.148785	4.936739
C	-0.851572	-2.587487	-4.829729
H	-0.964204	-3.483329	-5.462387
H	-0.003956	-1.964972	-5.173914
H	-1.764390	-1.962932	-4.863360
C	0.000000	0.000000	0.000000
S	0.205093	0.766196	1.580530
C	0.628939	2.348114	0.904911
C	0.258137	0.964028	-0.985400
C	0.599745	2.239309	-0.493528
H	0.197169	0.736404	-2.059934
H	0.827678	3.090243	-1.152593
H	0.856796	3.198808	1.556025
H	0.857128	-7.361589	-0.303328
H	-0.912587	-7.361192	0.007933
H	1.063684	-1.478831	-0.187017
$end

$rem
JOBTYPE		SP
EXCHANGE	HF
CORRELATION	pRIMP2
BASIS		cc-pvtz
METHOD		rimp2
AUX_BASIS	rimp2-cc-pvtz
SOLVENT_METHOD	PCM
PURECART	11111
SYMMETRY	false
MEM_TOTAL	110000
SCF_CONVERGENCE = 6
THRESH=10
GUI = 2
$end



$solvent
dielectric 4.90
$end
--------------------------------------------------------------
 ----------------------------------------------------------------
             Standard Nuclear Orientation (Angstroms)
    I     Atom           X                Y                Z
 ----------------------------------------------------------------
    1      C      -0.0460700000    -6.7414040000    -0.2527670000
    2      C      -0.2729350000    -6.1556380000    -1.5386560000
    3      C       0.1417390000    -5.7914520000     0.8149660000
    4      C      -0.3210830000    -4.8037860000    -1.8130420000
    5      H      -0.4255920000    -6.8215180000    -2.4033180000
    6      C       0.0917790000    -4.3786380000     0.5275660000
    7      C      -0.1389090000    -3.8380320000    -0.7827690000
    8      C       0.2738080000    -3.4130620000     1.5566320000
    9      C      -0.1884830000    -2.4264730000    -1.0678680000
   10      C       0.2266100000    -2.0593480000     1.2854360000
   11      C       0.0000000000    -1.4782160000     0.0000000000
   12      H       0.3796570000    -1.3947830000     2.1510190000
   13      C       0.3904200000    -6.1879870000     2.2358910000
   14      C       0.5221250000    -3.7981640000     2.9655400000
   15      N       0.5627310000    -5.1700030000     3.2056000000
   16      C      -0.5702440000    -4.4249870000    -3.2257600000
   17      C      -0.4384070000    -2.0366270000    -2.4896460000
   18      N      -0.6104380000    -3.0491560000    -3.4596620000
   19      O       0.4555630000    -7.3531310000     2.6217680000
   20      O       0.6833730000    -2.9868540000     3.8746080000
   21      O      -0.7293670000    -5.2489460000    -4.1240590000
   22      O      -0.5086970000    -0.8788290000    -2.8965160000
   23      C       0.8069960000    -5.5637990000     4.5969100000
   24      H       0.8137170000    -6.6640850000     4.6416400000
   25      H       0.0136550000    -5.1471010000     5.2465670000
   26      H       1.7751590000    -5.1487850000     4.9367390000
   27      C      -0.8515720000    -2.5874870000    -4.8297290000
   28      H      -0.9642040000    -3.4833290000    -5.4623870000
   29      H      -0.0039560000    -1.9649720000    -5.1739140000
   30      H      -1.7643900000    -1.9629320000    -4.8633600000
   31      C       0.0000000000     0.0000000000     0.0000000000
   32      S       0.2050930000     0.7661960000     1.5805300000
   33      C       0.6289390000     2.3481140000     0.9049110000
   34      C       0.2581370000     0.9640280000    -0.9854000000
   35      C       0.5997450000     2.2393090000    -0.4935280000
   36      H       0.1971690000     0.7364040000    -2.0599340000
   37      H       0.8276780000     3.0902430000    -1.1525930000
   38      H       0.8567960000     3.1988080000     1.5560250000
   39      H       0.8571280000    -7.3615890000    -0.3033280000
   40      H      -0.9125870000    -7.3611920000     0.0079330000
   41      H       1.0636840000    -1.4788310000    -0.1870170000
 ----------------------------------------------------------------
 Nuclear Repulsion Energy =        2554.91590960 hartrees
 There are       98 alpha and       98 beta electrons
 Requested basis set is cc-pVTZ
 There are 356 shells and 1010 basis functions

 Total QAlloc Memory Limit 110000 MB
 Mega-Array Size       188 MB
 MEM_STATIC part       192 MB
 Discretize the solute cavity surface with Lebedev spheres
	Using 110 Lebedev grid points for each H atom
	Using 194 Lebedev grid points for other atoms
	Atomic van der Waals radii will be scaled by 1.20
 Remove points where switching function is < 1.0e-08
 Keep 2607 surface tesserae and discard 4171 interior tesserae
 Molecular Surface Area = 361.439 Angst**2
 Requested basis set is rimp2-cc-pVTZ
 There are 770 shells and 2648 basis functions
 A cutoff of  1.0D-10 yielded  34216 shell pairs
 There are    258906 function pairs (    335109 Cartesian)
 Smallest overlap matrix eigenvalue = 8.97E-06

 Q-Chem warning in module stvman/mkSTV.C, line 323:

 Overlap eigenvalue is smaller than square root of threshold
 Use THRESH >= 12 to get rid of this warning


 Scale SEOQF with 1.000000e-01/1.000000e-02/1.000000e-02

 Standard Electronic Orientation quadrupole field applied
 Nucleus-field energy     =     0.0000000111 hartrees
 Guess from superposition of atomic densities
 Warning:  Energy on first SCF cycle will be non-variational
 SAD guess density has 196.000000 electrons

 -----------------------------------------------------------------------
  General SCF calculation program by
  Eric Jon Sundstrom, Paul Horn, Yuezhi Mao, Dmitri Zuev, Alec White,
  David Stuck, Shaama M.S., Shane Yost, Joonho Lee, David Small,
  Daniel Levine, Susi Lehtola, Hugh Burton, Evgeny Epifanovsky,
  Bang C. Huynh
 -----------------------------------------------------------------------
 Hartree-Fock
 using 64 threads for integral computing
 -------------------------------------------------------
 OpenMP Integral computing Module                
 Release: version 1.0, May 2013, Q-Chem Inc. Pittsburgh 
 -------------------------------------------------------
 A restricted SCF calculation will be
 performed using DIIS
 SCF converges when DIIS error is below 1.0e-06
 ---------------------------------------
  Cycle       Energy         DIIS error
 ---------------------------------------
    1   -1583.1995685137      1.87e-02  
    2   -1571.1518732527      2.03e-03  
    3   -1571.4946484485      1.55e-03  
    4   -1571.7160862834      2.54e-04  
    5   -1571.7299428120      7.86e-05  
    6   -1571.7313678380      3.02e-05  
    7   -1571.7317869276      1.55e-05  
    8   -1571.7319004308      6.07e-06  
    9   -1571.7319197682      2.88e-06  
   10   -1571.7319235575      1.22e-06  
   11   -1571.7319247871      5.90e-07  Convergence criterion met
 ---------------------------------------
 SCF time:   CPU 7076.37s  wall 263.00s 

************** Final PCM Free Energy Summary **************
 G_electrostatic  =      -0.02755515 hartree =     -17.29111795 kcal/mol
 G_cavitation     =       0.00000000 hartree =       0.00000000 kcal/mol
 G_dispersion     =       0.00000000 hartree =       0.00000000 kcal/mol
 G_repulsion      =       0.00000000 hartree =       0.00000000 kcal/mol
 --------------------------------------------------
 Non-electrostatic Free Energy =       0.00000000 hartree =       0.00000000 kcal/mol
 Total                         =      -0.02755515 hartree =     -17.29111795 kcal/mol
 --------------------------------------------------
 SCF Energy (H0 + V/2)                       =   -1571.73192479 
 Solute Internal Energy (H0)                 =   -1571.70436964 
 Total Free Energy (H0 + V/2 + non-elec)     =   -1571.73192479 hartree
                                             = -986276.66867699 kcal/mol
***********************************************************

 SCF   energy in the final basis set =    -1571.7319247871
 Total energy in the final basis set =    -1571.7319247871


 --------------------------------------------------------------
  Generalized many-body perturbation theory program
  by Joonho Lee, Fazle Rob, Xintian Feng, Evgeny Epifanovsky

 No regularization used 
 (reg. param. = 0.0000e+00)
  (P|Q)^-1/2 Time:  CPU 111.49 s  wall 2.36 s

 In RI-MP2 calculation: 
 # of frozen core orbitals: 31

 Components of the RIMP2 correlation energy:
        aaaa    correlation energy =        -0.6161827251 a.u.
        abab    correlation energy =        -3.4269896851 a.u.
        bbbb    correlation energy =        -0.6161827251 a.u.
        non-Brillouin singles      =        -0.0000000000 a.u.
        total same-spin energy     =        -1.2323654502 a.u.
        total opposite-spin energy =        -3.4269896851 a.u.

 Total  RIMP2   correlation energy =        -4.6593551353 a.u.
        RIMP2         total energy =     -1576.3912799225 a.u.

 RI-MP2 Energy Time:  CPU 2007.83 s  wall 33.27 s
 
 --------------------------------------------------------------
 
                    Orbital Energies (a.u.)
 --------------------------------------------------------------
 
 Alpha MOs
 -- Occupied --
-91.9898 -20.5540 -20.5458 -20.5425 -20.5414 -15.6291 -15.6219 -11.3974
-11.3866 -11.3843 -11.3800 -11.3103 -11.3088 -11.3063 -11.3054 -11.2985
-11.2979 -11.2927 -11.2751 -11.2706 -11.2693 -11.2671 -11.2643 -11.2597
-11.2537 -11.2471 -11.2379  -8.9899  -6.6708  -6.6702  -6.6696  -1.4235
 -1.4129  -1.3999  -1.3921  -1.2646  -1.2562  -1.2323  -1.1884  -1.1505
 -1.1155  -1.0875  -1.0489  -0.9959  -0.9888  -0.9828  -0.9559  -0.9494
 -0.8982  -0.8909  -0.8783  -0.8615  -0.7956  -0.7813  -0.7728  -0.7586
 -0.7398  -0.7192  -0.7019  -0.6904  -0.6841  -0.6739  -0.6686  -0.6583
 -0.6493  -0.6474  -0.6384  -0.6323  -0.6318  -0.6297  -0.6241  -0.6054
 -0.5930  -0.5720  -0.5642  -0.5609  -0.5583  -0.5526  -0.5513  -0.5494
 -0.5484  -0.5430  -0.5166  -0.5151  -0.5114  -0.4869  -0.4750  -0.4598
 -0.4580  -0.4508  -0.4434  -0.4364  -0.4157  -0.4084  -0.3577  -0.3498
 -0.3321  -0.2782
 -- Virtual --
  0.0112   0.0392   0.0872   0.1015   0.1441   0.1501   0.1571   0.1600
  0.1633   0.1700   0.1770   0.1798   0.1893   0.1969   0.2030   0.2077
  0.2145   0.2245   0.2248   0.2284   0.2323   0.2353   0.2498   0.2597
  0.2640   0.2724   0.3023   0.3126   0.3183   0.3200   0.3319   0.3347
  0.3389   0.3408   0.3460   0.3535   0.3548   0.3592   0.3644   0.3669
  0.3713   0.3841   0.3867   0.3892   0.3936   0.3991   0.4070   0.4164
  0.4210   0.4232   0.4289   0.4342   0.4407   0.4415   0.4442   0.4496
  0.4563   0.4598   0.4662   0.4668   0.4773   0.4847   0.4893   0.4942
  0.4970   0.5017   0.5107   0.5128   0.5159   0.5182   0.5253   0.5320
  0.5352   0.5360   0.5453   0.5485   0.5530   0.5587   0.5598   0.5653
  0.5749   0.5784   0.5808   0.5862   0.5889   0.5911   0.5982   0.6012
  0.6051   0.6082   0.6086   0.6117   0.6147   0.6162   0.6244   0.6282
  0.6307   0.6317   0.6350   0.6383   0.6423   0.6477   0.6581   0.6624
  0.6677   0.6714   0.6795   0.6844   0.6935   0.6956   0.7014   0.7025
  0.7102   0.7180   0.7223   0.7342   0.7379   0.7402   0.7565   0.7597
  0.7657   0.7712   0.7728   0.7826   0.7855   0.7918   0.8027   0.8075
  0.8079   0.8212   0.8241   0.8293   0.8371   0.8382   0.8441   0.8470
  0.8526   0.8626   0.8662   0.8688   0.8738   0.8781   0.8854   0.8900
  0.8927   0.8995   0.9050   0.9104   0.9167   0.9232   0.9281   0.9319
  0.9389   0.9423   0.9470   0.9599   0.9633   0.9675   0.9730   0.9782
  0.9869   0.9908   0.9951   1.0037   1.0062   1.0109   1.0159   1.0190
  1.0246   1.0285   1.0387   1.0471   1.0548   1.0559   1.0599   1.0653
  1.0679   1.0711   1.0745   1.0783   1.0829   1.0920   1.0972   1.1047
  1.1093   1.1166   1.1184   1.1289   1.1307   1.1324   1.1375   1.1422
  1.1480   1.1616   1.1650   1.1705   1.1752   1.1792   1.1804   1.1854
  1.1921   1.2005   1.2019   1.2048   1.2116   1.2156   1.2251   1.2272
  1.2316   1.2382   1.2396   1.2495   1.2510   1.2579   1.2637   1.2717
  1.2817   1.2834   1.2967   1.3024   1.3205   1.3238   1.3262   1.3406
  1.3463   1.3491   1.3592   1.3622   1.3696   1.3820   1.3835   1.3867
  1.3900   1.3952   1.3980   1.4034   1.4193   1.4198   1.4357   1.4483
  1.4497   1.4553   1.4634   1.4683   1.4773   1.4805   1.4886   1.4954
  1.5006   1.5054   1.5101   1.5144   1.5184   1.5306   1.5313   1.5370
  1.5469   1.5523   1.5565   1.5629   1.5690   1.5720   1.5757   1.5919
  1.5927   1.5979   1.6035   1.6099   1.6262   1.6317   1.6377   1.6454
  1.6521   1.6579   1.6637   1.6692   1.6794   1.6897   1.6965   1.7007
  1.7151   1.7174   1.7264   1.7359   1.7466   1.7492   1.7598   1.7606
  1.7661   1.7711   1.7838   1.7870   1.7957   1.8024   1.8111   1.8165
  1.8307   1.8366   1.8466   1.8502   1.8589   1.8674   1.8699   1.8707
  1.8735   1.8786   1.8919   1.8987   1.9162   1.9261   1.9457   1.9502
  1.9572   1.9647   1.9792   1.9847   1.9895   1.9982   2.0226   2.0298
  2.0334   2.0437   2.0651   2.0681   2.0893   2.1033   2.1139   2.1266
  2.1365   2.1520   2.1621   2.1680   2.1764   2.2002   2.2162   2.2191
  2.2371   2.2418   2.2575   2.2841   2.2877   2.2903   2.3017   2.3093
  2.3214   2.3283   2.3362   2.3449   2.3583   2.3654   2.3871   2.3888
  2.4079   2.4234   2.4286   2.4378   2.4555   2.4570   2.4706   2.4756
  2.4948   2.4978   2.5106   2.5136   2.5184   2.5380   2.5525   2.5602
  2.5642   2.5714   2.5812   2.5867   2.5956   2.5977   2.6064   2.6162
  2.6259   2.6383   2.6395   2.6508   2.6538   2.6681   2.6764   2.6801
  2.6877   2.6922   2.7039   2.7057   2.7174   2.7204   2.7343   2.7376
  2.7420   2.7483   2.7570   2.7602   2.7693   2.7757   2.7821   2.7887
  2.8072   2.8326   2.8386   2.8448   2.8505   2.8610   2.8630   2.8657
  2.8776   2.8803   2.8885   2.8942   2.8955   2.9058   2.9098   2.9152
  2.9221   2.9287   2.9380   2.9462   2.9512   2.9627   2.9704   2.9753
  2.9781   2.9847   2.9970   2.9997   3.0033   3.0120   3.0202   3.0328
  3.0351   3.0375   3.0414   3.0499   3.0639   3.0729   3.0810   3.0947
  3.0993   3.1017   3.1028   3.1040   3.1088   3.1177   3.1248   3.1296
  3.1329   3.1391   3.1439   3.1540   3.1628   3.1638   3.1696   3.1795
  3.1814   3.1964   3.2012   3.2063   3.2075   3.2091   3.2148   3.2280
  3.2325   3.2393   3.2452   3.2488   3.2506   3.2624   3.2629   3.2642
  3.2694   3.2725   3.2735   3.2821   3.2887   3.2990   3.3026   3.3101
  3.3128   3.3146   3.3190   3.3216   3.3287   3.3344   3.3377   3.3411
  3.3448   3.3487   3.3517   3.3601   3.3626   3.3664   3.3736   3.3739
  3.3783   3.3819   3.3940   3.3954   3.3984   3.4061   3.4095   3.4160
  3.4189   3.4272   3.4337   3.4362   3.4406   3.4431   3.4466   3.4516
  3.4620   3.4648   3.4676   3.4752   3.4783   3.4800   3.4863   3.4868
  3.4992   3.5030   3.5089   3.5106   3.5165   3.5174   3.5222   3.5259
  3.5400   3.5418   3.5453   3.5565   3.5596   3.5666   3.5708   3.5790
  3.5852   3.5878   3.5940   3.6014   3.6130   3.6232   3.6257   3.6310
  3.6317   3.6340   3.6375   3.6418   3.6460   3.6489   3.6513   3.6630
  3.6711   3.6776   3.6842   3.6883   3.6904   3.7005   3.7053   3.7098
  3.7138   3.7259   3.7300   3.7354   3.7406   3.7464   3.7471   3.7544
  3.7582   3.7654   3.7716   3.7762   3.7803   3.7904   3.8006   3.8084
  3.8115   3.8148   3.8196   3.8287   3.8326   3.8411   3.8429   3.8452
  3.8573   3.8594   3.8687   3.8749   3.8833   3.8967   3.9025   3.9115
  3.9150   3.9184   3.9220   3.9330   3.9438   3.9506   3.9547   3.9614
  3.9654   3.9733   3.9757   3.9790   3.9902   3.9927   4.0097   4.0125
  4.0204   4.0338   4.0404   4.0483   4.0544   4.0604   4.0687   4.0758
  4.0797   4.1062   4.1089   4.1205   4.1255   4.1309   4.1373   4.1430
  4.1517   4.1591   4.1631   4.1675   4.1714   4.1760   4.1877   4.1947
  4.2121   4.2292   4.2399   4.2432   4.2467   4.2570   4.2616   4.2698
  4.2719   4.2804   4.2825   4.2866   4.2966   4.3020   4.3063   4.3117
  4.3119   4.3219   4.3262   4.3301   4.3403   4.3428   4.3514   4.3578
  4.3655   4.3679   4.3687   4.3741   4.3759   4.3883   4.3978   4.4061
  4.4097   4.4101   4.4126   4.4134   4.4261   4.4466   4.4507   4.4683
  4.4784   4.4870   4.4938   4.5029   4.5152   4.5195   4.5250   4.5304
  4.5407   4.5472   4.5505   4.5604   4.5713   4.5790   4.5871   4.5914
  4.5932   4.6014   4.6081   4.6155   4.6165   4.6221   4.6317   4.6423
  4.6550   4.6581   4.6810   4.6876   4.6955   4.6982   4.7059   4.7142
  4.7221   4.7384   4.7600   4.7617   4.7805   4.7862   4.7911   4.8016
  4.8191   4.8329   4.8404   4.8507   4.8546   4.8640   4.8818   4.8843
  4.8927   4.9041   4.9219   4.9278   4.9488   4.9552   4.9790   4.9836
  4.9923   4.9981   5.0134   5.0197   5.0290   5.0360   5.0537   5.0578
  5.0941   5.0985   5.1130   5.1189   5.1215   5.1343   5.1375   5.1489
  5.1675   5.1743   5.1779   5.1856   5.1985   5.2048   5.2256   5.2321
  5.2614   5.2644   5.2853   5.2873   5.2973   5.3129   5.3285   5.3305
  5.3392   5.3424   5.3616   5.3750   5.3789   5.3901   5.4020   5.4147
  5.4400   5.4425   5.4768   5.4868   5.4937   5.5111   5.5131   5.5168
  5.5220   5.5306   5.5503   5.5542   5.5548   5.5656   5.5669   5.5683
  5.5778   5.5855   5.5934   5.6043   5.6091   5.6225   5.6264   5.6360
  5.6472   5.6497   5.6610   5.6646   5.6658   5.6707   5.6819   5.6934
  5.6989   5.7109   5.7211   5.7467   5.7534   5.7668   5.7725   5.7836
  5.7867   5.7882   5.8263   5.8314   5.8469   5.8654   5.8994   5.9172
  5.9431   5.9629   5.9704   5.9861   6.0110   6.0389   6.0474   6.0517
  6.0656   6.0850   6.1125   6.1169   6.1262   6.1451   6.1714   6.1877
  6.2061   6.2204   6.2253   6.2275   6.2522   6.2757   6.2792   6.2829
  6.3086   6.3200   6.3253   6.3580   6.3690   6.3921   6.4464   6.4873
  6.5237   6.5336   6.5779   6.5826   6.6027   6.6295   6.6584   6.6693
  6.6735   6.7245   6.8504   6.8547   6.8908   6.9016   6.9055   6.9264
  6.9287   6.9839   7.1054   7.1320   7.1556   7.1984   7.2100   7.2512
  7.3470   7.3512   7.3578   7.3686   7.4774   7.5436   7.5714   7.5837
  7.5941   7.6294   7.6549   7.6931   7.7048   7.7629   8.9458  10.0529
 10.4289  11.2899  11.5532  11.7880  12.0327  12.1635  12.4278  12.5232
 13.0042  13.2609  13.4645  13.5933  13.7983  13.9368  14.1132  14.3066
 14.3332  14.3769  14.5891  14.7990  15.0728  15.6329  15.8502  16.3519
 --------------------------------------------------------------
 
          Ground-State Mulliken Net Atomic Charges

     Atom                 Charge (a.u.)
  ----------------------------------------
      1 C                    -0.084299
      2 C                    -0.031115
      3 C                    -0.103928
      4 C                    -0.123795
      5 H                     0.199277
      6 C                     0.025462
      7 C                     0.117142
      8 C                    -0.045301
      9 C                    -0.203707
     10 C                    -0.164928
     11 C                     0.161699
     12 H                     0.183495
     13 C                     0.341684
     14 C                     0.346111
     15 N                    -0.090045
     16 C                     0.358453
     17 C                     0.381770
     18 N                    -0.088813
     19 O                    -0.493393
     20 O                    -0.506539
     21 O                    -0.500500
     22 O                    -0.483339
     23 C                    -0.204802
     24 H                     0.139587
     25 H                     0.109711
     26 H                     0.109364
     27 C                    -0.198510
     28 H                     0.134327
     29 H                     0.111417
     30 H                     0.112473
     31 C                     0.017890
     32 S                    -0.009310
     33 C                    -0.225503
     34 C                    -0.180994
     35 C                    -0.232965
     36 H                     0.218989
     37 H                     0.190117
     38 H                     0.214635
     39 H                     0.138308
     40 H                     0.138544
     41 H                     0.221330
  ----------------------------------------
  Sum of atomic charges =     0.000000

 -----------------------------------------------------------------
                    Cartesian Multipole Moments
 -----------------------------------------------------------------
    Charge (ESU x 10^10)
                -0.0000
    Dipole Moment (Debye)
         X       1.1353      Y       1.4021      Z      -2.3205
       Tot       2.9393
    Quadrupole Moments (Debye-Ang)
        XX    -162.7942     XY       2.6937     YY    -176.7847
        XZ      -5.5239     YZ       9.4207     ZZ    -187.7086
    Octopole Moments (Debye-Ang^2)
       XXX     -31.0920    XXY     463.1845    XYY      -8.7964
       YYY    1672.2253    XXZ      -2.0593    XYZ      24.8584
       YYZ     -56.1263    XZZ      -7.2449    YZZ     602.3578
       ZZZ      -8.2198
    Hexadecapole Moments (Debye-Ang^3)
      XXXX    -408.3401   XXXY     -10.4839   XXYY   -2690.4925
      XYYY     164.6463   YYYY  -17957.0275   XXXZ    -505.6708
      XXYZ      99.0426   XYYZ    -312.0418   YYYZ    1127.6988
      XXZZ   -1089.2369   XYZZ     -47.0020   YYZZ   -4429.3431
      XZZZ    -570.4257   YZZZ      10.8621   ZZZZ   -6422.6807
 -----------------------------------------------------------------
 Total job time:  302.26s(wall), 9206.21s(cpu) 
 Wed Dec 27 12:51:34 2023

        *************************************************************
        *                                                           *
        *  Thank you very much for using Q-Chem.  Have a nice day.  *
        *                                                           *
        *************************************************************


0 sent ACK to 0 
now end server 0 ... 
cleanup process ... done
remove work dirs ./qchem1530456.0 -- ./qchem1530456.0
rm -rf ./qchem1530456.0
rm -rf ./qchem1530456
