You are running Q-Chem version: 5.4.0

#
# job setting
#
local host:  exp-2-23
current dir: /home/rramji/project-csd799/aromodel/pndit-qchem/hydrogenated-rotation-run
input file:  Dimethyl_Naphthalene_Dicarboximide_Phi_30_Theta_290_Thiophene_Hydrogenated.qcin
output file: 
nprocs     : 1
nthreads   : 64
#
# qchem installation setting
#
QC:          /cm/shared/apps/spack/cpu/opt/spack/linux-centos8-zen2/gcc-10.2.0/qchem-5.4-akfmr7b3t57bfs6qan3padb2wnb2i7cl
QCAUX:       /cm/shared/apps/spack/cpu/opt/spack/linux-centos8-zen2/gcc-10.2.0/qchem-5.4-akfmr7b3t57bfs6qan3padb2wnb2i7cl/qcaux
QCPROG:      /cm/shared/apps/spack/cpu/opt/spack/linux-centos8-zen2/gcc-10.2.0/qchem-5.4-akfmr7b3t57bfs6qan3padb2wnb2i7cl/exe/qcprog.exe
QCPROG_S:    /cm/shared/apps/spack/cpu/opt/spack/linux-centos8-zen2/gcc-10.2.0/qchem-5.4-akfmr7b3t57bfs6qan3padb2wnb2i7cl/exe/qcprog.exe_s
PARALLEL:    -DPARALLEL
QCMPI:       mpich
#
# qchem directory setting
#
qcrun:       qchem1347724
QCSCRATCH:   .
QCLOCALSCR:  
QCTMPDIR:    .
QCFILEPREF:  ./qchem1347724
QCSAVEDIR:   
workdirs:    ./qchem1347724
workdir0:    ./qchem1347724
partmpdirs =  
#
# parallel setting
#
QCRSH:           ssh
QCMPI:           mpich
QCMPIRUN:        /cm/shared/apps/spack/cpu/opt/spack/linux-centos8-zen2/gcc-10.2.0/qchem-5.4-akfmr7b3t57bfs6qan3padb2wnb2i7cl/bin/mpi/mpirun_qchem
QCMACHINEFILE:   ./qchem1347724/hostfile
exp-2-23

#
# env setting
#
exported envs:   QC QCAUX QCSCRATCH QCRUNNAME QCFILEPREF QCPROG QCPROG_S GUIFILE

Running Job 1 of 1 Dimethyl_Naphthalene_Dicarboximide_Phi_30_Theta_290_Thiophene_Hydrogenated.qcin
qchem Dimethyl_Naphthalene_Dicarboximide_Phi_30_Theta_290_Thiophene_Hydrogenated.qcin_1347724.0 ./qchem1347724/ 1
/cm/shared/apps/spack/cpu/opt/spack/linux-centos8-zen2/gcc-10.2.0/qchem-5.4-akfmr7b3t57bfs6qan3padb2wnb2i7cl/bin/mpi/mpirun_qchem -machinefile ./qchem1347724/hostfile -np 1 /cm/shared/apps/spack/cpu/opt/spack/linux-centos8-zen2/gcc-10.2.0/qchem-5.4-akfmr7b3t57bfs6qan3padb2wnb2i7cl/exe/qcprog.exe Dimethyl_Naphthalene_Dicarboximide_Phi_30_Theta_290_Thiophene_Hydrogenated.qcin_1347724.0 ./qchem1347724/

Process 0 of 1 is on exp-2-23 - thread support 0
initial socket setup ...start
initial socket setup ...done 
now start server 0 ... 
                  Welcome to Q-Chem
     A Quantum Leap Into The Future Of Chemistry


 Q-Chem 5.4, Q-Chem, Inc., Pleasanton, CA (2021)

 License issued to: University of California, San Diego (site)

 E. Epifanovsky,  A. T. B. Gilbert,  Xintian Feng,  Joonho Lee,  Yuezhi Mao,  
 N. Mardirossian,  P. Pokhilko,  A. White,  M. Wormit,  M. P. Coons,  
 A. L. Dempwolff,  Zhengting Gan,  D. Hait,  P. R. Horn,  L. D. Jacobson,  
 I. Kaliman,  J. Kussmann,  A. W. Lange,  Ka Un Lao,  D. S. Levine,  Jie Liu,  
 S. C. McKenzie,  A. F. Morrison,  K. Nanda,  F. Plasser,  D. R. Rehn,  
 M. L. Vidal,  Zhi-Qiang You,  Ying Zhu,  B. Alam,  B. Albrecht,  
 A. Aldossary,  E. Alguire,  J. H. Andersen,  D. Barton,  K. Begam,  A. Behn,  
 Y. A. Bernard,  E. J. Berquist,  H. Burton,  A. Carreras,  K. Carter-Fenk,  
 R. Chakraborty,  A. D. Chien,  K. D. Closser,  V. Cofer-Shabica,  
 S. Dasgupta,  Jia Deng,  M. de Wergifosse,  M. Diedenhofen,  Hainam Do,  
 S. Ehlert,  Po-Tung Fang,  S. Fatehi,  Qingguo Feng,  J. Gayvert,  
 Qinghui Ge,  G. Gidofalvi,  M. Goldey,  J. Gomes,  C. Gonzalez-Espinoza,  
 S. Gulania,  A. Gunina,  M. W. D. Hanson-Heine,  P. H. P. Harbach,  
 A. W. Hauser,  M. F. Herbst,  M. Hernandez Vera,  M. Hodecker,  
 Z. C. Holden,  S. Houck,  Xunkun Huang,  Kerwin Hui,  B. C. Huynh,  
 M. Ivanov,  Hyunjun Ji,  Hanjie Jiang,  B. Kaduk,  S. Kaehler,  
 K. Khistyaev,  Jaehoon Kim,  P. Klunzinger,  Z. Koczor-Benda,  
 Joong Hoon Koh,  D. Kosenkov,  L. Koulias,  T. Kowalczyk,  C. M. Krauter,  
 K. Kue,  A. Kunitsa,  T. Kus,  A. Landau,  K. V. Lawler,  D. Lefrancois,  
 S. Lehtola,  Rain Li,  Yi-Pei Li,  Jiashu Liang,  M. Liebenthal,  
 Hung-Hsuan Lin,  You-Sheng Lin,  Fenglai Liu,  Kuan-Yu Liu,  
 M. Loipersberger,  A. Luenser,  A. Manjanath,  P. Manohar,  E. Mansoor,  
 S. F. Manzer,  Shan-Ping Mao,  A. V. Marenich,  T. Markovich,  S. Mason,  
 S. A. Maurer,  P. F. McLaughlin,  M. F. S. J. Menger,  J.-M. Mewes,  
 S. A. Mewes,  P. Morgante,  J. W. Mullinax,  T. S. Nguyen-Beck,  
 K. J. Oosterbaan,  G. Paran,  Alexander C. Paul,  Suranjan K. Paul,  
 F. Pavosevic,  Zheng Pei,  S. Prager,  E. I. Proynov,  E. Ramos,  B. Rana,  
 A. E. Rask,  A. Rettig,  R. M. Richard,  F. Rob,  E. Rossomme,  T. Scheele,  
 M. Scheurer,  M. Schneider,  N. Sergueev,  S. M. Sharada,  W. Skomorowski,  
 D. W. Small,  C. J. Stein,  Yu-Chuan Su,  E. J. Sundstrom,  Zhen Tao,  
 J. Thirman,  T. Tsuchimochi,  N. M. Tubman,  S. P. Veccham,  O. Vydrov,  
 J. Wenzel,  J. Witte,  A. Yamada,  Kun Yao,  S. Yeganeh,  S. R. Yost,  
 A. Zech,  Igor Ying Zhang,  Xing Zhang,  Yu Zhang,  D. Zuev,  
 A. Aspuru-Guzik,  A. T. Bell,  N. A. Besley,  K. B. Bravaya,  B. R. Brooks,  
 D. Casanova,  Jeng-Da Chai,  S. Coriani,  C. J. Cramer,  
 A. E. DePrince, III,  R. A. DiStasio Jr.,  A. Dreuw,  B. D. Dunietz,  
 T. R. Furlani,  W. A. Goddard III,  S. Grimme,  S. Hammes-Schiffer,  
 T. Head-Gordon,  W. J. Hehre,  Chao-Ping Hsu,  T.-C. Jagau,  Yousung Jung,  
 A. Klamt,  Jing Kong,  D. S. Lambrecht,  WanZhen Liang,  N. J. Mayhall,  
 C. W. McCurdy,  J. B. Neaton,  C. Ochsenfeld,  J. A. Parkhill,  R. Peverati,  
 V. A. Rassolov,  Yihan Shao,  L. V. Slipchenko,  T. Stauch,  R. P. Steele,  
 J. E. Subotnik,  A. J. W. Thom,  A. Tkatchenko,  D. G. Truhlar,  
 T. Van Voorhis,  T. A. Wesolowski,  K. B. Whaley,  H. L. Woodcock III,  
 P. M. Zimmerman,  S. Faraji,  P. M. W. Gill,  M. Head-Gordon,  
 J. M. Herbert,  A. I. Krylov

 Contributors to earlier versions of Q-Chem not listed above: 
 R. D. Adamson,  B. Austin,  R. Baer,  J. Baker,  G. J. O. Beran,  
 K. Brandhorst,  S. T. Brown,  E. F. C. Byrd,  A. K. Chakraborty,  
 G. K. L. Chan,  Chun-Min Chang,  Yunqing Chen,  C.-L. Cheng,  
 Siu Hung Chien,  D. M. Chipman,  D. L. Crittenden,  H. Dachsel,  
 R. J. Doerksen,  A. D. Dutoi,  R. G. Edgar,  J. Fosso-Tande,  
 L. Fusti-Molnar,  D. Ghosh,  A. Ghysels,  A. Golubeva-Zadorozhnaya,  
 J. Gonthier,  M. S. Gordon,  S. R. Gwaltney,  G. Hawkins,  J. E. Herr,  
 A. Heyden,  S. Hirata,  E. G. Hohenstein,  G. Kedziora,  F. J. Keil,  
 C. Kelley,  Jihan Kim,  R. A. King,  R. Z. Khaliullin,  P. P. Korambath,  
 W. Kurlancheek,  A. Laurent,  A. M. Lee,  M. S. Lee,  S. V. Levchenko,  
 Ching Yeh Lin,  D. Liotard,  E. Livshits,  R. C. Lochan,  I. Lotan,  
 L. A. Martinez-Martinez,  P. E. Maslen,  N. Nair,  D. P. O'Neill,  
 D. Neuhauser,  E. Neuscamman,  C. M. Oana,  R. Olivares-Amaya,  R. Olson,  
 T. M. Perrine,  B. Peters,  P. A. Pieniazek,  A. Prociuk,  Y. M. Rhee,  
 J. Ritchie,  M. A. Rohrdanz,  E. Rosta,  N. J. Russ,  H. F. Schaefer III,  
 M. W. Schmidt,  N. E. Schultz,  S. Sharma,  N. Shenvi,  C. D. Sherrill,  
 A. C. Simmonett,  A. Sodt,  T. Stein,  D. Stuck,  K. S. Thanthiriwatte,  
 V. Vanovschi,  L. Vogt,  Tao Wang,  A. Warshel,  M. A. Watson,  
 C. F. Williams,  Q. Wu,  X. Xu,  Jun Yang,  W. Zhang,  Yan Zhao

 Please cite Q-Chem as follows:
 Y. Shao et al., Mol. Phys. 113, 184-215 (2015)
 DOI: 10.1080/00268976.2014.952696

 Q-Chem 5.4.0 for Intel X86 EM64T Linux

 Parts of Q-Chem use Armadillo 9.800.1 (Horizon Scraper).
 http://arma.sourceforge.net/

 Q-Chem begins on Wed Dec 27 12:23:35 2023  

 Host: 
0

     Scratch files written to ./qchem1347724//
 May1621 |scratch|qcdevops|jenkins|workspace|build_RNUM    
 Parallel job on  1  processors
 Processing $rem in /cm/shared/apps/spack/cpu/opt/spack/linux-centos8-zen2/gcc-10.2.0/qchem-5.4-akfmr7b3t57bfs6qan3padb2wnb2i7cl/config/preferences:
 Processing $rem in /home/rramji/.qchemrc:
 Symmetry turned off for PCM/SM12/SMD calculation
 Core orbitals will be frozen

 Checking the input file for inconsistencies... 	...done.

 Q-Chem warning in module forms1/BasisType.C, line 2236:

 You are not using the predefined 5D/6D in this basis set.


--------------------------------------------------------------
User input:
--------------------------------------------------------------
$molecule
0 1
C	-0.241938	-6.741404	-0.086486
C	-1.468983	-6.155638	-0.532960
C	0.776651	-5.791452	0.284733
C	-1.730681	-4.803786	-0.628455
H	-2.294130	-6.821518	-0.833086
C	0.502775	-4.378638	0.184300
C	-0.747353	-3.838032	-0.271086
C	1.484986	-3.413062	0.541191
C	-1.019042	-2.426473	-0.370703
C	1.226525	-2.059348	0.446468
C	0.000000	-1.478216	0.000000
H	2.052666	-1.394783	0.746717
C	2.131549	-6.187987	0.779832
C	2.829295	-3.798164	1.030596
N	3.057496	-5.170003	1.115461
C	-3.078712	-4.424987	-1.119034
C	-2.375300	-2.036627	-0.865151
N	-3.301374	-3.049156	-1.201176
O	2.498300	-7.353131	0.916355
O	3.697195	-2.986854	1.345486
O	-3.936224	-5.248946	-1.430379
O	-2.762805	-0.878829	-1.007714
C	4.384539	-5.563799	1.599576
H	4.426636	-6.664085	1.616121
H	4.550487	-5.147101	2.611458
H	5.162921	-5.148785	0.931037
C	-4.608454	-2.587487	-1.677382
H	-5.212668	-3.483329	-1.896168
H	-4.482719	-1.964972	-2.583531
H	-5.093988	-1.962932	-0.903674
C	0.000000	0.000000	0.000000
S	0.396411	0.687007	1.580530
C	1.215245	2.105322	0.904911
C	0.498850	0.864369	-0.985400
C	1.158885	2.007781	-0.493528
H	0.381046	0.660280	-2.059934
H	1.599289	2.770727	-1.152593
H	1.655514	2.868056	1.556025
H	0.165874	-7.361589	-0.893959
H	-0.449423	-7.361192	0.794290
H	0.369880	-1.478831	-1.014686
$end

$rem
JOBTYPE		SP
EXCHANGE	HF
CORRELATION	pRIMP2
BASIS		cc-pvtz
METHOD		rimp2
AUX_BASIS	rimp2-cc-pvtz
SOLVENT_METHOD	PCM
PURECART	11111
SYMMETRY	false
MEM_TOTAL	110000
SCF_CONVERGENCE = 6
THRESH=10
GUI = 2
$end



$solvent
dielectric 4.90
$end
--------------------------------------------------------------
 ----------------------------------------------------------------
             Standard Nuclear Orientation (Angstroms)
    I     Atom           X                Y                Z
 ----------------------------------------------------------------
    1      C      -0.2419380000    -6.7414040000    -0.0864860000
    2      C      -1.4689830000    -6.1556380000    -0.5329600000
    3      C       0.7766510000    -5.7914520000     0.2847330000
    4      C      -1.7306810000    -4.8037860000    -0.6284550000
    5      H      -2.2941300000    -6.8215180000    -0.8330860000
    6      C       0.5027750000    -4.3786380000     0.1843000000
    7      C      -0.7473530000    -3.8380320000    -0.2710860000
    8      C       1.4849860000    -3.4130620000     0.5411910000
    9      C      -1.0190420000    -2.4264730000    -0.3707030000
   10      C       1.2265250000    -2.0593480000     0.4464680000
   11      C       0.0000000000    -1.4782160000     0.0000000000
   12      H       2.0526660000    -1.3947830000     0.7467170000
   13      C       2.1315490000    -6.1879870000     0.7798320000
   14      C       2.8292950000    -3.7981640000     1.0305960000
   15      N       3.0574960000    -5.1700030000     1.1154610000
   16      C      -3.0787120000    -4.4249870000    -1.1190340000
   17      C      -2.3753000000    -2.0366270000    -0.8651510000
   18      N      -3.3013740000    -3.0491560000    -1.2011760000
   19      O       2.4983000000    -7.3531310000     0.9163550000
   20      O       3.6971950000    -2.9868540000     1.3454860000
   21      O      -3.9362240000    -5.2489460000    -1.4303790000
   22      O      -2.7628050000    -0.8788290000    -1.0077140000
   23      C       4.3845390000    -5.5637990000     1.5995760000
   24      H       4.4266360000    -6.6640850000     1.6161210000
   25      H       4.5504870000    -5.1471010000     2.6114580000
   26      H       5.1629210000    -5.1487850000     0.9310370000
   27      C      -4.6084540000    -2.5874870000    -1.6773820000
   28      H      -5.2126680000    -3.4833290000    -1.8961680000
   29      H      -4.4827190000    -1.9649720000    -2.5835310000
   30      H      -5.0939880000    -1.9629320000    -0.9036740000
   31      C       0.0000000000     0.0000000000     0.0000000000
   32      S       0.3964110000     0.6870070000     1.5805300000
   33      C       1.2152450000     2.1053220000     0.9049110000
   34      C       0.4988500000     0.8643690000    -0.9854000000
   35      C       1.1588850000     2.0077810000    -0.4935280000
   36      H       0.3810460000     0.6602800000    -2.0599340000
   37      H       1.5992890000     2.7707270000    -1.1525930000
   38      H       1.6555140000     2.8680560000     1.5560250000
   39      H       0.1658740000    -7.3615890000    -0.8939590000
   40      H      -0.4494230000    -7.3611920000     0.7942900000
   41      H       0.3698800000    -1.4788310000    -1.0146860000
 ----------------------------------------------------------------
 Nuclear Repulsion Energy =        2552.73843874 hartrees
 There are       98 alpha and       98 beta electrons
 Requested basis set is cc-pVTZ
 There are 356 shells and 1010 basis functions

 Total QAlloc Memory Limit 110000 MB
 Mega-Array Size       188 MB
 MEM_STATIC part       192 MB
 Discretize the solute cavity surface with Lebedev spheres
	Using 110 Lebedev grid points for each H atom
	Using 194 Lebedev grid points for other atoms
	Atomic van der Waals radii will be scaled by 1.20
 Remove points where switching function is < 1.0e-08
 Keep 2612 surface tesserae and discard 4166 interior tesserae
 Molecular Surface Area = 371.267 Angst**2
 Requested basis set is rimp2-cc-pVTZ
 There are 770 shells and 2648 basis functions
 A cutoff of  1.0D-10 yielded  34070 shell pairs
 There are    257432 function pairs (    333077 Cartesian)
 Smallest overlap matrix eigenvalue = 8.79E-06

 Q-Chem warning in module stvman/mkSTV.C, line 323:

 Overlap eigenvalue is smaller than square root of threshold
 Use THRESH >= 12 to get rid of this warning


 Scale SEOQF with 1.000000e-01/1.000000e-02/1.000000e-01

 Standard Electronic Orientation quadrupole field applied
 Nucleus-field energy     =     0.0000000408 hartrees
 Guess from superposition of atomic densities
 Warning:  Energy on first SCF cycle will be non-variational
 SAD guess density has 196.000000 electrons

 -----------------------------------------------------------------------
  General SCF calculation program by
  Eric Jon Sundstrom, Paul Horn, Yuezhi Mao, Dmitri Zuev, Alec White,
  David Stuck, Shaama M.S., Shane Yost, Joonho Lee, David Small,
  Daniel Levine, Susi Lehtola, Hugh Burton, Evgeny Epifanovsky,
  Bang C. Huynh
 -----------------------------------------------------------------------
 Hartree-Fock
 using 64 threads for integral computing
 -------------------------------------------------------
 OpenMP Integral computing Module                
 Release: version 1.0, May 2013, Q-Chem Inc. Pittsburgh 
 -------------------------------------------------------
 A restricted SCF calculation will be
 performed using DIIS
 SCF converges when DIIS error is below 1.0e-06
 ---------------------------------------
  Cycle       Energy         DIIS error
 ---------------------------------------
    1   -1583.1231250158      1.86e-02  
    2   -1571.1603648550      2.02e-03  
    3   -1571.4989568815      1.55e-03  
    4   -1571.7186710888      2.52e-04  
    5   -1571.7324030191      7.72e-05  
    6   -1571.7337934687      2.97e-05  
    7   -1571.7342042178      1.52e-05  
    8   -1571.7343151872      6.19e-06  
    9   -1571.7343341535      2.83e-06  
   10   -1571.7343378811      1.20e-06  
   11   -1571.7343390000      5.52e-07  Convergence criterion met
 ---------------------------------------
 SCF time:   CPU 6867.01s  wall 266.00s 

************** Final PCM Free Energy Summary **************
 G_electrostatic  =      -0.03136547 hartree =     -19.68213243 kcal/mol
 G_cavitation     =       0.00000000 hartree =       0.00000000 kcal/mol
 G_dispersion     =       0.00000000 hartree =       0.00000000 kcal/mol
 G_repulsion      =       0.00000000 hartree =       0.00000000 kcal/mol
 --------------------------------------------------
 Non-electrostatic Free Energy =       0.00000000 hartree =       0.00000000 kcal/mol
 Total                         =      -0.03136547 hartree =     -19.68213243 kcal/mol
 --------------------------------------------------
 SCF Energy (H0 + V/2)                       =   -1571.73433900 
 Solute Internal Energy (H0)                 =   -1571.70297353 
 Total Free Energy (H0 + V/2 + non-elec)     =   -1571.73433900 hartree
                                             = -986278.18361844 kcal/mol
***********************************************************

 SCF   energy in the final basis set =    -1571.7343390000
 Total energy in the final basis set =    -1571.7343390000


 --------------------------------------------------------------
  Generalized many-body perturbation theory program
  by Joonho Lee, Fazle Rob, Xintian Feng, Evgeny Epifanovsky

 No regularization used 
 (reg. param. = 0.0000e+00)
  (P|Q)^-1/2 Time:  CPU 184.09 s  wall 3.30 s

 In RI-MP2 calculation: 
 # of frozen core orbitals: 31

 Components of the RIMP2 correlation energy:
        aaaa    correlation energy =        -0.6155098606 a.u.
        abab    correlation energy =        -3.4271812717 a.u.
        bbbb    correlation energy =        -0.6155098606 a.u.
        non-Brillouin singles      =        -0.0000000000 a.u.
        total same-spin energy     =        -1.2310197211 a.u.
        total opposite-spin energy =        -3.4271812717 a.u.

 Total  RIMP2   correlation energy =        -4.6582009928 a.u.
        RIMP2         total energy =     -1576.3925399928 a.u.

 RI-MP2 Energy Time:  CPU 2026.78 s  wall 33.49 s
 
 --------------------------------------------------------------
 
                    Orbital Energies (a.u.)
 --------------------------------------------------------------
 
 Alpha MOs
 -- Occupied --
-91.9896 -20.5527 -20.5441 -20.5413 -20.5404 -15.6267 -15.6210 -11.3933
-11.3847 -11.3831 -11.3790 -11.3083 -11.3062 -11.3041 -11.3034 -11.2952
-11.2945 -11.2881 -11.2859 -11.2682 -11.2672 -11.2646 -11.2627 -11.2595
-11.2593 -11.2527 -11.2520  -8.9895  -6.6703  -6.6698  -6.6693  -1.4194
 -1.4120  -1.3970  -1.3911  -1.2618  -1.2552  -1.2301  -1.1886  -1.1526
 -1.1135  -1.0855  -1.0460  -0.9967  -0.9879  -0.9872  -0.9549  -0.9500
 -0.8963  -0.8871  -0.8758  -0.8587  -0.7953  -0.7777  -0.7702  -0.7629
 -0.7421  -0.7172  -0.7039  -0.6915  -0.6820  -0.6713  -0.6662  -0.6570
 -0.6466  -0.6435  -0.6354  -0.6331  -0.6303  -0.6272  -0.6216  -0.6044
 -0.5845  -0.5761  -0.5686  -0.5612  -0.5563  -0.5510  -0.5505  -0.5484
 -0.5474  -0.5432  -0.5204  -0.5129  -0.5068  -0.4837  -0.4754  -0.4643
 -0.4582  -0.4510  -0.4425  -0.4341  -0.4132  -0.4071  -0.3595  -0.3483
 -0.3299  -0.2874
 -- Virtual --
  0.0156   0.0433   0.0797   0.0917   0.1378   0.1501   0.1534   0.1602
  0.1639   0.1716   0.1782   0.1840   0.1847   0.1907   0.1996   0.2033
  0.2051   0.2217   0.2254   0.2283   0.2290   0.2305   0.2324   0.2372
  0.2654   0.2689   0.2949   0.3033   0.3117   0.3193   0.3227   0.3234
  0.3276   0.3388   0.3451   0.3472   0.3541   0.3579   0.3642   0.3673
  0.3725   0.3742   0.3832   0.3855   0.3881   0.3956   0.4007   0.4053
  0.4111   0.4205   0.4253   0.4344   0.4379   0.4415   0.4459   0.4465
  0.4508   0.4549   0.4615   0.4643   0.4691   0.4807   0.4884   0.4897
  0.4924   0.4999   0.5033   0.5123   0.5141   0.5203   0.5266   0.5269
  0.5306   0.5400   0.5457   0.5499   0.5540   0.5560   0.5631   0.5643
  0.5711   0.5734   0.5770   0.5801   0.5899   0.5911   0.5924   0.5965
  0.6019   0.6043   0.6081   0.6106   0.6120   0.6161   0.6232   0.6269
  0.6287   0.6318   0.6343   0.6371   0.6429   0.6437   0.6464   0.6493
  0.6531   0.6599   0.6658   0.6770   0.6793   0.6913   0.6928   0.6995
  0.7027   0.7144   0.7197   0.7309   0.7322   0.7363   0.7461   0.7576
  0.7626   0.7693   0.7710   0.7736   0.7824   0.7840   0.7863   0.7926
  0.7997   0.8037   0.8154   0.8233   0.8355   0.8413   0.8422   0.8492
  0.8542   0.8549   0.8583   0.8650   0.8674   0.8735   0.8759   0.8829
  0.8901   0.8978   0.9029   0.9070   0.9102   0.9250   0.9274   0.9300
  0.9335   0.9382   0.9459   0.9459   0.9546   0.9614   0.9684   0.9755
  0.9773   0.9804   0.9946   0.9969   1.0021   1.0067   1.0095   1.0135
  1.0253   1.0270   1.0350   1.0413   1.0505   1.0564   1.0599   1.0618
  1.0650   1.0704   1.0738   1.0781   1.0874   1.0882   1.0905   1.1033
  1.1108   1.1159   1.1219   1.1254   1.1317   1.1365   1.1402   1.1435
  1.1494   1.1553   1.1611   1.1664   1.1714   1.1730   1.1800   1.1819
  1.1888   1.1947   1.1990   1.2041   1.2108   1.2125   1.2139   1.2282
  1.2324   1.2372   1.2440   1.2515   1.2545   1.2568   1.2654   1.2684
  1.2850   1.2905   1.2940   1.3043   1.3099   1.3243   1.3285   1.3368
  1.3463   1.3508   1.3559   1.3649   1.3717   1.3720   1.3804   1.3880
  1.3889   1.3915   1.4004   1.4046   1.4178   1.4276   1.4377   1.4443
  1.4481   1.4594   1.4655   1.4728   1.4796   1.4860   1.4914   1.4938
  1.5006   1.5036   1.5114   1.5190   1.5242   1.5281   1.5331   1.5428
  1.5454   1.5476   1.5528   1.5555   1.5601   1.5660   1.5712   1.5716
  1.5852   1.5886   1.5966   1.6129   1.6170   1.6224   1.6331   1.6355
  1.6481   1.6517   1.6608   1.6663   1.6816   1.6868   1.6898   1.6924
  1.7009   1.7129   1.7146   1.7186   1.7338   1.7443   1.7469   1.7524
  1.7645   1.7654   1.7757   1.7810   1.7876   1.7975   1.8053   1.8118
  1.8175   1.8228   1.8341   1.8479   1.8484   1.8585   1.8685   1.8705
  1.8747   1.8828   1.8899   1.8935   1.9164   1.9201   1.9280   1.9429
  1.9452   1.9600   1.9672   1.9812   1.9864   1.9981   2.0118   2.0229
  2.0310   2.0364   2.0461   2.0525   2.0876   2.0954   2.1106   2.1154
  2.1328   2.1408   2.1439   2.1549   2.1853   2.1929   2.2015   2.2137
  2.2253   2.2324   2.2393   2.2728   2.2867   2.2930   2.2996   2.3082
  2.3118   2.3256   2.3326   2.3401   2.3575   2.3639   2.3702   2.3743
  2.3898   2.4166   2.4320   2.4385   2.4450   2.4568   2.4589   2.4658
  2.4733   2.4744   2.4824   2.5044   2.5101   2.5266   2.5321   2.5535
  2.5611   2.5635   2.5815   2.5880   2.5904   2.6035   2.6118   2.6141
  2.6217   2.6332   2.6359   2.6430   2.6482   2.6622   2.6758   2.6793
  2.6834   2.6922   2.6947   2.7104   2.7168   2.7204   2.7265   2.7386
  2.7468   2.7520   2.7553   2.7647   2.7741   2.7829   2.7920   2.8063
  2.8175   2.8290   2.8371   2.8392   2.8457   2.8550   2.8595   2.8691
  2.8716   2.8781   2.8853   2.8870   2.8959   2.8972   2.9092   2.9114
  2.9196   2.9254   2.9303   2.9369   2.9542   2.9581   2.9629   2.9729
  2.9833   2.9885   2.9907   3.0026   3.0048   3.0111   3.0164   3.0215
  3.0304   3.0392   3.0449   3.0524   3.0596   3.0697   3.0806   3.0856
  3.0925   3.0972   3.1029   3.1059   3.1084   3.1105   3.1204   3.1228
  3.1329   3.1368   3.1444   3.1509   3.1561   3.1662   3.1711   3.1720
  3.1787   3.1903   3.1945   3.1986   3.2067   3.2133   3.2153   3.2256
  3.2317   3.2366   3.2404   3.2413   3.2466   3.2539   3.2603   3.2646
  3.2677   3.2747   3.2774   3.2831   3.2975   3.2989   3.3063   3.3077
  3.3112   3.3197   3.3201   3.3256   3.3306   3.3316   3.3384   3.3419
  3.3449   3.3482   3.3515   3.3528   3.3639   3.3683   3.3692   3.3755
  3.3795   3.3839   3.3892   3.3908   3.3954   3.3982   3.4057   3.4134
  3.4172   3.4255   3.4265   3.4287   3.4339   3.4383   3.4430   3.4476
  3.4566   3.4596   3.4678   3.4702   3.4708   3.4784   3.4832   3.4872
  3.4911   3.5022   3.5084   3.5092   3.5163   3.5197   3.5234   3.5273
  3.5321   3.5347   3.5477   3.5532   3.5535   3.5596   3.5768   3.5832
  3.5880   3.5970   3.5992   3.6034   3.6053   3.6138   3.6223   3.6273
  3.6318   3.6328   3.6349   3.6377   3.6413   3.6483   3.6497   3.6621
  3.6626   3.6761   3.6824   3.6872   3.6945   3.7034   3.7074   3.7181
  3.7237   3.7294   3.7357   3.7405   3.7464   3.7479   3.7504   3.7558
  3.7588   3.7677   3.7728   3.7787   3.7868   3.7962   3.8001   3.8035
  3.8055   3.8112   3.8154   3.8175   3.8225   3.8350   3.8417   3.8440
  3.8518   3.8543   3.8575   3.8665   3.8712   3.8832   3.8934   3.9032
  3.9121   3.9184   3.9250   3.9338   3.9355   3.9471   3.9479   3.9547
  3.9611   3.9636   3.9655   3.9715   3.9785   3.9856   3.9985   4.0096
  4.0130   4.0265   4.0296   4.0331   4.0403   4.0576   4.0615   4.0662
  4.0861   4.0943   4.1097   4.1142   4.1242   4.1252   4.1355   4.1425
  4.1454   4.1613   4.1634   4.1720   4.1771   4.1785   4.1888   4.2054
  4.2067   4.2215   4.2364   4.2379   4.2416   4.2443   4.2573   4.2619
  4.2653   4.2718   4.2847   4.2861   4.2950   4.2990   4.3020   4.3077
  4.3107   4.3178   4.3242   4.3320   4.3364   4.3437   4.3453   4.3504
  4.3569   4.3656   4.3690   4.3706   4.3781   4.3835   4.3895   4.3932
  4.3987   4.4077   4.4138   4.4240   4.4267   4.4328   4.4481   4.4529
  4.4709   4.4732   4.4839   4.4935   4.5055   4.5152   4.5190   4.5245
  4.5336   4.5389   4.5453   4.5578   4.5650   4.5749   4.5813   4.5856
  4.5892   4.5977   4.6043   4.6064   4.6124   4.6221   4.6330   4.6489
  4.6561   4.6607   4.6658   4.6781   4.6833   4.6990   4.7037   4.7120
  4.7249   4.7372   4.7402   4.7477   4.7733   4.7829   4.7909   4.7953
  4.8091   4.8305   4.8385   4.8431   4.8480   4.8577   4.8731   4.8804
  4.8842   4.8953   4.9064   4.9242   4.9345   4.9442   4.9526   4.9749
  4.9974   5.0033   5.0092   5.0205   5.0286   5.0307   5.0513   5.0636
  5.0687   5.0986   5.1156   5.1205   5.1224   5.1262   5.1310   5.1422
  5.1482   5.1588   5.1640   5.1717   5.1890   5.2030   5.2047   5.2258
  5.2533   5.2631   5.2693   5.2829   5.2905   5.3115   5.3203   5.3284
  5.3313   5.3399   5.3481   5.3598   5.3791   5.3921   5.4033   5.4154
  5.4242   5.4469   5.4729   5.4873   5.4897   5.5027   5.5132   5.5148
  5.5175   5.5265   5.5388   5.5514   5.5570   5.5618   5.5667   5.5741
  5.5805   5.5841   5.5863   5.6086   5.6134   5.6146   5.6230   5.6319
  5.6430   5.6506   5.6601   5.6622   5.6667   5.6730   5.6926   5.6947
  5.7009   5.7063   5.7277   5.7375   5.7443   5.7581   5.7695   5.7772
  5.7829   5.7882   5.8140   5.8314   5.8429   5.8501   5.8976   5.9070
  5.9282   5.9555   5.9677   5.9891   5.9997   6.0163   6.0309   6.0388
  6.0418   6.0482   6.0892   6.1116   6.1232   6.1383   6.1448   6.1836
  6.1938   6.2192   6.2205   6.2257   6.2413   6.2533   6.2648   6.2840
  6.3074   6.3100   6.3243   6.3481   6.3658   6.3834   6.4026   6.4831
  6.5182   6.5323   6.5744   6.5831   6.6019   6.6155   6.6169   6.6594
  6.6712   6.6747   6.8425   6.8499   6.8882   6.9014   6.9046   6.9203
  6.9263   6.9298   7.1003   7.1083   7.1469   7.1914   7.1983   7.2348
  7.3472   7.3517   7.3554   7.3597   7.4750   7.5410   7.5695   7.5815
  7.5850   7.5954   7.6539   7.6730   7.6914   7.7125   8.7980   9.9796
 10.3167  11.3275  11.4794  11.7622  12.0040  12.1098  12.4115  12.4644
 12.9185  13.1974  13.3362  13.5587  13.7469  13.9222  14.1045  14.2856
 14.3114  14.3618  14.4698  14.5844  14.9849  15.6115  15.7893  16.3289
 --------------------------------------------------------------
 
          Ground-State Mulliken Net Atomic Charges

     Atom                 Charge (a.u.)
  ----------------------------------------
      1 C                    -0.084846
      2 C                    -0.033526
      3 C                    -0.111886
      4 C                    -0.120467
      5 H                     0.198184
      6 C                     0.019368
      7 C                     0.116975
      8 C                    -0.097913
      9 C                    -0.178416
     10 C                    -0.110407
     11 C                     0.148691
     12 H                     0.201990
     13 C                     0.343355
     14 C                     0.344155
     15 N                    -0.089938
     16 C                     0.357295
     17 C                     0.348947
     18 N                    -0.092076
     19 O                    -0.494874
     20 O                    -0.507133
     21 O                    -0.501709
     22 O                    -0.472193
     23 C                    -0.204953
     24 H                     0.139420
     25 H                     0.109234
     26 H                     0.108880
     27 C                    -0.197300
     28 H                     0.133152
     29 H                     0.110836
     30 H                     0.112144
     31 C                     0.027860
     32 S                     0.008628
     33 C                    -0.202926
     34 C                    -0.193663
     35 C                    -0.201800
     36 H                     0.183868
     37 H                     0.193655
     38 H                     0.211265
     39 H                     0.136838
     40 H                     0.137095
     41 H                     0.204193
  ----------------------------------------
  Sum of atomic charges =     0.000000

 -----------------------------------------------------------------
                    Cartesian Multipole Moments
 -----------------------------------------------------------------
    Charge (ESU x 10^10)
                 0.0000
    Dipole Moment (Debye)
         X       0.5819      Y       2.3667      Z      -2.0672
       Tot       3.1958
    Quadrupole Moments (Debye-Ang)
        XX    -189.4373     XY      12.6603     YY    -181.5835
        XZ     -10.4219     YZ       4.7617     ZZ    -159.9731
    Octopole Moments (Debye-Ang^2)
       XXX     -25.6221    XXY     595.7171    XYY     -49.3925
       YYY    1704.2426    XXZ      -8.7093    XYZ      48.1258
       YYZ     -28.3476    XZZ      -2.5888    YZZ     492.3089
       ZZZ     -38.5526
    Hexadecapole Moments (Debye-Ang^3)
      XXXX   -5741.9426   XXXY     -30.6569   XXYY   -4256.0508
      XYYY    1028.9899   YYYY  -18058.9373   XXXZ   -1070.1439
      XXYZ     -67.8650   XYYZ    -596.9851   YYYZ     376.3969
      XXZZ   -1131.7620   XYZZ      59.6626   YYZZ   -2856.9900
      XZZZ    -960.8981   YZZZ      79.7212   ZZZZ   -1145.1390
 -----------------------------------------------------------------
 Total job time:  303.79s(wall), 9018.59s(cpu) 
 Wed Dec 27 12:28:39 2023

        *************************************************************
        *                                                           *
        *  Thank you very much for using Q-Chem.  Have a nice day.  *
        *                                                           *
        *************************************************************


0 sent ACK to 0 
now end server 0 ... 
cleanup process ... done
remove work dirs ./qchem1347724.0 -- ./qchem1347724.0
rm -rf ./qchem1347724.0
rm -rf ./qchem1347724
