You are running Q-Chem version: 5.4.0

#
# job setting
#
local host:  exp-2-17
current dir: /home/rramji/project-csd799/aromodel/pndit-qchem/hydrogenated-rotation-run
input file:  Dimethyl_Naphthalene_Dicarboximide_Phi_20_Theta_130_Thiophene_Hydrogenated.qcin
output file: 
nprocs     : 1
nthreads   : 64
#
# qchem installation setting
#
QC:          /cm/shared/apps/spack/cpu/opt/spack/linux-centos8-zen2/gcc-10.2.0/qchem-5.4-akfmr7b3t57bfs6qan3padb2wnb2i7cl
QCAUX:       /cm/shared/apps/spack/cpu/opt/spack/linux-centos8-zen2/gcc-10.2.0/qchem-5.4-akfmr7b3t57bfs6qan3padb2wnb2i7cl/qcaux
QCPROG:      /cm/shared/apps/spack/cpu/opt/spack/linux-centos8-zen2/gcc-10.2.0/qchem-5.4-akfmr7b3t57bfs6qan3padb2wnb2i7cl/exe/qcprog.exe
QCPROG_S:    /cm/shared/apps/spack/cpu/opt/spack/linux-centos8-zen2/gcc-10.2.0/qchem-5.4-akfmr7b3t57bfs6qan3padb2wnb2i7cl/exe/qcprog.exe_s
PARALLEL:    -DPARALLEL
QCMPI:       mpich
#
# qchem directory setting
#
qcrun:       qchem28614
QCSCRATCH:   .
QCLOCALSCR:  
QCTMPDIR:    .
QCFILEPREF:  ./qchem28614
QCSAVEDIR:   
workdirs:    ./qchem28614
workdir0:    ./qchem28614
partmpdirs =  
#
# parallel setting
#
QCRSH:           ssh
QCMPI:           mpich
QCMPIRUN:        /cm/shared/apps/spack/cpu/opt/spack/linux-centos8-zen2/gcc-10.2.0/qchem-5.4-akfmr7b3t57bfs6qan3padb2wnb2i7cl/bin/mpi/mpirun_qchem
QCMACHINEFILE:   ./qchem28614/hostfile
exp-2-17

#
# env setting
#
exported envs:   QC QCAUX QCSCRATCH QCRUNNAME QCFILEPREF QCPROG QCPROG_S GUIFILE

Running Job 1 of 1 Dimethyl_Naphthalene_Dicarboximide_Phi_20_Theta_130_Thiophene_Hydrogenated.qcin
qchem Dimethyl_Naphthalene_Dicarboximide_Phi_20_Theta_130_Thiophene_Hydrogenated.qcin_28614.0 ./qchem28614/ 1
/cm/shared/apps/spack/cpu/opt/spack/linux-centos8-zen2/gcc-10.2.0/qchem-5.4-akfmr7b3t57bfs6qan3padb2wnb2i7cl/bin/mpi/mpirun_qchem -machinefile ./qchem28614/hostfile -np 1 /cm/shared/apps/spack/cpu/opt/spack/linux-centos8-zen2/gcc-10.2.0/qchem-5.4-akfmr7b3t57bfs6qan3padb2wnb2i7cl/exe/qcprog.exe Dimethyl_Naphthalene_Dicarboximide_Phi_20_Theta_130_Thiophene_Hydrogenated.qcin_28614.0 ./qchem28614/

Process 0 of 1 is on exp-2-17 - thread support 0
initial socket setup ...start
initial socket setup ...done 
now start server 0 ... 
                  Welcome to Q-Chem
     A Quantum Leap Into The Future Of Chemistry


 Q-Chem 5.4, Q-Chem, Inc., Pleasanton, CA (2021)

 License issued to: University of California, San Diego (site)

 E. Epifanovsky,  A. T. B. Gilbert,  Xintian Feng,  Joonho Lee,  Yuezhi Mao,  
 N. Mardirossian,  P. Pokhilko,  A. White,  M. Wormit,  M. P. Coons,  
 A. L. Dempwolff,  Zhengting Gan,  D. Hait,  P. R. Horn,  L. D. Jacobson,  
 I. Kaliman,  J. Kussmann,  A. W. Lange,  Ka Un Lao,  D. S. Levine,  Jie Liu,  
 S. C. McKenzie,  A. F. Morrison,  K. Nanda,  F. Plasser,  D. R. Rehn,  
 M. L. Vidal,  Zhi-Qiang You,  Ying Zhu,  B. Alam,  B. Albrecht,  
 A. Aldossary,  E. Alguire,  J. H. Andersen,  D. Barton,  K. Begam,  A. Behn,  
 Y. A. Bernard,  E. J. Berquist,  H. Burton,  A. Carreras,  K. Carter-Fenk,  
 R. Chakraborty,  A. D. Chien,  K. D. Closser,  V. Cofer-Shabica,  
 S. Dasgupta,  Jia Deng,  M. de Wergifosse,  M. Diedenhofen,  Hainam Do,  
 S. Ehlert,  Po-Tung Fang,  S. Fatehi,  Qingguo Feng,  J. Gayvert,  
 Qinghui Ge,  G. Gidofalvi,  M. Goldey,  J. Gomes,  C. Gonzalez-Espinoza,  
 S. Gulania,  A. Gunina,  M. W. D. Hanson-Heine,  P. H. P. Harbach,  
 A. W. Hauser,  M. F. Herbst,  M. Hernandez Vera,  M. Hodecker,  
 Z. C. Holden,  S. Houck,  Xunkun Huang,  Kerwin Hui,  B. C. Huynh,  
 M. Ivanov,  Hyunjun Ji,  Hanjie Jiang,  B. Kaduk,  S. Kaehler,  
 K. Khistyaev,  Jaehoon Kim,  P. Klunzinger,  Z. Koczor-Benda,  
 Joong Hoon Koh,  D. Kosenkov,  L. Koulias,  T. Kowalczyk,  C. M. Krauter,  
 K. Kue,  A. Kunitsa,  T. Kus,  A. Landau,  K. V. Lawler,  D. Lefrancois,  
 S. Lehtola,  Rain Li,  Yi-Pei Li,  Jiashu Liang,  M. Liebenthal,  
 Hung-Hsuan Lin,  You-Sheng Lin,  Fenglai Liu,  Kuan-Yu Liu,  
 M. Loipersberger,  A. Luenser,  A. Manjanath,  P. Manohar,  E. Mansoor,  
 S. F. Manzer,  Shan-Ping Mao,  A. V. Marenich,  T. Markovich,  S. Mason,  
 S. A. Maurer,  P. F. McLaughlin,  M. F. S. J. Menger,  J.-M. Mewes,  
 S. A. Mewes,  P. Morgante,  J. W. Mullinax,  T. S. Nguyen-Beck,  
 K. J. Oosterbaan,  G. Paran,  Alexander C. Paul,  Suranjan K. Paul,  
 F. Pavosevic,  Zheng Pei,  S. Prager,  E. I. Proynov,  E. Ramos,  B. Rana,  
 A. E. Rask,  A. Rettig,  R. M. Richard,  F. Rob,  E. Rossomme,  T. Scheele,  
 M. Scheurer,  M. Schneider,  N. Sergueev,  S. M. Sharada,  W. Skomorowski,  
 D. W. Small,  C. J. Stein,  Yu-Chuan Su,  E. J. Sundstrom,  Zhen Tao,  
 J. Thirman,  T. Tsuchimochi,  N. M. Tubman,  S. P. Veccham,  O. Vydrov,  
 J. Wenzel,  J. Witte,  A. Yamada,  Kun Yao,  S. Yeganeh,  S. R. Yost,  
 A. Zech,  Igor Ying Zhang,  Xing Zhang,  Yu Zhang,  D. Zuev,  
 A. Aspuru-Guzik,  A. T. Bell,  N. A. Besley,  K. B. Bravaya,  B. R. Brooks,  
 D. Casanova,  Jeng-Da Chai,  S. Coriani,  C. J. Cramer,  
 A. E. DePrince, III,  R. A. DiStasio Jr.,  A. Dreuw,  B. D. Dunietz,  
 T. R. Furlani,  W. A. Goddard III,  S. Grimme,  S. Hammes-Schiffer,  
 T. Head-Gordon,  W. J. Hehre,  Chao-Ping Hsu,  T.-C. Jagau,  Yousung Jung,  
 A. Klamt,  Jing Kong,  D. S. Lambrecht,  WanZhen Liang,  N. J. Mayhall,  
 C. W. McCurdy,  J. B. Neaton,  C. Ochsenfeld,  J. A. Parkhill,  R. Peverati,  
 V. A. Rassolov,  Yihan Shao,  L. V. Slipchenko,  T. Stauch,  R. P. Steele,  
 J. E. Subotnik,  A. J. W. Thom,  A. Tkatchenko,  D. G. Truhlar,  
 T. Van Voorhis,  T. A. Wesolowski,  K. B. Whaley,  H. L. Woodcock III,  
 P. M. Zimmerman,  S. Faraji,  P. M. W. Gill,  M. Head-Gordon,  
 J. M. Herbert,  A. I. Krylov

 Contributors to earlier versions of Q-Chem not listed above: 
 R. D. Adamson,  B. Austin,  R. Baer,  J. Baker,  G. J. O. Beran,  
 K. Brandhorst,  S. T. Brown,  E. F. C. Byrd,  A. K. Chakraborty,  
 G. K. L. Chan,  Chun-Min Chang,  Yunqing Chen,  C.-L. Cheng,  
 Siu Hung Chien,  D. M. Chipman,  D. L. Crittenden,  H. Dachsel,  
 R. J. Doerksen,  A. D. Dutoi,  R. G. Edgar,  J. Fosso-Tande,  
 L. Fusti-Molnar,  D. Ghosh,  A. Ghysels,  A. Golubeva-Zadorozhnaya,  
 J. Gonthier,  M. S. Gordon,  S. R. Gwaltney,  G. Hawkins,  J. E. Herr,  
 A. Heyden,  S. Hirata,  E. G. Hohenstein,  G. Kedziora,  F. J. Keil,  
 C. Kelley,  Jihan Kim,  R. A. King,  R. Z. Khaliullin,  P. P. Korambath,  
 W. Kurlancheek,  A. Laurent,  A. M. Lee,  M. S. Lee,  S. V. Levchenko,  
 Ching Yeh Lin,  D. Liotard,  E. Livshits,  R. C. Lochan,  I. Lotan,  
 L. A. Martinez-Martinez,  P. E. Maslen,  N. Nair,  D. P. O'Neill,  
 D. Neuhauser,  E. Neuscamman,  C. M. Oana,  R. Olivares-Amaya,  R. Olson,  
 T. M. Perrine,  B. Peters,  P. A. Pieniazek,  A. Prociuk,  Y. M. Rhee,  
 J. Ritchie,  M. A. Rohrdanz,  E. Rosta,  N. J. Russ,  H. F. Schaefer III,  
 M. W. Schmidt,  N. E. Schultz,  S. Sharma,  N. Shenvi,  C. D. Sherrill,  
 A. C. Simmonett,  A. Sodt,  T. Stein,  D. Stuck,  K. S. Thanthiriwatte,  
 V. Vanovschi,  L. Vogt,  Tao Wang,  A. Warshel,  M. A. Watson,  
 C. F. Williams,  Q. Wu,  X. Xu,  Jun Yang,  W. Zhang,  Yan Zhao

 Please cite Q-Chem as follows:
 Y. Shao et al., Mol. Phys. 113, 184-215 (2015)
 DOI: 10.1080/00268976.2014.952696

 Q-Chem 5.4.0 for Intel X86 EM64T Linux

 Parts of Q-Chem use Armadillo 9.800.1 (Horizon Scraper).
 http://arma.sourceforge.net/

 Q-Chem begins on Wed Dec 27 10:55:58 2023  

 Host: 
0

     Scratch files written to ./qchem28614//
 May1621 |scratch|qcdevops|jenkins|workspace|build_RNUM    
 Parallel job on  1  processors
 Processing $rem in /cm/shared/apps/spack/cpu/opt/spack/linux-centos8-zen2/gcc-10.2.0/qchem-5.4-akfmr7b3t57bfs6qan3padb2wnb2i7cl/config/preferences:
 Processing $rem in /home/rramji/.qchemrc:
 Symmetry turned off for PCM/SM12/SMD calculation
 Core orbitals will be frozen

 Checking the input file for inconsistencies... 	...done.

 Q-Chem warning in module forms1/BasisType.C, line 2236:

 You are not using the predefined 5D/6D in this basis set.


--------------------------------------------------------------
User input:
--------------------------------------------------------------
$molecule
0 1
C	0.197767	-6.741404	0.164018
C	1.198109	-6.155638	1.003240
C	-0.632428	-5.791452	-0.533192
C	1.411364	-4.803786	1.182482
H	1.870845	-6.821518	1.567483
C	-0.409419	-4.378638	-0.345145
C	0.609565	-3.838032	0.510347
C	-1.210332	-3.413062	-1.016449
C	0.830799	-2.426473	0.696879
C	-0.999856	-2.059348	-0.839039
C	-0.000000	-1.478216	-0.000000
H	-1.673483	-1.394783	-1.403737
C	-1.736282	-6.187987	-1.461835
C	-2.306183	-3.798164	-1.936119
N	-2.491597	-5.170003	-2.093916
C	2.510310	-4.424987	2.104529
C	1.936153	-2.036627	1.625377
N	2.691451	-3.049156	2.257873
O	-2.034222	-7.353131	-1.715561
O	-3.014044	-2.986854	-2.528858
O	3.209622	-5.248946	2.690385
O	2.251529	-0.878829	1.891876
C	-3.573032	-5.563799	-3.002711
H	-3.606932	-6.664085	-3.032655
H	-3.382888	-5.147101	-4.010326
H	-4.533125	-5.148785	-2.640711
C	3.756832	-2.587487	3.152408
H	4.249778	-3.483329	3.564653
H	3.328759	-1.964972	3.960905
H	4.477709	-1.962932	2.591422
C	0.000000	0.000000	0.000000
S	0.271091	0.745405	1.580530
C	0.831198	2.284363	0.904911
C	0.341175	0.937861	-0.985400
C	0.792631	2.178516	-0.493528
H	0.260601	0.716417	-2.059934
H	1.093860	3.006347	-1.152593
H	1.132330	3.111961	1.556025
H	-0.461623	-7.361589	0.783314
H	0.693983	-7.361192	-0.592677
H	-0.694617	-1.478831	0.826987
$end

$rem
JOBTYPE		SP
EXCHANGE	HF
CORRELATION	pRIMP2
BASIS		cc-pvtz
METHOD		rimp2
AUX_BASIS	rimp2-cc-pvtz
SOLVENT_METHOD	PCM
PURECART	11111
SYMMETRY	false
MEM_TOTAL	110000
SCF_CONVERGENCE = 6
THRESH=10
GUI = 2
$end



$solvent
dielectric 4.90
$end
--------------------------------------------------------------
 ----------------------------------------------------------------
             Standard Nuclear Orientation (Angstroms)
    I     Atom           X                Y                Z
 ----------------------------------------------------------------
    1      C       0.1977670000    -6.7414040000     0.1640180000
    2      C       1.1981090000    -6.1556380000     1.0032400000
    3      C      -0.6324280000    -5.7914520000    -0.5331920000
    4      C       1.4113640000    -4.8037860000     1.1824820000
    5      H       1.8708450000    -6.8215180000     1.5674830000
    6      C      -0.4094190000    -4.3786380000    -0.3451450000
    7      C       0.6095650000    -3.8380320000     0.5103470000
    8      C      -1.2103320000    -3.4130620000    -1.0164490000
    9      C       0.8307990000    -2.4264730000     0.6968790000
   10      C      -0.9998560000    -2.0593480000    -0.8390390000
   11      C       0.0000000000    -1.4782160000     0.0000000000
   12      H      -1.6734830000    -1.3947830000    -1.4037370000
   13      C      -1.7362820000    -6.1879870000    -1.4618350000
   14      C      -2.3061830000    -3.7981640000    -1.9361190000
   15      N      -2.4915970000    -5.1700030000    -2.0939160000
   16      C       2.5103100000    -4.4249870000     2.1045290000
   17      C       1.9361530000    -2.0366270000     1.6253770000
   18      N       2.6914510000    -3.0491560000     2.2578730000
   19      O      -2.0342220000    -7.3531310000    -1.7155610000
   20      O      -3.0140440000    -2.9868540000    -2.5288580000
   21      O       3.2096220000    -5.2489460000     2.6903850000
   22      O       2.2515290000    -0.8788290000     1.8918760000
   23      C      -3.5730320000    -5.5637990000    -3.0027110000
   24      H      -3.6069320000    -6.6640850000    -3.0326550000
   25      H      -3.3828880000    -5.1471010000    -4.0103260000
   26      H      -4.5331250000    -5.1487850000    -2.6407110000
   27      C       3.7568320000    -2.5874870000     3.1524080000
   28      H       4.2497780000    -3.4833290000     3.5646530000
   29      H       3.3287590000    -1.9649720000     3.9609050000
   30      H       4.4777090000    -1.9629320000     2.5914220000
   31      C       0.0000000000     0.0000000000     0.0000000000
   32      S       0.2710910000     0.7454050000     1.5805300000
   33      C       0.8311980000     2.2843630000     0.9049110000
   34      C       0.3411750000     0.9378610000    -0.9854000000
   35      C       0.7926310000     2.1785160000    -0.4935280000
   36      H       0.2606010000     0.7164170000    -2.0599340000
   37      H       1.0938600000     3.0063470000    -1.1525930000
   38      H       1.1323300000     3.1119610000     1.5560250000
   39      H      -0.4616230000    -7.3615890000     0.7833140000
   40      H       0.6939830000    -7.3611920000    -0.5926770000
   41      H      -0.6946170000    -1.4788310000     0.8269870000
 ----------------------------------------------------------------
 Nuclear Repulsion Energy =        2566.82747759 hartrees
 There are       98 alpha and       98 beta electrons
 Requested basis set is cc-pVTZ
 There are 356 shells and 1010 basis functions

 Total QAlloc Memory Limit 110000 MB
 Mega-Array Size       188 MB
 MEM_STATIC part       192 MB
 Discretize the solute cavity surface with Lebedev spheres
	Using 110 Lebedev grid points for each H atom
	Using 194 Lebedev grid points for other atoms
	Atomic van der Waals radii will be scaled by 1.20
 Remove points where switching function is < 1.0e-08
 Keep 2590 surface tesserae and discard 4188 interior tesserae
 Molecular Surface Area = 365.100 Angst**2
 Requested basis set is rimp2-cc-pVTZ
 There are 770 shells and 2648 basis functions
 A cutoff of  1.0D-10 yielded  34314 shell pairs
 There are    259602 function pairs (    336053 Cartesian)
 Smallest overlap matrix eigenvalue = 9.12E-06

 Q-Chem warning in module stvman/mkSTV.C, line 323:

 Overlap eigenvalue is smaller than square root of threshold
 Use THRESH >= 12 to get rid of this warning


 Scale SEOQF with 1.000000e-01/1.000000e-02/1.000000e-01

 Standard Electronic Orientation quadrupole field applied
 Nucleus-field energy     =    -0.0000000127 hartrees
 Guess from superposition of atomic densities
 Warning:  Energy on first SCF cycle will be non-variational
 SAD guess density has 196.000000 electrons

 -----------------------------------------------------------------------
  General SCF calculation program by
  Eric Jon Sundstrom, Paul Horn, Yuezhi Mao, Dmitri Zuev, Alec White,
  David Stuck, Shaama M.S., Shane Yost, Joonho Lee, David Small,
  Daniel Levine, Susi Lehtola, Hugh Burton, Evgeny Epifanovsky,
  Bang C. Huynh
 -----------------------------------------------------------------------
 Hartree-Fock
 using 64 threads for integral computing
 -------------------------------------------------------
 OpenMP Integral computing Module                
 Release: version 1.0, May 2013, Q-Chem Inc. Pittsburgh 
 -------------------------------------------------------
 A restricted SCF calculation will be
 performed using DIIS
 SCF converges when DIIS error is below 1.0e-06
 ---------------------------------------
  Cycle       Energy         DIIS error
 ---------------------------------------
    1   -1583.1449372458      1.86e-02  
    2   -1571.1422197075      2.03e-03  
    3   -1571.4800573323      1.56e-03  
    4   -1571.7031934883      2.53e-04  
    5   -1571.7170000026      7.87e-05  
    6   -1571.7184275755      3.04e-05  
    7   -1571.7188554891      1.57e-05  
    8   -1571.7189761849      6.51e-06  
    9   -1571.7189978837      3.04e-06  
   10   -1571.7190024481      1.28e-06  
   11   -1571.7190037966      5.81e-07  Convergence criterion met
 ---------------------------------------
 SCF time:   CPU 6811.66s  wall 258.00s 

************** Final PCM Free Energy Summary **************
 G_electrostatic  =      -0.02936310 hartree =     -18.42562286 kcal/mol
 G_cavitation     =       0.00000000 hartree =       0.00000000 kcal/mol
 G_dispersion     =       0.00000000 hartree =       0.00000000 kcal/mol
 G_repulsion      =       0.00000000 hartree =       0.00000000 kcal/mol
 --------------------------------------------------
 Non-electrostatic Free Energy =       0.00000000 hartree =       0.00000000 kcal/mol
 Total                         =      -0.02936310 hartree =     -18.42562286 kcal/mol
 --------------------------------------------------
 SCF Energy (H0 + V/2)                       =   -1571.71900380 
 Solute Internal Energy (H0)                 =   -1571.68964070 
 Total Free Energy (H0 + V/2 + non-elec)     =   -1571.71900380 hartree
                                             = -986268.56063304 kcal/mol
***********************************************************

 SCF   energy in the final basis set =    -1571.7190037966
 Total energy in the final basis set =    -1571.7190037966


 --------------------------------------------------------------
  Generalized many-body perturbation theory program
  by Joonho Lee, Fazle Rob, Xintian Feng, Evgeny Epifanovsky

 No regularization used 
 (reg. param. = 0.0000e+00)
  (P|Q)^-1/2 Time:  CPU 107.74 s  wall 2.41 s

 In RI-MP2 calculation: 
 # of frozen core orbitals: 31

 Components of the RIMP2 correlation energy:
        aaaa    correlation energy =        -0.6170048223 a.u.
        abab    correlation energy =        -3.4300483509 a.u.
        bbbb    correlation energy =        -0.6170048223 a.u.
        non-Brillouin singles      =        -0.0000000000 a.u.
        total same-spin energy     =        -1.2340096445 a.u.
        total opposite-spin energy =        -3.4300483509 a.u.

 Total  RIMP2   correlation energy =        -4.6640579954 a.u.
        RIMP2         total energy =     -1576.3830617920 a.u.

 RI-MP2 Energy Time:  CPU 2176.92 s  wall 36.07 s
 
 --------------------------------------------------------------
 
                    Orbital Energies (a.u.)
 --------------------------------------------------------------
 
 Alpha MOs
 -- Occupied --
-91.9813 -20.5484 -20.5442 -20.5415 -20.5403 -15.6265 -15.6211 -11.3925
-11.3849 -11.3834 -11.3788 -11.3089 -11.3076 -11.3054 -11.3046 -11.2966
-11.2879 -11.2864 -11.2806 -11.2687 -11.2681 -11.2639 -11.2628 -11.2594
-11.2526 -11.2520 -11.2444  -8.9815  -6.6621  -6.6615  -6.6613  -1.4202
 -1.4121  -1.3976  -1.3912  -1.2621  -1.2553  -1.2292  -1.1848  -1.1497
 -1.1138  -1.0856  -1.0466  -0.9937  -0.9878  -0.9801  -0.9548  -0.9498
 -0.8953  -0.8872  -0.8771  -0.8604  -0.7909  -0.7761  -0.7733  -0.7653
 -0.7329  -0.7180  -0.7024  -0.6903  -0.6795  -0.6697  -0.6675  -0.6571
 -0.6473  -0.6402  -0.6388  -0.6320  -0.6308  -0.6273  -0.6234  -0.6044
 -0.5851  -0.5725  -0.5653  -0.5618  -0.5580  -0.5514  -0.5506  -0.5480
 -0.5478  -0.5434  -0.5165  -0.5132  -0.5092  -0.4825  -0.4737  -0.4604
 -0.4550  -0.4481  -0.4423  -0.4342  -0.4125  -0.4074  -0.3528  -0.3346
 -0.3266  -0.2854
 -- Virtual --
  0.0141   0.0433   0.0909   0.0922   0.1359   0.1498   0.1548   0.1593
  0.1640   0.1714   0.1792   0.1828   0.1837   0.1936   0.1954   0.2040
  0.2128   0.2192   0.2270   0.2286   0.2319   0.2352   0.2369   0.2409
  0.2653   0.2694   0.3035   0.3069   0.3119   0.3182   0.3231   0.3278
  0.3300   0.3395   0.3446   0.3520   0.3557   0.3580   0.3633   0.3646
  0.3714   0.3764   0.3832   0.3877   0.3906   0.3925   0.3999   0.4023
  0.4193   0.4205   0.4326   0.4334   0.4348   0.4409   0.4481   0.4505
  0.4536   0.4555   0.4575   0.4652   0.4778   0.4835   0.4929   0.4950
  0.4973   0.5078   0.5134   0.5165   0.5177   0.5200   0.5227   0.5273
  0.5337   0.5367   0.5457   0.5482   0.5513   0.5580   0.5617   0.5667
  0.5716   0.5729   0.5759   0.5836   0.5902   0.5916   0.5954   0.6024
  0.6041   0.6069   0.6089   0.6114   0.6165   0.6185   0.6211   0.6256
  0.6278   0.6309   0.6351   0.6375   0.6406   0.6420   0.6462   0.6489
  0.6632   0.6669   0.6733   0.6795   0.6848   0.6918   0.6946   0.6983
  0.7073   0.7137   0.7212   0.7306   0.7368   0.7381   0.7448   0.7591
  0.7647   0.7689   0.7725   0.7803   0.7879   0.7915   0.7968   0.8006
  0.8089   0.8131   0.8199   0.8263   0.8305   0.8331   0.8420   0.8469
  0.8531   0.8556   0.8610   0.8647   0.8689   0.8750   0.8793   0.8842
  0.8922   0.9031   0.9057   0.9098   0.9184   0.9234   0.9287   0.9299
  0.9377   0.9438   0.9472   0.9499   0.9562   0.9676   0.9688   0.9792
  0.9808   0.9884   0.9955   0.9981   1.0053   1.0118   1.0169   1.0216
  1.0287   1.0301   1.0398   1.0425   1.0444   1.0538   1.0635   1.0649
  1.0692   1.0693   1.0736   1.0813   1.0824   1.0915   1.0996   1.1076
  1.1094   1.1149   1.1223   1.1303   1.1314   1.1343   1.1382   1.1432
  1.1491   1.1541   1.1593   1.1629   1.1662   1.1729   1.1781   1.1880
  1.1928   1.1969   1.2057   1.2080   1.2097   1.2138   1.2187   1.2294
  1.2318   1.2355   1.2394   1.2447   1.2533   1.2579   1.2617   1.2762
  1.2857   1.2918   1.2970   1.3066   1.3190   1.3248   1.3318   1.3342
  1.3468   1.3499   1.3635   1.3696   1.3711   1.3810   1.3830   1.3855
  1.3878   1.3896   1.4025   1.4051   1.4097   1.4188   1.4217   1.4382
  1.4500   1.4523   1.4656   1.4694   1.4737   1.4884   1.4924   1.4947
  1.5025   1.5060   1.5084   1.5180   1.5204   1.5237   1.5316   1.5371
  1.5455   1.5474   1.5520   1.5554   1.5617   1.5684   1.5709   1.5762
  1.5842   1.5888   1.5982   1.6042   1.6113   1.6291   1.6367   1.6403
  1.6481   1.6597   1.6642   1.6738   1.6820   1.6850   1.6883   1.6946
  1.7001   1.7080   1.7219   1.7240   1.7383   1.7486   1.7516   1.7530
  1.7571   1.7698   1.7794   1.7814   1.7858   1.7920   1.8083   1.8116
  1.8182   1.8247   1.8362   1.8485   1.8521   1.8644   1.8722   1.8727
  1.8739   1.8762   1.8835   1.8981   1.9140   1.9206   1.9238   1.9477
  1.9614   1.9683   1.9768   1.9850   1.9909   2.0005   2.0083   2.0311
  2.0372   2.0436   2.0548   2.0698   2.0936   2.1065   2.1178   2.1278
  2.1337   2.1386   2.1553   2.1655   2.1843   2.1966   2.2111   2.2249
  2.2376   2.2487   2.2593   2.2794   2.2894   2.2968   2.3054   2.3144
  2.3171   2.3300   2.3365   2.3424   2.3641   2.3701   2.3733   2.3899
  2.4049   2.4346   2.4401   2.4437   2.4557   2.4593   2.4631   2.4758
  2.4781   2.4881   2.4972   2.5075   2.5123   2.5171   2.5416   2.5530
  2.5606   2.5698   2.5779   2.5864   2.5909   2.6025   2.6095   2.6252
  2.6301   2.6374   2.6410   2.6512   2.6598   2.6677   2.6748   2.6811
  2.6904   2.6947   2.6973   2.7102   2.7269   2.7302   2.7320   2.7420
  2.7455   2.7473   2.7577   2.7618   2.7712   2.7749   2.7815   2.8006
  2.8039   2.8329   2.8371   2.8433   2.8494   2.8531   2.8625   2.8718
  2.8747   2.8803   2.8854   2.8920   2.8976   2.8998   2.9069   2.9166
  2.9234   2.9252   2.9332   2.9435   2.9438   2.9537   2.9617   2.9778
  2.9798   2.9864   2.9989   3.0062   3.0114   3.0198   3.0224   3.0303
  3.0392   3.0418   3.0490   3.0559   3.0625   3.0757   3.0787   3.0906
  3.0956   3.1008   3.1048   3.1073   3.1091   3.1156   3.1213   3.1289
  3.1325   3.1395   3.1467   3.1481   3.1578   3.1584   3.1696   3.1722
  3.1884   3.1931   3.1969   3.2046   3.2053   3.2118   3.2180   3.2255
  3.2298   3.2340   3.2419   3.2461   3.2552   3.2586   3.2614   3.2678
  3.2723   3.2769   3.2801   3.2853   3.2948   3.2999   3.3050   3.3080
  3.3110   3.3149   3.3217   3.3228   3.3311   3.3344   3.3367   3.3403
  3.3440   3.3495   3.3517   3.3537   3.3603   3.3672   3.3704   3.3748
  3.3810   3.3875   3.3919   3.3925   3.4000   3.4024   3.4027   3.4103
  3.4169   3.4220   3.4242   3.4315   3.4345   3.4423   3.4441   3.4559
  3.4593   3.4613   3.4665   3.4681   3.4779   3.4803   3.4838   3.4914
  3.4930   3.5038   3.5064   3.5077   3.5120   3.5158   3.5224   3.5325
  3.5346   3.5391   3.5454   3.5487   3.5543   3.5610   3.5640   3.5820
  3.5873   3.5950   3.5991   3.6037   3.6074   3.6194   3.6222   3.6258
  3.6271   3.6319   3.6376   3.6428   3.6487   3.6498   3.6536   3.6603
  3.6685   3.6757   3.6795   3.6921   3.6962   3.7017   3.7113   3.7157
  3.7215   3.7277   3.7308   3.7386   3.7435   3.7467   3.7489   3.7526
  3.7600   3.7636   3.7676   3.7705   3.7769   3.7951   3.8004   3.8018
  3.8089   3.8149   3.8196   3.8255   3.8312   3.8368   3.8395   3.8446
  3.8475   3.8529   3.8599   3.8667   3.8835   3.8912   3.8935   3.9070
  3.9121   3.9178   3.9242   3.9306   3.9347   3.9408   3.9497   3.9513
  3.9557   3.9590   3.9688   3.9735   3.9827   3.9873   3.9976   4.0097
  4.0182   4.0235   4.0294   4.0369   4.0441   4.0575   4.0736   4.0811
  4.0845   4.1002   4.1122   4.1197   4.1229   4.1318   4.1417   4.1468
  4.1490   4.1572   4.1673   4.1709   4.1713   4.1843   4.1862   4.2082
  4.2126   4.2209   4.2303   4.2362   4.2425   4.2457   4.2536   4.2651
  4.2724   4.2747   4.2786   4.2842   4.2923   4.2951   4.3014   4.3083
  4.3161   4.3203   4.3261   4.3289   4.3336   4.3414   4.3473   4.3578
  4.3630   4.3667   4.3700   4.3712   4.3785   4.3824   4.3905   4.3942
  4.3995   4.4076   4.4192   4.4220   4.4321   4.4421   4.4442   4.4531
  4.4589   4.4789   4.4912   4.4971   4.5013   4.5128   4.5198   4.5250
  4.5370   4.5409   4.5502   4.5570   4.5589   4.5710   4.5788   4.5822
  4.5904   4.5944   4.5983   4.6142   4.6179   4.6227   4.6260   4.6394
  4.6473   4.6494   4.6673   4.6756   4.6848   4.6888   4.6992   4.7122
  4.7158   4.7243   4.7400   4.7650   4.7767   4.7824   4.7943   4.7956
  4.8091   4.8222   4.8282   4.8405   4.8546   4.8585   4.8766   4.8792
  4.8846   4.8963   4.9115   4.9154   4.9337   4.9436   4.9511   4.9735
  4.9936   5.0088   5.0193   5.0285   5.0330   5.0445   5.0559   5.0661
  5.0721   5.0769   5.1020   5.1111   5.1218   5.1241   5.1317   5.1364
  5.1440   5.1531   5.1728   5.1772   5.1898   5.1952   5.2199   5.2324
  5.2620   5.2663   5.2721   5.2827   5.2894   5.3037   5.3232   5.3291
  5.3324   5.3427   5.3544   5.3719   5.3785   5.3857   5.4041   5.4162
  5.4349   5.4516   5.4755   5.4863   5.4937   5.5047   5.5140   5.5154
  5.5180   5.5407   5.5479   5.5494   5.5593   5.5666   5.5693   5.5732
  5.5803   5.5845   5.5878   5.5973   5.6097   5.6159   5.6202   5.6321
  5.6487   5.6498   5.6605   5.6635   5.6665   5.6692   5.6938   5.6991
  5.7019   5.7090   5.7331   5.7380   5.7577   5.7652   5.7712   5.7743
  5.7851   5.7869   5.8030   5.8313   5.8443   5.8537   5.9040   5.9242
  5.9311   5.9556   5.9818   5.9906   6.0228   6.0295   6.0401   6.0447
  6.0577   6.0723   6.1047   6.1127   6.1233   6.1443   6.1555   6.1914
  6.2027   6.2204   6.2253   6.2260   6.2481   6.2647   6.2790   6.2835
  6.3061   6.3114   6.3252   6.3489   6.3664   6.3825   6.4388   6.4849
  6.5208   6.5345   6.5762   6.5830   6.6050   6.6196   6.6534   6.6602
  6.6695   6.6758   6.8495   6.8504   6.8895   6.9028   6.9068   6.9230
  6.9274   6.9750   7.1038   7.1141   7.1483   7.1955   7.1997   7.2367
  7.3478   7.3522   7.3582   7.3631   7.4760   7.5433   7.5709   7.5836
  7.5920   7.6143   7.6543   7.6826   7.6932   7.7153   8.8384  10.0737
 10.3335  11.3121  11.5186  11.7511  12.0119  12.1152  12.4182  12.4623
 12.9126  13.2163  13.3355  13.5531  13.7879  13.9348  14.1174  14.2792
 14.3141  14.3671  14.5239  14.5562  15.0378  15.6063  15.8323  16.3179
 --------------------------------------------------------------
 
          Ground-State Mulliken Net Atomic Charges

     Atom                 Charge (a.u.)
  ----------------------------------------
      1 C                    -0.084462
      2 C                    -0.030091
      3 C                    -0.111938
      4 C                    -0.121758
      5 H                     0.198793
      6 C                     0.011765
      7 C                     0.119716
      8 C                    -0.090692
      9 C                    -0.199854
     10 C                    -0.146994
     11 C                     0.238196
     12 H                     0.193522
     13 C                     0.343276
     14 C                     0.350010
     15 N                    -0.089823
     16 C                     0.355989
     17 C                     0.388908
     18 N                    -0.090629
     19 O                    -0.494841
     20 O                    -0.507700
     21 O                    -0.502038
     22 O                    -0.466928
     23 C                    -0.204706
     24 H                     0.139448
     25 H                     0.108992
     26 H                     0.109016
     27 C                    -0.197183
     28 H                     0.133404
     29 H                     0.111016
     30 H                     0.111528
     31 C                    -0.081455
     32 S                     0.042132
     33 C                    -0.204053
     34 C                    -0.174673
     35 C                    -0.217541
     36 H                     0.190314
     37 H                     0.188328
     38 H                     0.209735
     39 H                     0.137574
     40 H                     0.137714
     41 H                     0.197982
  ----------------------------------------
  Sum of atomic charges =     0.000000

 -----------------------------------------------------------------
                    Cartesian Multipole Moments
 -----------------------------------------------------------------
    Charge (ESU x 10^10)
                 0.0000
    Dipole Moment (Debye)
         X       1.3598      Y       1.9764      Z       0.7571
       Tot       2.5156
    Quadrupole Moments (Debye-Ang)
        XX    -180.7537     XY      -2.2148     YY    -180.1844
        XZ     -15.1781     YZ      -5.9351     ZZ    -169.3565
    Octopole Moments (Debye-Ang^2)
       XXX     -85.3717    XXY     545.7791    XYY      30.3991
       YYY    1691.1442    XXZ     -25.7483    XYZ      71.8115
       YYZ      20.8221    XZZ     -23.1351    YZZ     530.1227
       ZZZ     -83.3510
    Hexadecapole Moments (Debye-Ang^3)
      XXXX   -3782.4824   XXXY    -226.5956   XXYY   -3721.1360
      XYYY    -942.5879   YYYY  -18056.3093   XXXZ   -1555.2112
      XXYZ      31.9009   XYYZ    -913.5165   YYYZ    -789.2954
      XXZZ   -1184.6822   XYZZ      -5.1059   YYZZ   -3416.1246
      XZZZ   -1512.6740   YZZZ    -196.3430   ZZZZ   -2911.2416
 -----------------------------------------------------------------
 Total job time:  315.56s(wall), 10211.06s(cpu) 
 Wed Dec 27 11:01:13 2023

        *************************************************************
        *                                                           *
        *  Thank you very much for using Q-Chem.  Have a nice day.  *
        *                                                           *
        *************************************************************


0 sent ACK to 0 
now end server 0 ... 
cleanup process ... done
remove work dirs ./qchem28614.0 -- ./qchem28614.0
rm -rf ./qchem28614.0
rm -rf ./qchem28614
