You are running Q-Chem version: 5.4.0

#
# job setting
#
local host:  exp-1-49
current dir: /home/rramji/project-csd799/aromodel/pndit-qchem/hydrogenated-rotation-run
input file:  Dimethyl_Naphthalene_Dicarboximide_Phi_5_Theta_150_Thiophene_Hydrogenated.qcin
output file: 
nprocs     : 1
nthreads   : 64
#
# qchem installation setting
#
QC:          /cm/shared/apps/spack/cpu/opt/spack/linux-centos8-zen2/gcc-10.2.0/qchem-5.4-akfmr7b3t57bfs6qan3padb2wnb2i7cl
QCAUX:       /cm/shared/apps/spack/cpu/opt/spack/linux-centos8-zen2/gcc-10.2.0/qchem-5.4-akfmr7b3t57bfs6qan3padb2wnb2i7cl/qcaux
QCPROG:      /cm/shared/apps/spack/cpu/opt/spack/linux-centos8-zen2/gcc-10.2.0/qchem-5.4-akfmr7b3t57bfs6qan3padb2wnb2i7cl/exe/qcprog.exe
QCPROG_S:    /cm/shared/apps/spack/cpu/opt/spack/linux-centos8-zen2/gcc-10.2.0/qchem-5.4-akfmr7b3t57bfs6qan3padb2wnb2i7cl/exe/qcprog.exe_s
PARALLEL:    -DPARALLEL
QCMPI:       mpich
#
# qchem directory setting
#
qcrun:       qchem406707
QCSCRATCH:   .
QCLOCALSCR:  
QCTMPDIR:    .
QCFILEPREF:  ./qchem406707
QCSAVEDIR:   
workdirs:    ./qchem406707
workdir0:    ./qchem406707
partmpdirs =  
#
# parallel setting
#
QCRSH:           ssh
QCMPI:           mpich
QCMPIRUN:        /cm/shared/apps/spack/cpu/opt/spack/linux-centos8-zen2/gcc-10.2.0/qchem-5.4-akfmr7b3t57bfs6qan3padb2wnb2i7cl/bin/mpi/mpirun_qchem
QCMACHINEFILE:   ./qchem406707/hostfile
exp-1-49

#
# env setting
#
exported envs:   QC QCAUX QCSCRATCH QCRUNNAME QCFILEPREF QCPROG QCPROG_S GUIFILE

Running Job 1 of 1 Dimethyl_Naphthalene_Dicarboximide_Phi_5_Theta_150_Thiophene_Hydrogenated.qcin
qchem Dimethyl_Naphthalene_Dicarboximide_Phi_5_Theta_150_Thiophene_Hydrogenated.qcin_406707.0 ./qchem406707/ 1
/cm/shared/apps/spack/cpu/opt/spack/linux-centos8-zen2/gcc-10.2.0/qchem-5.4-akfmr7b3t57bfs6qan3padb2wnb2i7cl/bin/mpi/mpirun_qchem -machinefile ./qchem406707/hostfile -np 1 /cm/shared/apps/spack/cpu/opt/spack/linux-centos8-zen2/gcc-10.2.0/qchem-5.4-akfmr7b3t57bfs6qan3padb2wnb2i7cl/exe/qcprog.exe Dimethyl_Naphthalene_Dicarboximide_Phi_5_Theta_150_Thiophene_Hydrogenated.qcin_406707.0 ./qchem406707/

Process 0 of 1 is on exp-1-49 - thread support 0
initial socket setup ...start
initial socket setup ...done 
now start server 0 ... 
                  Welcome to Q-Chem
     A Quantum Leap Into The Future Of Chemistry


 Q-Chem 5.4, Q-Chem, Inc., Pleasanton, CA (2021)

 License issued to: University of California, San Diego (site)

 E. Epifanovsky,  A. T. B. Gilbert,  Xintian Feng,  Joonho Lee,  Yuezhi Mao,  
 N. Mardirossian,  P. Pokhilko,  A. White,  M. Wormit,  M. P. Coons,  
 A. L. Dempwolff,  Zhengting Gan,  D. Hait,  P. R. Horn,  L. D. Jacobson,  
 I. Kaliman,  J. Kussmann,  A. W. Lange,  Ka Un Lao,  D. S. Levine,  Jie Liu,  
 S. C. McKenzie,  A. F. Morrison,  K. Nanda,  F. Plasser,  D. R. Rehn,  
 M. L. Vidal,  Zhi-Qiang You,  Ying Zhu,  B. Alam,  B. Albrecht,  
 A. Aldossary,  E. Alguire,  J. H. Andersen,  D. Barton,  K. Begam,  A. Behn,  
 Y. A. Bernard,  E. J. Berquist,  H. Burton,  A. Carreras,  K. Carter-Fenk,  
 R. Chakraborty,  A. D. Chien,  K. D. Closser,  V. Cofer-Shabica,  
 S. Dasgupta,  Jia Deng,  M. de Wergifosse,  M. Diedenhofen,  Hainam Do,  
 S. Ehlert,  Po-Tung Fang,  S. Fatehi,  Qingguo Feng,  J. Gayvert,  
 Qinghui Ge,  G. Gidofalvi,  M. Goldey,  J. Gomes,  C. Gonzalez-Espinoza,  
 S. Gulania,  A. Gunina,  M. W. D. Hanson-Heine,  P. H. P. Harbach,  
 A. W. Hauser,  M. F. Herbst,  M. Hernandez Vera,  M. Hodecker,  
 Z. C. Holden,  S. Houck,  Xunkun Huang,  Kerwin Hui,  B. C. Huynh,  
 M. Ivanov,  Hyunjun Ji,  Hanjie Jiang,  B. Kaduk,  S. Kaehler,  
 K. Khistyaev,  Jaehoon Kim,  P. Klunzinger,  Z. Koczor-Benda,  
 Joong Hoon Koh,  D. Kosenkov,  L. Koulias,  T. Kowalczyk,  C. M. Krauter,  
 K. Kue,  A. Kunitsa,  T. Kus,  A. Landau,  K. V. Lawler,  D. Lefrancois,  
 S. Lehtola,  Rain Li,  Yi-Pei Li,  Jiashu Liang,  M. Liebenthal,  
 Hung-Hsuan Lin,  You-Sheng Lin,  Fenglai Liu,  Kuan-Yu Liu,  
 M. Loipersberger,  A. Luenser,  A. Manjanath,  P. Manohar,  E. Mansoor,  
 S. F. Manzer,  Shan-Ping Mao,  A. V. Marenich,  T. Markovich,  S. Mason,  
 S. A. Maurer,  P. F. McLaughlin,  M. F. S. J. Menger,  J.-M. Mewes,  
 S. A. Mewes,  P. Morgante,  J. W. Mullinax,  T. S. Nguyen-Beck,  
 K. J. Oosterbaan,  G. Paran,  Alexander C. Paul,  Suranjan K. Paul,  
 F. Pavosevic,  Zheng Pei,  S. Prager,  E. I. Proynov,  E. Ramos,  B. Rana,  
 A. E. Rask,  A. Rettig,  R. M. Richard,  F. Rob,  E. Rossomme,  T. Scheele,  
 M. Scheurer,  M. Schneider,  N. Sergueev,  S. M. Sharada,  W. Skomorowski,  
 D. W. Small,  C. J. Stein,  Yu-Chuan Su,  E. J. Sundstrom,  Zhen Tao,  
 J. Thirman,  T. Tsuchimochi,  N. M. Tubman,  S. P. Veccham,  O. Vydrov,  
 J. Wenzel,  J. Witte,  A. Yamada,  Kun Yao,  S. Yeganeh,  S. R. Yost,  
 A. Zech,  Igor Ying Zhang,  Xing Zhang,  Yu Zhang,  D. Zuev,  
 A. Aspuru-Guzik,  A. T. Bell,  N. A. Besley,  K. B. Bravaya,  B. R. Brooks,  
 D. Casanova,  Jeng-Da Chai,  S. Coriani,  C. J. Cramer,  
 A. E. DePrince, III,  R. A. DiStasio Jr.,  A. Dreuw,  B. D. Dunietz,  
 T. R. Furlani,  W. A. Goddard III,  S. Grimme,  S. Hammes-Schiffer,  
 T. Head-Gordon,  W. J. Hehre,  Chao-Ping Hsu,  T.-C. Jagau,  Yousung Jung,  
 A. Klamt,  Jing Kong,  D. S. Lambrecht,  WanZhen Liang,  N. J. Mayhall,  
 C. W. McCurdy,  J. B. Neaton,  C. Ochsenfeld,  J. A. Parkhill,  R. Peverati,  
 V. A. Rassolov,  Yihan Shao,  L. V. Slipchenko,  T. Stauch,  R. P. Steele,  
 J. E. Subotnik,  A. J. W. Thom,  A. Tkatchenko,  D. G. Truhlar,  
 T. Van Voorhis,  T. A. Wesolowski,  K. B. Whaley,  H. L. Woodcock III,  
 P. M. Zimmerman,  S. Faraji,  P. M. W. Gill,  M. Head-Gordon,  
 J. M. Herbert,  A. I. Krylov

 Contributors to earlier versions of Q-Chem not listed above: 
 R. D. Adamson,  B. Austin,  R. Baer,  J. Baker,  G. J. O. Beran,  
 K. Brandhorst,  S. T. Brown,  E. F. C. Byrd,  A. K. Chakraborty,  
 G. K. L. Chan,  Chun-Min Chang,  Yunqing Chen,  C.-L. Cheng,  
 Siu Hung Chien,  D. M. Chipman,  D. L. Crittenden,  H. Dachsel,  
 R. J. Doerksen,  A. D. Dutoi,  R. G. Edgar,  J. Fosso-Tande,  
 L. Fusti-Molnar,  D. Ghosh,  A. Ghysels,  A. Golubeva-Zadorozhnaya,  
 J. Gonthier,  M. S. Gordon,  S. R. Gwaltney,  G. Hawkins,  J. E. Herr,  
 A. Heyden,  S. Hirata,  E. G. Hohenstein,  G. Kedziora,  F. J. Keil,  
 C. Kelley,  Jihan Kim,  R. A. King,  R. Z. Khaliullin,  P. P. Korambath,  
 W. Kurlancheek,  A. Laurent,  A. M. Lee,  M. S. Lee,  S. V. Levchenko,  
 Ching Yeh Lin,  D. Liotard,  E. Livshits,  R. C. Lochan,  I. Lotan,  
 L. A. Martinez-Martinez,  P. E. Maslen,  N. Nair,  D. P. O'Neill,  
 D. Neuhauser,  E. Neuscamman,  C. M. Oana,  R. Olivares-Amaya,  R. Olson,  
 T. M. Perrine,  B. Peters,  P. A. Pieniazek,  A. Prociuk,  Y. M. Rhee,  
 J. Ritchie,  M. A. Rohrdanz,  E. Rosta,  N. J. Russ,  H. F. Schaefer III,  
 M. W. Schmidt,  N. E. Schultz,  S. Sharma,  N. Shenvi,  C. D. Sherrill,  
 A. C. Simmonett,  A. Sodt,  T. Stein,  D. Stuck,  K. S. Thanthiriwatte,  
 V. Vanovschi,  L. Vogt,  Tao Wang,  A. Warshel,  M. A. Watson,  
 C. F. Williams,  Q. Wu,  X. Xu,  Jun Yang,  W. Zhang,  Yan Zhao

 Please cite Q-Chem as follows:
 Y. Shao et al., Mol. Phys. 113, 184-215 (2015)
 DOI: 10.1080/00268976.2014.952696

 Q-Chem 5.4.0 for Intel X86 EM64T Linux

 Parts of Q-Chem use Armadillo 9.800.1 (Horizon Scraper).
 http://arma.sourceforge.net/

 Q-Chem begins on Wed Dec 27 11:08:06 2023  

 Host: 
0

     Scratch files written to ./qchem406707//
 May1621 |scratch|qcdevops|jenkins|workspace|build_RNUM    
 Parallel job on  1  processors
 Processing $rem in /cm/shared/apps/spack/cpu/opt/spack/linux-centos8-zen2/gcc-10.2.0/qchem-5.4-akfmr7b3t57bfs6qan3padb2wnb2i7cl/config/preferences:
 Processing $rem in /home/rramji/.qchemrc:
 Symmetry turned off for PCM/SM12/SMD calculation
 Core orbitals will be frozen

 Checking the input file for inconsistencies... 	...done.

 Q-Chem warning in module forms1/BasisType.C, line 2236:

 You are not using the predefined 5D/6D in this basis set.


--------------------------------------------------------------
User input:
--------------------------------------------------------------
$molecule
0 1
C	0.129743	-6.741404	0.221766
C	0.782726	-6.155638	1.352515
C	-0.411926	-5.791452	-0.717339
C	0.921816	-4.803786	1.593885
H	1.221908	-6.821518	2.112819
C	-0.266682	-4.378638	-0.464360
C	0.398255	-3.838032	0.688053
C	-0.789694	-3.413062	-1.369108
C	0.542349	-2.426473	0.939002
C	-0.652589	-2.059348	-1.130409
C	0.000000	-1.478216	0.000000
H	-1.092453	-1.394783	-1.891446
C	-1.131595	-6.187987	-1.967519
C	-1.504912	-3.798164	-2.608118
N	-1.625174	-5.170003	-2.819813
C	1.639129	-4.424987	2.836188
C	1.263477	-2.036627	2.189558
N	1.756898	-3.049156	3.042237
O	-1.324787	-7.353131	-2.307845
O	-1.967354	-2.986854	-3.407213
O	2.095892	-5.248946	3.625890
O	1.468685	-0.878829	2.547850
C	-2.330564	-5.563799	-4.043674
H	-2.352178	-6.664085	-4.083407
H	-1.807263	-5.147101	-4.925490
H	-3.356568	-5.148785	-4.031877
C	2.452080	-2.587487	4.247206
H	2.774302	-3.483329	4.803187
H	1.773301	-1.964972	4.860536
H	3.321351	-1.962932	3.966607
C	0.000000	0.000000	0.000000
S	0.068929	0.790170	1.580530
C	0.211639	2.421655	0.904911
C	0.086813	0.994207	-0.985400
C	0.201782	2.309433	-0.493528
H	0.066299	0.759454	-2.059934
H	0.278488	3.187020	-1.152593
H	0.288312	3.298992	1.556025
H	-0.701693	-7.361589	0.578191
H	0.854838	-7.361192	-0.319578
H	-0.935572	-1.478831	0.539540
$end

$rem
JOBTYPE		SP
EXCHANGE	HF
CORRELATION	pRIMP2
BASIS		cc-pvtz
METHOD		rimp2
AUX_BASIS	rimp2-cc-pvtz
SOLVENT_METHOD	PCM
PURECART	11111
SYMMETRY	false
MEM_TOTAL	110000
SCF_CONVERGENCE = 6
THRESH=10
GUI = 2
$end



$solvent
dielectric 4.90
$end
--------------------------------------------------------------
 ----------------------------------------------------------------
             Standard Nuclear Orientation (Angstroms)
    I     Atom           X                Y                Z
 ----------------------------------------------------------------
    1      C       0.1297430000    -6.7414040000     0.2217660000
    2      C       0.7827260000    -6.1556380000     1.3525150000
    3      C      -0.4119260000    -5.7914520000    -0.7173390000
    4      C       0.9218160000    -4.8037860000     1.5938850000
    5      H       1.2219080000    -6.8215180000     2.1128190000
    6      C      -0.2666820000    -4.3786380000    -0.4643600000
    7      C       0.3982550000    -3.8380320000     0.6880530000
    8      C      -0.7896940000    -3.4130620000    -1.3691080000
    9      C       0.5423490000    -2.4264730000     0.9390020000
   10      C      -0.6525890000    -2.0593480000    -1.1304090000
   11      C       0.0000000000    -1.4782160000     0.0000000000
   12      H      -1.0924530000    -1.3947830000    -1.8914460000
   13      C      -1.1315950000    -6.1879870000    -1.9675190000
   14      C      -1.5049120000    -3.7981640000    -2.6081180000
   15      N      -1.6251740000    -5.1700030000    -2.8198130000
   16      C       1.6391290000    -4.4249870000     2.8361880000
   17      C       1.2634770000    -2.0366270000     2.1895580000
   18      N       1.7568980000    -3.0491560000     3.0422370000
   19      O      -1.3247870000    -7.3531310000    -2.3078450000
   20      O      -1.9673540000    -2.9868540000    -3.4072130000
   21      O       2.0958920000    -5.2489460000     3.6258900000
   22      O       1.4686850000    -0.8788290000     2.5478500000
   23      C      -2.3305640000    -5.5637990000    -4.0436740000
   24      H      -2.3521780000    -6.6640850000    -4.0834070000
   25      H      -1.8072630000    -5.1471010000    -4.9254900000
   26      H      -3.3565680000    -5.1487850000    -4.0318770000
   27      C       2.4520800000    -2.5874870000     4.2472060000
   28      H       2.7743020000    -3.4833290000     4.8031870000
   29      H       1.7733010000    -1.9649720000     4.8605360000
   30      H       3.3213510000    -1.9629320000     3.9666070000
   31      C       0.0000000000     0.0000000000     0.0000000000
   32      S       0.0689290000     0.7901700000     1.5805300000
   33      C       0.2116390000     2.4216550000     0.9049110000
   34      C       0.0868130000     0.9942070000    -0.9854000000
   35      C       0.2017820000     2.3094330000    -0.4935280000
   36      H       0.0662990000     0.7594540000    -2.0599340000
   37      H       0.2784880000     3.1870200000    -1.1525930000
   38      H       0.2883120000     3.2989920000     1.5560250000
   39      H      -0.7016930000    -7.3615890000     0.5781910000
   40      H       0.8548380000    -7.3611920000    -0.3195780000
   41      H      -0.9355720000    -1.4788310000     0.5395400000
 ----------------------------------------------------------------
 Nuclear Repulsion Energy =        2564.73826445 hartrees
 There are       98 alpha and       98 beta electrons
 Requested basis set is cc-pVTZ
 There are 356 shells and 1010 basis functions

 Total QAlloc Memory Limit 110000 MB
 Mega-Array Size       188 MB
 MEM_STATIC part       192 MB
 Discretize the solute cavity surface with Lebedev spheres
	Using 110 Lebedev grid points for each H atom
	Using 194 Lebedev grid points for other atoms
	Atomic van der Waals radii will be scaled by 1.20
 Remove points where switching function is < 1.0e-08
 Keep 2602 surface tesserae and discard 4176 interior tesserae
 Molecular Surface Area = 363.855 Angst**2
 Requested basis set is rimp2-cc-pVTZ
 There are 770 shells and 2648 basis functions
 A cutoff of  1.0D-10 yielded  34156 shell pairs
 There are    258420 function pairs (    334432 Cartesian)
 Smallest overlap matrix eigenvalue = 9.36E-06

 Q-Chem warning in module stvman/mkSTV.C, line 323:

 Overlap eigenvalue is smaller than square root of threshold
 Use THRESH >= 12 to get rid of this warning


 Scale SEOQF with 1.000000e-01/1.000000e-02/1.000000e-01

 Standard Electronic Orientation quadrupole field applied
 Nucleus-field energy     =    -0.0000000733 hartrees
 Guess from superposition of atomic densities
 Warning:  Energy on first SCF cycle will be non-variational
 SAD guess density has 196.000000 electrons

 -----------------------------------------------------------------------
  General SCF calculation program by
  Eric Jon Sundstrom, Paul Horn, Yuezhi Mao, Dmitri Zuev, Alec White,
  David Stuck, Shaama M.S., Shane Yost, Joonho Lee, David Small,
  Daniel Levine, Susi Lehtola, Hugh Burton, Evgeny Epifanovsky,
  Bang C. Huynh
 -----------------------------------------------------------------------
 Hartree-Fock
 using 64 threads for integral computing
 -------------------------------------------------------
 OpenMP Integral computing Module                
 Release: version 1.0, May 2013, Q-Chem Inc. Pittsburgh 
 -------------------------------------------------------
 A restricted SCF calculation will be
 performed using DIIS
 SCF converges when DIIS error is below 1.0e-06
 ---------------------------------------
  Cycle       Energy         DIIS error
 ---------------------------------------
    1   -1583.1791704577      1.87e-02  
    2   -1571.1376717771      2.03e-03  
    3   -1571.4764737545      1.55e-03  
    4   -1571.6998726882      2.54e-04  
    5   -1571.7136829089      7.87e-05  
    6   -1571.7151059101      3.05e-05  
    7   -1571.7155334971      1.60e-05  
    8   -1571.7156566682      6.50e-06  
    9   -1571.7156791029      3.06e-06  
   10   -1571.7156837433      1.27e-06  
   11   -1571.7156851430      5.91e-07  Convergence criterion met
 ---------------------------------------
 SCF time:   CPU 6720.27s  wall 268.00s 

************** Final PCM Free Energy Summary **************
 G_electrostatic  =      -0.02917457 hartree =     -18.30732084 kcal/mol
 G_cavitation     =       0.00000000 hartree =       0.00000000 kcal/mol
 G_dispersion     =       0.00000000 hartree =       0.00000000 kcal/mol
 G_repulsion      =       0.00000000 hartree =       0.00000000 kcal/mol
 --------------------------------------------------
 Non-electrostatic Free Energy =       0.00000000 hartree =       0.00000000 kcal/mol
 Total                         =      -0.02917457 hartree =     -18.30732084 kcal/mol
 --------------------------------------------------
 SCF Energy (H0 + V/2)                       =   -1571.71568514 
 Solute Internal Energy (H0)                 =   -1571.68651057 
 Total Free Energy (H0 + V/2 + non-elec)     =   -1571.71568514 hartree
                                             = -986266.47814650 kcal/mol
***********************************************************

 SCF   energy in the final basis set =    -1571.7156851430
 Total energy in the final basis set =    -1571.7156851430


 --------------------------------------------------------------
  Generalized many-body perturbation theory program
  by Joonho Lee, Fazle Rob, Xintian Feng, Evgeny Epifanovsky

 No regularization used 
 (reg. param. = 0.0000e+00)
  (P|Q)^-1/2 Time:  CPU 144.03 s  wall 2.28 s

 In RI-MP2 calculation: 
 # of frozen core orbitals: 31

 Components of the RIMP2 correlation energy:
        aaaa    correlation energy =        -0.6173535503 a.u.
        abab    correlation energy =        -3.4300294841 a.u.
        bbbb    correlation energy =        -0.6173535503 a.u.
        non-Brillouin singles      =        -0.0000000000 a.u.
        total same-spin energy     =        -1.2347071007 a.u.
        total opposite-spin energy =        -3.4300294841 a.u.

 Total  RIMP2   correlation energy =        -4.6647365848 a.u.
        RIMP2         total energy =     -1576.3804217278 a.u.

 RI-MP2 Energy Time:  CPU 1908.40 s  wall 31.24 s
 
 --------------------------------------------------------------
 
                    Orbital Energies (a.u.)
 --------------------------------------------------------------
 
 Alpha MOs
 -- Occupied --
-91.9760 -20.5513 -20.5455 -20.5425 -20.5413 -15.6285 -15.6220 -11.3964
-11.3862 -11.3844 -11.3799 -11.3113 -11.3094 -11.3072 -11.3057 -11.2983
-11.2925 -11.2905 -11.2706 -11.2694 -11.2689 -11.2659 -11.2638 -11.2599
-11.2538 -11.2473 -11.2392  -8.9763  -6.6568  -6.6561  -6.6555  -1.4249
 -1.4129  -1.4004  -1.3921  -1.2647  -1.2563  -1.2308  -1.1852  -1.1476
 -1.1153  -1.0866  -1.0483  -0.9939  -0.9888  -0.9768  -0.9558  -0.9488
 -0.8969  -0.8897  -0.8787  -0.8620  -0.7920  -0.7788  -0.7743  -0.7618
 -0.7311  -0.7205  -0.7013  -0.6905  -0.6852  -0.6723  -0.6685  -0.6583
 -0.6495  -0.6436  -0.6386  -0.6330  -0.6319  -0.6301  -0.6235  -0.6056
 -0.5876  -0.5729  -0.5643  -0.5618  -0.5585  -0.5525  -0.5520  -0.5488
 -0.5480  -0.5447  -0.5177  -0.5146  -0.5114  -0.4848  -0.4795  -0.4623
 -0.4557  -0.4449  -0.4378  -0.4293  -0.4109  -0.4081  -0.3545  -0.3324
 -0.3259  -0.2807
 -- Virtual --
  0.0116   0.0418   0.0902   0.1027   0.1443   0.1515   0.1564   0.1592
  0.1635   0.1720   0.1781   0.1816   0.1848   0.1930   0.2017   0.2037
  0.2158   0.2218   0.2279   0.2297   0.2309   0.2356   0.2452   0.2520
  0.2645   0.2705   0.3027   0.3121   0.3172   0.3215   0.3262   0.3282
  0.3364   0.3437   0.3455   0.3515   0.3551   0.3568   0.3639   0.3693
  0.3708   0.3787   0.3855   0.3886   0.3938   0.3978   0.4020   0.4043
  0.4198   0.4237   0.4288   0.4339   0.4376   0.4447   0.4478   0.4542
  0.4585   0.4595   0.4627   0.4721   0.4778   0.4815   0.4899   0.4939
  0.4976   0.5046   0.5102   0.5130   0.5149   0.5178   0.5201   0.5238
  0.5392   0.5419   0.5466   0.5508   0.5524   0.5571   0.5635   0.5672
  0.5696   0.5750   0.5812   0.5891   0.5899   0.5931   0.5994   0.5999
  0.6034   0.6050   0.6075   0.6119   0.6140   0.6180   0.6193   0.6228
  0.6263   0.6314   0.6337   0.6364   0.6422   0.6429   0.6488   0.6592
  0.6613   0.6679   0.6769   0.6836   0.6861   0.6937   0.6983   0.7032
  0.7143   0.7192   0.7247   0.7320   0.7372   0.7409   0.7495   0.7606
  0.7669   0.7688   0.7758   0.7794   0.7931   0.7981   0.8017   0.8037
  0.8131   0.8171   0.8198   0.8283   0.8338   0.8388   0.8421   0.8491
  0.8547   0.8623   0.8655   0.8671   0.8726   0.8784   0.8814   0.8863
  0.8968   0.8991   0.9049   0.9117   0.9168   0.9246   0.9295   0.9350
  0.9362   0.9445   0.9492   0.9576   0.9596   0.9631   0.9736   0.9781
  0.9814   0.9866   0.9928   0.9941   1.0074   1.0127   1.0139   1.0209
  1.0258   1.0330   1.0405   1.0443   1.0533   1.0551   1.0653   1.0669
  1.0679   1.0700   1.0741   1.0784   1.0837   1.0992   1.0995   1.1043
  1.1123   1.1168   1.1206   1.1280   1.1322   1.1328   1.1398   1.1476
  1.1495   1.1514   1.1582   1.1676   1.1724   1.1768   1.1833   1.1859
  1.1936   1.2001   1.2017   1.2055   1.2087   1.2097   1.2214   1.2278
  1.2320   1.2374   1.2393   1.2459   1.2541   1.2561   1.2684   1.2777
  1.2793   1.2854   1.2978   1.3018   1.3153   1.3224   1.3272   1.3364
  1.3449   1.3587   1.3618   1.3656   1.3679   1.3766   1.3808   1.3834
  1.3898   1.3951   1.3970   1.4035   1.4161   1.4270   1.4311   1.4426
  1.4539   1.4569   1.4647   1.4663   1.4724   1.4765   1.4892   1.4994
  1.5028   1.5063   1.5143   1.5170   1.5237   1.5327   1.5359   1.5444
  1.5453   1.5467   1.5536   1.5582   1.5659   1.5698   1.5738   1.5787
  1.5811   1.5882   1.6013   1.6062   1.6150   1.6254   1.6402   1.6470
  1.6517   1.6579   1.6635   1.6772   1.6813   1.6846   1.6952   1.6961
  1.7027   1.7193   1.7224   1.7274   1.7367   1.7456   1.7474   1.7539
  1.7565   1.7647   1.7764   1.7840   1.7921   1.8011   1.8117   1.8161
  1.8217   1.8298   1.8365   1.8504   1.8574   1.8622   1.8647   1.8701
  1.8709   1.8844   1.8908   1.8964   1.9068   1.9166   1.9308   1.9433
  1.9495   1.9628   1.9691   1.9775   1.9886   2.0048   2.0173   2.0258
  2.0350   2.0554   2.0682   2.0826   2.0906   2.1010   2.1185   2.1311
  2.1407   2.1568   2.1699   2.1761   2.1823   2.2147   2.2227   2.2385
  2.2518   2.2577   2.2612   2.2773   2.2860   2.2892   2.2985   2.3152
  2.3189   2.3310   2.3394   2.3547   2.3654   2.3685   2.3857   2.3929
  2.4228   2.4341   2.4402   2.4440   2.4525   2.4577   2.4718   2.4742
  2.4833   2.4852   2.4927   2.5104   2.5194   2.5459   2.5548   2.5600
  2.5661   2.5716   2.5794   2.5855   2.5884   2.6029   2.6223   2.6259
  2.6365   2.6405   2.6434   2.6465   2.6578   2.6611   2.6732   2.6833
  2.6858   2.6895   2.6914   2.7158   2.7167   2.7258   2.7349   2.7367
  2.7422   2.7469   2.7572   2.7603   2.7688   2.7718   2.7776   2.7947
  2.8003   2.8137   2.8376   2.8393   2.8452   2.8470   2.8629   2.8650
  2.8768   2.8784   2.8864   2.8909   2.8966   2.8991   2.9066   2.9101
  2.9198   2.9224   2.9298   2.9327   2.9498   2.9603   2.9638   2.9689
  2.9784   2.9853   2.9917   3.0031   3.0117   3.0141   3.0190   3.0251
  3.0351   3.0381   3.0482   3.0528   3.0589   3.0695   3.0726   3.0783
  3.0879   3.0965   3.1032   3.1040   3.1076   3.1137   3.1231   3.1242
  3.1269   3.1413   3.1456   3.1557   3.1600   3.1620   3.1697   3.1776
  3.1797   3.1930   3.1967   3.1992   3.2046   3.2166   3.2238   3.2272
  3.2325   3.2377   3.2416   3.2464   3.2532   3.2624   3.2635   3.2690
  3.2727   3.2742   3.2829   3.2861   3.2914   3.2984   3.3037   3.3066
  3.3118   3.3172   3.3227   3.3240   3.3289   3.3308   3.3365   3.3403
  3.3424   3.3447   3.3485   3.3553   3.3624   3.3647   3.3663   3.3758
  3.3782   3.3827   3.3869   3.3937   3.3975   3.4005   3.4064   3.4134
  3.4186   3.4227   3.4284   3.4327   3.4387   3.4425   3.4502   3.4516
  3.4551   3.4587   3.4683   3.4710   3.4728   3.4779   3.4847   3.4898
  3.4979   3.5034   3.5118   3.5163   3.5207   3.5214   3.5263   3.5292
  3.5329   3.5408   3.5445   3.5466   3.5563   3.5602   3.5705   3.5756
  3.5838   3.5874   3.5952   3.6025   3.6130   3.6152   3.6246   3.6278
  3.6326   3.6381   3.6412   3.6452   3.6503   3.6580   3.6598   3.6646
  3.6719   3.6719   3.6842   3.6865   3.6950   3.7008   3.7060   3.7156
  3.7204   3.7262   3.7310   3.7382   3.7389   3.7468   3.7482   3.7529
  3.7590   3.7642   3.7703   3.7729   3.7787   3.7887   3.7972   3.8030
  3.8081   3.8160   3.8197   3.8260   3.8284   3.8316   3.8409   3.8450
  3.8471   3.8530   3.8655   3.8728   3.8762   3.8816   3.8921   3.9022
  3.9106   3.9164   3.9258   3.9280   3.9352   3.9469   3.9480   3.9538
  3.9575   3.9581   3.9693   3.9784   3.9919   3.9949   3.9977   4.0172
  4.0223   4.0266   4.0332   4.0449   4.0553   4.0594   4.0687   4.0738
  4.0889   4.1076   4.1119   4.1150   4.1216   4.1299   4.1394   4.1418
  4.1445   4.1614   4.1653   4.1703   4.1759   4.1816   4.1818   4.1988
  4.2108   4.2126   4.2264   4.2307   4.2387   4.2435   4.2511   4.2567
  4.2644   4.2714   4.2729   4.2793   4.2906   4.2991   4.3041   4.3131
  4.3163   4.3196   4.3271   4.3317   4.3345   4.3392   4.3441   4.3598
  4.3628   4.3683   4.3700   4.3739   4.3808   4.3844   4.3934   4.3961
  4.4029   4.4073   4.4174   4.4226   4.4268   4.4303   4.4423   4.4489
  4.4598   4.4741   4.4930   4.5009   4.5087   4.5162   4.5231   4.5361
  4.5367   4.5391   4.5527   4.5547   4.5666   4.5749   4.5811   4.5889
  4.5936   4.5981   4.6068   4.6147   4.6179   4.6250   4.6292   4.6365
  4.6478   4.6587   4.6688   4.6750   4.6838   4.6911   4.7034   4.7041
  4.7108   4.7337   4.7365   4.7543   4.7824   4.7881   4.7962   4.8037
  4.8130   4.8191   4.8342   4.8449   4.8483   4.8599   4.8729   4.8829
  4.8883   4.8925   4.9152   4.9185   4.9324   4.9438   4.9595   4.9665
  4.9890   5.0091   5.0171   5.0253   5.0296   5.0387   5.0465   5.0704
  5.0736   5.0990   5.1117   5.1142   5.1218   5.1312   5.1321   5.1372
  5.1525   5.1578   5.1740   5.1807   5.1880   5.2024   5.2103   5.2275
  5.2610   5.2673   5.2719   5.2844   5.3025   5.3132   5.3277   5.3308
  5.3335   5.3455   5.3548   5.3692   5.3767   5.3793   5.4030   5.4154
  5.4408   5.4516   5.4626   5.4869   5.4981   5.5110   5.5140   5.5171
  5.5233   5.5320   5.5426   5.5568   5.5588   5.5657   5.5678   5.5722
  5.5825   5.5826   5.5866   5.6064   5.6083   5.6200   5.6243   5.6295
  5.6480   5.6534   5.6601   5.6648   5.6658   5.6675   5.6931   5.6965
  5.7006   5.7058   5.7307   5.7373   5.7528   5.7612   5.7650   5.7748
  5.7819   5.7911   5.8112   5.8312   5.8458   5.8533   5.9017   5.9150
  5.9338   5.9523   5.9766   5.9917   6.0242   6.0350   6.0417   6.0465
  6.0758   6.0957   6.1010   6.1113   6.1220   6.1544   6.1743   6.1909
  6.2036   6.2202   6.2251   6.2259   6.2484   6.2724   6.2815   6.2841
  6.3045   6.3136   6.3278   6.3501   6.3670   6.3773   6.4605   6.4868
  6.5203   6.5338   6.5733   6.5820   6.6061   6.6211   6.6552   6.6588
  6.6734   6.7108   6.8496   6.8508   6.8892   6.9018   6.9060   6.9241
  6.9266   6.9923   7.1041   7.1249   7.1532   7.1951   7.2063   7.2427
  7.3468   7.3512   7.3574   7.3624   7.4756   7.5409   7.5701   7.5826
  7.5918   7.6242   7.6536   7.6832   7.6905   7.7158   8.8664  10.1505
 10.3169  11.2853  11.5189  11.7579  12.0759  12.1212  12.4369  12.4769
 12.9192  13.2728  13.3447  13.5673  13.7939  13.9303  14.1129  14.3073
 14.3482  14.3880  14.5557  14.6500  15.0507  15.6185  15.8432  16.3075
 --------------------------------------------------------------
 
          Ground-State Mulliken Net Atomic Charges

     Atom                 Charge (a.u.)
  ----------------------------------------
      1 C                    -0.084828
      2 C                    -0.028350
      3 C                    -0.108246
      4 C                    -0.124385
      5 H                     0.199622
      6 C                     0.023108
      7 C                     0.121653
      8 C                    -0.108819
      9 C                    -0.208079
     10 C                    -0.134075
     11 C                     0.255643
     12 H                     0.194759
     13 C                     0.343167
     14 C                     0.351986
     15 N                    -0.090131
     16 C                     0.357555
     17 C                     0.389207
     18 N                    -0.090733
     19 O                    -0.493631
     20 O                    -0.507281
     21 O                    -0.500755
     22 O                    -0.463826
     23 C                    -0.204638
     24 H                     0.139600
     25 H                     0.109336
     26 H                     0.109301
     27 C                    -0.198009
     28 H                     0.134125
     29 H                     0.111937
     30 H                     0.112346
     31 C                    -0.090097
     32 S                     0.059135
     33 C                    -0.230271
     34 C                    -0.169154
     35 C                    -0.237169
     36 H                     0.185159
     37 H                     0.184097
     38 H                     0.206875
     39 H                     0.138456
     40 H                     0.138669
     41 H                     0.206742
  ----------------------------------------
  Sum of atomic charges =     0.000000

 -----------------------------------------------------------------
                    Cartesian Multipole Moments
 -----------------------------------------------------------------
    Charge (ESU x 10^10)
                 0.0000
    Dipole Moment (Debye)
         X       0.3197      Y       0.9700      Z       1.1266
       Tot       1.5206
    Quadrupole Moments (Debye-Ang)
        XX    -170.5327     XY      -2.4032     YY    -177.6122
        XZ     -13.1588     YZ      -7.8968     ZZ    -179.5850
    Octopole Moments (Debye-Ang^2)
       XXX     -35.2291    XXY     488.9376    XYY      21.0125
       YYY    1667.5690    XXZ     -29.1415    XYZ      59.9254
       YYZ      31.3895    XZZ      -8.7435    YZZ     571.0156
       ZZZ     -90.6577
    Hexadecapole Moments (Debye-Ang^3)
      XXXX   -1659.5741   XXXY    -172.6935   XXYY   -3106.2998
      XYYY    -595.6246   YYYY  -17981.2050   XXXZ   -1289.9657
      XXYZ     -55.8489   XYYZ    -796.9032   YYYZ   -1052.7050
      XXZZ   -1151.4053   XYZZ      57.5393   YYZZ   -4035.3297
      XZZZ   -1377.0692   YZZZ    -157.3353   ZZZZ   -4998.0271
 -----------------------------------------------------------------
 Total job time:  304.39s(wall), 8777.32s(cpu) 
 Wed Dec 27 11:13:11 2023

        *************************************************************
        *                                                           *
        *  Thank you very much for using Q-Chem.  Have a nice day.  *
        *                                                           *
        *************************************************************


0 sent ACK to 0 
now end server 0 ... 
cleanup process ... done
remove work dirs ./qchem406707.0 -- ./qchem406707.0
rm -rf ./qchem406707.0
rm -rf ./qchem406707
