You are running Q-Chem version: 5.4.0

#
# job setting
#
local host:  exp-2-23
current dir: /home/rramji/project-csd799/aromodel/pndit-qchem/hydrogenated-rotation-run
input file:  Dimethyl_Naphthalene_Dicarboximide_Phi_30_Theta_110_Thiophene_Hydrogenated.qcin
output file: 
nprocs     : 1
nthreads   : 64
#
# qchem installation setting
#
QC:          /cm/shared/apps/spack/cpu/opt/spack/linux-centos8-zen2/gcc-10.2.0/qchem-5.4-akfmr7b3t57bfs6qan3padb2wnb2i7cl
QCAUX:       /cm/shared/apps/spack/cpu/opt/spack/linux-centos8-zen2/gcc-10.2.0/qchem-5.4-akfmr7b3t57bfs6qan3padb2wnb2i7cl/qcaux
QCPROG:      /cm/shared/apps/spack/cpu/opt/spack/linux-centos8-zen2/gcc-10.2.0/qchem-5.4-akfmr7b3t57bfs6qan3padb2wnb2i7cl/exe/qcprog.exe
QCPROG_S:    /cm/shared/apps/spack/cpu/opt/spack/linux-centos8-zen2/gcc-10.2.0/qchem-5.4-akfmr7b3t57bfs6qan3padb2wnb2i7cl/exe/qcprog.exe_s
PARALLEL:    -DPARALLEL
QCMPI:       mpich
#
# qchem directory setting
#
qcrun:       qchem1332100
QCSCRATCH:   .
QCLOCALSCR:  
QCTMPDIR:    .
QCFILEPREF:  ./qchem1332100
QCSAVEDIR:   
workdirs:    ./qchem1332100
workdir0:    ./qchem1332100
partmpdirs =  
#
# parallel setting
#
QCRSH:           ssh
QCMPI:           mpich
QCMPIRUN:        /cm/shared/apps/spack/cpu/opt/spack/linux-centos8-zen2/gcc-10.2.0/qchem-5.4-akfmr7b3t57bfs6qan3padb2wnb2i7cl/bin/mpi/mpirun_qchem
QCMACHINEFILE:   ./qchem1332100/hostfile
exp-2-23

#
# env setting
#
exported envs:   QC QCAUX QCSCRATCH QCRUNNAME QCFILEPREF QCPROG QCPROG_S GUIFILE

Running Job 1 of 1 Dimethyl_Naphthalene_Dicarboximide_Phi_30_Theta_110_Thiophene_Hydrogenated.qcin
qchem Dimethyl_Naphthalene_Dicarboximide_Phi_30_Theta_110_Thiophene_Hydrogenated.qcin_1332100.0 ./qchem1332100/ 1
/cm/shared/apps/spack/cpu/opt/spack/linux-centos8-zen2/gcc-10.2.0/qchem-5.4-akfmr7b3t57bfs6qan3padb2wnb2i7cl/bin/mpi/mpirun_qchem -machinefile ./qchem1332100/hostfile -np 1 /cm/shared/apps/spack/cpu/opt/spack/linux-centos8-zen2/gcc-10.2.0/qchem-5.4-akfmr7b3t57bfs6qan3padb2wnb2i7cl/exe/qcprog.exe Dimethyl_Naphthalene_Dicarboximide_Phi_30_Theta_110_Thiophene_Hydrogenated.qcin_1332100.0 ./qchem1332100/

Process 0 of 1 is on exp-2-23 - thread support 0
initial socket setup ...start
initial socket setup ...done 
now start server 0 ... 
                  Welcome to Q-Chem
     A Quantum Leap Into The Future Of Chemistry


 Q-Chem 5.4, Q-Chem, Inc., Pleasanton, CA (2021)

 License issued to: University of California, San Diego (site)

 E. Epifanovsky,  A. T. B. Gilbert,  Xintian Feng,  Joonho Lee,  Yuezhi Mao,  
 N. Mardirossian,  P. Pokhilko,  A. White,  M. Wormit,  M. P. Coons,  
 A. L. Dempwolff,  Zhengting Gan,  D. Hait,  P. R. Horn,  L. D. Jacobson,  
 I. Kaliman,  J. Kussmann,  A. W. Lange,  Ka Un Lao,  D. S. Levine,  Jie Liu,  
 S. C. McKenzie,  A. F. Morrison,  K. Nanda,  F. Plasser,  D. R. Rehn,  
 M. L. Vidal,  Zhi-Qiang You,  Ying Zhu,  B. Alam,  B. Albrecht,  
 A. Aldossary,  E. Alguire,  J. H. Andersen,  D. Barton,  K. Begam,  A. Behn,  
 Y. A. Bernard,  E. J. Berquist,  H. Burton,  A. Carreras,  K. Carter-Fenk,  
 R. Chakraborty,  A. D. Chien,  K. D. Closser,  V. Cofer-Shabica,  
 S. Dasgupta,  Jia Deng,  M. de Wergifosse,  M. Diedenhofen,  Hainam Do,  
 S. Ehlert,  Po-Tung Fang,  S. Fatehi,  Qingguo Feng,  J. Gayvert,  
 Qinghui Ge,  G. Gidofalvi,  M. Goldey,  J. Gomes,  C. Gonzalez-Espinoza,  
 S. Gulania,  A. Gunina,  M. W. D. Hanson-Heine,  P. H. P. Harbach,  
 A. W. Hauser,  M. F. Herbst,  M. Hernandez Vera,  M. Hodecker,  
 Z. C. Holden,  S. Houck,  Xunkun Huang,  Kerwin Hui,  B. C. Huynh,  
 M. Ivanov,  Hyunjun Ji,  Hanjie Jiang,  B. Kaduk,  S. Kaehler,  
 K. Khistyaev,  Jaehoon Kim,  P. Klunzinger,  Z. Koczor-Benda,  
 Joong Hoon Koh,  D. Kosenkov,  L. Koulias,  T. Kowalczyk,  C. M. Krauter,  
 K. Kue,  A. Kunitsa,  T. Kus,  A. Landau,  K. V. Lawler,  D. Lefrancois,  
 S. Lehtola,  Rain Li,  Yi-Pei Li,  Jiashu Liang,  M. Liebenthal,  
 Hung-Hsuan Lin,  You-Sheng Lin,  Fenglai Liu,  Kuan-Yu Liu,  
 M. Loipersberger,  A. Luenser,  A. Manjanath,  P. Manohar,  E. Mansoor,  
 S. F. Manzer,  Shan-Ping Mao,  A. V. Marenich,  T. Markovich,  S. Mason,  
 S. A. Maurer,  P. F. McLaughlin,  M. F. S. J. Menger,  J.-M. Mewes,  
 S. A. Mewes,  P. Morgante,  J. W. Mullinax,  T. S. Nguyen-Beck,  
 K. J. Oosterbaan,  G. Paran,  Alexander C. Paul,  Suranjan K. Paul,  
 F. Pavosevic,  Zheng Pei,  S. Prager,  E. I. Proynov,  E. Ramos,  B. Rana,  
 A. E. Rask,  A. Rettig,  R. M. Richard,  F. Rob,  E. Rossomme,  T. Scheele,  
 M. Scheurer,  M. Schneider,  N. Sergueev,  S. M. Sharada,  W. Skomorowski,  
 D. W. Small,  C. J. Stein,  Yu-Chuan Su,  E. J. Sundstrom,  Zhen Tao,  
 J. Thirman,  T. Tsuchimochi,  N. M. Tubman,  S. P. Veccham,  O. Vydrov,  
 J. Wenzel,  J. Witte,  A. Yamada,  Kun Yao,  S. Yeganeh,  S. R. Yost,  
 A. Zech,  Igor Ying Zhang,  Xing Zhang,  Yu Zhang,  D. Zuev,  
 A. Aspuru-Guzik,  A. T. Bell,  N. A. Besley,  K. B. Bravaya,  B. R. Brooks,  
 D. Casanova,  Jeng-Da Chai,  S. Coriani,  C. J. Cramer,  
 A. E. DePrince, III,  R. A. DiStasio Jr.,  A. Dreuw,  B. D. Dunietz,  
 T. R. Furlani,  W. A. Goddard III,  S. Grimme,  S. Hammes-Schiffer,  
 T. Head-Gordon,  W. J. Hehre,  Chao-Ping Hsu,  T.-C. Jagau,  Yousung Jung,  
 A. Klamt,  Jing Kong,  D. S. Lambrecht,  WanZhen Liang,  N. J. Mayhall,  
 C. W. McCurdy,  J. B. Neaton,  C. Ochsenfeld,  J. A. Parkhill,  R. Peverati,  
 V. A. Rassolov,  Yihan Shao,  L. V. Slipchenko,  T. Stauch,  R. P. Steele,  
 J. E. Subotnik,  A. J. W. Thom,  A. Tkatchenko,  D. G. Truhlar,  
 T. Van Voorhis,  T. A. Wesolowski,  K. B. Whaley,  H. L. Woodcock III,  
 P. M. Zimmerman,  S. Faraji,  P. M. W. Gill,  M. Head-Gordon,  
 J. M. Herbert,  A. I. Krylov

 Contributors to earlier versions of Q-Chem not listed above: 
 R. D. Adamson,  B. Austin,  R. Baer,  J. Baker,  G. J. O. Beran,  
 K. Brandhorst,  S. T. Brown,  E. F. C. Byrd,  A. K. Chakraborty,  
 G. K. L. Chan,  Chun-Min Chang,  Yunqing Chen,  C.-L. Cheng,  
 Siu Hung Chien,  D. M. Chipman,  D. L. Crittenden,  H. Dachsel,  
 R. J. Doerksen,  A. D. Dutoi,  R. G. Edgar,  J. Fosso-Tande,  
 L. Fusti-Molnar,  D. Ghosh,  A. Ghysels,  A. Golubeva-Zadorozhnaya,  
 J. Gonthier,  M. S. Gordon,  S. R. Gwaltney,  G. Hawkins,  J. E. Herr,  
 A. Heyden,  S. Hirata,  E. G. Hohenstein,  G. Kedziora,  F. J. Keil,  
 C. Kelley,  Jihan Kim,  R. A. King,  R. Z. Khaliullin,  P. P. Korambath,  
 W. Kurlancheek,  A. Laurent,  A. M. Lee,  M. S. Lee,  S. V. Levchenko,  
 Ching Yeh Lin,  D. Liotard,  E. Livshits,  R. C. Lochan,  I. Lotan,  
 L. A. Martinez-Martinez,  P. E. Maslen,  N. Nair,  D. P. O'Neill,  
 D. Neuhauser,  E. Neuscamman,  C. M. Oana,  R. Olivares-Amaya,  R. Olson,  
 T. M. Perrine,  B. Peters,  P. A. Pieniazek,  A. Prociuk,  Y. M. Rhee,  
 J. Ritchie,  M. A. Rohrdanz,  E. Rosta,  N. J. Russ,  H. F. Schaefer III,  
 M. W. Schmidt,  N. E. Schultz,  S. Sharma,  N. Shenvi,  C. D. Sherrill,  
 A. C. Simmonett,  A. Sodt,  T. Stein,  D. Stuck,  K. S. Thanthiriwatte,  
 V. Vanovschi,  L. Vogt,  Tao Wang,  A. Warshel,  M. A. Watson,  
 C. F. Williams,  Q. Wu,  X. Xu,  Jun Yang,  W. Zhang,  Yan Zhao

 Please cite Q-Chem as follows:
 Y. Shao et al., Mol. Phys. 113, 184-215 (2015)
 DOI: 10.1080/00268976.2014.952696

 Q-Chem 5.4.0 for Intel X86 EM64T Linux

 Parts of Q-Chem use Armadillo 9.800.1 (Horizon Scraper).
 http://arma.sourceforge.net/

 Q-Chem begins on Wed Dec 27 10:48:40 2023  

 Host: 
0

     Scratch files written to ./qchem1332100//
 May1621 |scratch|qcdevops|jenkins|workspace|build_RNUM    
 Parallel job on  1  processors
 Processing $rem in /cm/shared/apps/spack/cpu/opt/spack/linux-centos8-zen2/gcc-10.2.0/qchem-5.4-akfmr7b3t57bfs6qan3padb2wnb2i7cl/config/preferences:
 Processing $rem in /home/rramji/.qchemrc:
 Symmetry turned off for PCM/SM12/SMD calculation
 Core orbitals will be frozen

 Checking the input file for inconsistencies... 	...done.

 Q-Chem warning in module forms1/BasisType.C, line 2236:

 You are not using the predefined 5D/6D in this basis set.


--------------------------------------------------------------
User input:
--------------------------------------------------------------
$molecule
0 1
C	0.241938	-6.741404	0.086486
C	1.468983	-6.155638	0.532960
C	-0.776651	-5.791452	-0.284733
C	1.730681	-4.803786	0.628455
H	2.294130	-6.821518	0.833086
C	-0.502775	-4.378638	-0.184300
C	0.747353	-3.838032	0.271086
C	-1.484986	-3.413062	-0.541191
C	1.019042	-2.426473	0.370703
C	-1.226525	-2.059348	-0.446468
C	0.000000	-1.478216	0.000000
H	-2.052666	-1.394783	-0.746717
C	-2.131549	-6.187987	-0.779832
C	-2.829295	-3.798164	-1.030596
N	-3.057496	-5.170003	-1.115461
C	3.078712	-4.424987	1.119034
C	2.375300	-2.036627	0.865151
N	3.301374	-3.049156	1.201176
O	-2.498300	-7.353131	-0.916355
O	-3.697195	-2.986854	-1.345486
O	3.936224	-5.248946	1.430379
O	2.762805	-0.878829	1.007714
C	-4.384539	-5.563799	-1.599576
H	-4.426636	-6.664085	-1.616121
H	-4.550487	-5.147101	-2.611458
H	-5.162921	-5.148785	-0.931037
C	4.608454	-2.587487	1.677382
H	5.212668	-3.483329	1.896168
H	4.482719	-1.964972	2.583531
H	5.093988	-1.962932	0.903674
C	0.000000	0.000000	0.000000
S	0.396411	0.687007	1.580530
C	1.215245	2.105322	0.904911
C	0.498850	0.864369	-0.985400
C	1.158885	2.007781	-0.493528
H	0.381046	0.660280	-2.059934
H	1.599289	2.770727	-1.152593
H	1.655514	2.868056	1.556025
H	-0.165874	-7.361589	0.893959
H	0.449423	-7.361192	-0.794290
H	-0.369880	-1.478831	1.014686
$end

$rem
JOBTYPE		SP
EXCHANGE	HF
CORRELATION	pRIMP2
BASIS		cc-pvtz
METHOD		rimp2
AUX_BASIS	rimp2-cc-pvtz
SOLVENT_METHOD	PCM
PURECART	11111
SYMMETRY	false
MEM_TOTAL	110000
SCF_CONVERGENCE = 6
THRESH=10
GUI = 2
$end



$solvent
dielectric 4.90
$end
--------------------------------------------------------------
 ----------------------------------------------------------------
             Standard Nuclear Orientation (Angstroms)
    I     Atom           X                Y                Z
 ----------------------------------------------------------------
    1      C       0.2419380000    -6.7414040000     0.0864860000
    2      C       1.4689830000    -6.1556380000     0.5329600000
    3      C      -0.7766510000    -5.7914520000    -0.2847330000
    4      C       1.7306810000    -4.8037860000     0.6284550000
    5      H       2.2941300000    -6.8215180000     0.8330860000
    6      C      -0.5027750000    -4.3786380000    -0.1843000000
    7      C       0.7473530000    -3.8380320000     0.2710860000
    8      C      -1.4849860000    -3.4130620000    -0.5411910000
    9      C       1.0190420000    -2.4264730000     0.3707030000
   10      C      -1.2265250000    -2.0593480000    -0.4464680000
   11      C       0.0000000000    -1.4782160000     0.0000000000
   12      H      -2.0526660000    -1.3947830000    -0.7467170000
   13      C      -2.1315490000    -6.1879870000    -0.7798320000
   14      C      -2.8292950000    -3.7981640000    -1.0305960000
   15      N      -3.0574960000    -5.1700030000    -1.1154610000
   16      C       3.0787120000    -4.4249870000     1.1190340000
   17      C       2.3753000000    -2.0366270000     0.8651510000
   18      N       3.3013740000    -3.0491560000     1.2011760000
   19      O      -2.4983000000    -7.3531310000    -0.9163550000
   20      O      -3.6971950000    -2.9868540000    -1.3454860000
   21      O       3.9362240000    -5.2489460000     1.4303790000
   22      O       2.7628050000    -0.8788290000     1.0077140000
   23      C      -4.3845390000    -5.5637990000    -1.5995760000
   24      H      -4.4266360000    -6.6640850000    -1.6161210000
   25      H      -4.5504870000    -5.1471010000    -2.6114580000
   26      H      -5.1629210000    -5.1487850000    -0.9310370000
   27      C       4.6084540000    -2.5874870000     1.6773820000
   28      H       5.2126680000    -3.4833290000     1.8961680000
   29      H       4.4827190000    -1.9649720000     2.5835310000
   30      H       5.0939880000    -1.9629320000     0.9036740000
   31      C       0.0000000000     0.0000000000     0.0000000000
   32      S       0.3964110000     0.6870070000     1.5805300000
   33      C       1.2152450000     2.1053220000     0.9049110000
   34      C       0.4988500000     0.8643690000    -0.9854000000
   35      C       1.1588850000     2.0077810000    -0.4935280000
   36      H       0.3810460000     0.6602800000    -2.0599340000
   37      H       1.5992890000     2.7707270000    -1.1525930000
   38      H       1.6555140000     2.8680560000     1.5560250000
   39      H      -0.1658740000    -7.3615890000     0.8939590000
   40      H       0.4494230000    -7.3611920000    -0.7942900000
   41      H      -0.3698800000    -1.4788310000     1.0146860000
 ----------------------------------------------------------------
 Nuclear Repulsion Energy =        2570.46198069 hartrees
 There are       98 alpha and       98 beta electrons
 Requested basis set is cc-pVTZ
 There are 356 shells and 1010 basis functions

 Total QAlloc Memory Limit 110000 MB
 Mega-Array Size       188 MB
 MEM_STATIC part       192 MB
 Discretize the solute cavity surface with Lebedev spheres
	Using 110 Lebedev grid points for each H atom
	Using 194 Lebedev grid points for other atoms
	Atomic van der Waals radii will be scaled by 1.20
 Remove points where switching function is < 1.0e-08
 Keep 2586 surface tesserae and discard 4192 interior tesserae
 Molecular Surface Area = 365.521 Angst**2
 Requested basis set is rimp2-cc-pVTZ
 There are 770 shells and 2648 basis functions
 A cutoff of  1.0D-10 yielded  34468 shell pairs
 There are    260724 function pairs (    337578 Cartesian)
 Smallest overlap matrix eigenvalue = 8.93E-06

 Q-Chem warning in module stvman/mkSTV.C, line 323:

 Overlap eigenvalue is smaller than square root of threshold
 Use THRESH >= 12 to get rid of this warning


 Scale SEOQF with 1.000000e-01/1.000000e-02/1.000000e-01

 Standard Electronic Orientation quadrupole field applied
 Nucleus-field energy     =     0.0000000408 hartrees
 Guess from superposition of atomic densities
 Warning:  Energy on first SCF cycle will be non-variational
 SAD guess density has 196.000000 electrons

 -----------------------------------------------------------------------
  General SCF calculation program by
  Eric Jon Sundstrom, Paul Horn, Yuezhi Mao, Dmitri Zuev, Alec White,
  David Stuck, Shaama M.S., Shane Yost, Joonho Lee, David Small,
  Daniel Levine, Susi Lehtola, Hugh Burton, Evgeny Epifanovsky,
  Bang C. Huynh
 -----------------------------------------------------------------------
 Hartree-Fock
 using 64 threads for integral computing
 -------------------------------------------------------
 OpenMP Integral computing Module                
 Release: version 1.0, May 2013, Q-Chem Inc. Pittsburgh 
 -------------------------------------------------------
 A restricted SCF calculation will be
 performed using DIIS
 SCF converges when DIIS error is below 1.0e-06
 ---------------------------------------
  Cycle       Energy         DIIS error
 ---------------------------------------
    1   -1583.1340399402      1.86e-02  
    2   -1571.1475943198      2.03e-03  
    3   -1571.4856075529      1.55e-03  
    4   -1571.7071935556      2.54e-04  
    5   -1571.7210799382      7.85e-05  
    6   -1571.7225162988      3.04e-05  
    7   -1571.7229471581      1.56e-05  
    8   -1571.7230662171      6.48e-06  
    9   -1571.7230870802      2.97e-06  
   10   -1571.7230913833      1.27e-06  
   11   -1571.7230926356      5.70e-07  Convergence criterion met
 ---------------------------------------
 SCF time:   CPU 6923.10s  wall 264.00s 

************** Final PCM Free Energy Summary **************
 G_electrostatic  =      -0.02962766 hartree =     -18.59163447 kcal/mol
 G_cavitation     =       0.00000000 hartree =       0.00000000 kcal/mol
 G_dispersion     =       0.00000000 hartree =       0.00000000 kcal/mol
 G_repulsion      =       0.00000000 hartree =       0.00000000 kcal/mol
 --------------------------------------------------
 Non-electrostatic Free Energy =       0.00000000 hartree =       0.00000000 kcal/mol
 Total                         =      -0.02962766 hartree =     -18.59163447 kcal/mol
 --------------------------------------------------
 SCF Energy (H0 + V/2)                       =   -1571.72309264 
 Solute Internal Energy (H0)                 =   -1571.69346498 
 Total Free Energy (H0 + V/2 + non-elec)     =   -1571.72309264 hartree
                                             = -986271.12641823 kcal/mol
***********************************************************

 SCF   energy in the final basis set =    -1571.7230926356
 Total energy in the final basis set =    -1571.7230926356


 --------------------------------------------------------------
  Generalized many-body perturbation theory program
  by Joonho Lee, Fazle Rob, Xintian Feng, Evgeny Epifanovsky

 No regularization used 
 (reg. param. = 0.0000e+00)
  (P|Q)^-1/2 Time:  CPU 156.64 s  wall 3.16 s

 In RI-MP2 calculation: 
 # of frozen core orbitals: 31

 Components of the RIMP2 correlation energy:
        aaaa    correlation energy =        -0.6163333798 a.u.
        abab    correlation energy =        -3.4291842642 a.u.
        bbbb    correlation energy =        -0.6163333798 a.u.
        non-Brillouin singles      =        -0.0000000000 a.u.
        total same-spin energy     =        -1.2326667597 a.u.
        total opposite-spin energy =        -3.4291842642 a.u.

 Total  RIMP2   correlation energy =        -4.6618510238 a.u.
        RIMP2         total energy =     -1576.3849436594 a.u.

 RI-MP2 Energy Time:  CPU 1985.92 s  wall 32.96 s
 
 --------------------------------------------------------------
 
                    Orbital Energies (a.u.)
 --------------------------------------------------------------
 
 Alpha MOs
 -- Occupied --
-91.9857 -20.5485 -20.5436 -20.5406 -20.5393 -15.6256 -15.6202 -11.3908
-11.3842 -11.3825 -11.3777 -11.3071 -11.3056 -11.3037 -11.3035 -11.2954
-11.2874 -11.2856 -11.2816 -11.2673 -11.2672 -11.2624 -11.2618 -11.2588
-11.2575 -11.2517 -11.2488  -8.9858  -6.6665  -6.6660  -6.6655  -1.4179
 -1.4112  -1.3960  -1.3903  -1.2608  -1.2544  -1.2281  -1.1855  -1.1510
 -1.1124  -1.0847  -1.0451  -0.9942  -0.9869  -0.9836  -0.9540  -0.9503
 -0.8943  -0.8849  -0.8758  -0.8590  -0.7900  -0.7746  -0.7740  -0.7674
 -0.7352  -0.7168  -0.7033  -0.6902  -0.6757  -0.6685  -0.6667  -0.6562
 -0.6459  -0.6392  -0.6369  -0.6310  -0.6300  -0.6257  -0.6229  -0.6035
 -0.5835  -0.5728  -0.5680  -0.5608  -0.5561  -0.5505  -0.5495  -0.5474
 -0.5470  -0.5427  -0.5174  -0.5111  -0.5057  -0.4800  -0.4713  -0.4655
 -0.4536  -0.4471  -0.4414  -0.4334  -0.4128  -0.4066  -0.3514  -0.3461
 -0.3286  -0.2883
 -- Virtual --
  0.0162   0.0446   0.0780   0.0926   0.1301   0.1498   0.1550   0.1605
  0.1643   0.1730   0.1803   0.1839   0.1853   0.1908   0.1938   0.2033
  0.2074   0.2205   0.2238   0.2289   0.2320   0.2343   0.2371   0.2452
  0.2666   0.2696   0.2918   0.3041   0.3107   0.3176   0.3215   0.3243
  0.3286   0.3407   0.3433   0.3524   0.3552   0.3600   0.3633   0.3645
  0.3722   0.3769   0.3799   0.3856   0.3888   0.3904   0.3992   0.4049
  0.4158   0.4204   0.4289   0.4318   0.4362   0.4406   0.4453   0.4494
  0.4512   0.4533   0.4568   0.4649   0.4730   0.4859   0.4934   0.4946
  0.4989   0.5074   0.5114   0.5140   0.5170   0.5228   0.5242   0.5286
  0.5324   0.5358   0.5436   0.5489   0.5556   0.5584   0.5605   0.5650
  0.5708   0.5742   0.5791   0.5822   0.5898   0.5924   0.5938   0.6013
  0.6050   0.6072   0.6097   0.6109   0.6172   0.6188   0.6230   0.6245
  0.6269   0.6347   0.6357   0.6377   0.6405   0.6442   0.6483   0.6505
  0.6599   0.6652   0.6780   0.6807   0.6866   0.6933   0.6948   0.6994
  0.7074   0.7127   0.7162   0.7232   0.7340   0.7387   0.7463   0.7545
  0.7644   0.7665   0.7729   0.7773   0.7793   0.7835   0.7962   0.8020
  0.8047   0.8071   0.8177   0.8233   0.8248   0.8316   0.8414   0.8480
  0.8512   0.8586   0.8649   0.8669   0.8713   0.8764   0.8815   0.8829
  0.8884   0.8991   0.9057   0.9121   0.9169   0.9255   0.9272   0.9297
  0.9369   0.9436   0.9535   0.9560   0.9631   0.9663   0.9711   0.9737
  0.9790   0.9913   0.9945   0.9948   1.0044   1.0099   1.0142   1.0246
  1.0312   1.0328   1.0389   1.0401   1.0467   1.0503   1.0569   1.0648
  1.0682   1.0700   1.0726   1.0807   1.0882   1.0935   1.1014   1.1058
  1.1096   1.1173   1.1213   1.1285   1.1319   1.1342   1.1388   1.1446
  1.1493   1.1536   1.1618   1.1636   1.1681   1.1753   1.1826   1.1845
  1.1866   1.2003   1.2003   1.2075   1.2100   1.2144   1.2218   1.2268
  1.2289   1.2385   1.2386   1.2455   1.2494   1.2549   1.2660   1.2736
  1.2802   1.2922   1.2972   1.3117   1.3159   1.3279   1.3303   1.3362
  1.3480   1.3504   1.3555   1.3673   1.3684   1.3828   1.3859   1.3878
  1.3915   1.3990   1.4030   1.4067   1.4190   1.4209   1.4272   1.4336
  1.4471   1.4551   1.4621   1.4721   1.4779   1.4855   1.4924   1.4966
  1.5005   1.5045   1.5159   1.5181   1.5210   1.5288   1.5347   1.5415
  1.5451   1.5512   1.5536   1.5582   1.5662   1.5677   1.5739   1.5742
  1.5797   1.5876   1.5948   1.6074   1.6155   1.6256   1.6322   1.6383
  1.6501   1.6573   1.6659   1.6685   1.6781   1.6869   1.6895   1.6998
  1.7077   1.7180   1.7242   1.7268   1.7315   1.7467   1.7494   1.7588
  1.7591   1.7677   1.7741   1.7785   1.7840   1.7942   1.8089   1.8116
  1.8177   1.8290   1.8356   1.8460   1.8540   1.8658   1.8722   1.8738
  1.8764   1.8829   1.8865   1.9114   1.9187   1.9264   1.9329   1.9513
  1.9557   1.9640   1.9691   1.9848   1.9907   1.9953   2.0143   2.0229
  2.0288   2.0439   2.0473   2.0807   2.0930   2.0958   2.1119   2.1201
  2.1350   2.1406   2.1461   2.1599   2.1806   2.1909   2.2076   2.2250
  2.2299   2.2374   2.2544   2.2564   2.2782   2.2917   2.3070   2.3098
  2.3110   2.3195   2.3292   2.3376   2.3663   2.3706   2.3731   2.3883
  2.4073   2.4301   2.4377   2.4393   2.4405   2.4576   2.4609   2.4709
  2.4749   2.4834   2.4997   2.5076   2.5157   2.5319   2.5400   2.5443
  2.5594   2.5712   2.5766   2.5864   2.5957   2.6002   2.6095   2.6185
  2.6286   2.6394   2.6413   2.6424   2.6610   2.6726   2.6787   2.6804
  2.6894   2.6977   2.7020   2.7175   2.7256   2.7283   2.7336   2.7383
  2.7391   2.7470   2.7593   2.7646   2.7722   2.7770   2.7861   2.8073
  2.8158   2.8258   2.8319   2.8435   2.8532   2.8550   2.8592   2.8772
  2.8795   2.8839   2.8931   2.8945   2.8975   2.9068   2.9089   2.9225
  2.9240   2.9265   2.9330   2.9429   2.9492   2.9585   2.9612   2.9781
  2.9848   2.9868   2.9942   3.0064   3.0164   3.0183   3.0234   3.0284
  3.0344   3.0363   3.0517   3.0546   3.0586   3.0711   3.0859   3.0929
  3.0963   3.1011   3.1068   3.1092   3.1120   3.1178   3.1243   3.1283
  3.1360   3.1395   3.1481   3.1535   3.1589   3.1602   3.1726   3.1754
  3.1835   3.1935   3.1984   3.2041   3.2121   3.2156   3.2197   3.2251
  3.2334   3.2358   3.2385   3.2524   3.2537   3.2587   3.2636   3.2652
  3.2747   3.2754   3.2789   3.2915   3.2980   3.3021   3.3040   3.3076
  3.3132   3.3168   3.3198   3.3255   3.3299   3.3347   3.3370   3.3419
  3.3451   3.3490   3.3534   3.3556   3.3584   3.3665   3.3713   3.3784
  3.3867   3.3889   3.3912   3.3967   3.3997   3.4028   3.4074   3.4111
  3.4158   3.4224   3.4233   3.4283   3.4369   3.4410   3.4454   3.4563
  3.4598   3.4627   3.4678   3.4710   3.4760   3.4788   3.4848   3.4878
  3.4975   3.4977   3.5039   3.5067   3.5106   3.5169   3.5230   3.5319
  3.5362   3.5412   3.5494   3.5534   3.5614   3.5689   3.5750   3.5811
  3.5886   3.5922   3.5989   3.6016   3.6091   3.6220   3.6244   3.6279
  3.6297   3.6348   3.6382   3.6428   3.6507   3.6546   3.6559   3.6591
  3.6668   3.6772   3.6863   3.6898   3.7002   3.7016   3.7052   3.7087
  3.7204   3.7316   3.7356   3.7413   3.7420   3.7498   3.7535   3.7558
  3.7629   3.7697   3.7712   3.7753   3.7773   3.7930   3.7977   3.8048
  3.8119   3.8143   3.8183   3.8290   3.8345   3.8389   3.8443   3.8490
  3.8499   3.8538   3.8575   3.8685   3.8853   3.8914   3.8996   3.9104
  3.9133   3.9190   3.9246   3.9329   3.9419   3.9425   3.9491   3.9551
  3.9606   3.9655   3.9712   3.9733   3.9852   3.9901   3.9965   4.0082
  4.0177   4.0254   4.0316   4.0368   4.0460   4.0595   4.0675   4.0735
  4.0945   4.1050   4.1131   4.1195   4.1270   4.1308   4.1371   4.1432
  4.1463   4.1563   4.1690   4.1713   4.1790   4.1803   4.1982   4.2097
  4.2128   4.2211   4.2231   4.2417   4.2476   4.2536   4.2601   4.2679
  4.2720   4.2766   4.2839   4.2849   4.2948   4.2970   4.3017   4.3056
  4.3110   4.3175   4.3209   4.3274   4.3314   4.3427   4.3496   4.3560
  4.3626   4.3655   4.3700   4.3737   4.3787   4.3818   4.3888   4.3934
  4.3977   4.4076   4.4126   4.4211   4.4304   4.4459   4.4472   4.4583
  4.4690   4.4782   4.4847   4.5000   4.5047   4.5110   4.5201   4.5340
  4.5382   4.5394   4.5458   4.5521   4.5596   4.5683   4.5817   4.5838
  4.5892   4.5957   4.6009   4.6097   4.6183   4.6262   4.6269   4.6393
  4.6473   4.6515   4.6688   4.6752   4.6887   4.6918   4.7022   4.7076
  4.7124   4.7252   4.7399   4.7454   4.7727   4.7818   4.7907   4.7965
  4.8113   4.8308   4.8329   4.8466   4.8537   4.8578   4.8745   4.8810
  4.8852   4.8962   4.9076   4.9256   4.9279   4.9410   4.9626   4.9699
  4.9910   5.0024   5.0205   5.0239   5.0365   5.0437   5.0609   5.0654
  5.0774   5.0849   5.1017   5.1070   5.1232   5.1271   5.1310   5.1394
  5.1430   5.1495   5.1702   5.1732   5.1897   5.1984   5.2223   5.2377
  5.2619   5.2649   5.2740   5.2827   5.2899   5.3034   5.3183   5.3294
  5.3319   5.3534   5.3565   5.3671   5.3787   5.3849   5.4044   5.4171
  5.4327   5.4477   5.4785   5.4852   5.4941   5.4994   5.5140   5.5155
  5.5184   5.5369   5.5473   5.5530   5.5582   5.5606   5.5676   5.5734
  5.5808   5.5832   5.5875   5.5892   5.6105   5.6202   5.6221   5.6318
  5.6498   5.6560   5.6619   5.6672   5.6692   5.6717   5.6943   5.6958
  5.7025   5.7119   5.7316   5.7435   5.7575   5.7603   5.7709   5.7753
  5.7861   5.7918   5.8076   5.8312   5.8440   5.8639   5.8971   5.9183
  5.9368   5.9578   5.9775   5.9898   6.0054   6.0117   6.0388   6.0435
  6.0471   6.0520   6.0964   6.1128   6.1241   6.1308   6.1469   6.1902
  6.2004   6.2205   6.2253   6.2264   6.2443   6.2620   6.2683   6.2843
  6.3111   6.3133   6.3244   6.3489   6.3670   6.3851   6.4158   6.4861
  6.5202   6.5349   6.5771   6.5838   6.6024   6.6215   6.6310   6.6609
  6.6719   6.6776   6.8505   6.8515   6.8903   6.9035   6.9068   6.9254
  6.9283   6.9527   7.1030   7.1131   7.1481   7.1964   7.2010   7.2372
  7.3486   7.3530   7.3592   7.3653   7.4766   7.5459   7.5719   7.5844
  7.5928   7.6122   7.6552   7.6848   7.6965   7.7190   8.8336  10.0161
 10.3202  11.3224  11.5197  11.7567  11.9983  12.1623  12.4124  12.4629
 12.8883  13.2066  13.3444  13.5531  13.7854  13.9354  14.0933  14.2764
 14.3139  14.3704  14.4993  14.5391  15.0220  15.6040  15.8193  16.3007
 --------------------------------------------------------------
 
          Ground-State Mulliken Net Atomic Charges

     Atom                 Charge (a.u.)
  ----------------------------------------
      1 C                    -0.083876
      2 C                    -0.031972
      3 C                    -0.114883
      4 C                    -0.119520
      5 H                     0.198168
      6 C                     0.008996
      7 C                     0.117090
      8 C                    -0.077032
      9 C                    -0.174499
     10 C                    -0.159236
     11 C                     0.227184
     12 H                     0.191124
     13 C                     0.342637
     14 C                     0.348424
     15 N                    -0.089828
     16 C                     0.355597
     17 C                     0.363326
     18 N                    -0.088988
     19 O                    -0.495780
     20 O                    -0.508237
     21 O                    -0.502549
     22 O                    -0.466832
     23 C                    -0.204962
     24 H                     0.139235
     25 H                     0.108758
     26 H                     0.108924
     27 C                    -0.197610
     28 H                     0.133111
     29 H                     0.110649
     30 H                     0.111134
     31 C                    -0.059833
     32 S                     0.015456
     33 C                    -0.182983
     34 C                    -0.171178
     35 C                    -0.203979
     36 H                     0.188968
     37 H                     0.190239
     38 H                     0.211847
     39 H                     0.136827
     40 H                     0.136938
     41 H                     0.189145
  ----------------------------------------
  Sum of atomic charges =     0.000000

 -----------------------------------------------------------------
                    Cartesian Multipole Moments
 -----------------------------------------------------------------
    Charge (ESU x 10^10)
                 0.0000
    Dipole Moment (Debye)
         X       2.1784      Y       2.6774      Z       0.1945
       Tot       3.4571
    Quadrupole Moments (Debye-Ang)
        XX    -189.4421     XY      -2.6926     YY    -182.6405
        XZ      -9.8227     YZ      -3.5427     ZZ    -159.9173
    Octopole Moments (Debye-Ang^2)
       XXX    -114.1468    XXY     598.9674    XYY      35.7466
       YYY    1709.7611    XXZ     -20.6397    XYZ      49.5142
       YYZ       6.9384    XZZ     -31.8165    YZZ     492.7805
       ZZZ     -71.0458
    Hexadecapole Moments (Debye-Ang^3)
      XXXX   -5753.2227   XXXY    -184.3052   XXYY   -4266.5338
      XYYY   -1177.6679   YYYY  -18095.5924   XXXZ   -1071.5481
      XXYZ      48.8403   XYYZ    -599.6482   YYYZ    -439.0006
      XXZZ   -1131.7844   XYZZ    -102.1866   YYZZ   -2859.8371
      XZZZ    -959.1781   YZZZ    -155.8681   ZZZZ   -1145.4865
 -----------------------------------------------------------------
 Total job time:  309.81s(wall), 9576.59s(cpu) 
 Wed Dec 27 10:53:50 2023

        *************************************************************
        *                                                           *
        *  Thank you very much for using Q-Chem.  Have a nice day.  *
        *                                                           *
        *************************************************************


0 sent ACK to 0 
now end server 0 ... 
cleanup process ... done
remove work dirs ./qchem1332100.0 -- ./qchem1332100.0
rm -rf ./qchem1332100.0
rm -rf ./qchem1332100
