You are running Q-Chem version: 5.4.0

#
# job setting
#
local host:  exp-3-40
current dir: /home/rramji/project-csd799/aromodel/pndit-qchem/hydrogenated-rotation-run
input file:  Dimethyl_Naphthalene_Dicarboximide_Phi_50_Theta_40_Thiophene_Hydrogenated.qcin
output file: 
nprocs     : 1
nthreads   : 64
#
# qchem installation setting
#
QC:          /cm/shared/apps/spack/cpu/opt/spack/linux-centos8-zen2/gcc-10.2.0/qchem-5.4-akfmr7b3t57bfs6qan3padb2wnb2i7cl
QCAUX:       /cm/shared/apps/spack/cpu/opt/spack/linux-centos8-zen2/gcc-10.2.0/qchem-5.4-akfmr7b3t57bfs6qan3padb2wnb2i7cl/qcaux
QCPROG:      /cm/shared/apps/spack/cpu/opt/spack/linux-centos8-zen2/gcc-10.2.0/qchem-5.4-akfmr7b3t57bfs6qan3padb2wnb2i7cl/exe/qcprog.exe
QCPROG_S:    /cm/shared/apps/spack/cpu/opt/spack/linux-centos8-zen2/gcc-10.2.0/qchem-5.4-akfmr7b3t57bfs6qan3padb2wnb2i7cl/exe/qcprog.exe_s
PARALLEL:    -DPARALLEL
QCMPI:       mpich
#
# qchem directory setting
#
qcrun:       qchem1989214
QCSCRATCH:   .
QCLOCALSCR:  
QCTMPDIR:    .
QCFILEPREF:  ./qchem1989214
QCSAVEDIR:   
workdirs:    ./qchem1989214
workdir0:    ./qchem1989214
partmpdirs =  
#
# parallel setting
#
QCRSH:           ssh
QCMPI:           mpich
QCMPIRUN:        /cm/shared/apps/spack/cpu/opt/spack/linux-centos8-zen2/gcc-10.2.0/qchem-5.4-akfmr7b3t57bfs6qan3padb2wnb2i7cl/bin/mpi/mpirun_qchem
QCMACHINEFILE:   ./qchem1989214/hostfile
exp-3-40

#
# env setting
#
exported envs:   QC QCAUX QCSCRATCH QCRUNNAME QCFILEPREF QCPROG QCPROG_S GUIFILE

Running Job 1 of 1 Dimethyl_Naphthalene_Dicarboximide_Phi_50_Theta_40_Thiophene_Hydrogenated.qcin
qchem Dimethyl_Naphthalene_Dicarboximide_Phi_50_Theta_40_Thiophene_Hydrogenated.qcin_1989214.0 ./qchem1989214/ 1
/cm/shared/apps/spack/cpu/opt/spack/linux-centos8-zen2/gcc-10.2.0/qchem-5.4-akfmr7b3t57bfs6qan3padb2wnb2i7cl/bin/mpi/mpirun_qchem -machinefile ./qchem1989214/hostfile -np 1 /cm/shared/apps/spack/cpu/opt/spack/linux-centos8-zen2/gcc-10.2.0/qchem-5.4-akfmr7b3t57bfs6qan3padb2wnb2i7cl/exe/qcprog.exe Dimethyl_Naphthalene_Dicarboximide_Phi_50_Theta_40_Thiophene_Hydrogenated.qcin_1989214.0 ./qchem1989214/

Process 0 of 1 is on exp-3-40 - thread support 0
initial socket setup ...start
initial socket setup ...done 
now start server 0 ... 
                  Welcome to Q-Chem
     A Quantum Leap Into The Future Of Chemistry


 Q-Chem 5.4, Q-Chem, Inc., Pleasanton, CA (2021)

 License issued to: University of California, San Diego (site)

 E. Epifanovsky,  A. T. B. Gilbert,  Xintian Feng,  Joonho Lee,  Yuezhi Mao,  
 N. Mardirossian,  P. Pokhilko,  A. White,  M. Wormit,  M. P. Coons,  
 A. L. Dempwolff,  Zhengting Gan,  D. Hait,  P. R. Horn,  L. D. Jacobson,  
 I. Kaliman,  J. Kussmann,  A. W. Lange,  Ka Un Lao,  D. S. Levine,  Jie Liu,  
 S. C. McKenzie,  A. F. Morrison,  K. Nanda,  F. Plasser,  D. R. Rehn,  
 M. L. Vidal,  Zhi-Qiang You,  Ying Zhu,  B. Alam,  B. Albrecht,  
 A. Aldossary,  E. Alguire,  J. H. Andersen,  D. Barton,  K. Begam,  A. Behn,  
 Y. A. Bernard,  E. J. Berquist,  H. Burton,  A. Carreras,  K. Carter-Fenk,  
 R. Chakraborty,  A. D. Chien,  K. D. Closser,  V. Cofer-Shabica,  
 S. Dasgupta,  Jia Deng,  M. de Wergifosse,  M. Diedenhofen,  Hainam Do,  
 S. Ehlert,  Po-Tung Fang,  S. Fatehi,  Qingguo Feng,  J. Gayvert,  
 Qinghui Ge,  G. Gidofalvi,  M. Goldey,  J. Gomes,  C. Gonzalez-Espinoza,  
 S. Gulania,  A. Gunina,  M. W. D. Hanson-Heine,  P. H. P. Harbach,  
 A. W. Hauser,  M. F. Herbst,  M. Hernandez Vera,  M. Hodecker,  
 Z. C. Holden,  S. Houck,  Xunkun Huang,  Kerwin Hui,  B. C. Huynh,  
 M. Ivanov,  Hyunjun Ji,  Hanjie Jiang,  B. Kaduk,  S. Kaehler,  
 K. Khistyaev,  Jaehoon Kim,  P. Klunzinger,  Z. Koczor-Benda,  
 Joong Hoon Koh,  D. Kosenkov,  L. Koulias,  T. Kowalczyk,  C. M. Krauter,  
 K. Kue,  A. Kunitsa,  T. Kus,  A. Landau,  K. V. Lawler,  D. Lefrancois,  
 S. Lehtola,  Rain Li,  Yi-Pei Li,  Jiashu Liang,  M. Liebenthal,  
 Hung-Hsuan Lin,  You-Sheng Lin,  Fenglai Liu,  Kuan-Yu Liu,  
 M. Loipersberger,  A. Luenser,  A. Manjanath,  P. Manohar,  E. Mansoor,  
 S. F. Manzer,  Shan-Ping Mao,  A. V. Marenich,  T. Markovich,  S. Mason,  
 S. A. Maurer,  P. F. McLaughlin,  M. F. S. J. Menger,  J.-M. Mewes,  
 S. A. Mewes,  P. Morgante,  J. W. Mullinax,  T. S. Nguyen-Beck,  
 K. J. Oosterbaan,  G. Paran,  Alexander C. Paul,  Suranjan K. Paul,  
 F. Pavosevic,  Zheng Pei,  S. Prager,  E. I. Proynov,  E. Ramos,  B. Rana,  
 A. E. Rask,  A. Rettig,  R. M. Richard,  F. Rob,  E. Rossomme,  T. Scheele,  
 M. Scheurer,  M. Schneider,  N. Sergueev,  S. M. Sharada,  W. Skomorowski,  
 D. W. Small,  C. J. Stein,  Yu-Chuan Su,  E. J. Sundstrom,  Zhen Tao,  
 J. Thirman,  T. Tsuchimochi,  N. M. Tubman,  S. P. Veccham,  O. Vydrov,  
 J. Wenzel,  J. Witte,  A. Yamada,  Kun Yao,  S. Yeganeh,  S. R. Yost,  
 A. Zech,  Igor Ying Zhang,  Xing Zhang,  Yu Zhang,  D. Zuev,  
 A. Aspuru-Guzik,  A. T. Bell,  N. A. Besley,  K. B. Bravaya,  B. R. Brooks,  
 D. Casanova,  Jeng-Da Chai,  S. Coriani,  C. J. Cramer,  
 A. E. DePrince, III,  R. A. DiStasio Jr.,  A. Dreuw,  B. D. Dunietz,  
 T. R. Furlani,  W. A. Goddard III,  S. Grimme,  S. Hammes-Schiffer,  
 T. Head-Gordon,  W. J. Hehre,  Chao-Ping Hsu,  T.-C. Jagau,  Yousung Jung,  
 A. Klamt,  Jing Kong,  D. S. Lambrecht,  WanZhen Liang,  N. J. Mayhall,  
 C. W. McCurdy,  J. B. Neaton,  C. Ochsenfeld,  J. A. Parkhill,  R. Peverati,  
 V. A. Rassolov,  Yihan Shao,  L. V. Slipchenko,  T. Stauch,  R. P. Steele,  
 J. E. Subotnik,  A. J. W. Thom,  A. Tkatchenko,  D. G. Truhlar,  
 T. Van Voorhis,  T. A. Wesolowski,  K. B. Whaley,  H. L. Woodcock III,  
 P. M. Zimmerman,  S. Faraji,  P. M. W. Gill,  M. Head-Gordon,  
 J. M. Herbert,  A. I. Krylov

 Contributors to earlier versions of Q-Chem not listed above: 
 R. D. Adamson,  B. Austin,  R. Baer,  J. Baker,  G. J. O. Beran,  
 K. Brandhorst,  S. T. Brown,  E. F. C. Byrd,  A. K. Chakraborty,  
 G. K. L. Chan,  Chun-Min Chang,  Yunqing Chen,  C.-L. Cheng,  
 Siu Hung Chien,  D. M. Chipman,  D. L. Crittenden,  H. Dachsel,  
 R. J. Doerksen,  A. D. Dutoi,  R. G. Edgar,  J. Fosso-Tande,  
 L. Fusti-Molnar,  D. Ghosh,  A. Ghysels,  A. Golubeva-Zadorozhnaya,  
 J. Gonthier,  M. S. Gordon,  S. R. Gwaltney,  G. Hawkins,  J. E. Herr,  
 A. Heyden,  S. Hirata,  E. G. Hohenstein,  G. Kedziora,  F. J. Keil,  
 C. Kelley,  Jihan Kim,  R. A. King,  R. Z. Khaliullin,  P. P. Korambath,  
 W. Kurlancheek,  A. Laurent,  A. M. Lee,  M. S. Lee,  S. V. Levchenko,  
 Ching Yeh Lin,  D. Liotard,  E. Livshits,  R. C. Lochan,  I. Lotan,  
 L. A. Martinez-Martinez,  P. E. Maslen,  N. Nair,  D. P. O'Neill,  
 D. Neuhauser,  E. Neuscamman,  C. M. Oana,  R. Olivares-Amaya,  R. Olson,  
 T. M. Perrine,  B. Peters,  P. A. Pieniazek,  A. Prociuk,  Y. M. Rhee,  
 J. Ritchie,  M. A. Rohrdanz,  E. Rosta,  N. J. Russ,  H. F. Schaefer III,  
 M. W. Schmidt,  N. E. Schultz,  S. Sharma,  N. Shenvi,  C. D. Sherrill,  
 A. C. Simmonett,  A. Sodt,  T. Stein,  D. Stuck,  K. S. Thanthiriwatte,  
 V. Vanovschi,  L. Vogt,  Tao Wang,  A. Warshel,  M. A. Watson,  
 C. F. Williams,  Q. Wu,  X. Xu,  Jun Yang,  W. Zhang,  Yan Zhao

 Please cite Q-Chem as follows:
 Y. Shao et al., Mol. Phys. 113, 184-215 (2015)
 DOI: 10.1080/00268976.2014.952696

 Q-Chem 5.4.0 for Intel X86 EM64T Linux

 Parts of Q-Chem use Armadillo 9.800.1 (Horizon Scraper).
 http://arma.sourceforge.net/

 Q-Chem begins on Wed Dec 27 10:14:05 2023  

 Host: 
0

     Scratch files written to ./qchem1989214//
 May1621 |scratch|qcdevops|jenkins|workspace|build_RNUM    
 Parallel job on  1  processors
 Processing $rem in /cm/shared/apps/spack/cpu/opt/spack/linux-centos8-zen2/gcc-10.2.0/qchem-5.4-akfmr7b3t57bfs6qan3padb2wnb2i7cl/config/preferences:
 Processing $rem in /home/rramji/.qchemrc:
 Symmetry turned off for PCM/SM12/SMD calculation
 Core orbitals will be frozen

 Checking the input file for inconsistencies... 	...done.

 Q-Chem warning in module forms1/BasisType.C, line 2236:

 You are not using the predefined 5D/6D in this basis set.


--------------------------------------------------------------
User input:
--------------------------------------------------------------
$molecule
0 1
C	0.164018	-6.741404	-0.197767
C	1.003240	-6.155638	-1.198109
C	-0.533192	-5.791452	0.632428
C	1.182482	-4.803786	-1.411364
H	1.567483	-6.821518	-1.870845
C	-0.345145	-4.378638	0.409419
C	0.510347	-3.838032	-0.609565
C	-1.016449	-3.413062	1.210332
C	0.696879	-2.426473	-0.830799
C	-0.839039	-2.059348	0.999856
C	-0.000000	-1.478216	-0.000000
H	-1.403737	-1.394783	1.673483
C	-1.461835	-6.187987	1.736282
C	-1.936119	-3.798164	2.306183
N	-2.093916	-5.170003	2.491597
C	2.104529	-4.424987	-2.510310
C	1.625377	-2.036627	-1.936153
N	2.257873	-3.049156	-2.691451
O	-1.715561	-7.353131	2.034222
O	-2.528858	-2.986854	3.014044
O	2.690385	-5.248946	-3.209622
O	1.891876	-0.878829	-2.251529
C	-3.002711	-5.563799	3.573032
H	-3.032655	-6.664085	3.606932
H	-4.010326	-5.147101	3.382888
H	-2.640711	-5.148785	4.533125
C	3.152408	-2.587487	-3.756832
H	3.564653	-3.483329	-4.249778
H	3.960905	-1.964972	-3.328759
H	2.591422	-1.962932	-4.477709
C	0.000000	0.000000	0.000000
S	0.607475	0.509994	1.580530
C	1.862020	1.562717	0.904911
C	0.764397	0.641624	-0.985400
C	1.775697	1.490335	-0.493528
H	0.583895	0.490135	-2.059934
H	2.450484	2.056643	-1.152593
H	2.536607	2.128872	1.556025
H	0.783314	-7.361589	0.461623
H	-0.592677	-7.361192	-0.693983
H	0.826987	-1.478831	0.694617
$end

$rem
JOBTYPE		SP
EXCHANGE	HF
CORRELATION	pRIMP2
BASIS		cc-pvtz
METHOD		rimp2
AUX_BASIS	rimp2-cc-pvtz
SOLVENT_METHOD	PCM
PURECART	11111
SYMMETRY	false
MEM_TOTAL	110000
SCF_CONVERGENCE = 6
THRESH=10
GUI = 2
$end



$solvent
dielectric 4.90
$end
--------------------------------------------------------------
 ----------------------------------------------------------------
             Standard Nuclear Orientation (Angstroms)
    I     Atom           X                Y                Z
 ----------------------------------------------------------------
    1      C       0.1640180000    -6.7414040000    -0.1977670000
    2      C       1.0032400000    -6.1556380000    -1.1981090000
    3      C      -0.5331920000    -5.7914520000     0.6324280000
    4      C       1.1824820000    -4.8037860000    -1.4113640000
    5      H       1.5674830000    -6.8215180000    -1.8708450000
    6      C      -0.3451450000    -4.3786380000     0.4094190000
    7      C       0.5103470000    -3.8380320000    -0.6095650000
    8      C      -1.0164490000    -3.4130620000     1.2103320000
    9      C       0.6968790000    -2.4264730000    -0.8307990000
   10      C      -0.8390390000    -2.0593480000     0.9998560000
   11      C       0.0000000000    -1.4782160000     0.0000000000
   12      H      -1.4037370000    -1.3947830000     1.6734830000
   13      C      -1.4618350000    -6.1879870000     1.7362820000
   14      C      -1.9361190000    -3.7981640000     2.3061830000
   15      N      -2.0939160000    -5.1700030000     2.4915970000
   16      C       2.1045290000    -4.4249870000    -2.5103100000
   17      C       1.6253770000    -2.0366270000    -1.9361530000
   18      N       2.2578730000    -3.0491560000    -2.6914510000
   19      O      -1.7155610000    -7.3531310000     2.0342220000
   20      O      -2.5288580000    -2.9868540000     3.0140440000
   21      O       2.6903850000    -5.2489460000    -3.2096220000
   22      O       1.8918760000    -0.8788290000    -2.2515290000
   23      C      -3.0027110000    -5.5637990000     3.5730320000
   24      H      -3.0326550000    -6.6640850000     3.6069320000
   25      H      -4.0103260000    -5.1471010000     3.3828880000
   26      H      -2.6407110000    -5.1487850000     4.5331250000
   27      C       3.1524080000    -2.5874870000    -3.7568320000
   28      H       3.5646530000    -3.4833290000    -4.2497780000
   29      H       3.9609050000    -1.9649720000    -3.3287590000
   30      H       2.5914220000    -1.9629320000    -4.4777090000
   31      C       0.0000000000     0.0000000000     0.0000000000
   32      S       0.6074750000     0.5099940000     1.5805300000
   33      C       1.8620200000     1.5627170000     0.9049110000
   34      C       0.7643970000     0.6416240000    -0.9854000000
   35      C       1.7756970000     1.4903350000    -0.4935280000
   36      H       0.5838950000     0.4901350000    -2.0599340000
   37      H       2.4504840000     2.0566430000    -1.1525930000
   38      H       2.5366070000     2.1288720000     1.5560250000
   39      H       0.7833140000    -7.3615890000     0.4616230000
   40      H      -0.5926770000    -7.3611920000    -0.6939830000
   41      H       0.8269870000    -1.4788310000     0.6946170000
 ----------------------------------------------------------------
 Nuclear Repulsion Energy =        2586.44607199 hartrees
 There are       98 alpha and       98 beta electrons
 Requested basis set is cc-pVTZ
 There are 356 shells and 1010 basis functions

 Total QAlloc Memory Limit 110000 MB
 Mega-Array Size       188 MB
 MEM_STATIC part       192 MB
 Discretize the solute cavity surface with Lebedev spheres
	Using 110 Lebedev grid points for each H atom
	Using 194 Lebedev grid points for other atoms
	Atomic van der Waals radii will be scaled by 1.20
 Remove points where switching function is < 1.0e-08
 Keep 2531 surface tesserae and discard 4247 interior tesserae
 Molecular Surface Area = 359.044 Angst**2
 Requested basis set is rimp2-cc-pVTZ
 There are 770 shells and 2648 basis functions
 A cutoff of  1.0D-10 yielded  35107 shell pairs
 There are    265559 function pairs (    343630 Cartesian)
 Smallest overlap matrix eigenvalue = 9.11E-06

 Q-Chem warning in module stvman/mkSTV.C, line 323:

 Overlap eigenvalue is smaller than square root of threshold
 Use THRESH >= 12 to get rid of this warning


 Scale SEOQF with 1.000000e-01/1.000000e-02/1.000000e-01

 Standard Electronic Orientation quadrupole field applied
 Nucleus-field energy     =    -0.0000000423 hartrees
 Guess from superposition of atomic densities
 Warning:  Energy on first SCF cycle will be non-variational
 SAD guess density has 196.000000 electrons

 -----------------------------------------------------------------------
  General SCF calculation program by
  Eric Jon Sundstrom, Paul Horn, Yuezhi Mao, Dmitri Zuev, Alec White,
  David Stuck, Shaama M.S., Shane Yost, Joonho Lee, David Small,
  Daniel Levine, Susi Lehtola, Hugh Burton, Evgeny Epifanovsky,
  Bang C. Huynh
 -----------------------------------------------------------------------
 Hartree-Fock
 using 64 threads for integral computing
 -------------------------------------------------------
 OpenMP Integral computing Module                
 Release: version 1.0, May 2013, Q-Chem Inc. Pittsburgh 
 -------------------------------------------------------
 A restricted SCF calculation will be
 performed using DIIS
 SCF converges when DIIS error is below 1.0e-06
 ---------------------------------------
  Cycle       Energy         DIIS error
 ---------------------------------------
    1   -1583.3114114745      1.87e-02  
    2   -1571.0980501664      2.02e-03  
    3   -1571.4354730337      1.54e-03  
    4   -1571.6545428900      2.57e-04  
    5   -1571.6691851617      8.11e-05  
    6   -1571.6707924975      3.22e-05  
    7   -1571.6713226621      1.65e-05  
    8   -1571.6714672966      6.82e-06  
    9   -1571.6714921228      2.97e-06  
   10   -1571.6714968141      1.32e-06  
   11   -1571.6714981489      6.07e-07  Convergence criterion met
 ---------------------------------------
 SCF time:   CPU 7053.75s  wall 269.00s 

************** Final PCM Free Energy Summary **************
 G_electrostatic  =      -0.02701581 hartree =     -16.95267789 kcal/mol
 G_cavitation     =       0.00000000 hartree =       0.00000000 kcal/mol
 G_dispersion     =       0.00000000 hartree =       0.00000000 kcal/mol
 G_repulsion      =       0.00000000 hartree =       0.00000000 kcal/mol
 --------------------------------------------------
 Non-electrostatic Free Energy =       0.00000000 hartree =       0.00000000 kcal/mol
 Total                         =      -0.02701581 hartree =     -16.95267789 kcal/mol
 --------------------------------------------------
 SCF Energy (H0 + V/2)                       =   -1571.67149815 
 Solute Internal Energy (H0)                 =   -1571.64448234 
 Total Free Energy (H0 + V/2 + non-elec)     =   -1571.67149815 hartree
                                             = -986238.75038920 kcal/mol
***********************************************************

 SCF   energy in the final basis set =    -1571.6714981489
 Total energy in the final basis set =    -1571.6714981489


 --------------------------------------------------------------
  Generalized many-body perturbation theory program
  by Joonho Lee, Fazle Rob, Xintian Feng, Evgeny Epifanovsky

 No regularization used 
 (reg. param. = 0.0000e+00)
  (P|Q)^-1/2 Time:  CPU 214.39 s  wall 4.10 s

 In RI-MP2 calculation: 
 # of frozen core orbitals: 31

 Components of the RIMP2 correlation energy:
        aaaa    correlation energy =        -0.6181086248 a.u.
        abab    correlation energy =        -3.4329346778 a.u.
        bbbb    correlation energy =        -0.6181086248 a.u.
        non-Brillouin singles      =        -0.0000000000 a.u.
        total same-spin energy     =        -1.2362172496 a.u.
        total opposite-spin energy =        -3.4329346778 a.u.

 Total  RIMP2   correlation energy =        -4.6691519274 a.u.
        RIMP2         total energy =     -1576.3406500763 a.u.

 RI-MP2 Energy Time:  CPU 2623.85 s  wall 45.19 s
 
 --------------------------------------------------------------
 
                    Orbital Energies (a.u.)
 --------------------------------------------------------------
 
 Alpha MOs
 -- Occupied --
-91.9800 -20.5528 -20.5453 -20.5392 -20.5385 -15.6294 -15.6194 -11.3979
-11.3858 -11.3812 -11.3768 -11.3060 -11.3045 -11.3028 -11.3021 -11.2979
-11.2955 -11.2795 -11.2674 -11.2654 -11.2648 -11.2641 -11.2629 -11.2618
-11.2582 -11.2512 -11.2477  -8.9817  -6.6625  -6.6617  -6.6612  -1.4262
 -1.4102  -1.4006  -1.3893  -1.2651  -1.2537  -1.2301  -1.1899  -1.1506
 -1.1119  -1.0836  -1.0453  -0.9964  -0.9891  -0.9874  -0.9547  -0.9481
 -0.8957  -0.8841  -0.8766  -0.8590  -0.7904  -0.7779  -0.7713  -0.7678
 -0.7389  -0.7261  -0.7028  -0.6869  -0.6779  -0.6733  -0.6661  -0.6568
 -0.6468  -0.6459  -0.6361  -0.6309  -0.6296  -0.6284  -0.6220  -0.6029
 -0.5870  -0.5754  -0.5678  -0.5608  -0.5561  -0.5518  -0.5510  -0.5475
 -0.5462  -0.5425  -0.5180  -0.5116  -0.5039  -0.4818  -0.4715  -0.4638
 -0.4537  -0.4471  -0.4410  -0.4333  -0.4155  -0.4059  -0.3524  -0.3448
 -0.3295  -0.2758
 -- Virtual --
  0.0142   0.0419   0.0718   0.0920   0.1425   0.1499   0.1561   0.1602
  0.1643   0.1726   0.1762   0.1816   0.1860   0.1920   0.2013   0.2053
  0.2117   0.2152   0.2244   0.2292   0.2325   0.2338   0.2422   0.2546
  0.2643   0.2713   0.3018   0.3037   0.3085   0.3189   0.3246   0.3290
  0.3354   0.3395   0.3475   0.3520   0.3573   0.3595   0.3642   0.3691
  0.3765   0.3778   0.3841   0.3868   0.3897   0.4009   0.4032   0.4107
  0.4152   0.4217   0.4249   0.4307   0.4329   0.4370   0.4476   0.4509
  0.4521   0.4578   0.4596   0.4685   0.4701   0.4922   0.4932   0.4950
  0.4993   0.5017   0.5064   0.5087   0.5158   0.5185   0.5207   0.5265
  0.5329   0.5365   0.5415   0.5496   0.5514   0.5593   0.5661   0.5679
  0.5702   0.5736   0.5798   0.5844   0.5870   0.5977   0.5997   0.6018
  0.6042   0.6079   0.6102   0.6109   0.6139   0.6212   0.6236   0.6285
  0.6317   0.6333   0.6374   0.6408   0.6420   0.6462   0.6539   0.6575
  0.6653   0.6746   0.6761   0.6866   0.6915   0.6951   0.6995   0.7027
  0.7090   0.7209   0.7210   0.7364   0.7391   0.7490   0.7586   0.7647
  0.7661   0.7689   0.7751   0.7830   0.7855   0.7970   0.8023   0.8029
  0.8047   0.8154   0.8218   0.8267   0.8373   0.8421   0.8467   0.8498
  0.8523   0.8572   0.8619   0.8668   0.8719   0.8752   0.8786   0.8874
  0.8890   0.8992   0.9026   0.9083   0.9163   0.9194   0.9270   0.9317
  0.9372   0.9412   0.9523   0.9604   0.9676   0.9712   0.9783   0.9803
  0.9876   0.9923   0.9956   1.0045   1.0111   1.0133   1.0169   1.0211
  1.0277   1.0356   1.0413   1.0497   1.0571   1.0605   1.0606   1.0671
  1.0702   1.0728   1.0737   1.0894   1.0935   1.0960   1.0984   1.1078
  1.1124   1.1149   1.1209   1.1250   1.1293   1.1354   1.1417   1.1480
  1.1545   1.1587   1.1639   1.1675   1.1777   1.1790   1.1928   1.1943
  1.2012   1.2026   1.2072   1.2101   1.2105   1.2148   1.2217   1.2299
  1.2391   1.2428   1.2518   1.2567   1.2659   1.2690   1.2728   1.2829
  1.2919   1.3019   1.3056   1.3188   1.3222   1.3289   1.3411   1.3436
  1.3529   1.3564   1.3604   1.3642   1.3721   1.3825   1.3856   1.3908
  1.3943   1.3974   1.4064   1.4139   1.4237   1.4286   1.4340   1.4460
  1.4530   1.4630   1.4668   1.4702   1.4749   1.4833   1.4909   1.5005
  1.5043   1.5096   1.5130   1.5186   1.5274   1.5315   1.5350   1.5418
  1.5460   1.5498   1.5570   1.5634   1.5692   1.5728   1.5801   1.5825
  1.5914   1.5993   1.6063   1.6164   1.6249   1.6329   1.6414   1.6483
  1.6535   1.6591   1.6636   1.6733   1.6851   1.6917   1.6934   1.7003
  1.7074   1.7108   1.7239   1.7279   1.7429   1.7500   1.7527   1.7610
  1.7654   1.7731   1.7780   1.7934   1.7971   1.7995   1.8145   1.8193
  1.8295   1.8432   1.8465   1.8514   1.8567   1.8646   1.8690   1.8847
  1.8859   1.8890   1.8982   1.9068   1.9226   1.9273   1.9391   1.9433
  1.9591   1.9682   1.9727   1.9827   1.9931   2.0109   2.0190   2.0341
  2.0393   2.0526   2.0578   2.0821   2.0929   2.0977   2.1114   2.1220
  2.1360   2.1446   2.1568   2.1660   2.1759   2.1882   2.2013   2.2150
  2.2285   2.2400   2.2471   2.2709   2.2797   2.2923   2.2961   2.3012
  2.3139   2.3267   2.3339   2.3422   2.3484   2.3635   2.3718   2.3832
  2.4057   2.4095   2.4384   2.4435   2.4564   2.4592   2.4600   2.4706
  2.4725   2.4904   2.4988   2.5097   2.5195   2.5371   2.5512   2.5606
  2.5692   2.5760   2.5861   2.5898   2.5970   2.6125   2.6178   2.6244
  2.6329   2.6407   2.6421   2.6544   2.6622   2.6627   2.6800   2.6884
  2.6910   2.6947   2.7025   2.7081   2.7241   2.7264   2.7366   2.7430
  2.7490   2.7548   2.7634   2.7685   2.7743   2.7843   2.8069   2.8209
  2.8290   2.8390   2.8404   2.8482   2.8588   2.8625   2.8711   2.8735
  2.8826   2.8851   2.8931   2.8971   2.9054   2.9148   2.9218   2.9233
  2.9273   2.9387   2.9474   2.9532   2.9613   2.9637   2.9800   2.9810
  2.9869   2.9962   3.0067   3.0083   3.0175   3.0254   3.0275   3.0312
  3.0350   3.0397   3.0472   3.0546   3.0723   3.0771   3.0793   3.0964
  3.1007   3.1034   3.1087   3.1095   3.1162   3.1177   3.1212   3.1312
  3.1366   3.1452   3.1523   3.1597   3.1633   3.1716   3.1781   3.1811
  3.1832   3.1974   3.2003   3.2012   3.2148   3.2180   3.2248   3.2305
  3.2338   3.2385   3.2463   3.2525   3.2544   3.2616   3.2639   3.2673
  3.2735   3.2779   3.2815   3.2909   3.2970   3.3028   3.3042   3.3071
  3.3143   3.3172   3.3214   3.3301   3.3308   3.3331   3.3356   3.3391
  3.3446   3.3469   3.3548   3.3581   3.3658   3.3692   3.3779   3.3789
  3.3852   3.3890   3.3920   3.4008   3.4068   3.4070   3.4121   3.4161
  3.4209   3.4245   3.4277   3.4321   3.4344   3.4405   3.4437   3.4511
  3.4535   3.4650   3.4681   3.4811   3.4825   3.4853   3.4868   3.4909
  3.5026   3.5048   3.5102   3.5145   3.5238   3.5255   3.5286   3.5360
  3.5442   3.5524   3.5533   3.5586   3.5656   3.5775   3.5807   3.5891
  3.5987   3.6069   3.6074   3.6124   3.6167   3.6233   3.6273   3.6357
  3.6374   3.6392   3.6432   3.6490   3.6571   3.6587   3.6686   3.6756
  3.6799   3.6849   3.6884   3.6999   3.7015   3.7111   3.7163   3.7263
  3.7306   3.7400   3.7470   3.7492   3.7514   3.7555   3.7594   3.7638
  3.7709   3.7717   3.7787   3.7805   3.7890   3.7928   3.8048   3.8097
  3.8154   3.8212   3.8244   3.8286   3.8328   3.8417   3.8485   3.8523
  3.8583   3.8614   3.8789   3.8856   3.8879   3.8915   3.9120   3.9192
  3.9233   3.9296   3.9372   3.9404   3.9533   3.9559   3.9595   3.9669
  3.9685   3.9772   3.9800   3.9832   3.9988   4.0116   4.0125   4.0265
  4.0320   4.0369   4.0451   4.0499   4.0546   4.0636   4.0724   4.0933
  4.0976   4.1150   4.1184   4.1251   4.1320   4.1402   4.1442   4.1476
  4.1648   4.1679   4.1717   4.1761   4.1912   4.1949   4.1979   4.2112
  4.2219   4.2323   4.2367   4.2425   4.2541   4.2565   4.2669   4.2717
  4.2765   4.2831   4.2875   4.2927   4.2939   4.3001   4.3097   4.3118
  4.3182   4.3259   4.3315   4.3396   4.3496   4.3506   4.3573   4.3631
  4.3664   4.3712   4.3732   4.3765   4.3813   4.3906   4.3930   4.3973
  4.4057   4.4144   4.4219   4.4261   4.4447   4.4525   4.4540   4.4682
  4.4768   4.4859   4.4949   4.5030   4.5089   4.5243   4.5303   4.5391
  4.5424   4.5452   4.5555   4.5677   4.5775   4.5807   4.5862   4.5876
  4.5945   4.6004   4.6112   4.6185   4.6268   4.6358   4.6436   4.6490
  4.6574   4.6697   4.6768   4.6836   4.6898   4.7006   4.7034   4.7179
  4.7294   4.7371   4.7446   4.7633   4.7780   4.7855   4.8018   4.8084
  4.8218   4.8264   4.8361   4.8422   4.8446   4.8601   4.8802   4.8813
  4.8942   4.9005   4.9127   4.9202   4.9354   4.9560   4.9645   4.9772
  4.9933   5.0094   5.0124   5.0326   5.0358   5.0409   5.0548   5.0652
  5.0776   5.1049   5.1092   5.1181   5.1228   5.1266   5.1350   5.1393
  5.1619   5.1697   5.1761   5.1797   5.2008   5.2102   5.2285   5.2451
  5.2632   5.2675   5.2774   5.2880   5.2978   5.3159   5.3271   5.3319
  5.3326   5.3411   5.3563   5.3739   5.3801   5.4020   5.4048   5.4169
  5.4359   5.4568   5.4641   5.4889   5.4971   5.5076   5.5132   5.5167
  5.5187   5.5290   5.5397   5.5563   5.5585   5.5672   5.5695   5.5740
  5.5856   5.5889   5.5933   5.6049   5.6130   5.6183   5.6267   5.6325
  5.6471   5.6509   5.6611   5.6680   5.6689   5.6718   5.6949   5.7015
  5.7096   5.7130   5.7225   5.7456   5.7500   5.7671   5.7719   5.7803
  5.7984   5.8005   5.8307   5.8339   5.8482   5.8724   5.8901   5.9064
  5.9456   5.9577   5.9765   5.9802   6.0137   6.0187   6.0418   6.0469
  6.0505   6.0604   6.1077   6.1210   6.1369   6.1541   6.1603   6.1909
  6.1963   6.2238   6.2246   6.2271   6.2577   6.2679   6.2803   6.2852
  6.3127   6.3168   6.3263   6.3535   6.3694   6.3896   6.3970   6.4923
  6.5220   6.5397   6.5729   6.5849   6.5979   6.6067   6.6354   6.6596
  6.6692   6.6763   6.8530   6.8597   6.8931   6.9039   6.9075   6.9292
  6.9298   7.0790   7.1068   7.1335   7.1621   7.1964   7.2187   7.2757
  7.3489   7.3532   7.3607   7.3899   7.4768   7.5448   7.5736   7.5845
  7.5943   7.6458   7.6577   7.6919   7.7075   7.7599   8.8975  10.1768
 10.3222  11.3429  11.5422  11.7794  12.0477  12.3149  12.4533  12.5154
 12.9362  13.2160  13.3962  13.5609  13.8100  13.9366  14.2219  14.3016
 14.3265  14.3985  14.5593  14.7358  15.0214  15.6129  15.8318  16.2918
 --------------------------------------------------------------
 
          Ground-State Mulliken Net Atomic Charges

     Atom                 Charge (a.u.)
  ----------------------------------------
      1 C                    -0.086016
      2 C                    -0.031210
      3 C                    -0.118036
      4 C                    -0.121703
      5 H                     0.197960
      6 C                     0.015379
      7 C                     0.126209
      8 C                    -0.085165
      9 C                    -0.187032
     10 C                    -0.142829
     11 C                     0.175872
     12 H                     0.186570
     13 C                     0.342629
     14 C                     0.346362
     15 N                    -0.089263
     16 C                     0.357455
     17 C                     0.400332
     18 N                    -0.085621
     19 O                    -0.497798
     20 O                    -0.508696
     21 O                    -0.501117
     22 O                    -0.482712
     23 C                    -0.205433
     24 H                     0.139061
     25 H                     0.108860
     26 H                     0.108705
     27 C                    -0.199313
     28 H                     0.134892
     29 H                     0.111632
     30 H                     0.111653
     31 C                    -0.131141
     32 S                    -0.017539
     33 C                    -0.161785
     34 C                    -0.055640
     35 C                    -0.227069
     36 H                     0.196616
     37 H                     0.189398
     38 H                     0.215578
     39 H                     0.136185
     40 H                     0.136572
     41 H                     0.197196
  ----------------------------------------
  Sum of atomic charges =     0.000000

 -----------------------------------------------------------------
                    Cartesian Multipole Moments
 -----------------------------------------------------------------
    Charge (ESU x 10^10)
                 0.0000
    Dipole Moment (Debye)
         X       4.0012      Y       2.4972      Z      -2.2894
       Tot       5.2428
    Quadrupole Moments (Debye-Ang)
        XX    -168.7289     XY      -1.1191     YY    -187.3840
        XZ      16.3936     YZ       7.3302     ZZ    -175.3675
    Octopole Moments (Debye-Ang^2)
       XXX    -122.5766    XXY     550.7937    XYY      10.9725
       YYY    1736.4339    XXZ      -1.5108    XYZ     -64.3311
       YYZ     -51.6963    XZZ     -35.4859    YZZ     567.2113
       ZZZ     -25.6274
    Hexadecapole Moments (Debye-Ang^3)
      XXXX   -2921.2581   XXXY    -251.3639   XXYY   -3378.8599
      XYYY    -891.1986   YYYY  -18034.4551   XXXZ    1474.2493
      XXYZ      -4.2398   XYYZ     916.5597   YYYZ     896.5421
      XXZZ   -1206.6083   XYZZ      16.5077   YYZZ   -3719.6230
      XZZZ    1503.9816   YZZZ     118.0187   ZZZZ   -3984.6951
 -----------------------------------------------------------------
 Total job time:  319.81s(wall), 9804.56s(cpu) 
 Wed Dec 27 10:19:25 2023

        *************************************************************
        *                                                           *
        *  Thank you very much for using Q-Chem.  Have a nice day.  *
        *                                                           *
        *************************************************************


0 sent ACK to 0 
now end server 0 ... 
cleanup process ... done
remove work dirs ./qchem1989214.0 -- ./qchem1989214.0
rm -rf ./qchem1989214.0
rm -rf ./qchem1989214
