You are running Q-Chem version: 5.4.0

#
# job setting
#
local host:  exp-2-23
current dir: /home/rramji/project-csd799/aromodel/pndit-qchem/hydrogenated-rotation-run
input file:  Dimethyl_Naphthalene_Dicarboximide_Phi_30_Theta_160_Thiophene_Hydrogenated.qcin
output file: 
nprocs     : 1
nthreads   : 64
#
# qchem installation setting
#
QC:          /cm/shared/apps/spack/cpu/opt/spack/linux-centos8-zen2/gcc-10.2.0/qchem-5.4-akfmr7b3t57bfs6qan3padb2wnb2i7cl
QCAUX:       /cm/shared/apps/spack/cpu/opt/spack/linux-centos8-zen2/gcc-10.2.0/qchem-5.4-akfmr7b3t57bfs6qan3padb2wnb2i7cl/qcaux
QCPROG:      /cm/shared/apps/spack/cpu/opt/spack/linux-centos8-zen2/gcc-10.2.0/qchem-5.4-akfmr7b3t57bfs6qan3padb2wnb2i7cl/exe/qcprog.exe
QCPROG_S:    /cm/shared/apps/spack/cpu/opt/spack/linux-centos8-zen2/gcc-10.2.0/qchem-5.4-akfmr7b3t57bfs6qan3padb2wnb2i7cl/exe/qcprog.exe_s
PARALLEL:    -DPARALLEL
QCMPI:       mpich
#
# qchem directory setting
#
qcrun:       qchem1336483
QCSCRATCH:   .
QCLOCALSCR:  
QCTMPDIR:    .
QCFILEPREF:  ./qchem1336483
QCSAVEDIR:   
workdirs:    ./qchem1336483
workdir0:    ./qchem1336483
partmpdirs =  
#
# parallel setting
#
QCRSH:           ssh
QCMPI:           mpich
QCMPIRUN:        /cm/shared/apps/spack/cpu/opt/spack/linux-centos8-zen2/gcc-10.2.0/qchem-5.4-akfmr7b3t57bfs6qan3padb2wnb2i7cl/bin/mpi/mpirun_qchem
QCMACHINEFILE:   ./qchem1336483/hostfile
exp-2-23

#
# env setting
#
exported envs:   QC QCAUX QCSCRATCH QCRUNNAME QCFILEPREF QCPROG QCPROG_S GUIFILE

Running Job 1 of 1 Dimethyl_Naphthalene_Dicarboximide_Phi_30_Theta_160_Thiophene_Hydrogenated.qcin
qchem Dimethyl_Naphthalene_Dicarboximide_Phi_30_Theta_160_Thiophene_Hydrogenated.qcin_1336483.0 ./qchem1336483/ 1
/cm/shared/apps/spack/cpu/opt/spack/linux-centos8-zen2/gcc-10.2.0/qchem-5.4-akfmr7b3t57bfs6qan3padb2wnb2i7cl/bin/mpi/mpirun_qchem -machinefile ./qchem1336483/hostfile -np 1 /cm/shared/apps/spack/cpu/opt/spack/linux-centos8-zen2/gcc-10.2.0/qchem-5.4-akfmr7b3t57bfs6qan3padb2wnb2i7cl/exe/qcprog.exe Dimethyl_Naphthalene_Dicarboximide_Phi_30_Theta_160_Thiophene_Hydrogenated.qcin_1336483.0 ./qchem1336483/

Process 0 of 1 is on exp-2-23 - thread support 0
initial socket setup ...start
initial socket setup ...done 
now start server 0 ... 
                  Welcome to Q-Chem
     A Quantum Leap Into The Future Of Chemistry


 Q-Chem 5.4, Q-Chem, Inc., Pleasanton, CA (2021)

 License issued to: University of California, San Diego (site)

 E. Epifanovsky,  A. T. B. Gilbert,  Xintian Feng,  Joonho Lee,  Yuezhi Mao,  
 N. Mardirossian,  P. Pokhilko,  A. White,  M. Wormit,  M. P. Coons,  
 A. L. Dempwolff,  Zhengting Gan,  D. Hait,  P. R. Horn,  L. D. Jacobson,  
 I. Kaliman,  J. Kussmann,  A. W. Lange,  Ka Un Lao,  D. S. Levine,  Jie Liu,  
 S. C. McKenzie,  A. F. Morrison,  K. Nanda,  F. Plasser,  D. R. Rehn,  
 M. L. Vidal,  Zhi-Qiang You,  Ying Zhu,  B. Alam,  B. Albrecht,  
 A. Aldossary,  E. Alguire,  J. H. Andersen,  D. Barton,  K. Begam,  A. Behn,  
 Y. A. Bernard,  E. J. Berquist,  H. Burton,  A. Carreras,  K. Carter-Fenk,  
 R. Chakraborty,  A. D. Chien,  K. D. Closser,  V. Cofer-Shabica,  
 S. Dasgupta,  Jia Deng,  M. de Wergifosse,  M. Diedenhofen,  Hainam Do,  
 S. Ehlert,  Po-Tung Fang,  S. Fatehi,  Qingguo Feng,  J. Gayvert,  
 Qinghui Ge,  G. Gidofalvi,  M. Goldey,  J. Gomes,  C. Gonzalez-Espinoza,  
 S. Gulania,  A. Gunina,  M. W. D. Hanson-Heine,  P. H. P. Harbach,  
 A. W. Hauser,  M. F. Herbst,  M. Hernandez Vera,  M. Hodecker,  
 Z. C. Holden,  S. Houck,  Xunkun Huang,  Kerwin Hui,  B. C. Huynh,  
 M. Ivanov,  Hyunjun Ji,  Hanjie Jiang,  B. Kaduk,  S. Kaehler,  
 K. Khistyaev,  Jaehoon Kim,  P. Klunzinger,  Z. Koczor-Benda,  
 Joong Hoon Koh,  D. Kosenkov,  L. Koulias,  T. Kowalczyk,  C. M. Krauter,  
 K. Kue,  A. Kunitsa,  T. Kus,  A. Landau,  K. V. Lawler,  D. Lefrancois,  
 S. Lehtola,  Rain Li,  Yi-Pei Li,  Jiashu Liang,  M. Liebenthal,  
 Hung-Hsuan Lin,  You-Sheng Lin,  Fenglai Liu,  Kuan-Yu Liu,  
 M. Loipersberger,  A. Luenser,  A. Manjanath,  P. Manohar,  E. Mansoor,  
 S. F. Manzer,  Shan-Ping Mao,  A. V. Marenich,  T. Markovich,  S. Mason,  
 S. A. Maurer,  P. F. McLaughlin,  M. F. S. J. Menger,  J.-M. Mewes,  
 S. A. Mewes,  P. Morgante,  J. W. Mullinax,  T. S. Nguyen-Beck,  
 K. J. Oosterbaan,  G. Paran,  Alexander C. Paul,  Suranjan K. Paul,  
 F. Pavosevic,  Zheng Pei,  S. Prager,  E. I. Proynov,  E. Ramos,  B. Rana,  
 A. E. Rask,  A. Rettig,  R. M. Richard,  F. Rob,  E. Rossomme,  T. Scheele,  
 M. Scheurer,  M. Schneider,  N. Sergueev,  S. M. Sharada,  W. Skomorowski,  
 D. W. Small,  C. J. Stein,  Yu-Chuan Su,  E. J. Sundstrom,  Zhen Tao,  
 J. Thirman,  T. Tsuchimochi,  N. M. Tubman,  S. P. Veccham,  O. Vydrov,  
 J. Wenzel,  J. Witte,  A. Yamada,  Kun Yao,  S. Yeganeh,  S. R. Yost,  
 A. Zech,  Igor Ying Zhang,  Xing Zhang,  Yu Zhang,  D. Zuev,  
 A. Aspuru-Guzik,  A. T. Bell,  N. A. Besley,  K. B. Bravaya,  B. R. Brooks,  
 D. Casanova,  Jeng-Da Chai,  S. Coriani,  C. J. Cramer,  
 A. E. DePrince, III,  R. A. DiStasio Jr.,  A. Dreuw,  B. D. Dunietz,  
 T. R. Furlani,  W. A. Goddard III,  S. Grimme,  S. Hammes-Schiffer,  
 T. Head-Gordon,  W. J. Hehre,  Chao-Ping Hsu,  T.-C. Jagau,  Yousung Jung,  
 A. Klamt,  Jing Kong,  D. S. Lambrecht,  WanZhen Liang,  N. J. Mayhall,  
 C. W. McCurdy,  J. B. Neaton,  C. Ochsenfeld,  J. A. Parkhill,  R. Peverati,  
 V. A. Rassolov,  Yihan Shao,  L. V. Slipchenko,  T. Stauch,  R. P. Steele,  
 J. E. Subotnik,  A. J. W. Thom,  A. Tkatchenko,  D. G. Truhlar,  
 T. Van Voorhis,  T. A. Wesolowski,  K. B. Whaley,  H. L. Woodcock III,  
 P. M. Zimmerman,  S. Faraji,  P. M. W. Gill,  M. Head-Gordon,  
 J. M. Herbert,  A. I. Krylov

 Contributors to earlier versions of Q-Chem not listed above: 
 R. D. Adamson,  B. Austin,  R. Baer,  J. Baker,  G. J. O. Beran,  
 K. Brandhorst,  S. T. Brown,  E. F. C. Byrd,  A. K. Chakraborty,  
 G. K. L. Chan,  Chun-Min Chang,  Yunqing Chen,  C.-L. Cheng,  
 Siu Hung Chien,  D. M. Chipman,  D. L. Crittenden,  H. Dachsel,  
 R. J. Doerksen,  A. D. Dutoi,  R. G. Edgar,  J. Fosso-Tande,  
 L. Fusti-Molnar,  D. Ghosh,  A. Ghysels,  A. Golubeva-Zadorozhnaya,  
 J. Gonthier,  M. S. Gordon,  S. R. Gwaltney,  G. Hawkins,  J. E. Herr,  
 A. Heyden,  S. Hirata,  E. G. Hohenstein,  G. Kedziora,  F. J. Keil,  
 C. Kelley,  Jihan Kim,  R. A. King,  R. Z. Khaliullin,  P. P. Korambath,  
 W. Kurlancheek,  A. Laurent,  A. M. Lee,  M. S. Lee,  S. V. Levchenko,  
 Ching Yeh Lin,  D. Liotard,  E. Livshits,  R. C. Lochan,  I. Lotan,  
 L. A. Martinez-Martinez,  P. E. Maslen,  N. Nair,  D. P. O'Neill,  
 D. Neuhauser,  E. Neuscamman,  C. M. Oana,  R. Olivares-Amaya,  R. Olson,  
 T. M. Perrine,  B. Peters,  P. A. Pieniazek,  A. Prociuk,  Y. M. Rhee,  
 J. Ritchie,  M. A. Rohrdanz,  E. Rosta,  N. J. Russ,  H. F. Schaefer III,  
 M. W. Schmidt,  N. E. Schultz,  S. Sharma,  N. Shenvi,  C. D. Sherrill,  
 A. C. Simmonett,  A. Sodt,  T. Stein,  D. Stuck,  K. S. Thanthiriwatte,  
 V. Vanovschi,  L. Vogt,  Tao Wang,  A. Warshel,  M. A. Watson,  
 C. F. Williams,  Q. Wu,  X. Xu,  Jun Yang,  W. Zhang,  Yan Zhao

 Please cite Q-Chem as follows:
 Y. Shao et al., Mol. Phys. 113, 184-215 (2015)
 DOI: 10.1080/00268976.2014.952696

 Q-Chem 5.4.0 for Intel X86 EM64T Linux

 Parts of Q-Chem use Armadillo 9.800.1 (Horizon Scraper).
 http://arma.sourceforge.net/

 Q-Chem begins on Wed Dec 27 11:14:28 2023  

 Host: 
0

     Scratch files written to ./qchem1336483//
 May1621 |scratch|qcdevops|jenkins|workspace|build_RNUM    
 Parallel job on  1  processors
 Processing $rem in /cm/shared/apps/spack/cpu/opt/spack/linux-centos8-zen2/gcc-10.2.0/qchem-5.4-akfmr7b3t57bfs6qan3padb2wnb2i7cl/config/preferences:
 Processing $rem in /home/rramji/.qchemrc:
 Symmetry turned off for PCM/SM12/SMD calculation
 Core orbitals will be frozen

 Checking the input file for inconsistencies... 	...done.

 Q-Chem warning in module forms1/BasisType.C, line 2236:

 You are not using the predefined 5D/6D in this basis set.


--------------------------------------------------------------
User input:
--------------------------------------------------------------
$molecule
0 1
C	0.089263	-6.741404	0.240927
C	0.535973	-6.155638	1.467886
C	-0.281103	-5.791452	-0.777972
C	0.631036	-4.803786	1.729742
H	0.836458	-6.821518	2.292903
C	-0.181995	-4.378638	-0.503614
C	0.272725	-3.838032	0.746756
C	-0.539954	-3.413062	-1.485437
C	0.371053	-2.426473	1.018915
C	-0.446381	-2.059348	-1.226557
C	0.000000	-1.478216	0.000000
H	-0.747410	-1.394783	-2.052413
C	-0.772747	-6.187987	-2.134128
C	-1.029154	-3.798164	-2.829820
N	-1.110828	-5.170003	-3.059182
C	1.121728	-4.424987	3.077731
C	0.864069	-2.036627	2.375694
N	1.201928	-3.049156	3.301101
O	-0.903908	-7.353131	-2.502830
O	-1.345809	-2.986854	-3.697078
O	1.434422	-5.248946	3.934752
O	1.003943	-0.878829	2.764177
C	-1.592981	-5.563799	-4.386939
H	-1.607367	-6.664085	-4.429822
H	-0.924504	-5.147101	-5.164489
H	-2.605446	-5.148785	-4.553486
C	1.677308	-2.587487	4.608481
H	1.898089	-3.483329	5.211969
H	0.902337	-1.964972	5.094624
H	2.582098	-1.962932	4.483092
C	0.000000	0.000000	0.000000
S	0.396411	0.687007	1.580530
C	1.215245	2.105322	0.904911
C	0.498850	0.864369	-0.985400
C	1.158885	2.007781	-0.493528
H	0.381046	0.660280	-2.059934
H	1.599289	2.770727	-1.152593
H	1.655514	2.868056	1.556025
H	-0.791434	-7.361589	0.447559
H	0.897345	-7.361192	-0.166282
H	-1.015049	-1.478831	0.368883
$end

$rem
JOBTYPE		SP
EXCHANGE	HF
CORRELATION	pRIMP2
BASIS		cc-pvtz
METHOD		rimp2
AUX_BASIS	rimp2-cc-pvtz
SOLVENT_METHOD	PCM
PURECART	11111
SYMMETRY	false
MEM_TOTAL	110000
SCF_CONVERGENCE = 6
THRESH=10
GUI = 2
$end



$solvent
dielectric 4.90
$end
--------------------------------------------------------------
 ----------------------------------------------------------------
             Standard Nuclear Orientation (Angstroms)
    I     Atom           X                Y                Z
 ----------------------------------------------------------------
    1      C       0.0892630000    -6.7414040000     0.2409270000
    2      C       0.5359730000    -6.1556380000     1.4678860000
    3      C      -0.2811030000    -5.7914520000    -0.7779720000
    4      C       0.6310360000    -4.8037860000     1.7297420000
    5      H       0.8364580000    -6.8215180000     2.2929030000
    6      C      -0.1819950000    -4.3786380000    -0.5036140000
    7      C       0.2727250000    -3.8380320000     0.7467560000
    8      C      -0.5399540000    -3.4130620000    -1.4854370000
    9      C       0.3710530000    -2.4264730000     1.0189150000
   10      C      -0.4463810000    -2.0593480000    -1.2265570000
   11      C       0.0000000000    -1.4782160000     0.0000000000
   12      H      -0.7474100000    -1.3947830000    -2.0524130000
   13      C      -0.7727470000    -6.1879870000    -2.1341280000
   14      C      -1.0291540000    -3.7981640000    -2.8298200000
   15      N      -1.1108280000    -5.1700030000    -3.0591820000
   16      C       1.1217280000    -4.4249870000     3.0777310000
   17      C       0.8640690000    -2.0366270000     2.3756940000
   18      N       1.2019280000    -3.0491560000     3.3011010000
   19      O      -0.9039080000    -7.3531310000    -2.5028300000
   20      O      -1.3458090000    -2.9868540000    -3.6970780000
   21      O       1.4344220000    -5.2489460000     3.9347520000
   22      O       1.0039430000    -0.8788290000     2.7641770000
   23      C      -1.5929810000    -5.5637990000    -4.3869390000
   24      H      -1.6073670000    -6.6640850000    -4.4298220000
   25      H      -0.9245040000    -5.1471010000    -5.1644890000
   26      H      -2.6054460000    -5.1487850000    -4.5534860000
   27      C       1.6773080000    -2.5874870000     4.6084810000
   28      H       1.8980890000    -3.4833290000     5.2119690000
   29      H       0.9023370000    -1.9649720000     5.0946240000
   30      H       2.5820980000    -1.9629320000     4.4830920000
   31      C       0.0000000000     0.0000000000     0.0000000000
   32      S       0.3964110000     0.6870070000     1.5805300000
   33      C       1.2152450000     2.1053220000     0.9049110000
   34      C       0.4988500000     0.8643690000    -0.9854000000
   35      C       1.1588850000     2.0077810000    -0.4935280000
   36      H       0.3810460000     0.6602800000    -2.0599340000
   37      H       1.5992890000     2.7707270000    -1.1525930000
   38      H       1.6555140000     2.8680560000     1.5560250000
   39      H      -0.7914340000    -7.3615890000     0.4475590000
   40      H       0.8973450000    -7.3611920000    -0.1662820000
   41      H      -1.0150490000    -1.4788310000     0.3688830000
 ----------------------------------------------------------------
 Nuclear Repulsion Energy =        2582.01186140 hartrees
 There are       98 alpha and       98 beta electrons
 Requested basis set is cc-pVTZ
 There are 356 shells and 1010 basis functions

 Total QAlloc Memory Limit 110000 MB
 Mega-Array Size       188 MB
 MEM_STATIC part       192 MB
 Discretize the solute cavity surface with Lebedev spheres
	Using 110 Lebedev grid points for each H atom
	Using 194 Lebedev grid points for other atoms
	Atomic van der Waals radii will be scaled by 1.20
 Remove points where switching function is < 1.0e-08
 Keep 2575 surface tesserae and discard 4203 interior tesserae
 Molecular Surface Area = 359.521 Angst**2
 Requested basis set is rimp2-cc-pVTZ
 There are 770 shells and 2648 basis functions
 A cutoff of  1.0D-10 yielded  34456 shell pairs
 There are    260398 function pairs (    336913 Cartesian)
 Smallest overlap matrix eigenvalue = 9.06E-06

 Q-Chem warning in module stvman/mkSTV.C, line 323:

 Overlap eigenvalue is smaller than square root of threshold
 Use THRESH >= 12 to get rid of this warning


 Scale SEOQF with 1.000000e-01/1.000000e-02/1.000000e-01

 Standard Electronic Orientation quadrupole field applied
 Nucleus-field energy     =    -0.0000000964 hartrees
 Guess from superposition of atomic densities
 Warning:  Energy on first SCF cycle will be non-variational
 SAD guess density has 196.000000 electrons

 -----------------------------------------------------------------------
  General SCF calculation program by
  Eric Jon Sundstrom, Paul Horn, Yuezhi Mao, Dmitri Zuev, Alec White,
  David Stuck, Shaama M.S., Shane Yost, Joonho Lee, David Small,
  Daniel Levine, Susi Lehtola, Hugh Burton, Evgeny Epifanovsky,
  Bang C. Huynh
 -----------------------------------------------------------------------
 Hartree-Fock
 using 64 threads for integral computing
 -------------------------------------------------------
 OpenMP Integral computing Module                
 Release: version 1.0, May 2013, Q-Chem Inc. Pittsburgh 
 -------------------------------------------------------
 A restricted SCF calculation will be
 performed using DIIS
 SCF converges when DIIS error is below 1.0e-06
 ---------------------------------------
  Cycle       Energy         DIIS error
 ---------------------------------------
    1   -1583.3391725251      1.87e-02  
    2   -1571.0702002662      2.01e-03  
    3   -1571.4085370676      1.52e-03  
    4   -1571.6245304388      2.58e-04  
    5   -1571.6385194831      8.05e-05  
    6   -1571.6399977349      3.18e-05  
    7   -1571.6404519040      1.67e-05  
    8   -1571.6405921499      7.14e-06  
    9   -1571.6406204780      3.25e-06  
   10   -1571.6406267246      1.44e-06  
   11   -1571.6406285633      6.60e-07  Convergence criterion met
 ---------------------------------------
 SCF time:   CPU 7050.10s  wall 263.00s 

************** Final PCM Free Energy Summary **************
 G_electrostatic  =      -0.02860427 hartree =     -17.94945342 kcal/mol
 G_cavitation     =       0.00000000 hartree =       0.00000000 kcal/mol
 G_dispersion     =       0.00000000 hartree =       0.00000000 kcal/mol
 G_repulsion      =       0.00000000 hartree =       0.00000000 kcal/mol
 --------------------------------------------------
 Non-electrostatic Free Energy =       0.00000000 hartree =       0.00000000 kcal/mol
 Total                         =      -0.02860427 hartree =     -17.94945342 kcal/mol
 --------------------------------------------------
 SCF Energy (H0 + V/2)                       =   -1571.64062856 
 Solute Internal Energy (H0)                 =   -1571.61202429 
 Total Free Energy (H0 + V/2 + non-elec)     =   -1571.64062856 hartree
                                             = -986219.37943185 kcal/mol
***********************************************************

 SCF   energy in the final basis set =    -1571.6406285633
 Total energy in the final basis set =    -1571.6406285633


 --------------------------------------------------------------
  Generalized many-body perturbation theory program
  by Joonho Lee, Fazle Rob, Xintian Feng, Evgeny Epifanovsky

 No regularization used 
 (reg. param. = 0.0000e+00)
  (P|Q)^-1/2 Time:  CPU 160.93 s  wall 3.04 s

 In RI-MP2 calculation: 
 # of frozen core orbitals: 31

 Components of the RIMP2 correlation energy:
        aaaa    correlation energy =        -0.6216883505 a.u.
        abab    correlation energy =        -3.4401534494 a.u.
        bbbb    correlation energy =        -0.6216883505 a.u.
        non-Brillouin singles      =        -0.0000000000 a.u.
        total same-spin energy     =        -1.2433767009 a.u.
        total opposite-spin energy =        -3.4401534494 a.u.

 Total  RIMP2   correlation energy =        -4.6835301503 a.u.
        RIMP2         total energy =     -1576.3241587135 a.u.

 RI-MP2 Energy Time:  CPU 2007.14 s  wall 33.34 s
 
 --------------------------------------------------------------
 
                    Orbital Energies (a.u.)
 --------------------------------------------------------------
 
 Alpha MOs
 -- Occupied --
-91.9753 -20.5582 -20.5477 -20.5411 -20.5402 -15.6334 -15.6213 -11.4055
-11.3884 -11.3832 -11.3788 -11.3123 -11.3092 -11.3082 -11.3055 -11.2996
-11.2862 -11.2759 -11.2704 -11.2686 -11.2665 -11.2644 -11.2626 -11.2594
-11.2538 -11.2431 -11.2303  -8.9755  -6.6560  -6.6545  -6.6533  -1.4403
 -1.4120  -1.4054  -1.3911  -1.2710  -1.2556  -1.2303  -1.1840  -1.1442
 -1.1152  -1.0848  -1.0490  -0.9948  -0.9895  -0.9760  -0.9568  -0.9465
 -0.9002  -0.8897  -0.8801  -0.8631  -0.7902  -0.7836  -0.7768  -0.7587
 -0.7322  -0.7279  -0.7016  -0.6912  -0.6876  -0.6743  -0.6685  -0.6592
 -0.6524  -0.6440  -0.6380  -0.6326  -0.6322  -0.6316  -0.6246  -0.6058
 -0.5896  -0.5730  -0.5662  -0.5646  -0.5569  -0.5545  -0.5532  -0.5492
 -0.5479  -0.5455  -0.5224  -0.5145  -0.5112  -0.4881  -0.4726  -0.4633
 -0.4554  -0.4436  -0.4387  -0.4229  -0.4077  -0.3966  -0.3550  -0.3253
 -0.3001  -0.2743
 -- Virtual --
  0.0103   0.0418   0.0898   0.1006   0.1385   0.1499   0.1572   0.1586
  0.1637   0.1723   0.1761   0.1825   0.1889   0.1948   0.1970   0.2035
  0.2161   0.2214   0.2273   0.2278   0.2310   0.2353   0.2469   0.2583
  0.2626   0.2721   0.3021   0.3126   0.3157   0.3189   0.3237   0.3299
  0.3378   0.3403   0.3458   0.3543   0.3573   0.3627   0.3650   0.3679
  0.3705   0.3756   0.3874   0.3910   0.3941   0.4015   0.4053   0.4091
  0.4195   0.4217   0.4279   0.4344   0.4365   0.4409   0.4487   0.4513
  0.4524   0.4586   0.4633   0.4715   0.4786   0.4842   0.4890   0.4929
  0.4973   0.5036   0.5070   0.5118   0.5128   0.5181   0.5227   0.5289
  0.5394   0.5442   0.5473   0.5486   0.5553   0.5581   0.5645   0.5675
  0.5710   0.5733   0.5829   0.5849   0.5897   0.5911   0.5998   0.6018
  0.6055   0.6084   0.6119   0.6135   0.6179   0.6199   0.6237   0.6274
  0.6288   0.6312   0.6349   0.6366   0.6425   0.6438   0.6483   0.6593
  0.6660   0.6722   0.6769   0.6807   0.6854   0.6915   0.6973   0.7009
  0.7094   0.7197   0.7292   0.7372   0.7384   0.7452   0.7506   0.7616
  0.7646   0.7680   0.7740   0.7794   0.7959   0.7996   0.8010   0.8037
  0.8101   0.8181   0.8268   0.8314   0.8379   0.8422   0.8463   0.8522
  0.8570   0.8614   0.8628   0.8706   0.8728   0.8767   0.8832   0.8945
  0.8988   0.9048   0.9065   0.9131   0.9185   0.9207   0.9265   0.9325
  0.9363   0.9447   0.9515   0.9576   0.9604   0.9691   0.9703   0.9720
  0.9801   0.9881   0.9905   0.9981   1.0036   1.0108   1.0146   1.0204
  1.0272   1.0321   1.0336   1.0394   1.0499   1.0596   1.0645   1.0672
  1.0701   1.0720   1.0810   1.0854   1.0905   1.0989   1.1023   1.1070
  1.1134   1.1199   1.1252   1.1274   1.1322   1.1367   1.1399   1.1446
  1.1460   1.1562   1.1630   1.1692   1.1758   1.1774   1.1834   1.1922
  1.1934   1.2005   1.2027   1.2050   1.2093   1.2173   1.2264   1.2284
  1.2296   1.2360   1.2400   1.2535   1.2547   1.2630   1.2716   1.2743
  1.2784   1.2958   1.2988   1.3059   1.3144   1.3298   1.3380   1.3387
  1.3446   1.3485   1.3583   1.3663   1.3702   1.3730   1.3851   1.3880
  1.3928   1.3953   1.4032   1.4109   1.4188   1.4244   1.4413   1.4427
  1.4562   1.4606   1.4661   1.4736   1.4820   1.4851   1.4876   1.5006
  1.5022   1.5067   1.5128   1.5195   1.5241   1.5306   1.5348   1.5398
  1.5469   1.5497   1.5562   1.5618   1.5669   1.5729   1.5737   1.5881
  1.5884   1.6015   1.6066   1.6091   1.6186   1.6315   1.6369   1.6451
  1.6518   1.6610   1.6691   1.6786   1.6814   1.6895   1.6922   1.6990
  1.7150   1.7198   1.7283   1.7320   1.7400   1.7448   1.7503   1.7571
  1.7617   1.7690   1.7733   1.7865   1.7898   1.7935   1.8082   1.8144
  1.8204   1.8272   1.8346   1.8481   1.8544   1.8589   1.8662   1.8702
  1.8747   1.8821   1.8935   1.9061   1.9156   1.9261   1.9424   1.9513
  1.9522   1.9581   1.9696   1.9818   1.9908   2.0030   2.0236   2.0302
  2.0498   2.0631   2.0688   2.0799   2.0998   2.1069   2.1242   2.1344
  2.1458   2.1514   2.1616   2.1793   2.1927   2.2186   2.2203   2.2335
  2.2356   2.2428   2.2577   2.2743   2.2912   2.2920   2.3027   2.3133
  2.3162   2.3311   2.3398   2.3616   2.3652   2.3721   2.3831   2.3945
  2.4258   2.4348   2.4451   2.4544   2.4561   2.4679   2.4770   2.4864
  2.4944   2.4992   2.5074   2.5159   2.5263   2.5393   2.5559   2.5628
  2.5659   2.5743   2.5841   2.5892   2.5947   2.6156   2.6215   2.6221
  2.6253   2.6384   2.6413   2.6511   2.6566   2.6774   2.6794   2.6853
  2.6888   2.6927   2.7141   2.7245   2.7263   2.7325   2.7358   2.7451
  2.7487   2.7529   2.7617   2.7692   2.7746   2.7856   2.7927   2.8076
  2.8155   2.8293   2.8384   2.8458   2.8543   2.8625   2.8742   2.8757
  2.8791   2.8866   2.8918   2.8955   2.9070   2.9078   2.9170   2.9198
  2.9251   2.9307   2.9317   2.9448   2.9625   2.9629   2.9712   2.9776
  2.9850   2.9903   2.9978   3.0029   3.0187   3.0201   3.0276   3.0351
  3.0411   3.0509   3.0587   3.0630   3.0764   3.0769   3.0888   3.0953
  3.0962   3.1011   3.1044   3.1079   3.1091   3.1170   3.1265   3.1287
  3.1303   3.1406   3.1472   3.1576   3.1599   3.1673   3.1745   3.1794
  3.1843   3.1968   3.2013   3.2062   3.2135   3.2145   3.2232   3.2287
  3.2311   3.2351   3.2419   3.2462   3.2497   3.2578   3.2605   3.2648
  3.2722   3.2745   3.2802   3.2843   3.2878   3.2965   3.3034   3.3110
  3.3120   3.3168   3.3221   3.3278   3.3296   3.3310   3.3377   3.3443
  3.3460   3.3533   3.3567   3.3594   3.3635   3.3666   3.3725   3.3793
  3.3839   3.3877   3.3898   3.3989   3.4048   3.4086   3.4109   3.4162
  3.4202   3.4263   3.4304   3.4344   3.4363   3.4426   3.4480   3.4572
  3.4606   3.4624   3.4702   3.4744   3.4773   3.4868   3.4911   3.4934
  3.4955   3.5065   3.5075   3.5156   3.5160   3.5213   3.5220   3.5310
  3.5385   3.5476   3.5503   3.5575   3.5624   3.5725   3.5768   3.5858
  3.5922   3.5933   3.5986   3.6020   3.6162   3.6208   3.6230   3.6313
  3.6326   3.6351   3.6437   3.6459   3.6521   3.6557   3.6629   3.6681
  3.6742   3.6779   3.6861   3.6942   3.6978   3.7054   3.7131   3.7209
  3.7267   3.7311   3.7321   3.7423   3.7466   3.7493   3.7520   3.7576
  3.7615   3.7657   3.7692   3.7780   3.7883   3.7910   3.7988   3.8059
  3.8136   3.8148   3.8221   3.8269   3.8290   3.8359   3.8418   3.8441
  3.8492   3.8533   3.8610   3.8732   3.8766   3.8940   3.9010   3.9095
  3.9214   3.9232   3.9270   3.9339   3.9471   3.9499   3.9536   3.9573
  3.9685   3.9716   3.9732   3.9807   3.9871   3.9980   4.0026   4.0153
  4.0177   4.0313   4.0381   4.0422   4.0461   4.0590   4.0667   4.0795
  4.0929   4.1099   4.1121   4.1181   4.1273   4.1298   4.1402   4.1424
  4.1502   4.1594   4.1654   4.1694   4.1730   4.1862   4.1975   4.2114
  4.2132   4.2252   4.2347   4.2388   4.2414   4.2466   4.2566   4.2662
  4.2735   4.2784   4.2827   4.2894   4.2912   4.2974   4.3051   4.3129
  4.3171   4.3203   4.3274   4.3317   4.3346   4.3383   4.3468   4.3554
  4.3656   4.3672   4.3699   4.3755   4.3820   4.3838   4.3911   4.4014
  4.4022   4.4066   4.4143   4.4255   4.4287   4.4405   4.4451   4.4647
  4.4718   4.4761   4.4928   4.5002   4.5111   4.5168   4.5236   4.5330
  4.5399   4.5412   4.5467   4.5602   4.5651   4.5722   4.5824   4.5890
  4.5935   4.5975   4.6025   4.6164   4.6199   4.6259   4.6331   4.6442
  4.6480   4.6539   4.6707   4.6829   4.6908   4.6973   4.7001   4.7139
  4.7158   4.7371   4.7477   4.7729   4.7816   4.7886   4.7972   4.8070
  4.8170   4.8213   4.8337   4.8460   4.8507   4.8609   4.8796   4.8870
  4.8887   4.8981   4.9094   4.9239   4.9356   4.9462   4.9492   4.9808
  4.9915   5.0134   5.0170   5.0285   5.0362   5.0448   5.0522   5.0650
  5.0747   5.0838   5.1027   5.1136   5.1217   5.1251   5.1317   5.1397
  5.1483   5.1589   5.1725   5.1748   5.1918   5.1957   5.2014   5.2329
  5.2580   5.2612   5.2725   5.2848   5.2981   5.3094   5.3272   5.3288
  5.3300   5.3406   5.3539   5.3729   5.3774   5.3821   5.4007   5.4145
  5.4354   5.4518   5.4814   5.4887   5.4969   5.5096   5.5124   5.5167
  5.5204   5.5368   5.5455   5.5518   5.5573   5.5668   5.5674   5.5748
  5.5769   5.5862   5.5869   5.6022   5.6094   5.6200   5.6248   5.6294
  5.6467   5.6482   5.6583   5.6631   5.6663   5.6701   5.6935   5.6984
  5.7060   5.7121   5.7356   5.7424   5.7607   5.7664   5.7691   5.7790
  5.7840   5.7926   5.8072   5.8295   5.8455   5.8600   5.9000   5.9271
  5.9370   5.9647   5.9730   5.9902   6.0280   6.0315   6.0416   6.0500
  6.0561   6.0812   6.0958   6.1088   6.1209   6.1584   6.1647   6.1905
  6.1961   6.2179   6.2231   6.2255   6.2678   6.2780   6.2822   6.2827
  6.3025   6.3154   6.3255   6.3575   6.3686   6.3843   6.4413   6.4842
  6.5217   6.5372   6.5644   6.5827   6.6048   6.6415   6.6473   6.6540
  6.6706   6.6737   6.8478   6.8523   6.8902   6.9013   6.9051   6.9238
  6.9275   6.9910   7.1050   7.1367   7.1625   7.1928   7.2204   7.3164
  7.3454   7.3513   7.3555   7.3599   7.4743   7.5423   7.5716   7.5832
  7.5936   7.6523   7.6571   7.6892   7.7061   7.7899   8.8681  10.0711
 10.3370  11.2950  11.5241  11.7772  11.9978  12.1636  12.4325  12.5148
 12.9422  13.2201  13.3705  13.5557  13.7999  13.9324  14.1211  14.2788
 14.3188  14.3756  14.5374  14.6112  14.9996  15.6111  15.8084  16.2912
 --------------------------------------------------------------
 
          Ground-State Mulliken Net Atomic Charges

     Atom                 Charge (a.u.)
  ----------------------------------------
      1 C                    -0.084619
      2 C                    -0.026014
      3 C                    -0.113719
      4 C                    -0.123799
      5 H                     0.199816
      6 C                     0.022076
      7 C                     0.126521
      8 C                    -0.102057
      9 C                    -0.237087
     10 C                    -0.132081
     11 C                     0.199307
     12 H                     0.194869
     13 C                     0.342291
     14 C                     0.347633
     15 N                    -0.089737
     16 C                     0.358713
     17 C                     0.415238
     18 N                    -0.087811
     19 O                    -0.495945
     20 O                    -0.508540
     21 O                    -0.498176
     22 O                    -0.419559
     23 C                    -0.204957
     24 H                     0.139422
     25 H                     0.109271
     26 H                     0.109080
     27 C                    -0.199909
     28 H                     0.135643
     29 H                     0.113372
     30 H                     0.113586
     31 C                    -0.085209
     32 S                     0.086533
     33 C                    -0.235885
     34 C                    -0.165302
     35 C                    -0.259737
     36 H                     0.181073
     37 H                     0.179436
     38 H                     0.202456
     39 H                     0.138214
     40 H                     0.138502
     41 H                     0.217089
  ----------------------------------------
  Sum of atomic charges =     0.000000

 -----------------------------------------------------------------
                    Cartesian Multipole Moments
 -----------------------------------------------------------------
    Charge (ESU x 10^10)
                 0.0000
    Dipole Moment (Debye)
         X       0.8398      Y       0.1831      Z       2.3813
       Tot       2.5317
    Quadrupole Moments (Debye-Ang)
        XX    -163.9011     XY       1.0053     YY    -181.6200
        XZ      -8.1322     YZ     -10.4604     ZZ    -181.4138
    Octopole Moments (Debye-Ang^2)
       XXX     -86.5347    XXY     484.9584    XYY       5.9176
       YYY    1676.4157    XXZ     -25.9044    XYZ      46.1733
       YYZ      40.4983    XZZ     -18.4866    YZZ     589.3940
       ZZZ     -81.5436
    Hexadecapole Moments (Debye-Ang^3)
      XXXX   -1012.0818   XXXY    -231.4570   XXYY   -2832.1634
      XYYY    -492.6008   YYYY  -17963.6448   XXXZ    -954.7469
      XXYZ     -96.6784   XYYZ    -587.7833   YYYZ   -1182.7267
      XXZZ   -1124.1875   XYZZ      25.0620   YYZZ   -4264.4656
      XZZZ   -1046.0737   YZZZ    -145.8704   ZZZZ   -5817.5895
 -----------------------------------------------------------------
 Total job time:  333.13s(wall), 9266.20s(cpu) 
 Wed Dec 27 11:20:01 2023

        *************************************************************
        *                                                           *
        *  Thank you very much for using Q-Chem.  Have a nice day.  *
        *                                                           *
        *************************************************************


0 sent ACK to 0 
now end server 0 ... 
cleanup process ... done
remove work dirs ./qchem1336483.0 -- ./qchem1336483.0
rm -rf ./qchem1336483.0
rm -rf ./qchem1336483
