You are running Q-Chem version: 5.4.0

#
# job setting
#
local host:  exp-1-49
current dir: /home/rramji/project-csd799/aromodel/pndit-qchem/hydrogenated-rotation-run
input file:  Dimethyl_Naphthalene_Dicarboximide_Phi_5_Theta_160_Thiophene_Hydrogenated.qcin
output file: 
nprocs     : 1
nthreads   : 64
#
# qchem installation setting
#
QC:          /cm/shared/apps/spack/cpu/opt/spack/linux-centos8-zen2/gcc-10.2.0/qchem-5.4-akfmr7b3t57bfs6qan3padb2wnb2i7cl
QCAUX:       /cm/shared/apps/spack/cpu/opt/spack/linux-centos8-zen2/gcc-10.2.0/qchem-5.4-akfmr7b3t57bfs6qan3padb2wnb2i7cl/qcaux
QCPROG:      /cm/shared/apps/spack/cpu/opt/spack/linux-centos8-zen2/gcc-10.2.0/qchem-5.4-akfmr7b3t57bfs6qan3padb2wnb2i7cl/exe/qcprog.exe
QCPROG_S:    /cm/shared/apps/spack/cpu/opt/spack/linux-centos8-zen2/gcc-10.2.0/qchem-5.4-akfmr7b3t57bfs6qan3padb2wnb2i7cl/exe/qcprog.exe_s
PARALLEL:    -DPARALLEL
QCMPI:       mpich
#
# qchem directory setting
#
qcrun:       qchem407488
QCSCRATCH:   .
QCLOCALSCR:  
QCTMPDIR:    .
QCFILEPREF:  ./qchem407488
QCSAVEDIR:   
workdirs:    ./qchem407488
workdir0:    ./qchem407488
partmpdirs =  
#
# parallel setting
#
QCRSH:           ssh
QCMPI:           mpich
QCMPIRUN:        /cm/shared/apps/spack/cpu/opt/spack/linux-centos8-zen2/gcc-10.2.0/qchem-5.4-akfmr7b3t57bfs6qan3padb2wnb2i7cl/bin/mpi/mpirun_qchem
QCMACHINEFILE:   ./qchem407488/hostfile
exp-1-49

#
# env setting
#
exported envs:   QC QCAUX QCSCRATCH QCRUNNAME QCFILEPREF QCPROG QCPROG_S GUIFILE

Running Job 1 of 1 Dimethyl_Naphthalene_Dicarboximide_Phi_5_Theta_160_Thiophene_Hydrogenated.qcin
qchem Dimethyl_Naphthalene_Dicarboximide_Phi_5_Theta_160_Thiophene_Hydrogenated.qcin_407488.0 ./qchem407488/ 1
/cm/shared/apps/spack/cpu/opt/spack/linux-centos8-zen2/gcc-10.2.0/qchem-5.4-akfmr7b3t57bfs6qan3padb2wnb2i7cl/bin/mpi/mpirun_qchem -machinefile ./qchem407488/hostfile -np 1 /cm/shared/apps/spack/cpu/opt/spack/linux-centos8-zen2/gcc-10.2.0/qchem-5.4-akfmr7b3t57bfs6qan3padb2wnb2i7cl/exe/qcprog.exe Dimethyl_Naphthalene_Dicarboximide_Phi_5_Theta_160_Thiophene_Hydrogenated.qcin_407488.0 ./qchem407488/

Process 0 of 1 is on exp-1-49 - thread support 0
initial socket setup ...start
initial socket setup ...done 
now start server 0 ... 
                  Welcome to Q-Chem
     A Quantum Leap Into The Future Of Chemistry


 Q-Chem 5.4, Q-Chem, Inc., Pleasanton, CA (2021)

 License issued to: University of California, San Diego (site)

 E. Epifanovsky,  A. T. B. Gilbert,  Xintian Feng,  Joonho Lee,  Yuezhi Mao,  
 N. Mardirossian,  P. Pokhilko,  A. White,  M. Wormit,  M. P. Coons,  
 A. L. Dempwolff,  Zhengting Gan,  D. Hait,  P. R. Horn,  L. D. Jacobson,  
 I. Kaliman,  J. Kussmann,  A. W. Lange,  Ka Un Lao,  D. S. Levine,  Jie Liu,  
 S. C. McKenzie,  A. F. Morrison,  K. Nanda,  F. Plasser,  D. R. Rehn,  
 M. L. Vidal,  Zhi-Qiang You,  Ying Zhu,  B. Alam,  B. Albrecht,  
 A. Aldossary,  E. Alguire,  J. H. Andersen,  D. Barton,  K. Begam,  A. Behn,  
 Y. A. Bernard,  E. J. Berquist,  H. Burton,  A. Carreras,  K. Carter-Fenk,  
 R. Chakraborty,  A. D. Chien,  K. D. Closser,  V. Cofer-Shabica,  
 S. Dasgupta,  Jia Deng,  M. de Wergifosse,  M. Diedenhofen,  Hainam Do,  
 S. Ehlert,  Po-Tung Fang,  S. Fatehi,  Qingguo Feng,  J. Gayvert,  
 Qinghui Ge,  G. Gidofalvi,  M. Goldey,  J. Gomes,  C. Gonzalez-Espinoza,  
 S. Gulania,  A. Gunina,  M. W. D. Hanson-Heine,  P. H. P. Harbach,  
 A. W. Hauser,  M. F. Herbst,  M. Hernandez Vera,  M. Hodecker,  
 Z. C. Holden,  S. Houck,  Xunkun Huang,  Kerwin Hui,  B. C. Huynh,  
 M. Ivanov,  Hyunjun Ji,  Hanjie Jiang,  B. Kaduk,  S. Kaehler,  
 K. Khistyaev,  Jaehoon Kim,  P. Klunzinger,  Z. Koczor-Benda,  
 Joong Hoon Koh,  D. Kosenkov,  L. Koulias,  T. Kowalczyk,  C. M. Krauter,  
 K. Kue,  A. Kunitsa,  T. Kus,  A. Landau,  K. V. Lawler,  D. Lefrancois,  
 S. Lehtola,  Rain Li,  Yi-Pei Li,  Jiashu Liang,  M. Liebenthal,  
 Hung-Hsuan Lin,  You-Sheng Lin,  Fenglai Liu,  Kuan-Yu Liu,  
 M. Loipersberger,  A. Luenser,  A. Manjanath,  P. Manohar,  E. Mansoor,  
 S. F. Manzer,  Shan-Ping Mao,  A. V. Marenich,  T. Markovich,  S. Mason,  
 S. A. Maurer,  P. F. McLaughlin,  M. F. S. J. Menger,  J.-M. Mewes,  
 S. A. Mewes,  P. Morgante,  J. W. Mullinax,  T. S. Nguyen-Beck,  
 K. J. Oosterbaan,  G. Paran,  Alexander C. Paul,  Suranjan K. Paul,  
 F. Pavosevic,  Zheng Pei,  S. Prager,  E. I. Proynov,  E. Ramos,  B. Rana,  
 A. E. Rask,  A. Rettig,  R. M. Richard,  F. Rob,  E. Rossomme,  T. Scheele,  
 M. Scheurer,  M. Schneider,  N. Sergueev,  S. M. Sharada,  W. Skomorowski,  
 D. W. Small,  C. J. Stein,  Yu-Chuan Su,  E. J. Sundstrom,  Zhen Tao,  
 J. Thirman,  T. Tsuchimochi,  N. M. Tubman,  S. P. Veccham,  O. Vydrov,  
 J. Wenzel,  J. Witte,  A. Yamada,  Kun Yao,  S. Yeganeh,  S. R. Yost,  
 A. Zech,  Igor Ying Zhang,  Xing Zhang,  Yu Zhang,  D. Zuev,  
 A. Aspuru-Guzik,  A. T. Bell,  N. A. Besley,  K. B. Bravaya,  B. R. Brooks,  
 D. Casanova,  Jeng-Da Chai,  S. Coriani,  C. J. Cramer,  
 A. E. DePrince, III,  R. A. DiStasio Jr.,  A. Dreuw,  B. D. Dunietz,  
 T. R. Furlani,  W. A. Goddard III,  S. Grimme,  S. Hammes-Schiffer,  
 T. Head-Gordon,  W. J. Hehre,  Chao-Ping Hsu,  T.-C. Jagau,  Yousung Jung,  
 A. Klamt,  Jing Kong,  D. S. Lambrecht,  WanZhen Liang,  N. J. Mayhall,  
 C. W. McCurdy,  J. B. Neaton,  C. Ochsenfeld,  J. A. Parkhill,  R. Peverati,  
 V. A. Rassolov,  Yihan Shao,  L. V. Slipchenko,  T. Stauch,  R. P. Steele,  
 J. E. Subotnik,  A. J. W. Thom,  A. Tkatchenko,  D. G. Truhlar,  
 T. Van Voorhis,  T. A. Wesolowski,  K. B. Whaley,  H. L. Woodcock III,  
 P. M. Zimmerman,  S. Faraji,  P. M. W. Gill,  M. Head-Gordon,  
 J. M. Herbert,  A. I. Krylov

 Contributors to earlier versions of Q-Chem not listed above: 
 R. D. Adamson,  B. Austin,  R. Baer,  J. Baker,  G. J. O. Beran,  
 K. Brandhorst,  S. T. Brown,  E. F. C. Byrd,  A. K. Chakraborty,  
 G. K. L. Chan,  Chun-Min Chang,  Yunqing Chen,  C.-L. Cheng,  
 Siu Hung Chien,  D. M. Chipman,  D. L. Crittenden,  H. Dachsel,  
 R. J. Doerksen,  A. D. Dutoi,  R. G. Edgar,  J. Fosso-Tande,  
 L. Fusti-Molnar,  D. Ghosh,  A. Ghysels,  A. Golubeva-Zadorozhnaya,  
 J. Gonthier,  M. S. Gordon,  S. R. Gwaltney,  G. Hawkins,  J. E. Herr,  
 A. Heyden,  S. Hirata,  E. G. Hohenstein,  G. Kedziora,  F. J. Keil,  
 C. Kelley,  Jihan Kim,  R. A. King,  R. Z. Khaliullin,  P. P. Korambath,  
 W. Kurlancheek,  A. Laurent,  A. M. Lee,  M. S. Lee,  S. V. Levchenko,  
 Ching Yeh Lin,  D. Liotard,  E. Livshits,  R. C. Lochan,  I. Lotan,  
 L. A. Martinez-Martinez,  P. E. Maslen,  N. Nair,  D. P. O'Neill,  
 D. Neuhauser,  E. Neuscamman,  C. M. Oana,  R. Olivares-Amaya,  R. Olson,  
 T. M. Perrine,  B. Peters,  P. A. Pieniazek,  A. Prociuk,  Y. M. Rhee,  
 J. Ritchie,  M. A. Rohrdanz,  E. Rosta,  N. J. Russ,  H. F. Schaefer III,  
 M. W. Schmidt,  N. E. Schultz,  S. Sharma,  N. Shenvi,  C. D. Sherrill,  
 A. C. Simmonett,  A. Sodt,  T. Stein,  D. Stuck,  K. S. Thanthiriwatte,  
 V. Vanovschi,  L. Vogt,  Tao Wang,  A. Warshel,  M. A. Watson,  
 C. F. Williams,  Q. Wu,  X. Xu,  Jun Yang,  W. Zhang,  Yan Zhao

 Please cite Q-Chem as follows:
 Y. Shao et al., Mol. Phys. 113, 184-215 (2015)
 DOI: 10.1080/00268976.2014.952696

 Q-Chem 5.4.0 for Intel X86 EM64T Linux

 Parts of Q-Chem use Armadillo 9.800.1 (Horizon Scraper).
 http://arma.sourceforge.net/

 Q-Chem begins on Wed Dec 27 11:13:14 2023  

 Host: 
0

     Scratch files written to ./qchem407488//
 May1621 |scratch|qcdevops|jenkins|workspace|build_RNUM    
 Parallel job on  1  processors
 Processing $rem in /cm/shared/apps/spack/cpu/opt/spack/linux-centos8-zen2/gcc-10.2.0/qchem-5.4-akfmr7b3t57bfs6qan3padb2wnb2i7cl/config/preferences:
 Processing $rem in /home/rramji/.qchemrc:
 Symmetry turned off for PCM/SM12/SMD calculation
 Core orbitals will be frozen

 Checking the input file for inconsistencies... 	...done.

 Q-Chem warning in module forms1/BasisType.C, line 2236:

 You are not using the predefined 5D/6D in this basis set.


--------------------------------------------------------------
User input:
--------------------------------------------------------------
$molecule
0 1
C	0.089263	-6.741404	0.240927
C	0.535973	-6.155638	1.467886
C	-0.281103	-5.791452	-0.777972
C	0.631036	-4.803786	1.729742
H	0.836458	-6.821518	2.292903
C	-0.181995	-4.378638	-0.503614
C	0.272725	-3.838032	0.746756
C	-0.539954	-3.413062	-1.485437
C	0.371053	-2.426473	1.018915
C	-0.446381	-2.059348	-1.226557
C	0.000000	-1.478216	0.000000
H	-0.747410	-1.394783	-2.052413
C	-0.772747	-6.187987	-2.134128
C	-1.029154	-3.798164	-2.829820
N	-1.110828	-5.170003	-3.059182
C	1.121728	-4.424987	3.077731
C	0.864069	-2.036627	2.375694
N	1.201928	-3.049156	3.301101
O	-0.903908	-7.353131	-2.502830
O	-1.345809	-2.986854	-3.697078
O	1.434422	-5.248946	3.934752
O	1.003943	-0.878829	2.764177
C	-1.592981	-5.563799	-4.386939
H	-1.607367	-6.664085	-4.429822
H	-0.924504	-5.147101	-5.164489
H	-2.605446	-5.148785	-4.553486
C	1.677308	-2.587487	4.608481
H	1.898089	-3.483329	5.211969
H	0.902337	-1.964972	5.094624
H	2.582098	-1.962932	4.483092
C	0.000000	0.000000	0.000000
S	0.068929	0.790170	1.580530
C	0.211639	2.421655	0.904911
C	0.086813	0.994207	-0.985400
C	0.201782	2.309433	-0.493528
H	0.066299	0.759454	-2.059934
H	0.278488	3.187020	-1.152593
H	0.288312	3.298992	1.556025
H	-0.791434	-7.361589	0.447559
H	0.897345	-7.361192	-0.166282
H	-1.015049	-1.478831	0.368883
$end

$rem
JOBTYPE		SP
EXCHANGE	HF
CORRELATION	pRIMP2
BASIS		cc-pvtz
METHOD		rimp2
AUX_BASIS	rimp2-cc-pvtz
SOLVENT_METHOD	PCM
PURECART	11111
SYMMETRY	false
MEM_TOTAL	110000
SCF_CONVERGENCE = 6
THRESH=10
GUI = 2
$end



$solvent
dielectric 4.90
$end
--------------------------------------------------------------
 ----------------------------------------------------------------
             Standard Nuclear Orientation (Angstroms)
    I     Atom           X                Y                Z
 ----------------------------------------------------------------
    1      C       0.0892630000    -6.7414040000     0.2409270000
    2      C       0.5359730000    -6.1556380000     1.4678860000
    3      C      -0.2811030000    -5.7914520000    -0.7779720000
    4      C       0.6310360000    -4.8037860000     1.7297420000
    5      H       0.8364580000    -6.8215180000     2.2929030000
    6      C      -0.1819950000    -4.3786380000    -0.5036140000
    7      C       0.2727250000    -3.8380320000     0.7467560000
    8      C      -0.5399540000    -3.4130620000    -1.4854370000
    9      C       0.3710530000    -2.4264730000     1.0189150000
   10      C      -0.4463810000    -2.0593480000    -1.2265570000
   11      C       0.0000000000    -1.4782160000     0.0000000000
   12      H      -0.7474100000    -1.3947830000    -2.0524130000
   13      C      -0.7727470000    -6.1879870000    -2.1341280000
   14      C      -1.0291540000    -3.7981640000    -2.8298200000
   15      N      -1.1108280000    -5.1700030000    -3.0591820000
   16      C       1.1217280000    -4.4249870000     3.0777310000
   17      C       0.8640690000    -2.0366270000     2.3756940000
   18      N       1.2019280000    -3.0491560000     3.3011010000
   19      O      -0.9039080000    -7.3531310000    -2.5028300000
   20      O      -1.3458090000    -2.9868540000    -3.6970780000
   21      O       1.4344220000    -5.2489460000     3.9347520000
   22      O       1.0039430000    -0.8788290000     2.7641770000
   23      C      -1.5929810000    -5.5637990000    -4.3869390000
   24      H      -1.6073670000    -6.6640850000    -4.4298220000
   25      H      -0.9245040000    -5.1471010000    -5.1644890000
   26      H      -2.6054460000    -5.1487850000    -4.5534860000
   27      C       1.6773080000    -2.5874870000     4.6084810000
   28      H       1.8980890000    -3.4833290000     5.2119690000
   29      H       0.9023370000    -1.9649720000     5.0946240000
   30      H       2.5820980000    -1.9629320000     4.4830920000
   31      C       0.0000000000     0.0000000000     0.0000000000
   32      S       0.0689290000     0.7901700000     1.5805300000
   33      C       0.2116390000     2.4216550000     0.9049110000
   34      C       0.0868130000     0.9942070000    -0.9854000000
   35      C       0.2017820000     2.3094330000    -0.4935280000
   36      H       0.0662990000     0.7594540000    -2.0599340000
   37      H       0.2784880000     3.1870200000    -1.1525930000
   38      H       0.2883120000     3.2989920000     1.5560250000
   39      H      -0.7914340000    -7.3615890000     0.4475590000
   40      H       0.8973450000    -7.3611920000    -0.1662820000
   41      H      -1.0150490000    -1.4788310000     0.3688830000
 ----------------------------------------------------------------
 Nuclear Repulsion Energy =        2567.45927196 hartrees
 There are       98 alpha and       98 beta electrons
 Requested basis set is cc-pVTZ
 There are 356 shells and 1010 basis functions

 Total QAlloc Memory Limit 110000 MB
 Mega-Array Size       188 MB
 MEM_STATIC part       192 MB
 Discretize the solute cavity surface with Lebedev spheres
	Using 110 Lebedev grid points for each H atom
	Using 194 Lebedev grid points for other atoms
	Atomic van der Waals radii will be scaled by 1.20
 Remove points where switching function is < 1.0e-08
 Keep 2586 surface tesserae and discard 4192 interior tesserae
 Molecular Surface Area = 361.701 Angst**2
 Requested basis set is rimp2-cc-pVTZ
 There are 770 shells and 2648 basis functions
 A cutoff of  1.0D-10 yielded  34192 shell pairs
 There are    258630 function pairs (    334652 Cartesian)
 Smallest overlap matrix eigenvalue = 9.26E-06

 Q-Chem warning in module stvman/mkSTV.C, line 323:

 Overlap eigenvalue is smaller than square root of threshold
 Use THRESH >= 12 to get rid of this warning


 Scale SEOQF with 1.000000e-01/1.000000e-02/1.000000e-01

 Standard Electronic Orientation quadrupole field applied
 Nucleus-field energy     =    -0.0000000972 hartrees
 Guess from superposition of atomic densities
 Warning:  Energy on first SCF cycle will be non-variational
 SAD guess density has 196.000000 electrons

 -----------------------------------------------------------------------
  General SCF calculation program by
  Eric Jon Sundstrom, Paul Horn, Yuezhi Mao, Dmitri Zuev, Alec White,
  David Stuck, Shaama M.S., Shane Yost, Joonho Lee, David Small,
  Daniel Levine, Susi Lehtola, Hugh Burton, Evgeny Epifanovsky,
  Bang C. Huynh
 -----------------------------------------------------------------------
 Hartree-Fock
 using 64 threads for integral computing
 -------------------------------------------------------
 OpenMP Integral computing Module                
 Release: version 1.0, May 2013, Q-Chem Inc. Pittsburgh 
 -------------------------------------------------------
 A restricted SCF calculation will be
 performed using DIIS
 SCF converges when DIIS error is below 1.0e-06
 ---------------------------------------
  Cycle       Energy         DIIS error
 ---------------------------------------
    1   -1583.2228602173      1.87e-02  
    2   -1571.1253723505      2.03e-03  
    3   -1571.4646389158      1.55e-03  
    4   -1571.6872873256      2.55e-04  
    5   -1571.7011420700      7.89e-05  
    6   -1571.7025650817      3.06e-05  
    7   -1571.7029939930      1.62e-05  
    8   -1571.7031194573      6.54e-06  
    9   -1571.7031425867      3.05e-06  
   10   -1571.7031473147      1.28e-06  
   11   -1571.7031487419      5.97e-07  Convergence criterion met
 ---------------------------------------
 SCF time:   CPU 6798.93s  wall 275.00s 

************** Final PCM Free Energy Summary **************
 G_electrostatic  =      -0.02913059 hartree =     -18.27972065 kcal/mol
 G_cavitation     =       0.00000000 hartree =       0.00000000 kcal/mol
 G_dispersion     =       0.00000000 hartree =       0.00000000 kcal/mol
 G_repulsion      =       0.00000000 hartree =       0.00000000 kcal/mol
 --------------------------------------------------
 Non-electrostatic Free Energy =       0.00000000 hartree =       0.00000000 kcal/mol
 Total                         =      -0.02913059 hartree =     -18.27972065 kcal/mol
 --------------------------------------------------
 SCF Energy (H0 + V/2)                       =   -1571.70314874 
 Solute Internal Energy (H0)                 =   -1571.67401815 
 Total Free Energy (H0 + V/2 + non-elec)     =   -1571.70314874 hartree
                                             = -986258.61143608 kcal/mol
***********************************************************

 SCF   energy in the final basis set =    -1571.7031487419
 Total energy in the final basis set =    -1571.7031487419


 --------------------------------------------------------------
  Generalized many-body perturbation theory program
  by Joonho Lee, Fazle Rob, Xintian Feng, Evgeny Epifanovsky

 No regularization used 
 (reg. param. = 0.0000e+00)
  (P|Q)^-1/2 Time:  CPU 208.89 s  wall 3.53 s

 In RI-MP2 calculation: 
 # of frozen core orbitals: 31

 Components of the RIMP2 correlation energy:
        aaaa    correlation energy =        -0.6180025374 a.u.
        abab    correlation energy =        -3.4313164846 a.u.
        bbbb    correlation energy =        -0.6180025374 a.u.
        non-Brillouin singles      =        -0.0000000000 a.u.
        total same-spin energy     =        -1.2360050749 a.u.
        total opposite-spin energy =        -3.4313164846 a.u.

 Total  RIMP2   correlation energy =        -4.6673215595 a.u.
        RIMP2         total energy =     -1576.3704703014 a.u.

 RI-MP2 Energy Time:  CPU 2146.75 s  wall 35.64 s
 
 --------------------------------------------------------------
 
                    Orbital Energies (a.u.)
 --------------------------------------------------------------
 
 Alpha MOs
 -- Occupied --
-91.9723 -20.5541 -20.5465 -20.5428 -20.5416 -15.6303 -15.6223 -11.3995
-11.3872 -11.3847 -11.3802 -11.3125 -11.3098 -11.3084 -11.3062 -11.2992
-11.2929 -11.2912 -11.2711 -11.2702 -11.2666 -11.2647 -11.2612 -11.2600
-11.2544 -11.2456 -11.2367  -8.9725  -6.6530  -6.6519  -6.6512  -1.4294
 -1.4132  -1.4024  -1.3924  -1.2669  -1.2566  -1.2315  -1.1853  -1.1462
 -1.1159  -1.0867  -1.0492  -0.9943  -0.9894  -0.9752  -0.9565  -0.9480
 -0.8981  -0.8908  -0.8796  -0.8629  -0.7921  -0.7807  -0.7754  -0.7598
 -0.7308  -0.7237  -0.7011  -0.6903  -0.6882  -0.6738  -0.6690  -0.6590
 -0.6510  -0.6448  -0.6386  -0.6333  -0.6326  -0.6319  -0.6239  -0.6061
 -0.5891  -0.5726  -0.5656  -0.5626  -0.5566  -0.5533  -0.5530  -0.5494
 -0.5485  -0.5455  -0.5192  -0.5143  -0.5121  -0.4864  -0.4809  -0.4637
 -0.4561  -0.4450  -0.4380  -0.4219  -0.4087  -0.4025  -0.3552  -0.3302
 -0.3262  -0.2784
 -- Virtual --
  0.0106   0.0408   0.0897   0.1057   0.1428   0.1505   0.1579   0.1589
  0.1633   0.1733   0.1782   0.1822   0.1871   0.1933   0.2028   0.2038
  0.2169   0.2232   0.2279   0.2299   0.2308   0.2361   0.2543   0.2588
  0.2639   0.2725   0.3023   0.3120   0.3182   0.3202   0.3280   0.3306
  0.3377   0.3442   0.3455   0.3514   0.3549   0.3593   0.3639   0.3689
  0.3713   0.3805   0.3865   0.3890   0.3947   0.4012   0.4057   0.4079
  0.4193   0.4252   0.4281   0.4333   0.4387   0.4446   0.4477   0.4536
  0.4573   0.4598   0.4656   0.4725   0.4788   0.4827   0.4893   0.4927
  0.4976   0.5029   0.5096   0.5125   0.5148   0.5181   0.5212   0.5247
  0.5411   0.5439   0.5458   0.5500   0.5540   0.5583   0.5658   0.5670
  0.5697   0.5751   0.5849   0.5893   0.5911   0.5944   0.5997   0.6016
  0.6030   0.6053   0.6081   0.6121   0.6144   0.6164   0.6201   0.6243
  0.6264   0.6303   0.6345   0.6360   0.6418   0.6438   0.6504   0.6609
  0.6655   0.6709   0.6774   0.6837   0.6885   0.6954   0.6998   0.7023
  0.7180   0.7251   0.7291   0.7357   0.7375   0.7435   0.7549   0.7602
  0.7687   0.7701   0.7718   0.7834   0.7936   0.8026   0.8043   0.8087
  0.8132   0.8182   0.8226   0.8285   0.8357   0.8411   0.8435   0.8501
  0.8553   0.8623   0.8650   0.8693   0.8734   0.8792   0.8835   0.8897
  0.8979   0.9022   0.9070   0.9111   0.9176   0.9245   0.9275   0.9320
  0.9354   0.9445   0.9454   0.9592   0.9618   0.9640   0.9714   0.9776
  0.9863   0.9904   0.9931   0.9947   1.0064   1.0085   1.0186   1.0203
  1.0278   1.0314   1.0403   1.0484   1.0546   1.0588   1.0625   1.0673
  1.0704   1.0735   1.0777   1.0792   1.0899   1.0970   1.1045   1.1072
  1.1104   1.1144   1.1214   1.1275   1.1312   1.1341   1.1388   1.1455
  1.1486   1.1579   1.1594   1.1683   1.1738   1.1755   1.1871   1.1874
  1.1962   1.1987   1.2031   1.2052   1.2080   1.2168   1.2223   1.2288
  1.2363   1.2365   1.2411   1.2466   1.2562   1.2563   1.2614   1.2763
  1.2777   1.2851   1.2967   1.3050   1.3176   1.3199   1.3253   1.3369
  1.3407   1.3522   1.3610   1.3676   1.3725   1.3761   1.3803   1.3870
  1.3893   1.3938   1.4012   1.4036   1.4172   1.4290   1.4390   1.4433
  1.4588   1.4618   1.4645   1.4693   1.4744   1.4793   1.4876   1.5001
  1.5065   1.5087   1.5141   1.5150   1.5254   1.5326   1.5363   1.5412
  1.5482   1.5519   1.5572   1.5591   1.5656   1.5708   1.5726   1.5813
  1.5866   1.5902   1.5991   1.6068   1.6192   1.6257   1.6378   1.6512
  1.6554   1.6566   1.6617   1.6783   1.6809   1.6893   1.6945   1.6983
  1.7087   1.7245   1.7287   1.7341   1.7420   1.7426   1.7507   1.7530
  1.7557   1.7638   1.7755   1.7828   1.7943   1.8013   1.8119   1.8152
  1.8229   1.8346   1.8375   1.8548   1.8550   1.8634   1.8649   1.8691
  1.8699   1.8842   1.8965   1.8984   1.9086   1.9191   1.9391   1.9406
  1.9542   1.9635   1.9679   1.9730   1.9879   1.9930   2.0183   2.0274
  2.0328   2.0553   2.0780   2.0943   2.0978   2.1026   2.1288   2.1335
  2.1432   2.1600   2.1750   2.1818   2.1958   2.2066   2.2280   2.2329
  2.2435   2.2576   2.2657   2.2865   2.2877   2.2894   2.3045   2.3187
  2.3221   2.3286   2.3398   2.3574   2.3632   2.3770   2.3848   2.3963
  2.4241   2.4302   2.4433   2.4501   2.4515   2.4603   2.4711   2.4727
  2.4827   2.4911   2.4996   2.5138   2.5264   2.5460   2.5560   2.5597
  2.5635   2.5696   2.5815   2.5838   2.5898   2.6029   2.6187   2.6251
  2.6359   2.6396   2.6444   2.6493   2.6536   2.6606   2.6744   2.6824
  2.6855   2.6907   2.7079   2.7161   2.7236   2.7253   2.7354   2.7369
  2.7442   2.7521   2.7561   2.7595   2.7681   2.7757   2.7802   2.7999
  2.8081   2.8143   2.8322   2.8357   2.8429   2.8558   2.8653   2.8736
  2.8787   2.8808   2.8874   2.8906   2.8983   2.9025   2.9088   2.9106
  2.9166   2.9201   2.9305   2.9366   2.9497   2.9588   2.9659   2.9689
  2.9806   2.9859   2.9904   3.0030   3.0130   3.0163   3.0233   3.0263
  3.0335   3.0394   3.0461   3.0532   3.0593   3.0710   3.0721   3.0776
  3.0945   3.0987   3.1028   3.1033   3.1076   3.1149   3.1207   3.1248
  3.1266   3.1370   3.1489   3.1584   3.1604   3.1623   3.1732   3.1786
  3.1825   3.1931   3.1964   3.2025   3.2093   3.2173   3.2237   3.2277
  3.2326   3.2382   3.2428   3.2492   3.2514   3.2621   3.2634   3.2678
  3.2731   3.2743   3.2829   3.2860   3.2891   3.2985   3.2999   3.3094
  3.3136   3.3157   3.3212   3.3277   3.3281   3.3309   3.3369   3.3372
  3.3409   3.3443   3.3482   3.3548   3.3635   3.3650   3.3674   3.3738
  3.3796   3.3810   3.3864   3.3946   3.4001   3.4025   3.4076   3.4154
  3.4184   3.4237   3.4296   3.4340   3.4373   3.4448   3.4493   3.4537
  3.4559   3.4613   3.4659   3.4719   3.4752   3.4782   3.4847   3.4884
  3.4962   3.5045   3.5122   3.5150   3.5183   3.5223   3.5261   3.5270
  3.5360   3.5410   3.5459   3.5537   3.5582   3.5662   3.5691   3.5823
  3.5869   3.5903   3.5950   3.6004   3.6117   3.6153   3.6258   3.6317
  3.6344   3.6379   3.6424   3.6454   3.6519   3.6569   3.6604   3.6642
  3.6693   3.6837   3.6859   3.6873   3.6936   3.6989   3.7046   3.7158
  3.7246   3.7305   3.7337   3.7356   3.7408   3.7462   3.7492   3.7528
  3.7599   3.7647   3.7688   3.7783   3.7833   3.7849   3.7984   3.8041
  3.8084   3.8154   3.8202   3.8241   3.8289   3.8315   3.8375   3.8426
  3.8482   3.8534   3.8620   3.8727   3.8752   3.8787   3.8869   3.9042
  3.9137   3.9186   3.9260   3.9289   3.9389   3.9470   3.9489   3.9529
  3.9604   3.9677   3.9724   3.9766   3.9923   3.9990   4.0081   4.0163
  4.0221   4.0247   4.0339   4.0497   4.0553   4.0625   4.0661   4.0761
  4.0902   4.1111   4.1125   4.1158   4.1233   4.1324   4.1369   4.1400
  4.1446   4.1601   4.1669   4.1702   4.1754   4.1791   4.1874   4.2047
  4.2090   4.2212   4.2297   4.2340   4.2389   4.2431   4.2530   4.2604
  4.2665   4.2755   4.2766   4.2815   4.2903   4.2995   4.3012   4.3123
  4.3176   4.3178   4.3254   4.3313   4.3357   4.3374   4.3450   4.3614
  4.3652   4.3677   4.3689   4.3757   4.3806   4.3846   4.3935   4.3951
  4.4042   4.4058   4.4181   4.4221   4.4277   4.4372   4.4427   4.4537
  4.4629   4.4742   4.4940   4.5009   4.5105   4.5186   4.5247   4.5352
  4.5362   4.5443   4.5504   4.5579   4.5657   4.5780   4.5808   4.5898
  4.5928   4.5987   4.6058   4.6123   4.6202   4.6251   4.6300   4.6434
  4.6492   4.6580   4.6686   4.6776   4.6909   4.6948   4.7015   4.7062
  4.7112   4.7367   4.7403   4.7683   4.7769   4.7863   4.7953   4.8081
  4.8106   4.8267   4.8391   4.8402   4.8476   4.8590   4.8780   4.8852
  4.8901   4.8990   4.9192   4.9255   4.9350   4.9417   4.9646   4.9680
  4.9895   5.0114   5.0202   5.0244   5.0319   5.0392   5.0491   5.0727
  5.0765   5.0988   5.1049   5.1096   5.1208   5.1308   5.1354   5.1405
  5.1455   5.1639   5.1724   5.1848   5.1925   5.2009   5.2097   5.2282
  5.2601   5.2652   5.2712   5.2840   5.3023   5.3170   5.3273   5.3295
  5.3373   5.3482   5.3594   5.3691   5.3765   5.3788   5.4018   5.4145
  5.4432   5.4492   5.4616   5.4877   5.4964   5.5106   5.5129   5.5166
  5.5294   5.5316   5.5428   5.5564   5.5585   5.5657   5.5695   5.5712
  5.5814   5.5851   5.5867   5.6074   5.6078   5.6203   5.6277   5.6299
  5.6474   5.6536   5.6595   5.6648   5.6654   5.6681   5.6927   5.6964
  5.6985   5.7071   5.7323   5.7406   5.7540   5.7614   5.7628   5.7745
  5.7815   5.7956   5.8145   5.8304   5.8491   5.8564   5.9017   5.9216
  5.9362   5.9547   5.9745   5.9919   6.0249   6.0351   6.0415   6.0495
  6.0812   6.0998   6.1028   6.1102   6.1210   6.1585   6.1791   6.1922
  6.2063   6.2193   6.2249   6.2274   6.2521   6.2744   6.2815   6.2899
  6.3013   6.3158   6.3298   6.3525   6.3680   6.3789   6.4657   6.4889
  6.5212   6.5367   6.5708   6.5816   6.6077   6.6268   6.6552   6.6584
  6.6727   6.7223   6.8499   6.8519   6.8894   6.9013   6.9051   6.9254
  6.9264   6.9884   7.1042   7.1331   7.1582   7.1941   7.2151   7.2646
  7.3463   7.3507   7.3572   7.3626   7.4754   7.5409   7.5703   7.5827
  7.5922   7.6323   7.6538   7.6884   7.6957   7.7268   8.8963  10.1659
 10.3225  11.2742  11.5263  11.7688  12.0813  12.1436  12.4405  12.4951
 12.9348  13.2998  13.3629  13.5748  13.8033  13.9307  14.1118  14.3101
 14.3543  14.4112  14.5790  14.7119  15.0551  15.6279  15.8427  16.3047
 --------------------------------------------------------------
 
          Ground-State Mulliken Net Atomic Charges

     Atom                 Charge (a.u.)
  ----------------------------------------
      1 C                    -0.084630
      2 C                    -0.028068
      3 C                    -0.107318
      4 C                    -0.123513
      5 H                     0.199894
      6 C                     0.024824
      7 C                     0.123121
      8 C                    -0.109174
      9 C                    -0.208657
     10 C                    -0.132280
     11 C                     0.243096
     12 H                     0.194493
     13 C                     0.343108
     14 C                     0.351665
     15 N                    -0.090342
     16 C                     0.358640
     17 C                     0.390749
     18 N                    -0.090071
     19 O                    -0.493426
     20 O                    -0.507179
     21 O                    -0.499743
     22 O                    -0.453462
     23 C                    -0.204645
     24 H                     0.139626
     25 H                     0.109553
     26 H                     0.109341
     27 C                    -0.198680
     28 H                     0.134665
     29 H                     0.112559
     30 H                     0.112957
     31 C                    -0.083555
     32 S                     0.062083
     33 C                    -0.241753
     34 C                    -0.163787
     35 C                    -0.246401
     36 H                     0.181507
     37 H                     0.181171
     38 H                     0.204017
     39 H                     0.138777
     40 H                     0.139037
     41 H                     0.211801
  ----------------------------------------
  Sum of atomic charges =     0.000000

 -----------------------------------------------------------------
                    Cartesian Multipole Moments
 -----------------------------------------------------------------
    Charge (ESU x 10^10)
                 0.0000
    Dipole Moment (Debye)
         X       0.0270      Y       0.3928      Z       1.3501
       Tot       1.4064
    Quadrupole Moments (Debye-Ang)
        XX    -166.1813     XY      -1.1480     YY    -177.3479
        XZ      -9.3993     YZ      -8.9921     ZZ    -183.0238
    Octopole Moments (Debye-Ang^2)
       XXX     -28.2213    XXY     470.0279    XYY      13.8165
       YYY    1658.6951    XXZ     -30.0268    XYZ      43.9283
       YYZ      35.4211    XZZ      -5.4995    YZZ     586.0397
       ZZZ     -90.2207
    Hexadecapole Moments (Debye-Ang^3)
      XXXX    -875.9749   XXXY    -141.5296   XXYY   -2859.7951
      XYYY    -412.3349   YYYY  -17948.7476   XXXZ    -939.1543
      XXYZ    -101.7274   XYYZ    -588.1395   YYYZ   -1146.6126
      XXZZ   -1114.2932   XYZZ      50.8332   YYZZ   -4273.1402
      XZZZ   -1035.4913   YZZZ    -132.0876   ZZZZ   -5835.3534
 -----------------------------------------------------------------
 Total job time:  315.44s(wall), 9064.92s(cpu) 
 Wed Dec 27 11:18:29 2023

        *************************************************************
        *                                                           *
        *  Thank you very much for using Q-Chem.  Have a nice day.  *
        *                                                           *
        *************************************************************


0 sent ACK to 0 
now end server 0 ... 
cleanup process ... done
remove work dirs ./qchem407488.0 -- ./qchem407488.0
rm -rf ./qchem407488.0
rm -rf ./qchem407488
