You are running Q-Chem version: 5.4.0

#
# job setting
#
local host:  exp-1-36
current dir: /home/rramji/project-csd799/aromodel/pndit-qchem/hydrogenated-rotation-run
input file:  Dimethyl_Naphthalene_Dicarboximide_Phi_0_Theta_0_Thiophene_Hydrogenated.qcin
output file: 
nprocs     : 1
nthreads   : 64
#
# qchem installation setting
#
QC:          /cm/shared/apps/spack/cpu/opt/spack/linux-centos8-zen2/gcc-10.2.0/qchem-5.4-akfmr7b3t57bfs6qan3padb2wnb2i7cl
QCAUX:       /cm/shared/apps/spack/cpu/opt/spack/linux-centos8-zen2/gcc-10.2.0/qchem-5.4-akfmr7b3t57bfs6qan3padb2wnb2i7cl/qcaux
QCPROG:      /cm/shared/apps/spack/cpu/opt/spack/linux-centos8-zen2/gcc-10.2.0/qchem-5.4-akfmr7b3t57bfs6qan3padb2wnb2i7cl/exe/qcprog.exe
QCPROG_S:    /cm/shared/apps/spack/cpu/opt/spack/linux-centos8-zen2/gcc-10.2.0/qchem-5.4-akfmr7b3t57bfs6qan3padb2wnb2i7cl/exe/qcprog.exe_s
PARALLEL:    -DPARALLEL
QCMPI:       mpich
#
# qchem directory setting
#
qcrun:       qchem2561765
QCSCRATCH:   .
QCLOCALSCR:  
QCTMPDIR:    .
QCFILEPREF:  ./qchem2561765
QCSAVEDIR:   
workdirs:    ./qchem2561765
workdir0:    ./qchem2561765
partmpdirs =  
#
# parallel setting
#
QCRSH:           ssh
QCMPI:           mpich
QCMPIRUN:        /cm/shared/apps/spack/cpu/opt/spack/linux-centos8-zen2/gcc-10.2.0/qchem-5.4-akfmr7b3t57bfs6qan3padb2wnb2i7cl/bin/mpi/mpirun_qchem
QCMACHINEFILE:   ./qchem2561765/hostfile
exp-1-36

#
# env setting
#
exported envs:   QC QCAUX QCSCRATCH QCRUNNAME QCFILEPREF QCPROG QCPROG_S GUIFILE

Running Job 1 of 1 Dimethyl_Naphthalene_Dicarboximide_Phi_0_Theta_0_Thiophene_Hydrogenated.qcin
qchem Dimethyl_Naphthalene_Dicarboximide_Phi_0_Theta_0_Thiophene_Hydrogenated.qcin_2561765.0 ./qchem2561765/ 1
/cm/shared/apps/spack/cpu/opt/spack/linux-centos8-zen2/gcc-10.2.0/qchem-5.4-akfmr7b3t57bfs6qan3padb2wnb2i7cl/bin/mpi/mpirun_qchem -machinefile ./qchem2561765/hostfile -np 1 /cm/shared/apps/spack/cpu/opt/spack/linux-centos8-zen2/gcc-10.2.0/qchem-5.4-akfmr7b3t57bfs6qan3padb2wnb2i7cl/exe/qcprog.exe Dimethyl_Naphthalene_Dicarboximide_Phi_0_Theta_0_Thiophene_Hydrogenated.qcin_2561765.0 ./qchem2561765/

Process 0 of 1 is on exp-1-36 - thread support 0
initial socket setup ...start
initial socket setup ...done 
now start server 0 ... 
                  Welcome to Q-Chem
     A Quantum Leap Into The Future Of Chemistry


 Q-Chem 5.4, Q-Chem, Inc., Pleasanton, CA (2021)

 License issued to: University of California, San Diego (site)

 E. Epifanovsky,  A. T. B. Gilbert,  Xintian Feng,  Joonho Lee,  Yuezhi Mao,  
 N. Mardirossian,  P. Pokhilko,  A. White,  M. Wormit,  M. P. Coons,  
 A. L. Dempwolff,  Zhengting Gan,  D. Hait,  P. R. Horn,  L. D. Jacobson,  
 I. Kaliman,  J. Kussmann,  A. W. Lange,  Ka Un Lao,  D. S. Levine,  Jie Liu,  
 S. C. McKenzie,  A. F. Morrison,  K. Nanda,  F. Plasser,  D. R. Rehn,  
 M. L. Vidal,  Zhi-Qiang You,  Ying Zhu,  B. Alam,  B. Albrecht,  
 A. Aldossary,  E. Alguire,  J. H. Andersen,  D. Barton,  K. Begam,  A. Behn,  
 Y. A. Bernard,  E. J. Berquist,  H. Burton,  A. Carreras,  K. Carter-Fenk,  
 R. Chakraborty,  A. D. Chien,  K. D. Closser,  V. Cofer-Shabica,  
 S. Dasgupta,  Jia Deng,  M. de Wergifosse,  M. Diedenhofen,  Hainam Do,  
 S. Ehlert,  Po-Tung Fang,  S. Fatehi,  Qingguo Feng,  J. Gayvert,  
 Qinghui Ge,  G. Gidofalvi,  M. Goldey,  J. Gomes,  C. Gonzalez-Espinoza,  
 S. Gulania,  A. Gunina,  M. W. D. Hanson-Heine,  P. H. P. Harbach,  
 A. W. Hauser,  M. F. Herbst,  M. Hernandez Vera,  M. Hodecker,  
 Z. C. Holden,  S. Houck,  Xunkun Huang,  Kerwin Hui,  B. C. Huynh,  
 M. Ivanov,  Hyunjun Ji,  Hanjie Jiang,  B. Kaduk,  S. Kaehler,  
 K. Khistyaev,  Jaehoon Kim,  P. Klunzinger,  Z. Koczor-Benda,  
 Joong Hoon Koh,  D. Kosenkov,  L. Koulias,  T. Kowalczyk,  C. M. Krauter,  
 K. Kue,  A. Kunitsa,  T. Kus,  A. Landau,  K. V. Lawler,  D. Lefrancois,  
 S. Lehtola,  Rain Li,  Yi-Pei Li,  Jiashu Liang,  M. Liebenthal,  
 Hung-Hsuan Lin,  You-Sheng Lin,  Fenglai Liu,  Kuan-Yu Liu,  
 M. Loipersberger,  A. Luenser,  A. Manjanath,  P. Manohar,  E. Mansoor,  
 S. F. Manzer,  Shan-Ping Mao,  A. V. Marenich,  T. Markovich,  S. Mason,  
 S. A. Maurer,  P. F. McLaughlin,  M. F. S. J. Menger,  J.-M. Mewes,  
 S. A. Mewes,  P. Morgante,  J. W. Mullinax,  T. S. Nguyen-Beck,  
 K. J. Oosterbaan,  G. Paran,  Alexander C. Paul,  Suranjan K. Paul,  
 F. Pavosevic,  Zheng Pei,  S. Prager,  E. I. Proynov,  E. Ramos,  B. Rana,  
 A. E. Rask,  A. Rettig,  R. M. Richard,  F. Rob,  E. Rossomme,  T. Scheele,  
 M. Scheurer,  M. Schneider,  N. Sergueev,  S. M. Sharada,  W. Skomorowski,  
 D. W. Small,  C. J. Stein,  Yu-Chuan Su,  E. J. Sundstrom,  Zhen Tao,  
 J. Thirman,  T. Tsuchimochi,  N. M. Tubman,  S. P. Veccham,  O. Vydrov,  
 J. Wenzel,  J. Witte,  A. Yamada,  Kun Yao,  S. Yeganeh,  S. R. Yost,  
 A. Zech,  Igor Ying Zhang,  Xing Zhang,  Yu Zhang,  D. Zuev,  
 A. Aspuru-Guzik,  A. T. Bell,  N. A. Besley,  K. B. Bravaya,  B. R. Brooks,  
 D. Casanova,  Jeng-Da Chai,  S. Coriani,  C. J. Cramer,  
 A. E. DePrince, III,  R. A. DiStasio Jr.,  A. Dreuw,  B. D. Dunietz,  
 T. R. Furlani,  W. A. Goddard III,  S. Grimme,  S. Hammes-Schiffer,  
 T. Head-Gordon,  W. J. Hehre,  Chao-Ping Hsu,  T.-C. Jagau,  Yousung Jung,  
 A. Klamt,  Jing Kong,  D. S. Lambrecht,  WanZhen Liang,  N. J. Mayhall,  
 C. W. McCurdy,  J. B. Neaton,  C. Ochsenfeld,  J. A. Parkhill,  R. Peverati,  
 V. A. Rassolov,  Yihan Shao,  L. V. Slipchenko,  T. Stauch,  R. P. Steele,  
 J. E. Subotnik,  A. J. W. Thom,  A. Tkatchenko,  D. G. Truhlar,  
 T. Van Voorhis,  T. A. Wesolowski,  K. B. Whaley,  H. L. Woodcock III,  
 P. M. Zimmerman,  S. Faraji,  P. M. W. Gill,  M. Head-Gordon,  
 J. M. Herbert,  A. I. Krylov

 Contributors to earlier versions of Q-Chem not listed above: 
 R. D. Adamson,  B. Austin,  R. Baer,  J. Baker,  G. J. O. Beran,  
 K. Brandhorst,  S. T. Brown,  E. F. C. Byrd,  A. K. Chakraborty,  
 G. K. L. Chan,  Chun-Min Chang,  Yunqing Chen,  C.-L. Cheng,  
 Siu Hung Chien,  D. M. Chipman,  D. L. Crittenden,  H. Dachsel,  
 R. J. Doerksen,  A. D. Dutoi,  R. G. Edgar,  J. Fosso-Tande,  
 L. Fusti-Molnar,  D. Ghosh,  A. Ghysels,  A. Golubeva-Zadorozhnaya,  
 J. Gonthier,  M. S. Gordon,  S. R. Gwaltney,  G. Hawkins,  J. E. Herr,  
 A. Heyden,  S. Hirata,  E. G. Hohenstein,  G. Kedziora,  F. J. Keil,  
 C. Kelley,  Jihan Kim,  R. A. King,  R. Z. Khaliullin,  P. P. Korambath,  
 W. Kurlancheek,  A. Laurent,  A. M. Lee,  M. S. Lee,  S. V. Levchenko,  
 Ching Yeh Lin,  D. Liotard,  E. Livshits,  R. C. Lochan,  I. Lotan,  
 L. A. Martinez-Martinez,  P. E. Maslen,  N. Nair,  D. P. O'Neill,  
 D. Neuhauser,  E. Neuscamman,  C. M. Oana,  R. Olivares-Amaya,  R. Olson,  
 T. M. Perrine,  B. Peters,  P. A. Pieniazek,  A. Prociuk,  Y. M. Rhee,  
 J. Ritchie,  M. A. Rohrdanz,  E. Rosta,  N. J. Russ,  H. F. Schaefer III,  
 M. W. Schmidt,  N. E. Schultz,  S. Sharma,  N. Shenvi,  C. D. Sherrill,  
 A. C. Simmonett,  A. Sodt,  T. Stein,  D. Stuck,  K. S. Thanthiriwatte,  
 V. Vanovschi,  L. Vogt,  Tao Wang,  A. Warshel,  M. A. Watson,  
 C. F. Williams,  Q. Wu,  X. Xu,  Jun Yang,  W. Zhang,  Yan Zhao

 Please cite Q-Chem as follows:
 Y. Shao et al., Mol. Phys. 113, 184-215 (2015)
 DOI: 10.1080/00268976.2014.952696

 Q-Chem 5.4.0 for Intel X86 EM64T Linux

 Parts of Q-Chem use Armadillo 9.800.1 (Horizon Scraper).
 http://arma.sourceforge.net/

 Q-Chem begins on Wed Dec 27 09:50:39 2023  

 Host: 
0

     Scratch files written to ./qchem2561765//
 May1621 |scratch|qcdevops|jenkins|workspace|build_RNUM    
 Parallel job on  1  processors
 Processing $rem in /cm/shared/apps/spack/cpu/opt/spack/linux-centos8-zen2/gcc-10.2.0/qchem-5.4-akfmr7b3t57bfs6qan3padb2wnb2i7cl/config/preferences:
 Processing $rem in /home/rramji/.qchemrc:
 Symmetry turned off for PCM/SM12/SMD calculation
 Core orbitals will be frozen

 Checking the input file for inconsistencies... 	...done.

 Q-Chem warning in module forms1/BasisType.C, line 2236:

 You are not using the predefined 5D/6D in this basis set.


--------------------------------------------------------------
User input:
--------------------------------------------------------------
$molecule
0 1
C	-6.452381	1.969596	-0.002838
C	-6.327556	0.543932	-0.003583
C	-5.199266	2.681941	-0.002518
C	-5.141988	-0.162849	-0.003264
H	-7.244699	-0.066958	-0.004382
C	-3.960422	1.942750	-0.001720
C	-3.886374	0.508537	-0.002007
C	-2.705373	2.613048	-0.000397
C	-2.647949	-0.228038	-0.001227
C	-1.516962	1.908779	0.000307
C	-1.396353	0.485099	-0.000267
H	-0.600741	2.521022	0.001330
C	-5.100455	4.174706	-0.003627
C	-2.599668	4.090821	0.000219
N	-3.815638	4.770993	-0.001591
C	-5.254927	-1.642236	-0.004052
C	-2.753425	-1.719604	-0.001196
N	-4.033172	-2.317922	-0.002902
O	-6.072653	4.926722	-0.006473
O	-1.530307	4.696705	0.001818
O	-6.332635	-2.233603	-0.005425
O	-1.795243	-2.489582	0.000214
C	-3.724063	6.234584	-0.001922
H	-4.748576	6.638373	-0.003244
H	-3.165379	6.572477	-0.895668
H	-3.167351	6.572916	0.892876
C	-4.053589	-3.783511	-0.003152
H	-5.110700	-4.096543	-0.004732
H	-3.528796	-4.169364	0.891359
H	-3.526193	-4.169069	-0.896256
C	0.000000	0.000000	0.000000
S	1.267920	1.232710	0.000820
C	2.593224	0.057066	0.000714
C	0.619348	-1.258334	-0.000535
C	2.027890	-1.226959	-0.000122
H	0.044126	-2.196030	-0.001151
H	2.643755	-2.138617	-0.000401
H	3.638806	0.383112	0.001151
H	-7.003409	2.273819	0.895366
H	-7.002654	2.273792	-0.901513
H	-1.397141	0.485299	1.079733
$end

$rem
JOBTYPE		SP
EXCHANGE	HF
CORRELATION	pRIMP2
BASIS		cc-pvtz
METHOD		rimp2
AUX_BASIS	rimp2-cc-pvtz
SOLVENT_METHOD	PCM
PURECART	11111
SYMMETRY	false
MEM_TOTAL	110000
SCF_CONVERGENCE = 6
THRESH=10
GUI = 2
$end



$solvent
dielectric 4.90
$end
--------------------------------------------------------------
 ----------------------------------------------------------------
             Standard Nuclear Orientation (Angstroms)
    I     Atom           X                Y                Z
 ----------------------------------------------------------------
    1      C      -6.4523810000     1.9695960000    -0.0028380000
    2      C      -6.3275560000     0.5439320000    -0.0035830000
    3      C      -5.1992660000     2.6819410000    -0.0025180000
    4      C      -5.1419880000    -0.1628490000    -0.0032640000
    5      H      -7.2446990000    -0.0669580000    -0.0043820000
    6      C      -3.9604220000     1.9427500000    -0.0017200000
    7      C      -3.8863740000     0.5085370000    -0.0020070000
    8      C      -2.7053730000     2.6130480000    -0.0003970000
    9      C      -2.6479490000    -0.2280380000    -0.0012270000
   10      C      -1.5169620000     1.9087790000     0.0003070000
   11      C      -1.3963530000     0.4850990000    -0.0002670000
   12      H      -0.6007410000     2.5210220000     0.0013300000
   13      C      -5.1004550000     4.1747060000    -0.0036270000
   14      C      -2.5996680000     4.0908210000     0.0002190000
   15      N      -3.8156380000     4.7709930000    -0.0015910000
   16      C      -5.2549270000    -1.6422360000    -0.0040520000
   17      C      -2.7534250000    -1.7196040000    -0.0011960000
   18      N      -4.0331720000    -2.3179220000    -0.0029020000
   19      O      -6.0726530000     4.9267220000    -0.0064730000
   20      O      -1.5303070000     4.6967050000     0.0018180000
   21      O      -6.3326350000    -2.2336030000    -0.0054250000
   22      O      -1.7952430000    -2.4895820000     0.0002140000
   23      C      -3.7240630000     6.2345840000    -0.0019220000
   24      H      -4.7485760000     6.6383730000    -0.0032440000
   25      H      -3.1653790000     6.5724770000    -0.8956680000
   26      H      -3.1673510000     6.5729160000     0.8928760000
   27      C      -4.0535890000    -3.7835110000    -0.0031520000
   28      H      -5.1107000000    -4.0965430000    -0.0047320000
   29      H      -3.5287960000    -4.1693640000     0.8913590000
   30      H      -3.5261930000    -4.1690690000    -0.8962560000
   31      C       0.0000000000     0.0000000000     0.0000000000
   32      S       1.2679200000     1.2327100000     0.0008200000
   33      C       2.5932240000     0.0570660000     0.0007140000
   34      C       0.6193480000    -1.2583340000    -0.0005350000
   35      C       2.0278900000    -1.2269590000    -0.0001220000
   36      H       0.0441260000    -2.1960300000    -0.0011510000
   37      H       2.6437550000    -2.1386170000    -0.0004010000
   38      H       3.6388060000     0.3831120000     0.0011510000
   39      H      -7.0034090000     2.2738190000     0.8953660000
   40      H      -7.0026540000     2.2737920000    -0.9015130000
   41      H      -1.3971410000     0.4852990000     1.0797330000
 ----------------------------------------------------------------
 Nuclear Repulsion Energy =        2553.07627684 hartrees
 There are       98 alpha and       98 beta electrons
 Requested basis set is cc-pVTZ
 There are 356 shells and 1010 basis functions

 Total QAlloc Memory Limit 110000 MB
 Mega-Array Size       188 MB
 MEM_STATIC part       192 MB
 Discretize the solute cavity surface with Lebedev spheres
	Using 110 Lebedev grid points for each H atom
	Using 194 Lebedev grid points for other atoms
	Atomic van der Waals radii will be scaled by 1.20
 Remove points where switching function is < 1.0e-08
 Keep 2585 surface tesserae and discard 4193 interior tesserae
 Molecular Surface Area = 361.243 Angst**2
 Requested basis set is rimp2-cc-pVTZ
 There are 770 shells and 2648 basis functions
 A cutoff of  1.0D-10 yielded  34166 shell pairs
 There are    258500 function pairs (    334573 Cartesian)
 Smallest overlap matrix eigenvalue = 8.94E-06

 Q-Chem warning in module stvman/mkSTV.C, line 323:

 Overlap eigenvalue is smaller than square root of threshold
 Use THRESH >= 12 to get rid of this warning


 Scale SEOQF with 1.000000e-02/1.000000e-02/1.000000e+00

 Standard Electronic Orientation quadrupole field applied
 Nucleus-field energy     =     0.0000000157 hartrees
 Guess from superposition of atomic densities
 Warning:  Energy on first SCF cycle will be non-variational
 SAD guess density has 196.000000 electrons

 -----------------------------------------------------------------------
  General SCF calculation program by
  Eric Jon Sundstrom, Paul Horn, Yuezhi Mao, Dmitri Zuev, Alec White,
  David Stuck, Shaama M.S., Shane Yost, Joonho Lee, David Small,
  Daniel Levine, Susi Lehtola, Hugh Burton, Evgeny Epifanovsky,
  Bang C. Huynh
 -----------------------------------------------------------------------
 Hartree-Fock
 using 64 threads for integral computing
 -------------------------------------------------------
 OpenMP Integral computing Module                
 Release: version 1.0, May 2013, Q-Chem Inc. Pittsburgh 
 -------------------------------------------------------
 A restricted SCF calculation will be
 performed using DIIS
 SCF converges when DIIS error is below 1.0e-06
 ---------------------------------------
  Cycle       Energy         DIIS error
 ---------------------------------------
    1   -1583.1999821271      1.87e-02  
    2   -1571.1521158795      2.03e-03  
    3   -1571.4955335340      1.55e-03  
    4   -1571.7175185894      2.54e-04  
    5   -1571.7313736304      7.88e-05  
    6   -1571.7328025065      3.03e-05  
    7   -1571.7332221052      1.55e-05  
    8   -1571.7333368461      6.08e-06  
    9   -1571.7333564152      2.89e-06  
   10   -1571.7333602764      1.22e-06  
   11   -1571.7333615320      5.95e-07  Convergence criterion met
 ---------------------------------------
 SCF time:   CPU 6879.22s  wall 277.00s 

************** Final PCM Free Energy Summary **************
 G_electrostatic  =      -0.02725074 hartree =     -17.10009625 kcal/mol
 G_cavitation     =       0.00000000 hartree =       0.00000000 kcal/mol
 G_dispersion     =       0.00000000 hartree =       0.00000000 kcal/mol
 G_repulsion      =       0.00000000 hartree =       0.00000000 kcal/mol
 --------------------------------------------------
 Non-electrostatic Free Energy =       0.00000000 hartree =       0.00000000 kcal/mol
 Total                         =      -0.02725074 hartree =     -17.10009625 kcal/mol
 --------------------------------------------------
 SCF Energy (H0 + V/2)                       =   -1571.73336153 
 Solute Internal Energy (H0)                 =   -1571.70611079 
 Total Free Energy (H0 + V/2 + non-elec)     =   -1571.73336153 hartree
                                             = -986277.57024800 kcal/mol
***********************************************************

 SCF   energy in the final basis set =    -1571.7333615320
 Total energy in the final basis set =    -1571.7333615320


 --------------------------------------------------------------
  Generalized many-body perturbation theory program
  by Joonho Lee, Fazle Rob, Xintian Feng, Evgeny Epifanovsky

 No regularization used 
 (reg. param. = 0.0000e+00)
  (P|Q)^-1/2 Time:  CPU 183.66 s  wall 3.28 s

 In RI-MP2 calculation: 
 # of frozen core orbitals: 31

 Components of the RIMP2 correlation energy:
        aaaa    correlation energy =        -0.6160255796 a.u.
        abab    correlation energy =        -3.4264907429 a.u.
        bbbb    correlation energy =        -0.6160255796 a.u.
        non-Brillouin singles      =        -0.0000000000 a.u.
        total same-spin energy     =        -1.2320511593 a.u.
        total opposite-spin energy =        -3.4264907429 a.u.

 Total  RIMP2   correlation energy =        -4.6585419022 a.u.
        RIMP2         total energy =     -1576.3919034342 a.u.

 RI-MP2 Energy Time:  CPU 1961.85 s  wall 32.53 s
 
 --------------------------------------------------------------
 
                    Orbital Energies (a.u.)
 --------------------------------------------------------------
 
 Alpha MOs
 -- Occupied --
-91.9894 -20.5542 -20.5461 -20.5428 -20.5418 -15.6296 -15.6222 -11.3985
-11.3869 -11.3846 -11.3804 -11.3107 -11.3104 -11.3072 -11.3059 -11.2983
-11.2982 -11.2930 -11.2737 -11.2711 -11.2696 -11.2680 -11.2645 -11.2598
-11.2540 -11.2459 -11.2346  -8.9895  -6.6703  -6.6699  -6.6691  -1.4244
 -1.4132  -1.4005  -1.3924  -1.2652  -1.2565  -1.2324  -1.1878  -1.1502
 -1.1160  -1.0880  -1.0494  -0.9957  -0.9891  -0.9813  -0.9562  -0.9496
 -0.8988  -0.8917  -0.8788  -0.8621  -0.7956  -0.7815  -0.7734  -0.7586
 -0.7402  -0.7211  -0.7026  -0.6899  -0.6828  -0.6749  -0.6689  -0.6586
 -0.6497  -0.6475  -0.6390  -0.6327  -0.6320  -0.6299  -0.6246  -0.6057
 -0.5933  -0.5714  -0.5637  -0.5606  -0.5576  -0.5527  -0.5520  -0.5495
 -0.5486  -0.5430  -0.5167  -0.5152  -0.5129  -0.4867  -0.4746  -0.4594
 -0.4583  -0.4499  -0.4434  -0.4370  -0.4164  -0.4087  -0.3579  -0.3495
 -0.3319  -0.2782
 -- Virtual --
  0.0112   0.0389   0.0876   0.1066   0.1427   0.1502   0.1565   0.1603
  0.1634   0.1702   0.1762   0.1791   0.1901   0.1964   0.2029   0.2060
  0.2144   0.2233   0.2259   0.2289   0.2317   0.2360   0.2476   0.2613
  0.2639   0.2730   0.3021   0.3115   0.3195   0.3214   0.3330   0.3360
  0.3378   0.3416   0.3464   0.3524   0.3535   0.3587   0.3643   0.3702
  0.3712   0.3854   0.3868   0.3880   0.3963   0.4004   0.4126   0.4166
  0.4221   0.4248   0.4283   0.4332   0.4400   0.4431   0.4465   0.4513
  0.4552   0.4590   0.4638   0.4706   0.4784   0.4840   0.4905   0.4930
  0.4956   0.5031   0.5126   0.5141   0.5189   0.5241   0.5261   0.5331
  0.5373   0.5408   0.5466   0.5501   0.5519   0.5581   0.5624   0.5654
  0.5752   0.5802   0.5834   0.5870   0.5900   0.5908   0.5955   0.6015
  0.6043   0.6067   0.6110   0.6114   0.6153   0.6170   0.6265   0.6274
  0.6291   0.6327   0.6349   0.6370   0.6387   0.6482   0.6603   0.6628
  0.6667   0.6718   0.6839   0.6899   0.6955   0.6970   0.7032   0.7065
  0.7093   0.7129   0.7267   0.7355   0.7391   0.7396   0.7581   0.7676
  0.7691   0.7707   0.7764   0.7867   0.7898   0.7988   0.8073   0.8090
  0.8185   0.8199   0.8257   0.8320   0.8347   0.8397   0.8412   0.8493
  0.8544   0.8614   0.8657   0.8698   0.8729   0.8752   0.8853   0.8897
  0.8966   0.8990   0.9133   0.9166   0.9205   0.9232   0.9267   0.9366
  0.9424   0.9440   0.9513   0.9561   0.9620   0.9679   0.9733   0.9802
  0.9841   0.9885   0.9950   1.0054   1.0083   1.0130   1.0178   1.0269
  1.0301   1.0380   1.0456   1.0523   1.0564   1.0596   1.0670   1.0678
  1.0701   1.0740   1.0772   1.0814   1.0861   1.0889   1.0970   1.1094
  1.1107   1.1188   1.1202   1.1215   1.1285   1.1300   1.1383   1.1443
  1.1528   1.1630   1.1660   1.1698   1.1803   1.1878   1.1890   1.1940
  1.1955   1.1966   1.2023   1.2080   1.2135   1.2213   1.2230   1.2275
  1.2293   1.2379   1.2405   1.2454   1.2496   1.2537   1.2719   1.2784
  1.2874   1.2887   1.2970   1.3047   1.3169   1.3206   1.3318   1.3426
  1.3482   1.3526   1.3638   1.3737   1.3801   1.3827   1.3834   1.3875
  1.3917   1.3968   1.4058   1.4107   1.4187   1.4265   1.4407   1.4456
  1.4532   1.4579   1.4682   1.4723   1.4799   1.4820   1.4914   1.4920
  1.5007   1.5051   1.5117   1.5164   1.5187   1.5305   1.5371   1.5446
  1.5510   1.5539   1.5590   1.5621   1.5689   1.5733   1.5758   1.5945
  1.5979   1.5990   1.6053   1.6101   1.6227   1.6338   1.6406   1.6462
  1.6554   1.6595   1.6677   1.6761   1.6814   1.6912   1.6955   1.7033
  1.7134   1.7201   1.7302   1.7368   1.7457   1.7485   1.7601   1.7624
  1.7701   1.7709   1.7810   1.7868   1.8037   1.8075   1.8126   1.8174
  1.8337   1.8385   1.8398   1.8558   1.8651   1.8664   1.8714   1.8721
  1.8750   1.8851   1.8947   1.9007   1.9164   1.9285   1.9333   1.9532
  1.9578   1.9680   1.9747   1.9841   1.9883   1.9926   2.0242   2.0278
  2.0417   2.0444   2.0677   2.0772   2.0906   2.1000   2.1085   2.1313
  2.1348   2.1553   2.1676   2.1759   2.1776   2.2170   2.2240   2.2295
  2.2423   2.2562   2.2626   2.2847   2.2887   2.2989   2.3008   2.3190
  2.3252   2.3284   2.3357   2.3531   2.3585   2.3619   2.3802   2.3959
  2.4155   2.4226   2.4314   2.4415   2.4464   2.4577   2.4656   2.4699
  2.4899   2.4972   2.5049   2.5098   2.5207   2.5432   2.5519   2.5644
  2.5687   2.5726   2.5800   2.5865   2.5898   2.5933   2.6122   2.6153
  2.6315   2.6390   2.6426   2.6507   2.6607   2.6712   2.6760   2.6800
  2.6927   2.7002   2.7038   2.7069   2.7163   2.7289   2.7315   2.7390
  2.7430   2.7467   2.7555   2.7606   2.7753   2.7793   2.7841   2.8008
  2.8203   2.8297   2.8322   2.8414   2.8539   2.8618   2.8636   2.8713
  2.8786   2.8804   2.8848   2.8886   2.8918   2.9059   2.9160   2.9165
  2.9194   2.9399   2.9432   2.9472   2.9578   2.9622   2.9732   2.9807
  2.9874   2.9939   2.9968   3.0009   3.0105   3.0154   3.0175   3.0296
  3.0305   3.0367   3.0402   3.0515   3.0618   3.0720   3.0787   3.0924
  3.0976   3.0994   3.1028   3.1044   3.1073   3.1103   3.1201   3.1263
  3.1308   3.1347   3.1447   3.1517   3.1624   3.1664   3.1771   3.1782
  3.1924   3.1958   3.2036   3.2059   3.2087   3.2124   3.2158   3.2275
  3.2332   3.2381   3.2451   3.2469   3.2552   3.2604   3.2645   3.2690
  3.2720   3.2788   3.2810   3.2909   3.2949   3.2976   3.3038   3.3059
  3.3076   3.3143   3.3172   3.3191   3.3272   3.3291   3.3346   3.3403
  3.3437   3.3494   3.3498   3.3569   3.3600   3.3660   3.3703   3.3759
  3.3807   3.3828   3.3895   3.3941   3.4004   3.4091   3.4124   3.4146
  3.4202   3.4252   3.4297   3.4364   3.4387   3.4449   3.4458   3.4502
  3.4555   3.4631   3.4711   3.4731   3.4748   3.4796   3.4837   3.4943
  3.4952   3.5057   3.5079   3.5111   3.5166   3.5187   3.5227   3.5314
  3.5346   3.5411   3.5459   3.5513   3.5607   3.5665   3.5769   3.5811
  3.5848   3.5909   3.6003   3.6059   3.6162   3.6224   3.6272   3.6314
  3.6321   3.6368   3.6410   3.6459   3.6527   3.6535   3.6559   3.6594
  3.6668   3.6776   3.6823   3.6923   3.7012   3.7031   3.7046   3.7134
  3.7164   3.7282   3.7310   3.7353   3.7375   3.7410   3.7458   3.7589
  3.7596   3.7616   3.7716   3.7741   3.7817   3.7917   3.8005   3.8060
  3.8120   3.8136   3.8171   3.8288   3.8364   3.8370   3.8407   3.8462
  3.8506   3.8665   3.8694   3.8745   3.8834   3.8949   3.8975   3.9060
  3.9151   3.9240   3.9253   3.9321   3.9461   3.9502   3.9510   3.9566
  3.9676   3.9711   3.9735   3.9839   4.0007   4.0048   4.0113   4.0194
  4.0287   4.0377   4.0427   4.0545   4.0611   4.0641   4.0696   4.0791
  4.0984   4.1032   4.1095   4.1215   4.1265   4.1324   4.1398   4.1469
  4.1518   4.1555   4.1583   4.1681   4.1700   4.1776   4.1826   4.2066
  4.2091   4.2192   4.2387   4.2418   4.2515   4.2536   4.2640   4.2673
  4.2730   4.2791   4.2816   4.2877   4.2901   4.3000   4.3061   4.3101
  4.3216   4.3234   4.3298   4.3336   4.3347   4.3435   4.3472   4.3597
  4.3652   4.3680   4.3710   4.3747   4.3833   4.3867   4.3999   4.4001
  4.4062   4.4083   4.4193   4.4244   4.4367   4.4420   4.4510   4.4634
  4.4695   4.4945   4.5016   4.5060   4.5136   4.5243   4.5264   4.5386
  4.5393   4.5487   4.5608   4.5644   4.5678   4.5756   4.5863   4.5919
  4.5945   4.6033   4.6100   4.6173   4.6213   4.6264   4.6324   4.6518
  4.6614   4.6687   4.6811   4.6901   4.6908   4.6998   4.7082   4.7116
  4.7199   4.7371   4.7496   4.7641   4.7846   4.7905   4.8007   4.8120
  4.8222   4.8383   4.8419   4.8510   4.8566   4.8634   4.8812   4.8869
  4.8912   4.9065   4.9184   4.9298   4.9444   4.9614   4.9797   4.9915
  4.9942   4.9982   5.0112   5.0182   5.0314   5.0430   5.0568   5.0630
  5.0877   5.1026   5.1135   5.1205   5.1270   5.1343   5.1395   5.1507
  5.1638   5.1737   5.1828   5.1923   5.1999   5.2209   5.2242   5.2432
  5.2611   5.2649   5.2847   5.2988   5.3055   5.3090   5.3288   5.3306
  5.3423   5.3455   5.3616   5.3766   5.3826   5.3896   5.4019   5.4143
  5.4417   5.4484   5.4726   5.4925   5.4965   5.5123   5.5156   5.5194
  5.5239   5.5290   5.5466   5.5549   5.5577   5.5633   5.5672   5.5727
  5.5791   5.5854   5.5949   5.6038   5.6091   5.6231   5.6298   5.6376
  5.6417   5.6490   5.6601   5.6611   5.6655   5.6697   5.6801   5.6912
  5.6941   5.7087   5.7218   5.7512   5.7570   5.7671   5.7726   5.7830
  5.7889   5.8045   5.8286   5.8330   5.8499   5.8687   5.9071   5.9217
  5.9525   5.9660   5.9796   5.9924   6.0167   6.0335   6.0411   6.0488
  6.0827   6.1101   6.1211   6.1237   6.1319   6.1488   6.1813   6.1910
  6.2099   6.2186   6.2251   6.2295   6.2583   6.2800   6.2825   6.3001
  6.3114   6.3207   6.3270   6.3665   6.3762   6.4028   6.4645   6.4951
  6.5267   6.5354   6.5711   6.5816   6.6043   6.6401   6.6563   6.6711
  6.6734   6.7989   6.8526   6.8574   6.8940   6.8994   6.9038   6.9256
  6.9326   6.9373   7.1055   7.1385   7.1589   7.2048   7.2156   7.2730
  7.3437   7.3497   7.3524   7.3583   7.4797   7.5460   7.5716   7.5841
  7.5948   7.6499   7.6585   7.6942   7.7090   7.8381   8.9569  10.1408
 10.4664  11.2975  11.5743  11.7910  12.0722  12.1980  12.4337  12.5551
 13.0561  13.2789  13.4990  13.6074  13.8234  13.9440  14.1840  14.3166
 14.3433  14.3871  14.6059  14.8699  15.1164  15.6445  15.8785  16.3815
 --------------------------------------------------------------
 
          Ground-State Mulliken Net Atomic Charges

     Atom                 Charge (a.u.)
  ----------------------------------------
      1 C                    -0.083744
      2 C                    -0.031438
      3 C                    -0.103283
      4 C                    -0.121986
      5 H                     0.199343
      6 C                     0.023887
      7 C                     0.113621
      8 C                    -0.037722
      9 C                    -0.195623
     10 C                    -0.169346
     11 C                     0.182082
     12 H                     0.182603
     13 C                     0.341846
     14 C                     0.350393
     15 N                    -0.090049
     16 C                     0.358652
     17 C                     0.390996
     18 N                    -0.087027
     19 O                    -0.493077
     20 O                    -0.506039
     21 O                    -0.500221
     22 O                    -0.481566
     23 C                    -0.204792
     24 H                     0.139494
     25 H                     0.109834
     26 H                     0.109576
     27 C                    -0.198598
     28 H                     0.134543
     29 H                     0.111770
     30 H                     0.112395
     31 C                    -0.042723
     32 S                    -0.015177
     33 C                    -0.234663
     34 C                    -0.150986
     35 C                    -0.243773
     36 H                     0.229545
     37 H                     0.189139
     38 H                     0.215728
     39 H                     0.138339
     40 H                     0.138727
     41 H                     0.219320
  ----------------------------------------
  Sum of atomic charges =     0.000000

 -----------------------------------------------------------------
                    Cartesian Multipole Moments
 -----------------------------------------------------------------
    Charge (ESU x 10^10)
                -0.0000
    Dipole Moment (Debye)
         X       0.4771      Y      -2.5855      Z       0.8988
       Tot       2.7785
    Quadrupole Moments (Debye-Ang)
        XX    -171.3416     XY       3.3056     YY    -192.8368
        XZ      -1.3484     YZ       0.3665     ZZ    -162.5041
    Octopole Moments (Debye-Ang^2)
       XXX    1540.6008    XXY    -192.5087    XYY     584.1429
       YYY    -614.0192    XXZ       1.5790    XYZ      -0.6879
       YYZ      -0.4893    XZZ     428.5241    YZZ    -151.1760
       ZZZ       0.3380
    Hexadecapole Moments (Debye-Ang^3)
      XXXX  -15692.7158   XXXY    2055.0986   XXYY   -4815.3212
      XYYY    2357.3829   YYYY   -8212.4435   XXXZ      -6.4633
      XXYZ       1.7830   XYYZ      -1.5854   YYYZ      -0.4664
      XXZZ   -2409.9552   XYZZ     572.3391   YYZZ   -1309.8130
      XZZZ      -3.7437   YZZZ       0.1722   ZZZZ    -196.0933
 -----------------------------------------------------------------
 Total job time:  315.86s(wall), 8954.49s(cpu) 
 Wed Dec 27 09:55:55 2023

        *************************************************************
        *                                                           *
        *  Thank you very much for using Q-Chem.  Have a nice day.  *
        *                                                           *
        *************************************************************


0 sent ACK to 0 
now end server 0 ... 
cleanup process ... done
remove work dirs ./qchem2561765.0 -- ./qchem2561765.0
rm -rf ./qchem2561765.0
rm -rf ./qchem2561765
