You are running Q-Chem version: 5.4.0

#
# job setting
#
local host:  exp-2-05
current dir: /home/rramji/project-csd799/aromodel/pndit-qchem/hydrogenated-rotation-run
input file:  Dimethyl_Naphthalene_Dicarboximide_Phi_15_Theta_150_Thiophene_Hydrogenated.qcin
output file: 
nprocs     : 1
nthreads   : 64
#
# qchem installation setting
#
QC:          /cm/shared/apps/spack/cpu/opt/spack/linux-centos8-zen2/gcc-10.2.0/qchem-5.4-akfmr7b3t57bfs6qan3padb2wnb2i7cl
QCAUX:       /cm/shared/apps/spack/cpu/opt/spack/linux-centos8-zen2/gcc-10.2.0/qchem-5.4-akfmr7b3t57bfs6qan3padb2wnb2i7cl/qcaux
QCPROG:      /cm/shared/apps/spack/cpu/opt/spack/linux-centos8-zen2/gcc-10.2.0/qchem-5.4-akfmr7b3t57bfs6qan3padb2wnb2i7cl/exe/qcprog.exe
QCPROG_S:    /cm/shared/apps/spack/cpu/opt/spack/linux-centos8-zen2/gcc-10.2.0/qchem-5.4-akfmr7b3t57bfs6qan3padb2wnb2i7cl/exe/qcprog.exe_s
PARALLEL:    -DPARALLEL
QCMPI:       mpich
#
# qchem directory setting
#
qcrun:       qchem1514134
QCSCRATCH:   .
QCLOCALSCR:  
QCTMPDIR:    .
QCFILEPREF:  ./qchem1514134
QCSAVEDIR:   
workdirs:    ./qchem1514134
workdir0:    ./qchem1514134
partmpdirs =  
#
# parallel setting
#
QCRSH:           ssh
QCMPI:           mpich
QCMPIRUN:        /cm/shared/apps/spack/cpu/opt/spack/linux-centos8-zen2/gcc-10.2.0/qchem-5.4-akfmr7b3t57bfs6qan3padb2wnb2i7cl/bin/mpi/mpirun_qchem
QCMACHINEFILE:   ./qchem1514134/hostfile
exp-2-05

#
# env setting
#
exported envs:   QC QCAUX QCSCRATCH QCRUNNAME QCFILEPREF QCPROG QCPROG_S GUIFILE

Running Job 1 of 1 Dimethyl_Naphthalene_Dicarboximide_Phi_15_Theta_150_Thiophene_Hydrogenated.qcin
qchem Dimethyl_Naphthalene_Dicarboximide_Phi_15_Theta_150_Thiophene_Hydrogenated.qcin_1514134.0 ./qchem1514134/ 1
/cm/shared/apps/spack/cpu/opt/spack/linux-centos8-zen2/gcc-10.2.0/qchem-5.4-akfmr7b3t57bfs6qan3padb2wnb2i7cl/bin/mpi/mpirun_qchem -machinefile ./qchem1514134/hostfile -np 1 /cm/shared/apps/spack/cpu/opt/spack/linux-centos8-zen2/gcc-10.2.0/qchem-5.4-akfmr7b3t57bfs6qan3padb2wnb2i7cl/exe/qcprog.exe Dimethyl_Naphthalene_Dicarboximide_Phi_15_Theta_150_Thiophene_Hydrogenated.qcin_1514134.0 ./qchem1514134/

Process 0 of 1 is on exp-2-05 - thread support 0
initial socket setup ...start
initial socket setup ...done 
now start server 0 ... 
                  Welcome to Q-Chem
     A Quantum Leap Into The Future Of Chemistry


 Q-Chem 5.4, Q-Chem, Inc., Pleasanton, CA (2021)

 License issued to: University of California, San Diego (site)

 E. Epifanovsky,  A. T. B. Gilbert,  Xintian Feng,  Joonho Lee,  Yuezhi Mao,  
 N. Mardirossian,  P. Pokhilko,  A. White,  M. Wormit,  M. P. Coons,  
 A. L. Dempwolff,  Zhengting Gan,  D. Hait,  P. R. Horn,  L. D. Jacobson,  
 I. Kaliman,  J. Kussmann,  A. W. Lange,  Ka Un Lao,  D. S. Levine,  Jie Liu,  
 S. C. McKenzie,  A. F. Morrison,  K. Nanda,  F. Plasser,  D. R. Rehn,  
 M. L. Vidal,  Zhi-Qiang You,  Ying Zhu,  B. Alam,  B. Albrecht,  
 A. Aldossary,  E. Alguire,  J. H. Andersen,  D. Barton,  K. Begam,  A. Behn,  
 Y. A. Bernard,  E. J. Berquist,  H. Burton,  A. Carreras,  K. Carter-Fenk,  
 R. Chakraborty,  A. D. Chien,  K. D. Closser,  V. Cofer-Shabica,  
 S. Dasgupta,  Jia Deng,  M. de Wergifosse,  M. Diedenhofen,  Hainam Do,  
 S. Ehlert,  Po-Tung Fang,  S. Fatehi,  Qingguo Feng,  J. Gayvert,  
 Qinghui Ge,  G. Gidofalvi,  M. Goldey,  J. Gomes,  C. Gonzalez-Espinoza,  
 S. Gulania,  A. Gunina,  M. W. D. Hanson-Heine,  P. H. P. Harbach,  
 A. W. Hauser,  M. F. Herbst,  M. Hernandez Vera,  M. Hodecker,  
 Z. C. Holden,  S. Houck,  Xunkun Huang,  Kerwin Hui,  B. C. Huynh,  
 M. Ivanov,  Hyunjun Ji,  Hanjie Jiang,  B. Kaduk,  S. Kaehler,  
 K. Khistyaev,  Jaehoon Kim,  P. Klunzinger,  Z. Koczor-Benda,  
 Joong Hoon Koh,  D. Kosenkov,  L. Koulias,  T. Kowalczyk,  C. M. Krauter,  
 K. Kue,  A. Kunitsa,  T. Kus,  A. Landau,  K. V. Lawler,  D. Lefrancois,  
 S. Lehtola,  Rain Li,  Yi-Pei Li,  Jiashu Liang,  M. Liebenthal,  
 Hung-Hsuan Lin,  You-Sheng Lin,  Fenglai Liu,  Kuan-Yu Liu,  
 M. Loipersberger,  A. Luenser,  A. Manjanath,  P. Manohar,  E. Mansoor,  
 S. F. Manzer,  Shan-Ping Mao,  A. V. Marenich,  T. Markovich,  S. Mason,  
 S. A. Maurer,  P. F. McLaughlin,  M. F. S. J. Menger,  J.-M. Mewes,  
 S. A. Mewes,  P. Morgante,  J. W. Mullinax,  T. S. Nguyen-Beck,  
 K. J. Oosterbaan,  G. Paran,  Alexander C. Paul,  Suranjan K. Paul,  
 F. Pavosevic,  Zheng Pei,  S. Prager,  E. I. Proynov,  E. Ramos,  B. Rana,  
 A. E. Rask,  A. Rettig,  R. M. Richard,  F. Rob,  E. Rossomme,  T. Scheele,  
 M. Scheurer,  M. Schneider,  N. Sergueev,  S. M. Sharada,  W. Skomorowski,  
 D. W. Small,  C. J. Stein,  Yu-Chuan Su,  E. J. Sundstrom,  Zhen Tao,  
 J. Thirman,  T. Tsuchimochi,  N. M. Tubman,  S. P. Veccham,  O. Vydrov,  
 J. Wenzel,  J. Witte,  A. Yamada,  Kun Yao,  S. Yeganeh,  S. R. Yost,  
 A. Zech,  Igor Ying Zhang,  Xing Zhang,  Yu Zhang,  D. Zuev,  
 A. Aspuru-Guzik,  A. T. Bell,  N. A. Besley,  K. B. Bravaya,  B. R. Brooks,  
 D. Casanova,  Jeng-Da Chai,  S. Coriani,  C. J. Cramer,  
 A. E. DePrince, III,  R. A. DiStasio Jr.,  A. Dreuw,  B. D. Dunietz,  
 T. R. Furlani,  W. A. Goddard III,  S. Grimme,  S. Hammes-Schiffer,  
 T. Head-Gordon,  W. J. Hehre,  Chao-Ping Hsu,  T.-C. Jagau,  Yousung Jung,  
 A. Klamt,  Jing Kong,  D. S. Lambrecht,  WanZhen Liang,  N. J. Mayhall,  
 C. W. McCurdy,  J. B. Neaton,  C. Ochsenfeld,  J. A. Parkhill,  R. Peverati,  
 V. A. Rassolov,  Yihan Shao,  L. V. Slipchenko,  T. Stauch,  R. P. Steele,  
 J. E. Subotnik,  A. J. W. Thom,  A. Tkatchenko,  D. G. Truhlar,  
 T. Van Voorhis,  T. A. Wesolowski,  K. B. Whaley,  H. L. Woodcock III,  
 P. M. Zimmerman,  S. Faraji,  P. M. W. Gill,  M. Head-Gordon,  
 J. M. Herbert,  A. I. Krylov

 Contributors to earlier versions of Q-Chem not listed above: 
 R. D. Adamson,  B. Austin,  R. Baer,  J. Baker,  G. J. O. Beran,  
 K. Brandhorst,  S. T. Brown,  E. F. C. Byrd,  A. K. Chakraborty,  
 G. K. L. Chan,  Chun-Min Chang,  Yunqing Chen,  C.-L. Cheng,  
 Siu Hung Chien,  D. M. Chipman,  D. L. Crittenden,  H. Dachsel,  
 R. J. Doerksen,  A. D. Dutoi,  R. G. Edgar,  J. Fosso-Tande,  
 L. Fusti-Molnar,  D. Ghosh,  A. Ghysels,  A. Golubeva-Zadorozhnaya,  
 J. Gonthier,  M. S. Gordon,  S. R. Gwaltney,  G. Hawkins,  J. E. Herr,  
 A. Heyden,  S. Hirata,  E. G. Hohenstein,  G. Kedziora,  F. J. Keil,  
 C. Kelley,  Jihan Kim,  R. A. King,  R. Z. Khaliullin,  P. P. Korambath,  
 W. Kurlancheek,  A. Laurent,  A. M. Lee,  M. S. Lee,  S. V. Levchenko,  
 Ching Yeh Lin,  D. Liotard,  E. Livshits,  R. C. Lochan,  I. Lotan,  
 L. A. Martinez-Martinez,  P. E. Maslen,  N. Nair,  D. P. O'Neill,  
 D. Neuhauser,  E. Neuscamman,  C. M. Oana,  R. Olivares-Amaya,  R. Olson,  
 T. M. Perrine,  B. Peters,  P. A. Pieniazek,  A. Prociuk,  Y. M. Rhee,  
 J. Ritchie,  M. A. Rohrdanz,  E. Rosta,  N. J. Russ,  H. F. Schaefer III,  
 M. W. Schmidt,  N. E. Schultz,  S. Sharma,  N. Shenvi,  C. D. Sherrill,  
 A. C. Simmonett,  A. Sodt,  T. Stein,  D. Stuck,  K. S. Thanthiriwatte,  
 V. Vanovschi,  L. Vogt,  Tao Wang,  A. Warshel,  M. A. Watson,  
 C. F. Williams,  Q. Wu,  X. Xu,  Jun Yang,  W. Zhang,  Yan Zhao

 Please cite Q-Chem as follows:
 Y. Shao et al., Mol. Phys. 113, 184-215 (2015)
 DOI: 10.1080/00268976.2014.952696

 Q-Chem 5.4.0 for Intel X86 EM64T Linux

 Parts of Q-Chem use Armadillo 9.800.1 (Horizon Scraper).
 http://arma.sourceforge.net/

 Q-Chem begins on Wed Dec 27 11:05:44 2023  

 Host: 
0

     Scratch files written to ./qchem1514134//
 May1621 |scratch|qcdevops|jenkins|workspace|build_RNUM    
 Parallel job on  1  processors
 Processing $rem in /cm/shared/apps/spack/cpu/opt/spack/linux-centos8-zen2/gcc-10.2.0/qchem-5.4-akfmr7b3t57bfs6qan3padb2wnb2i7cl/config/preferences:
 Processing $rem in /home/rramji/.qchemrc:
 Symmetry turned off for PCM/SM12/SMD calculation
 Core orbitals will be frozen

 Checking the input file for inconsistencies... 	...done.

 Q-Chem warning in module forms1/BasisType.C, line 2236:

 You are not using the predefined 5D/6D in this basis set.


--------------------------------------------------------------
User input:
--------------------------------------------------------------
$molecule
0 1
C	0.129743	-6.741404	0.221766
C	0.782726	-6.155638	1.352515
C	-0.411926	-5.791452	-0.717339
C	0.921816	-4.803786	1.593885
H	1.221908	-6.821518	2.112819
C	-0.266682	-4.378638	-0.464360
C	0.398255	-3.838032	0.688053
C	-0.789694	-3.413062	-1.369108
C	0.542349	-2.426473	0.939002
C	-0.652589	-2.059348	-1.130409
C	0.000000	-1.478216	0.000000
H	-1.092453	-1.394783	-1.891446
C	-1.131595	-6.187987	-1.967519
C	-1.504912	-3.798164	-2.608118
N	-1.625174	-5.170003	-2.819813
C	1.639129	-4.424987	2.836188
C	1.263477	-2.036627	2.189558
N	1.756898	-3.049156	3.042237
O	-1.324787	-7.353131	-2.307845
O	-1.967354	-2.986854	-3.407213
O	2.095892	-5.248946	3.625890
O	1.468685	-0.878829	2.547850
C	-2.330564	-5.563799	-4.043674
H	-2.352178	-6.664085	-4.083407
H	-1.807263	-5.147101	-4.925490
H	-3.356568	-5.148785	-4.031877
C	2.452080	-2.587487	4.247206
H	2.774302	-3.483329	4.803187
H	1.773301	-1.964972	4.860536
H	3.321351	-1.962932	3.966607
C	0.000000	0.000000	0.000000
S	0.205093	0.766196	1.580530
C	0.628939	2.348114	0.904911
C	0.258137	0.964028	-0.985400
C	0.599745	2.239309	-0.493528
H	0.197169	0.736404	-2.059934
H	0.827678	3.090243	-1.152593
H	0.856796	3.198808	1.556025
H	-0.701693	-7.361589	0.578191
H	0.854838	-7.361192	-0.319578
H	-0.935572	-1.478831	0.539540
$end

$rem
JOBTYPE		SP
EXCHANGE	HF
CORRELATION	pRIMP2
BASIS		cc-pvtz
METHOD		rimp2
AUX_BASIS	rimp2-cc-pvtz
SOLVENT_METHOD	PCM
PURECART	11111
SYMMETRY	false
MEM_TOTAL	110000
SCF_CONVERGENCE = 6
THRESH=10
GUI = 2
$end



$solvent
dielectric 4.90
$end
--------------------------------------------------------------
 ----------------------------------------------------------------
             Standard Nuclear Orientation (Angstroms)
    I     Atom           X                Y                Z
 ----------------------------------------------------------------
    1      C       0.1297430000    -6.7414040000     0.2217660000
    2      C       0.7827260000    -6.1556380000     1.3525150000
    3      C      -0.4119260000    -5.7914520000    -0.7173390000
    4      C       0.9218160000    -4.8037860000     1.5938850000
    5      H       1.2219080000    -6.8215180000     2.1128190000
    6      C      -0.2666820000    -4.3786380000    -0.4643600000
    7      C       0.3982550000    -3.8380320000     0.6880530000
    8      C      -0.7896940000    -3.4130620000    -1.3691080000
    9      C       0.5423490000    -2.4264730000     0.9390020000
   10      C      -0.6525890000    -2.0593480000    -1.1304090000
   11      C       0.0000000000    -1.4782160000     0.0000000000
   12      H      -1.0924530000    -1.3947830000    -1.8914460000
   13      C      -1.1315950000    -6.1879870000    -1.9675190000
   14      C      -1.5049120000    -3.7981640000    -2.6081180000
   15      N      -1.6251740000    -5.1700030000    -2.8198130000
   16      C       1.6391290000    -4.4249870000     2.8361880000
   17      C       1.2634770000    -2.0366270000     2.1895580000
   18      N       1.7568980000    -3.0491560000     3.0422370000
   19      O      -1.3247870000    -7.3531310000    -2.3078450000
   20      O      -1.9673540000    -2.9868540000    -3.4072130000
   21      O       2.0958920000    -5.2489460000     3.6258900000
   22      O       1.4686850000    -0.8788290000     2.5478500000
   23      C      -2.3305640000    -5.5637990000    -4.0436740000
   24      H      -2.3521780000    -6.6640850000    -4.0834070000
   25      H      -1.8072630000    -5.1471010000    -4.9254900000
   26      H      -3.3565680000    -5.1487850000    -4.0318770000
   27      C       2.4520800000    -2.5874870000     4.2472060000
   28      H       2.7743020000    -3.4833290000     4.8031870000
   29      H       1.7733010000    -1.9649720000     4.8605360000
   30      H       3.3213510000    -1.9629320000     3.9666070000
   31      C       0.0000000000     0.0000000000     0.0000000000
   32      S       0.2050930000     0.7661960000     1.5805300000
   33      C       0.6289390000     2.3481140000     0.9049110000
   34      C       0.2581370000     0.9640280000    -0.9854000000
   35      C       0.5997450000     2.2393090000    -0.4935280000
   36      H       0.1971690000     0.7364040000    -2.0599340000
   37      H       0.8276780000     3.0902430000    -1.1525930000
   38      H       0.8567960000     3.1988080000     1.5560250000
   39      H      -0.7016930000    -7.3615890000     0.5781910000
   40      H       0.8548380000    -7.3611920000    -0.3195780000
   41      H      -0.9355720000    -1.4788310000     0.5395400000
 ----------------------------------------------------------------
 Nuclear Repulsion Energy =        2569.31588774 hartrees
 There are       98 alpha and       98 beta electrons
 Requested basis set is cc-pVTZ
 There are 356 shells and 1010 basis functions

 Total QAlloc Memory Limit 110000 MB
 Mega-Array Size       188 MB
 MEM_STATIC part       192 MB
 Discretize the solute cavity surface with Lebedev spheres
	Using 110 Lebedev grid points for each H atom
	Using 194 Lebedev grid points for other atoms
	Atomic van der Waals radii will be scaled by 1.20
 Remove points where switching function is < 1.0e-08
 Keep 2587 surface tesserae and discard 4191 interior tesserae
 Molecular Surface Area = 363.208 Angst**2
 Requested basis set is rimp2-cc-pVTZ
 There are 770 shells and 2648 basis functions
 A cutoff of  1.0D-10 yielded  34244 shell pairs
 There are    259012 function pairs (    335179 Cartesian)
 Smallest overlap matrix eigenvalue = 9.27E-06

 Q-Chem warning in module stvman/mkSTV.C, line 323:

 Overlap eigenvalue is smaller than square root of threshold
 Use THRESH >= 12 to get rid of this warning


 Scale SEOQF with 1.000000e-01/1.000000e-02/1.000000e-01

 Standard Electronic Orientation quadrupole field applied
 Nucleus-field energy     =    -0.0000000732 hartrees
 Guess from superposition of atomic densities
 Warning:  Energy on first SCF cycle will be non-variational
 SAD guess density has 196.000000 electrons

 -----------------------------------------------------------------------
  General SCF calculation program by
  Eric Jon Sundstrom, Paul Horn, Yuezhi Mao, Dmitri Zuev, Alec White,
  David Stuck, Shaama M.S., Shane Yost, Joonho Lee, David Small,
  Daniel Levine, Susi Lehtola, Hugh Burton, Evgeny Epifanovsky,
  Bang C. Huynh
 -----------------------------------------------------------------------
 Hartree-Fock
 using 64 threads for integral computing
 -------------------------------------------------------
 OpenMP Integral computing Module                
 Release: version 1.0, May 2013, Q-Chem Inc. Pittsburgh 
 -------------------------------------------------------
 A restricted SCF calculation will be
 performed using DIIS
 SCF converges when DIIS error is below 1.0e-06
 ---------------------------------------
  Cycle       Energy         DIIS error
 ---------------------------------------
    1   -1583.2088832025      1.87e-02  
    2   -1571.1214937582      2.03e-03  
    3   -1571.4595094133      1.55e-03  
    4   -1571.6819332076      2.55e-04  
    5   -1571.6957652910      7.92e-05  
    6   -1571.6971972546      3.07e-05  
    7   -1571.6976286987      1.61e-05  
    8   -1571.6977548068      6.63e-06  
    9   -1571.6977783256      3.10e-06  
   10   -1571.6977832856      1.31e-06  
   11   -1571.6977847669      5.99e-07  Convergence criterion met
 ---------------------------------------
 SCF time:   CPU 6970.08s  wall 259.00s 

************** Final PCM Free Energy Summary **************
 G_electrostatic  =      -0.02890798 hartree =     -18.14002845 kcal/mol
 G_cavitation     =       0.00000000 hartree =       0.00000000 kcal/mol
 G_dispersion     =       0.00000000 hartree =       0.00000000 kcal/mol
 G_repulsion      =       0.00000000 hartree =       0.00000000 kcal/mol
 --------------------------------------------------
 Non-electrostatic Free Energy =       0.00000000 hartree =       0.00000000 kcal/mol
 Total                         =      -0.02890798 hartree =     -18.14002845 kcal/mol
 --------------------------------------------------
 SCF Energy (H0 + V/2)                       =   -1571.69778477 
 Solute Internal Energy (H0)                 =   -1571.66887679 
 Total Free Energy (H0 + V/2 + non-elec)     =   -1571.69778477 hartree
                                             = -986255.24549093 kcal/mol
***********************************************************

 SCF   energy in the final basis set =    -1571.6977847669
 Total energy in the final basis set =    -1571.6977847669


 --------------------------------------------------------------
  Generalized many-body perturbation theory program
  by Joonho Lee, Fazle Rob, Xintian Feng, Evgeny Epifanovsky

 No regularization used 
 (reg. param. = 0.0000e+00)
  (P|Q)^-1/2 Time:  CPU 752.45 s  wall 11.97 s

 In RI-MP2 calculation: 
 # of frozen core orbitals: 31

 Components of the RIMP2 correlation energy:
        aaaa    correlation energy =        -0.6185015988 a.u.
        abab    correlation energy =        -3.4327150742 a.u.
        bbbb    correlation energy =        -0.6185015988 a.u.
        non-Brillouin singles      =        -0.0000000000 a.u.
        total same-spin energy     =        -1.2370031975 a.u.
        total opposite-spin energy =        -3.4327150742 a.u.

 Total  RIMP2   correlation energy =        -4.6697182718 a.u.
        RIMP2         total energy =     -1576.3675030386 a.u.

 RI-MP2 Energy Time:  CPU 2637.41 s  wall 42.38 s
 
 --------------------------------------------------------------
 
                    Orbital Energies (a.u.)
 --------------------------------------------------------------
 
 Alpha MOs
 -- Occupied --
-91.9756 -20.5511 -20.5457 -20.5420 -20.5409 -15.6291 -15.6217 -11.3975
-11.3864 -11.3840 -11.3795 -11.3112 -11.3089 -11.3074 -11.3055 -11.2983
-11.2891 -11.2874 -11.2699 -11.2694 -11.2693 -11.2653 -11.2642 -11.2597
-11.2536 -11.2463 -11.2368  -8.9760  -6.6564  -6.6556  -6.6550  -1.4268
 -1.4126  -1.4012  -1.3917  -1.2655  -1.2560  -1.2303  -1.1845  -1.1467
 -1.1150  -1.0860  -1.0482  -0.9936  -0.9888  -0.9763  -0.9558  -0.9482
 -0.8971  -0.8895  -0.8788  -0.8620  -0.7911  -0.7793  -0.7744  -0.7610
 -0.7307  -0.7217  -0.7012  -0.6901  -0.6860  -0.6718  -0.6683  -0.6583
 -0.6500  -0.6431  -0.6385  -0.6328  -0.6318  -0.6301  -0.6239  -0.6053
 -0.5877  -0.5718  -0.5649  -0.5620  -0.5579  -0.5527  -0.5522  -0.5488
 -0.5481  -0.5447  -0.5173  -0.5146  -0.5113  -0.4853  -0.4776  -0.4623
 -0.4554  -0.4445  -0.4378  -0.4275  -0.4100  -0.4078  -0.3543  -0.3283
 -0.3193  -0.2799
 -- Virtual --
  0.0116   0.0422   0.0903   0.1032   0.1416   0.1506   0.1566   0.1586
  0.1637   0.1717   0.1779   0.1820   0.1853   0.1940   0.1996   0.2037
  0.2156   0.2207   0.2276   0.2290   0.2308   0.2351   0.2435   0.2512
  0.2641   0.2704   0.3027   0.3123   0.3173   0.3223   0.3243   0.3283
  0.3373   0.3415   0.3458   0.3543   0.3556   0.3579   0.3638   0.3682
  0.3703   0.3769   0.3860   0.3888   0.3939   0.3993   0.4024   0.4041
  0.4202   0.4222   0.4288   0.4340   0.4375   0.4440   0.4482   0.4531
  0.4579   0.4594   0.4605   0.4709   0.4769   0.4833   0.4902   0.4934
  0.4981   0.5059   0.5092   0.5100   0.5146   0.5191   0.5214   0.5274
  0.5376   0.5410   0.5469   0.5502   0.5540   0.5574   0.5638   0.5657
  0.5690   0.5742   0.5803   0.5886   0.5900   0.5927   0.5996   0.6007
  0.6053   0.6062   0.6086   0.6135   0.6148   0.6191   0.6204   0.6231
  0.6256   0.6306   0.6341   0.6365   0.6422   0.6432   0.6484   0.6566
  0.6635   0.6706   0.6757   0.6810   0.6845   0.6936   0.6984   0.7006
  0.7135   0.7175   0.7270   0.7353   0.7371   0.7396   0.7489   0.7606
  0.7667   0.7697   0.7738   0.7798   0.7945   0.7969   0.8000   0.8047
  0.8096   0.8150   0.8215   0.8285   0.8331   0.8407   0.8436   0.8503
  0.8560   0.8611   0.8640   0.8696   0.8725   0.8800   0.8816   0.8862
  0.8972   0.9020   0.9059   0.9125   0.9181   0.9265   0.9289   0.9349
  0.9371   0.9446   0.9500   0.9569   0.9621   0.9645   0.9723   0.9771
  0.9787   0.9875   0.9931   0.9981   1.0073   1.0078   1.0153   1.0224
  1.0237   1.0329   1.0378   1.0383   1.0486   1.0583   1.0651   1.0665
  1.0702   1.0726   1.0766   1.0780   1.0868   1.0995   1.1010   1.1049
  1.1166   1.1189   1.1220   1.1296   1.1309   1.1330   1.1379   1.1443
  1.1503   1.1545   1.1596   1.1685   1.1742   1.1754   1.1816   1.1842
  1.1929   1.2008   1.2022   1.2049   1.2083   1.2111   1.2214   1.2309
  1.2311   1.2361   1.2380   1.2465   1.2542   1.2579   1.2707   1.2753
  1.2841   1.2874   1.2986   1.3034   1.3178   1.3225   1.3311   1.3382
  1.3466   1.3536   1.3639   1.3655   1.3706   1.3761   1.3833   1.3864
  1.3900   1.3950   1.3980   1.4032   1.4170   1.4260   1.4276   1.4397
  1.4462   1.4586   1.4656   1.4673   1.4743   1.4788   1.4897   1.5003
  1.5043   1.5071   1.5137   1.5218   1.5257   1.5272   1.5352   1.5427
  1.5483   1.5488   1.5507   1.5590   1.5655   1.5688   1.5754   1.5803
  1.5829   1.5891   1.6005   1.6088   1.6159   1.6295   1.6412   1.6422
  1.6532   1.6626   1.6684   1.6764   1.6825   1.6851   1.6965   1.6980
  1.7004   1.7185   1.7255   1.7310   1.7339   1.7450   1.7491   1.7523
  1.7599   1.7655   1.7779   1.7825   1.7919   1.7998   1.8115   1.8125
  1.8187   1.8290   1.8349   1.8505   1.8530   1.8629   1.8649   1.8701
  1.8712   1.8845   1.8923   1.8956   1.9131   1.9188   1.9352   1.9411
  1.9511   1.9603   1.9698   1.9744   1.9891   2.0028   2.0183   2.0268
  2.0375   2.0545   2.0690   2.0845   2.0952   2.1025   2.1244   2.1311
  2.1408   2.1502   2.1599   2.1728   2.1853   2.2166   2.2249   2.2371
  2.2456   2.2481   2.2638   2.2790   2.2890   2.2960   2.3024   2.3150
  2.3189   2.3300   2.3440   2.3497   2.3651   2.3668   2.3723   2.3881
  2.4285   2.4299   2.4407   2.4510   2.4553   2.4576   2.4721   2.4782
  2.4857   2.4901   2.4988   2.5099   2.5206   2.5384   2.5563   2.5620
  2.5694   2.5757   2.5842   2.5859   2.5945   2.6034   2.6227   2.6262
  2.6348   2.6396   2.6413   2.6519   2.6605   2.6712   2.6753   2.6820
  2.6872   2.6911   2.7059   2.7190   2.7219   2.7277   2.7350   2.7404
  2.7459   2.7520   2.7588   2.7604   2.7692   2.7778   2.7827   2.7980
  2.8122   2.8289   2.8379   2.8419   2.8475   2.8547   2.8635   2.8710
  2.8778   2.8839   2.8855   2.8913   2.8956   2.9058   2.9085   2.9092
  2.9229   2.9243   2.9298   2.9341   2.9524   2.9563   2.9627   2.9680
  2.9799   2.9850   2.9930   3.0040   3.0114   3.0190   3.0213   3.0283
  3.0384   3.0463   3.0501   3.0586   3.0631   3.0742   3.0775   3.0813
  3.0882   3.0979   3.1030   3.1047   3.1077   3.1135   3.1251   3.1262
  3.1281   3.1403   3.1477   3.1572   3.1601   3.1605   3.1631   3.1768
  3.1817   3.1928   3.1982   3.2006   3.2075   3.2134   3.2240   3.2287
  3.2314   3.2350   3.2406   3.2450   3.2541   3.2612   3.2632   3.2658
  3.2737   3.2765   3.2822   3.2859   3.2916   3.2963   3.3034   3.3093
  3.3115   3.3182   3.3236   3.3292   3.3298   3.3320   3.3355   3.3416
  3.3458   3.3485   3.3520   3.3552   3.3626   3.3670   3.3682   3.3770
  3.3804   3.3827   3.3917   3.3965   3.4002   3.4024   3.4063   3.4131
  3.4180   3.4229   3.4262   3.4339   3.4405   3.4438   3.4514   3.4538
  3.4565   3.4618   3.4694   3.4720   3.4741   3.4799   3.4878   3.4913
  3.5003   3.5047   3.5081   3.5147   3.5200   3.5203   3.5257   3.5284
  3.5334   3.5405   3.5487   3.5517   3.5587   3.5666   3.5724   3.5771
  3.5875   3.5919   3.5936   3.6055   3.6071   3.6154   3.6233   3.6295
  3.6305   3.6371   3.6410   3.6470   3.6495   3.6533   3.6567   3.6611
  3.6714   3.6749   3.6766   3.6905   3.6962   3.7011   3.7086   3.7183
  3.7227   3.7267   3.7329   3.7388   3.7435   3.7475   3.7479   3.7543
  3.7594   3.7635   3.7653   3.7725   3.7749   3.7888   3.7966   3.8052
  3.8081   3.8158   3.8221   3.8243   3.8289   3.8331   3.8382   3.8439
  3.8470   3.8554   3.8678   3.8722   3.8753   3.8810   3.8927   3.9069
  3.9144   3.9187   3.9272   3.9296   3.9366   3.9438   3.9512   3.9529
  3.9582   3.9597   3.9693   3.9769   3.9872   3.9963   3.9972   4.0165
  4.0241   4.0259   4.0338   4.0427   4.0471   4.0581   4.0669   4.0760
  4.0909   4.1051   4.1119   4.1158   4.1241   4.1295   4.1401   4.1443
  4.1530   4.1605   4.1675   4.1702   4.1745   4.1845   4.1895   4.2038
  4.2121   4.2211   4.2275   4.2320   4.2392   4.2475   4.2523   4.2533
  4.2680   4.2729   4.2748   4.2788   4.2910   4.2985   4.3058   4.3133
  4.3156   4.3169   4.3275   4.3315   4.3344   4.3376   4.3434   4.3575
  4.3643   4.3682   4.3698   4.3755   4.3791   4.3852   4.3928   4.3965
  4.4024   4.4074   4.4180   4.4237   4.4279   4.4334   4.4423   4.4513
  4.4620   4.4743   4.4906   4.5028   4.5100   4.5155   4.5217   4.5336
  4.5354   4.5376   4.5493   4.5592   4.5697   4.5710   4.5820   4.5861
  4.5927   4.5959   4.6050   4.6155   4.6214   4.6219   4.6298   4.6350
  4.6492   4.6561   4.6679   4.6767   4.6862   4.6895   4.7002   4.7087
  4.7105   4.7294   4.7376   4.7639   4.7833   4.7883   4.7955   4.8055
  4.8124   4.8140   4.8286   4.8425   4.8497   4.8570   4.8734   4.8814
  4.8906   4.8940   4.9073   4.9187   4.9349   4.9452   4.9557   4.9692
  4.9875   5.0087   5.0176   5.0270   5.0328   5.0408   5.0487   5.0717
  5.0765   5.0979   5.1039   5.1116   5.1218   5.1303   5.1311   5.1361
  5.1510   5.1546   5.1739   5.1806   5.1897   5.1995   5.2060   5.2299
  5.2600   5.2666   5.2701   5.2842   5.2987   5.3098   5.3278   5.3306
  5.3320   5.3438   5.3525   5.3668   5.3774   5.3800   5.4029   5.4154
  5.4376   5.4532   5.4709   5.4872   5.4974   5.5123   5.5139   5.5172
  5.5216   5.5358   5.5441   5.5523   5.5585   5.5665   5.5706   5.5724
  5.5814   5.5828   5.5871   5.6048   5.6090   5.6201   5.6241   5.6295
  5.6481   5.6514   5.6602   5.6629   5.6660   5.6713   5.6931   5.6977
  5.7068   5.7080   5.7326   5.7390   5.7577   5.7634   5.7665   5.7753
  5.7824   5.7896   5.8101   5.8307   5.8455   5.8549   5.9002   5.9217
  5.9354   5.9563   5.9748   5.9913   6.0249   6.0360   6.0424   6.0460
  6.0696   6.0944   6.1004   6.1109   6.1221   6.1529   6.1727   6.1910
  6.2023   6.2199   6.2252   6.2254   6.2508   6.2738   6.2822   6.2878
  6.3043   6.3137   6.3282   6.3526   6.3673   6.3786   6.4557   6.4863
  6.5216   6.5357   6.5727   6.5823   6.6063   6.6241   6.6565   6.6634
  6.6736   6.6852   6.8504   6.8510   6.8896   6.9021   6.9059   6.9237
  6.9269   6.9948   7.1043   7.1306   7.1560   7.1944   7.2119   7.2533
  7.3469   7.3513   7.3578   7.3628   7.4754   7.5413   7.5706   7.5830
  7.5922   7.6305   7.6541   7.6876   7.6933   7.7211   8.8653  10.1068
 10.3245  11.2961  11.5196  11.7596  12.0387  12.1179  12.4329  12.4832
 12.9304  13.2504  13.3528  13.5593  13.8001  13.9328  14.1233  14.3051
 14.3271  14.3739  14.5379  14.6324  15.0430  15.6130  15.8397  16.2934
 --------------------------------------------------------------
 
          Ground-State Mulliken Net Atomic Charges

     Atom                 Charge (a.u.)
  ----------------------------------------
      1 C                    -0.084452
      2 C                    -0.028165
      3 C                    -0.110126
      4 C                    -0.123459
      5 H                     0.199495
      6 C                     0.020241
      7 C                     0.121760
      8 C                    -0.103169
      9 C                    -0.216100
     10 C                    -0.139945
     11 C                     0.242047
     12 H                     0.194939
     13 C                     0.342944
     14 C                     0.350513
     15 N                    -0.089944
     16 C                     0.357407
     17 C                     0.402973
     18 N                    -0.090322
     19 O                    -0.494303
     20 O                    -0.507493
     21 O                    -0.500509
     22 O                    -0.456353
     23 C                    -0.204697
     24 H                     0.139542
     25 H                     0.109251
     26 H                     0.109219
     27 C                    -0.198445
     28 H                     0.134382
     29 H                     0.112046
     30 H                     0.112419
     31 C                    -0.092271
     32 S                     0.065626
     33 C                    -0.223538
     34 C                    -0.167139
     35 C                    -0.243498
     36 H                     0.184931
     37 H                     0.183152
     38 H                     0.206304
     39 H                     0.138243
     40 H                     0.138514
     41 H                     0.207979
  ----------------------------------------
  Sum of atomic charges =     0.000000

 -----------------------------------------------------------------
                    Cartesian Multipole Moments
 -----------------------------------------------------------------
    Charge (ESU x 10^10)
                 0.0000
    Dipole Moment (Debye)
         X       0.7056      Y       0.9120      Z       1.4308
       Tot       1.8376
    Quadrupole Moments (Debye-Ang)
        XX    -169.8437     XY      -1.0614     YY    -179.0364
        XZ     -12.6938     YZ      -8.1443     ZZ    -179.1963
    Octopole Moments (Debye-Ang^2)
       XXX     -60.6468    XXY     493.0156    XYY      19.3444
       YYY    1672.1690    XXZ     -27.8934    XYZ      61.3013
       YYZ      32.3674    XZZ     -14.2835    YZZ     572.0139
       ZZZ     -88.7058
    Hexadecapole Moments (Debye-Ang^3)
      XXXX   -1694.2196   XXXY    -220.1921   XXYY   -3097.9371
      XYYY    -624.0938   YYYY  -17996.1943   XXXZ   -1297.7090
      XXYZ     -54.5463   XYYZ    -796.4173   YYYZ   -1060.0222
      XXZZ   -1153.5752   XYZZ      47.4765   YYZZ   -4034.8918
      XZZZ   -1382.7344   YZZZ    -159.1060   ZZZZ   -4995.3004
 -----------------------------------------------------------------
 Total job time:  305.46s(wall), 9705.71s(cpu) 
 Wed Dec 27 11:10:49 2023

        *************************************************************
        *                                                           *
        *  Thank you very much for using Q-Chem.  Have a nice day.  *
        *                                                           *
        *************************************************************


0 sent ACK to 0 
now end server 0 ... 
cleanup process ... done
remove work dirs ./qchem1514134.0 -- ./qchem1514134.0
rm -rf ./qchem1514134.0
rm -rf ./qchem1514134
