You are running Q-Chem version: 5.4.0

#
# job setting
#
local host:  exp-2-05
current dir: /home/rramji/project-csd799/aromodel/pndit-qchem/hydrogenated-rotation-run
input file:  Dimethyl_Naphthalene_Dicarboximide_Phi_15_Theta_300_Thiophene_Hydrogenated.qcin
output file: 
nprocs     : 1
nthreads   : 64
#
# qchem installation setting
#
QC:          /cm/shared/apps/spack/cpu/opt/spack/linux-centos8-zen2/gcc-10.2.0/qchem-5.4-akfmr7b3t57bfs6qan3padb2wnb2i7cl
QCAUX:       /cm/shared/apps/spack/cpu/opt/spack/linux-centos8-zen2/gcc-10.2.0/qchem-5.4-akfmr7b3t57bfs6qan3padb2wnb2i7cl/qcaux
QCPROG:      /cm/shared/apps/spack/cpu/opt/spack/linux-centos8-zen2/gcc-10.2.0/qchem-5.4-akfmr7b3t57bfs6qan3padb2wnb2i7cl/exe/qcprog.exe
QCPROG_S:    /cm/shared/apps/spack/cpu/opt/spack/linux-centos8-zen2/gcc-10.2.0/qchem-5.4-akfmr7b3t57bfs6qan3padb2wnb2i7cl/exe/qcprog.exe_s
PARALLEL:    -DPARALLEL
QCMPI:       mpich
#
# qchem directory setting
#
qcrun:       qchem1526523
QCSCRATCH:   .
QCLOCALSCR:  
QCTMPDIR:    .
QCFILEPREF:  ./qchem1526523
QCSAVEDIR:   
workdirs:    ./qchem1526523
workdir0:    ./qchem1526523
partmpdirs =  
#
# parallel setting
#
QCRSH:           ssh
QCMPI:           mpich
QCMPIRUN:        /cm/shared/apps/spack/cpu/opt/spack/linux-centos8-zen2/gcc-10.2.0/qchem-5.4-akfmr7b3t57bfs6qan3padb2wnb2i7cl/bin/mpi/mpirun_qchem
QCMACHINEFILE:   ./qchem1526523/hostfile
exp-2-05

#
# env setting
#
exported envs:   QC QCAUX QCSCRATCH QCRUNNAME QCFILEPREF QCPROG QCPROG_S GUIFILE

Running Job 1 of 1 Dimethyl_Naphthalene_Dicarboximide_Phi_15_Theta_300_Thiophene_Hydrogenated.qcin
qchem Dimethyl_Naphthalene_Dicarboximide_Phi_15_Theta_300_Thiophene_Hydrogenated.qcin_1526523.0 ./qchem1526523/ 1
/cm/shared/apps/spack/cpu/opt/spack/linux-centos8-zen2/gcc-10.2.0/qchem-5.4-akfmr7b3t57bfs6qan3padb2wnb2i7cl/bin/mpi/mpirun_qchem -machinefile ./qchem1526523/hostfile -np 1 /cm/shared/apps/spack/cpu/opt/spack/linux-centos8-zen2/gcc-10.2.0/qchem-5.4-akfmr7b3t57bfs6qan3padb2wnb2i7cl/exe/qcprog.exe Dimethyl_Naphthalene_Dicarboximide_Phi_15_Theta_300_Thiophene_Hydrogenated.qcin_1526523.0 ./qchem1526523/

Process 0 of 1 is on exp-2-05 - thread support 0
initial socket setup ...start
initial socket setup ...done 
now start server 0 ... 
                  Welcome to Q-Chem
     A Quantum Leap Into The Future Of Chemistry


 Q-Chem 5.4, Q-Chem, Inc., Pleasanton, CA (2021)

 License issued to: University of California, San Diego (site)

 E. Epifanovsky,  A. T. B. Gilbert,  Xintian Feng,  Joonho Lee,  Yuezhi Mao,  
 N. Mardirossian,  P. Pokhilko,  A. White,  M. Wormit,  M. P. Coons,  
 A. L. Dempwolff,  Zhengting Gan,  D. Hait,  P. R. Horn,  L. D. Jacobson,  
 I. Kaliman,  J. Kussmann,  A. W. Lange,  Ka Un Lao,  D. S. Levine,  Jie Liu,  
 S. C. McKenzie,  A. F. Morrison,  K. Nanda,  F. Plasser,  D. R. Rehn,  
 M. L. Vidal,  Zhi-Qiang You,  Ying Zhu,  B. Alam,  B. Albrecht,  
 A. Aldossary,  E. Alguire,  J. H. Andersen,  D. Barton,  K. Begam,  A. Behn,  
 Y. A. Bernard,  E. J. Berquist,  H. Burton,  A. Carreras,  K. Carter-Fenk,  
 R. Chakraborty,  A. D. Chien,  K. D. Closser,  V. Cofer-Shabica,  
 S. Dasgupta,  Jia Deng,  M. de Wergifosse,  M. Diedenhofen,  Hainam Do,  
 S. Ehlert,  Po-Tung Fang,  S. Fatehi,  Qingguo Feng,  J. Gayvert,  
 Qinghui Ge,  G. Gidofalvi,  M. Goldey,  J. Gomes,  C. Gonzalez-Espinoza,  
 S. Gulania,  A. Gunina,  M. W. D. Hanson-Heine,  P. H. P. Harbach,  
 A. W. Hauser,  M. F. Herbst,  M. Hernandez Vera,  M. Hodecker,  
 Z. C. Holden,  S. Houck,  Xunkun Huang,  Kerwin Hui,  B. C. Huynh,  
 M. Ivanov,  Hyunjun Ji,  Hanjie Jiang,  B. Kaduk,  S. Kaehler,  
 K. Khistyaev,  Jaehoon Kim,  P. Klunzinger,  Z. Koczor-Benda,  
 Joong Hoon Koh,  D. Kosenkov,  L. Koulias,  T. Kowalczyk,  C. M. Krauter,  
 K. Kue,  A. Kunitsa,  T. Kus,  A. Landau,  K. V. Lawler,  D. Lefrancois,  
 S. Lehtola,  Rain Li,  Yi-Pei Li,  Jiashu Liang,  M. Liebenthal,  
 Hung-Hsuan Lin,  You-Sheng Lin,  Fenglai Liu,  Kuan-Yu Liu,  
 M. Loipersberger,  A. Luenser,  A. Manjanath,  P. Manohar,  E. Mansoor,  
 S. F. Manzer,  Shan-Ping Mao,  A. V. Marenich,  T. Markovich,  S. Mason,  
 S. A. Maurer,  P. F. McLaughlin,  M. F. S. J. Menger,  J.-M. Mewes,  
 S. A. Mewes,  P. Morgante,  J. W. Mullinax,  T. S. Nguyen-Beck,  
 K. J. Oosterbaan,  G. Paran,  Alexander C. Paul,  Suranjan K. Paul,  
 F. Pavosevic,  Zheng Pei,  S. Prager,  E. I. Proynov,  E. Ramos,  B. Rana,  
 A. E. Rask,  A. Rettig,  R. M. Richard,  F. Rob,  E. Rossomme,  T. Scheele,  
 M. Scheurer,  M. Schneider,  N. Sergueev,  S. M. Sharada,  W. Skomorowski,  
 D. W. Small,  C. J. Stein,  Yu-Chuan Su,  E. J. Sundstrom,  Zhen Tao,  
 J. Thirman,  T. Tsuchimochi,  N. M. Tubman,  S. P. Veccham,  O. Vydrov,  
 J. Wenzel,  J. Witte,  A. Yamada,  Kun Yao,  S. Yeganeh,  S. R. Yost,  
 A. Zech,  Igor Ying Zhang,  Xing Zhang,  Yu Zhang,  D. Zuev,  
 A. Aspuru-Guzik,  A. T. Bell,  N. A. Besley,  K. B. Bravaya,  B. R. Brooks,  
 D. Casanova,  Jeng-Da Chai,  S. Coriani,  C. J. Cramer,  
 A. E. DePrince, III,  R. A. DiStasio Jr.,  A. Dreuw,  B. D. Dunietz,  
 T. R. Furlani,  W. A. Goddard III,  S. Grimme,  S. Hammes-Schiffer,  
 T. Head-Gordon,  W. J. Hehre,  Chao-Ping Hsu,  T.-C. Jagau,  Yousung Jung,  
 A. Klamt,  Jing Kong,  D. S. Lambrecht,  WanZhen Liang,  N. J. Mayhall,  
 C. W. McCurdy,  J. B. Neaton,  C. Ochsenfeld,  J. A. Parkhill,  R. Peverati,  
 V. A. Rassolov,  Yihan Shao,  L. V. Slipchenko,  T. Stauch,  R. P. Steele,  
 J. E. Subotnik,  A. J. W. Thom,  A. Tkatchenko,  D. G. Truhlar,  
 T. Van Voorhis,  T. A. Wesolowski,  K. B. Whaley,  H. L. Woodcock III,  
 P. M. Zimmerman,  S. Faraji,  P. M. W. Gill,  M. Head-Gordon,  
 J. M. Herbert,  A. I. Krylov

 Contributors to earlier versions of Q-Chem not listed above: 
 R. D. Adamson,  B. Austin,  R. Baer,  J. Baker,  G. J. O. Beran,  
 K. Brandhorst,  S. T. Brown,  E. F. C. Byrd,  A. K. Chakraborty,  
 G. K. L. Chan,  Chun-Min Chang,  Yunqing Chen,  C.-L. Cheng,  
 Siu Hung Chien,  D. M. Chipman,  D. L. Crittenden,  H. Dachsel,  
 R. J. Doerksen,  A. D. Dutoi,  R. G. Edgar,  J. Fosso-Tande,  
 L. Fusti-Molnar,  D. Ghosh,  A. Ghysels,  A. Golubeva-Zadorozhnaya,  
 J. Gonthier,  M. S. Gordon,  S. R. Gwaltney,  G. Hawkins,  J. E. Herr,  
 A. Heyden,  S. Hirata,  E. G. Hohenstein,  G. Kedziora,  F. J. Keil,  
 C. Kelley,  Jihan Kim,  R. A. King,  R. Z. Khaliullin,  P. P. Korambath,  
 W. Kurlancheek,  A. Laurent,  A. M. Lee,  M. S. Lee,  S. V. Levchenko,  
 Ching Yeh Lin,  D. Liotard,  E. Livshits,  R. C. Lochan,  I. Lotan,  
 L. A. Martinez-Martinez,  P. E. Maslen,  N. Nair,  D. P. O'Neill,  
 D. Neuhauser,  E. Neuscamman,  C. M. Oana,  R. Olivares-Amaya,  R. Olson,  
 T. M. Perrine,  B. Peters,  P. A. Pieniazek,  A. Prociuk,  Y. M. Rhee,  
 J. Ritchie,  M. A. Rohrdanz,  E. Rosta,  N. J. Russ,  H. F. Schaefer III,  
 M. W. Schmidt,  N. E. Schultz,  S. Sharma,  N. Shenvi,  C. D. Sherrill,  
 A. C. Simmonett,  A. Sodt,  T. Stein,  D. Stuck,  K. S. Thanthiriwatte,  
 V. Vanovschi,  L. Vogt,  Tao Wang,  A. Warshel,  M. A. Watson,  
 C. F. Williams,  Q. Wu,  X. Xu,  Jun Yang,  W. Zhang,  Yan Zhao

 Please cite Q-Chem as follows:
 Y. Shao et al., Mol. Phys. 113, 184-215 (2015)
 DOI: 10.1080/00268976.2014.952696

 Q-Chem 5.4.0 for Intel X86 EM64T Linux

 Parts of Q-Chem use Armadillo 9.800.1 (Horizon Scraper).
 http://arma.sourceforge.net/

 Q-Chem begins on Wed Dec 27 12:21:36 2023  

 Host: 
0

     Scratch files written to ./qchem1526523//
 May1621 |scratch|qcdevops|jenkins|workspace|build_RNUM    
 Parallel job on  1  processors
 Processing $rem in /cm/shared/apps/spack/cpu/opt/spack/linux-centos8-zen2/gcc-10.2.0/qchem-5.4-akfmr7b3t57bfs6qan3padb2wnb2i7cl/config/preferences:
 Processing $rem in /home/rramji/.qchemrc:
 Symmetry turned off for PCM/SM12/SMD calculation
 Core orbitals will be frozen

 Checking the input file for inconsistencies... 	...done.

 Q-Chem warning in module forms1/BasisType.C, line 2236:

 You are not using the predefined 5D/6D in this basis set.


--------------------------------------------------------------
User input:
--------------------------------------------------------------
$molecule
0 1
C	-0.223244	-6.741404	-0.127184
C	-1.354118	-6.155638	-0.779949
C	0.715408	-5.791452	0.415271
C	-1.595259	-4.803786	-0.919437
H	-2.114613	-6.821518	-1.218801
C	0.463133	-4.378638	0.268806
C	-0.688925	-3.838032	-0.396744
C	1.368449	-3.413062	0.790835
C	-0.939189	-2.426473	-0.542026
C	1.130363	-2.059348	0.652669
C	0.000000	-1.478216	0.000000
H	1.891815	-1.394783	1.091814
C	1.963749	-6.187987	1.138124
C	2.607351	-3.798164	1.506241
N	2.817348	-5.170003	1.629443
C	-2.837621	-4.424987	-1.636646
C	-2.188982	-2.036627	-1.264474
N	-3.042637	-3.049156	-1.756205
O	2.301222	-7.353131	1.336258
O	3.407386	-2.986854	1.967056
O	-3.628041	-5.248946	-2.092167
O	-2.545844	-0.878829	-1.472160
C	4.040164	-5.563799	2.336642
H	4.078749	-6.664085	2.360245
H	4.027880	-5.147101	3.361968
H	4.922811	-5.148785	1.813424
C	-4.247167	-2.587487	-2.452149
H	-4.804209	-3.483329	-2.772531
H	-3.965991	-1.964972	-3.322697
H	-4.859678	-1.962932	-1.774507
C	0.000000	0.000000	0.000000
S	0.205093	0.766196	1.580530
C	0.628939	2.348114	0.904911
C	0.258137	0.964028	-0.985400
C	0.599745	2.239309	-0.493528
H	0.197169	0.736404	-2.059934
H	0.827678	3.090243	-1.152593
H	0.856796	3.198808	1.556025
H	0.318588	-7.361589	-0.851574
H	-0.580522	-7.361192	0.704181
H	0.540459	-1.478831	-0.935042
$end

$rem
JOBTYPE		SP
EXCHANGE	HF
CORRELATION	pRIMP2
BASIS		cc-pvtz
METHOD		rimp2
AUX_BASIS	rimp2-cc-pvtz
SOLVENT_METHOD	PCM
PURECART	11111
SYMMETRY	false
MEM_TOTAL	110000
SCF_CONVERGENCE = 6
THRESH=10
GUI = 2
$end



$solvent
dielectric 4.90
$end
--------------------------------------------------------------
 ----------------------------------------------------------------
             Standard Nuclear Orientation (Angstroms)
    I     Atom           X                Y                Z
 ----------------------------------------------------------------
    1      C      -0.2232440000    -6.7414040000    -0.1271840000
    2      C      -1.3541180000    -6.1556380000    -0.7799490000
    3      C       0.7154080000    -5.7914520000     0.4152710000
    4      C      -1.5952590000    -4.8037860000    -0.9194370000
    5      H      -2.1146130000    -6.8215180000    -1.2188010000
    6      C       0.4631330000    -4.3786380000     0.2688060000
    7      C      -0.6889250000    -3.8380320000    -0.3967440000
    8      C       1.3684490000    -3.4130620000     0.7908350000
    9      C      -0.9391890000    -2.4264730000    -0.5420260000
   10      C       1.1303630000    -2.0593480000     0.6526690000
   11      C       0.0000000000    -1.4782160000     0.0000000000
   12      H       1.8918150000    -1.3947830000     1.0918140000
   13      C       1.9637490000    -6.1879870000     1.1381240000
   14      C       2.6073510000    -3.7981640000     1.5062410000
   15      N       2.8173480000    -5.1700030000     1.6294430000
   16      C      -2.8376210000    -4.4249870000    -1.6366460000
   17      C      -2.1889820000    -2.0366270000    -1.2644740000
   18      N      -3.0426370000    -3.0491560000    -1.7562050000
   19      O       2.3012220000    -7.3531310000     1.3362580000
   20      O       3.4073860000    -2.9868540000     1.9670560000
   21      O      -3.6280410000    -5.2489460000    -2.0921670000
   22      O      -2.5458440000    -0.8788290000    -1.4721600000
   23      C       4.0401640000    -5.5637990000     2.3366420000
   24      H       4.0787490000    -6.6640850000     2.3602450000
   25      H       4.0278800000    -5.1471010000     3.3619680000
   26      H       4.9228110000    -5.1487850000     1.8134240000
   27      C      -4.2471670000    -2.5874870000    -2.4521490000
   28      H      -4.8042090000    -3.4833290000    -2.7725310000
   29      H      -3.9659910000    -1.9649720000    -3.3226970000
   30      H      -4.8596780000    -1.9629320000    -1.7745070000
   31      C       0.0000000000     0.0000000000     0.0000000000
   32      S       0.2050930000     0.7661960000     1.5805300000
   33      C       0.6289390000     2.3481140000     0.9049110000
   34      C       0.2581370000     0.9640280000    -0.9854000000
   35      C       0.5997450000     2.2393090000    -0.4935280000
   36      H       0.1971690000     0.7364040000    -2.0599340000
   37      H       0.8276780000     3.0902430000    -1.1525930000
   38      H       0.8567960000     3.1988080000     1.5560250000
   39      H       0.3185880000    -7.3615890000    -0.8515740000
   40      H      -0.5805220000    -7.3611920000     0.7041810000
   41      H       0.5404590000    -1.4788310000    -0.9350420000
 ----------------------------------------------------------------
 Nuclear Repulsion Energy =        2547.38137904 hartrees
 There are       98 alpha and       98 beta electrons
 Requested basis set is cc-pVTZ
 There are 356 shells and 1010 basis functions

 Total QAlloc Memory Limit 110000 MB
 Mega-Array Size       188 MB
 MEM_STATIC part       192 MB
 Discretize the solute cavity surface with Lebedev spheres
	Using 110 Lebedev grid points for each H atom
	Using 194 Lebedev grid points for other atoms
	Atomic van der Waals radii will be scaled by 1.20
 Remove points where switching function is < 1.0e-08
 Keep 2605 surface tesserae and discard 4173 interior tesserae
 Molecular Surface Area = 372.086 Angst**2
 Requested basis set is rimp2-cc-pVTZ
 There are 770 shells and 2648 basis functions
 A cutoff of  1.0D-10 yielded  33995 shell pairs
 There are    257113 function pairs (    332809 Cartesian)
 Smallest overlap matrix eigenvalue = 8.94E-06

 Q-Chem warning in module stvman/mkSTV.C, line 323:

 Overlap eigenvalue is smaller than square root of threshold
 Use THRESH >= 12 to get rid of this warning


 Scale SEOQF with 1.000000e-01/1.000000e-02/1.000000e-01

 Standard Electronic Orientation quadrupole field applied
 Nucleus-field energy     =     0.0000000164 hartrees
 Guess from superposition of atomic densities
 Warning:  Energy on first SCF cycle will be non-variational
 SAD guess density has 196.000000 electrons

 -----------------------------------------------------------------------
  General SCF calculation program by
  Eric Jon Sundstrom, Paul Horn, Yuezhi Mao, Dmitri Zuev, Alec White,
  David Stuck, Shaama M.S., Shane Yost, Joonho Lee, David Small,
  Daniel Levine, Susi Lehtola, Hugh Burton, Evgeny Epifanovsky,
  Bang C. Huynh
 -----------------------------------------------------------------------
 Hartree-Fock
 using 64 threads for integral computing
 -------------------------------------------------------
 OpenMP Integral computing Module                
 Release: version 1.0, May 2013, Q-Chem Inc. Pittsburgh 
 -------------------------------------------------------
 A restricted SCF calculation will be
 performed using DIIS
 SCF converges when DIIS error is below 1.0e-06
 ---------------------------------------
  Cycle       Energy         DIIS error
 ---------------------------------------
    1   -1583.1023159128      1.86e-02  
    2   -1571.1684112977      2.03e-03  
    3   -1571.5076868300      1.55e-03  
    4   -1571.7293251090      2.52e-04  
    5   -1571.7430094850      7.73e-05  
    6   -1571.7443955527      2.97e-05  
    7   -1571.7448019931      1.53e-05  
    8   -1571.7449123169      6.14e-06  
    9   -1571.7449310977      2.83e-06  
   10   -1571.7449347832      1.19e-06  
   11   -1571.7449359041      5.59e-07  Convergence criterion met
 ---------------------------------------
 SCF time:   CPU 6965.96s  wall 278.00s 

************** Final PCM Free Energy Summary **************
 G_electrostatic  =      -0.03096129 hartree =     -19.42850434 kcal/mol
 G_cavitation     =       0.00000000 hartree =       0.00000000 kcal/mol
 G_dispersion     =       0.00000000 hartree =       0.00000000 kcal/mol
 G_repulsion      =       0.00000000 hartree =       0.00000000 kcal/mol
 --------------------------------------------------
 Non-electrostatic Free Energy =       0.00000000 hartree =       0.00000000 kcal/mol
 Total                         =      -0.03096129 hartree =     -19.42850434 kcal/mol
 --------------------------------------------------
 SCF Energy (H0 + V/2)                       =   -1571.74493590 
 Solute Internal Energy (H0)                 =   -1571.71397461 
 Total Free Energy (H0 + V/2 + non-elec)     =   -1571.74493590 hartree
                                             = -986284.83327608 kcal/mol
***********************************************************

 SCF   energy in the final basis set =    -1571.7449359041
 Total energy in the final basis set =    -1571.7449359041


 --------------------------------------------------------------
  Generalized many-body perturbation theory program
  by Joonho Lee, Fazle Rob, Xintian Feng, Evgeny Epifanovsky

 No regularization used 
 (reg. param. = 0.0000e+00)
  (P|Q)^-1/2 Time:  CPU 95.28 s  wall 1.53 s

 In RI-MP2 calculation: 
 # of frozen core orbitals: 31

 Components of the RIMP2 correlation energy:
        aaaa    correlation energy =        -0.6150565242 a.u.
        abab    correlation energy =        -3.4255075898 a.u.
        bbbb    correlation energy =        -0.6150565242 a.u.
        non-Brillouin singles      =        -0.0000000000 a.u.
        total same-spin energy     =        -1.2301130484 a.u.
        total opposite-spin energy =        -3.4255075898 a.u.

 Total  RIMP2   correlation energy =        -4.6556206383 a.u.
        RIMP2         total energy =     -1576.4005565423 a.u.

 RI-MP2 Energy Time:  CPU 1978.70 s  wall 31.94 s
 
 --------------------------------------------------------------
 
                    Orbital Energies (a.u.)
 --------------------------------------------------------------
 
 Alpha MOs
 -- Occupied --
-91.9899 -20.5526 -20.5445 -20.5418 -20.5408 -15.6270 -15.6214 -11.3936
-11.3851 -11.3836 -11.3794 -11.3089 -11.3078 -11.3049 -11.3046 -11.2980
-11.2962 -11.2901 -11.2809 -11.2691 -11.2679 -11.2655 -11.2630 -11.2594
-11.2547 -11.2526 -11.2511  -8.9896  -6.6704  -6.6700  -6.6694  -1.4196
 -1.4123  -1.3973  -1.3915  -1.2622  -1.2555  -1.2302  -1.1872  -1.1524
 -1.1142  -1.0865  -1.0468  -0.9957  -0.9878  -0.9853  -0.9552  -0.9506
 -0.8967  -0.8879  -0.8766  -0.8597  -0.7956  -0.7779  -0.7708  -0.7612
 -0.7418  -0.7169  -0.7037  -0.6918  -0.6814  -0.6717  -0.6666  -0.6573
 -0.6470  -0.6441  -0.6365  -0.6327  -0.6308  -0.6277  -0.6222  -0.6045
 -0.5857  -0.5752  -0.5662  -0.5613  -0.5566  -0.5513  -0.5506  -0.5488
 -0.5477  -0.5436  -0.5185  -0.5163  -0.5095  -0.4840  -0.4757  -0.4646
 -0.4582  -0.4513  -0.4429  -0.4347  -0.4135  -0.4075  -0.3566  -0.3505
 -0.3293  -0.2865
 -- Virtual --
  0.0146   0.0422   0.0896   0.0915   0.1367   0.1499   0.1541   0.1600
  0.1638   0.1720   0.1783   0.1841   0.1870   0.1937   0.1985   0.2038
  0.2055   0.2224   0.2256   0.2284   0.2293   0.2312   0.2326   0.2374
  0.2651   0.2689   0.2975   0.3033   0.3128   0.3213   0.3231   0.3263
  0.3277   0.3394   0.3475   0.3478   0.3537   0.3575   0.3641   0.3686
  0.3719   0.3777   0.3801   0.3869   0.3881   0.3935   0.4003   0.4054
  0.4143   0.4216   0.4276   0.4343   0.4385   0.4441   0.4455   0.4489
  0.4534   0.4570   0.4635   0.4644   0.4717   0.4802   0.4865   0.4903
  0.4928   0.5005   0.5020   0.5110   0.5140   0.5199   0.5250   0.5292
  0.5302   0.5360   0.5454   0.5472   0.5511   0.5567   0.5611   0.5656
  0.5729   0.5750   0.5776   0.5809   0.5876   0.5899   0.5951   0.5988
  0.6034   0.6046   0.6061   0.6078   0.6124   0.6164   0.6207   0.6244
  0.6270   0.6318   0.6341   0.6368   0.6424   0.6433   0.6457   0.6490
  0.6556   0.6588   0.6641   0.6769   0.6795   0.6916   0.6965   0.6998
  0.7037   0.7147   0.7179   0.7263   0.7351   0.7393   0.7453   0.7613
  0.7638   0.7655   0.7729   0.7757   0.7818   0.7872   0.7896   0.7921
  0.8023   0.8092   0.8178   0.8257   0.8335   0.8409   0.8435   0.8456
  0.8490   0.8552   0.8615   0.8635   0.8687   0.8719   0.8790   0.8858
  0.8896   0.9016   0.9030   0.9077   0.9152   0.9248   0.9254   0.9292
  0.9330   0.9400   0.9437   0.9463   0.9604   0.9669   0.9706   0.9751
  0.9757   0.9816   0.9892   0.9972   0.9994   1.0102   1.0123   1.0146
  1.0248   1.0273   1.0316   1.0397   1.0440   1.0564   1.0584   1.0616
  1.0671   1.0682   1.0723   1.0753   1.0860   1.0899   1.0942   1.1003
  1.1054   1.1115   1.1232   1.1258   1.1275   1.1344   1.1379   1.1413
  1.1513   1.1534   1.1615   1.1617   1.1693   1.1740   1.1766   1.1827
  1.1888   1.1947   1.1988   1.2043   1.2111   1.2124   1.2193   1.2287
  1.2311   1.2337   1.2418   1.2424   1.2519   1.2618   1.2665   1.2713
  1.2804   1.2891   1.2910   1.3002   1.3093   1.3204   1.3310   1.3413
  1.3449   1.3521   1.3603   1.3624   1.3641   1.3694   1.3819   1.3864
  1.3889   1.3923   1.4010   1.4028   1.4168   1.4253   1.4288   1.4427
  1.4486   1.4543   1.4690   1.4713   1.4784   1.4823   1.4905   1.4973
  1.4994   1.5096   1.5121   1.5184   1.5204   1.5283   1.5361   1.5384
  1.5439   1.5483   1.5532   1.5562   1.5651   1.5674   1.5714   1.5741
  1.5804   1.5891   1.5966   1.6021   1.6167   1.6251   1.6355   1.6387
  1.6511   1.6534   1.6575   1.6748   1.6835   1.6898   1.6913   1.6952
  1.7048   1.7118   1.7187   1.7255   1.7291   1.7437   1.7497   1.7567
  1.7657   1.7692   1.7770   1.7820   1.7852   1.7947   1.8031   1.8095
  1.8187   1.8222   1.8368   1.8463   1.8472   1.8570   1.8669   1.8694
  1.8745   1.8807   1.8874   1.8976   1.9115   1.9202   1.9246   1.9372
  1.9474   1.9581   1.9636   1.9811   1.9844   1.9939   2.0048   2.0282
  2.0338   2.0362   2.0392   2.0560   2.0847   2.0975   2.1029   2.1170
  2.1250   2.1355   2.1517   2.1560   2.1870   2.1984   2.2030   2.2254
  2.2264   2.2379   2.2603   2.2737   2.2821   2.2926   2.3014   2.3075
  2.3151   2.3242   2.3319   2.3392   2.3567   2.3615   2.3677   2.3793
  2.3885   2.4162   2.4353   2.4389   2.4423   2.4552   2.4581   2.4619
  2.4720   2.4784   2.4811   2.5065   2.5113   2.5224   2.5326   2.5511
  2.5614   2.5625   2.5805   2.5862   2.5957   2.5994   2.6068   2.6153
  2.6235   2.6282   2.6378   2.6422   2.6484   2.6638   2.6761   2.6791
  2.6862   2.6896   2.6949   2.7054   2.7167   2.7207   2.7264   2.7357
  2.7412   2.7501   2.7527   2.7643   2.7693   2.7708   2.7854   2.8009
  2.8231   2.8278   2.8346   2.8398   2.8495   2.8569   2.8584   2.8627
  2.8700   2.8814   2.8844   2.8941   2.8974   2.9011   2.9060   2.9112
  2.9173   2.9207   2.9272   2.9371   2.9473   2.9527   2.9623   2.9735
  2.9824   2.9854   2.9918   2.9991   3.0035   3.0136   3.0244   3.0245
  3.0306   3.0359   3.0406   3.0514   3.0607   3.0741   3.0795   3.0860
  3.0934   3.0997   3.1052   3.1072   3.1080   3.1108   3.1171   3.1225
  3.1340   3.1372   3.1442   3.1537   3.1591   3.1626   3.1655   3.1727
  3.1760   3.1923   3.1970   3.2040   3.2057   3.2096   3.2159   3.2204
  3.2281   3.2351   3.2420   3.2432   3.2444   3.2543   3.2576   3.2650
  3.2707   3.2748   3.2786   3.2894   3.2914   3.2974   3.3031   3.3071
  3.3104   3.3154   3.3214   3.3259   3.3294   3.3314   3.3341   3.3381
  3.3458   3.3512   3.3520   3.3566   3.3639   3.3664   3.3720   3.3761
  3.3797   3.3812   3.3880   3.3928   3.3946   3.3952   3.3981   3.4123
  3.4161   3.4204   3.4239   3.4270   3.4302   3.4378   3.4433   3.4455
  3.4570   3.4609   3.4647   3.4724   3.4760   3.4804   3.4844   3.4845
  3.4904   3.5016   3.5053   3.5104   3.5115   3.5171   3.5192   3.5250
  3.5307   3.5355   3.5426   3.5471   3.5532   3.5592   3.5675   3.5809
  3.5878   3.5923   3.5947   3.5985   3.6076   3.6117   3.6208   3.6239
  3.6271   3.6321   3.6354   3.6379   3.6442   3.6470   3.6505   3.6584
  3.6620   3.6735   3.6801   3.6897   3.6917   3.6995   3.7050   3.7177
  3.7279   3.7307   3.7348   3.7372   3.7420   3.7469   3.7506   3.7542
  3.7561   3.7656   3.7683   3.7787   3.7811   3.7896   3.8008   3.8047
  3.8074   3.8101   3.8142   3.8186   3.8241   3.8340   3.8385   3.8475
  3.8529   3.8562   3.8606   3.8647   3.8703   3.8829   3.8921   3.9013
  3.9100   3.9116   3.9276   3.9314   3.9349   3.9461   3.9502   3.9552
  3.9592   3.9627   3.9657   3.9763   3.9802   3.9875   3.9995   4.0086
  4.0124   4.0184   4.0294   4.0327   4.0437   4.0530   4.0600   4.0768
  4.0820   4.0861   4.1105   4.1172   4.1235   4.1277   4.1373   4.1386
  4.1441   4.1563   4.1630   4.1721   4.1760   4.1783   4.1895   4.2022
  4.2061   4.2098   4.2350   4.2394   4.2412   4.2484   4.2586   4.2674
  4.2707   4.2759   4.2828   4.2847   4.2910   4.2920   4.3023   4.3073
  4.3110   4.3207   4.3230   4.3290   4.3379   4.3443   4.3454   4.3524
  4.3546   4.3639   4.3677   4.3708   4.3791   4.3829   4.3941   4.4003
  4.4019   4.4053   4.4088   4.4191   4.4246   4.4326   4.4489   4.4558
  4.4699   4.4748   4.4853   4.4883   4.4964   4.5131   4.5181   4.5263
  4.5351   4.5395   4.5495   4.5557   4.5623   4.5746   4.5797   4.5886
  4.5932   4.5964   4.6055   4.6108   4.6140   4.6200   4.6292   4.6439
  4.6513   4.6573   4.6633   4.6740   4.6901   4.6971   4.7024   4.7105
  4.7216   4.7310   4.7396   4.7476   4.7703   4.7886   4.7913   4.7960
  4.8089   4.8255   4.8381   4.8428   4.8494   4.8594   4.8760   4.8818
  4.8858   4.8918   4.9123   4.9222   4.9321   4.9437   4.9618   4.9693
  4.9880   5.0005   5.0149   5.0169   5.0288   5.0331   5.0495   5.0635
  5.0645   5.0955   5.1155   5.1194   5.1226   5.1277   5.1311   5.1360
  5.1427   5.1573   5.1707   5.1752   5.1974   5.2006   5.2070   5.2222
  5.2604   5.2660   5.2703   5.2828   5.2958   5.3059   5.3230   5.3296
  5.3314   5.3402   5.3447   5.3650   5.3782   5.3849   5.4028   5.4143
  5.4280   5.4451   5.4812   5.4844   5.4944   5.5025   5.5117   5.5146
  5.5173   5.5263   5.5395   5.5518   5.5570   5.5617   5.5651   5.5681
  5.5795   5.5863   5.5891   5.6058   5.6123   5.6187   5.6214   5.6266
  5.6400   5.6497   5.6602   5.6615   5.6664   5.6720   5.6885   5.6938
  5.6962   5.7043   5.7217   5.7382   5.7434   5.7575   5.7692   5.7794
  5.7846   5.7862   5.8111   5.8323   5.8448   5.8617   5.8881   5.9135
  5.9342   5.9586   5.9729   5.9911   6.0098   6.0224   6.0308   6.0414
  6.0482   6.0644   6.0940   6.1114   6.1231   6.1420   6.1481   6.1850
  6.1999   6.2193   6.2245   6.2256   6.2416   6.2575   6.2619   6.2834
  6.3085   6.3103   6.3237   6.3496   6.3653   6.3842   6.4218   6.4838
  6.5182   6.5308   6.5742   6.5826   6.6043   6.6161   6.6567   6.6590
  6.6681   6.6750   6.8436   6.8499   6.8879   6.9015   6.9046   6.9205
  6.9266   6.9324   7.1017   7.1082   7.1472   7.1917   7.1988   7.2344
  7.3470   7.3516   7.3558   7.3598   7.4745   7.5409   7.5696   7.5824
  7.5865   7.5956   7.6535   7.6738   7.6906   7.7121   8.8175   9.9989
 10.3153  11.3124  11.4985  11.7495  12.0131  12.0538  12.4124  12.4657
 12.9622  13.2094  13.3417  13.5612  13.7726  13.9244  14.0968  14.2740
 14.3115  14.3567  14.5030  14.5772  14.9846  15.6117  15.7961  16.3314
 --------------------------------------------------------------
 
          Ground-State Mulliken Net Atomic Charges

     Atom                 Charge (a.u.)
  ----------------------------------------
      1 C                    -0.084464
      2 C                    -0.031495
      3 C                    -0.111716
      4 C                    -0.123351
      5 H                     0.198669
      6 C                     0.019771
      7 C                     0.115236
      8 C                    -0.086491
      9 C                    -0.173339
     10 C                    -0.126230
     11 C                     0.176866
     12 H                     0.201423
     13 C                     0.343066
     14 C                     0.346343
     15 N                    -0.090047
     16 C                     0.357511
     17 C                     0.343175
     18 N                    -0.091428
     19 O                    -0.494227
     20 O                    -0.506402
     21 O                    -0.501503
     22 O                    -0.471524
     23 C                    -0.204739
     24 H                     0.139460
     25 H                     0.109398
     26 H                     0.108996
     27 C                    -0.197190
     28 H                     0.133320
     29 H                     0.110810
     30 H                     0.112259
     31 C                     0.008091
     32 S                     0.011251
     33 C                    -0.214388
     34 C                    -0.190693
     35 C                    -0.203411
     36 H                     0.183590
     37 H                     0.191844
     38 H                     0.210578
     39 H                     0.137379
     40 H                     0.137558
     41 H                     0.206043
  ----------------------------------------
  Sum of atomic charges =     0.000000

 -----------------------------------------------------------------
                    Cartesian Multipole Moments
 -----------------------------------------------------------------
    Charge (ESU x 10^10)
                 0.0000
    Dipole Moment (Debye)
         X       0.1886      Y       2.1217      Z      -2.1751
       Tot       3.0444
    Quadrupole Moments (Debye-Ang)
        XX    -186.9148     XY       9.5157     YY    -178.5521
        XZ     -14.2929     YZ       6.0374     ZZ    -164.5428
    Octopole Moments (Debye-Ang^2)
       XXX       2.1821    XXY     563.6671    XYY     -40.0142
       YYY    1690.2420    XXZ      -7.8761    XYZ      61.6856
       YYZ     -34.2536    XZZ       5.2009    YZZ     506.4920
       ZZZ     -30.5374
    Hexadecapole Moments (Debye-Ang^3)
      XXXX   -4782.3839   XXXY      37.5095   XXYY   -4026.7137
      XYYY     978.0020   YYYY  -18054.3741   XXXZ   -1396.9649
      XXYZ     -78.7135   XYYZ    -801.5968   YYYZ     560.2605
      XXZZ   -1158.9624   XYZZ      22.5789   YYZZ   -3111.2565
      XZZZ   -1301.1927   YZZZ     106.1204   ZZZZ   -1930.7512
 -----------------------------------------------------------------
 Total job time:  314.40s(wall), 9064.71s(cpu) 
 Wed Dec 27 12:26:50 2023

        *************************************************************
        *                                                           *
        *  Thank you very much for using Q-Chem.  Have a nice day.  *
        *                                                           *
        *************************************************************


0 sent ACK to 0 
now end server 0 ... 
cleanup process ... done
remove work dirs ./qchem1526523.0 -- ./qchem1526523.0
rm -rf ./qchem1526523.0
rm -rf ./qchem1526523
