You are running Q-Chem version: 5.4.0

#
# job setting
#
local host:  exp-2-47
current dir: /home/rramji/project-csd799/aromodel/pndit-qchem/hydrogenated-rotation-run
input file:  Dimethyl_Naphthalene_Dicarboximide_Phi_40_Theta_190_Thiophene_Hydrogenated.qcin
output file: 
nprocs     : 1
nthreads   : 64
#
# qchem installation setting
#
QC:          /cm/shared/apps/spack/cpu/opt/spack/linux-centos8-zen2/gcc-10.2.0/qchem-5.4-akfmr7b3t57bfs6qan3padb2wnb2i7cl
QCAUX:       /cm/shared/apps/spack/cpu/opt/spack/linux-centos8-zen2/gcc-10.2.0/qchem-5.4-akfmr7b3t57bfs6qan3padb2wnb2i7cl/qcaux
QCPROG:      /cm/shared/apps/spack/cpu/opt/spack/linux-centos8-zen2/gcc-10.2.0/qchem-5.4-akfmr7b3t57bfs6qan3padb2wnb2i7cl/exe/qcprog.exe
QCPROG_S:    /cm/shared/apps/spack/cpu/opt/spack/linux-centos8-zen2/gcc-10.2.0/qchem-5.4-akfmr7b3t57bfs6qan3padb2wnb2i7cl/exe/qcprog.exe_s
PARALLEL:    -DPARALLEL
QCMPI:       mpich
#
# qchem directory setting
#
qcrun:       qchem3762398
QCSCRATCH:   .
QCLOCALSCR:  
QCTMPDIR:    .
QCFILEPREF:  ./qchem3762398
QCSAVEDIR:   
workdirs:    ./qchem3762398
workdir0:    ./qchem3762398
partmpdirs =  
#
# parallel setting
#
QCRSH:           ssh
QCMPI:           mpich
QCMPIRUN:        /cm/shared/apps/spack/cpu/opt/spack/linux-centos8-zen2/gcc-10.2.0/qchem-5.4-akfmr7b3t57bfs6qan3padb2wnb2i7cl/bin/mpi/mpirun_qchem
QCMACHINEFILE:   ./qchem3762398/hostfile
exp-2-47

#
# env setting
#
exported envs:   QC QCAUX QCSCRATCH QCRUNNAME QCFILEPREF QCPROG QCPROG_S GUIFILE

Running Job 1 of 1 Dimethyl_Naphthalene_Dicarboximide_Phi_40_Theta_190_Thiophene_Hydrogenated.qcin
qchem Dimethyl_Naphthalene_Dicarboximide_Phi_40_Theta_190_Thiophene_Hydrogenated.qcin_3762398.0 ./qchem3762398/ 1
/cm/shared/apps/spack/cpu/opt/spack/linux-centos8-zen2/gcc-10.2.0/qchem-5.4-akfmr7b3t57bfs6qan3padb2wnb2i7cl/bin/mpi/mpirun_qchem -machinefile ./qchem3762398/hostfile -np 1 /cm/shared/apps/spack/cpu/opt/spack/linux-centos8-zen2/gcc-10.2.0/qchem-5.4-akfmr7b3t57bfs6qan3padb2wnb2i7cl/exe/qcprog.exe Dimethyl_Naphthalene_Dicarboximide_Phi_40_Theta_190_Thiophene_Hydrogenated.qcin_3762398.0 ./qchem3762398/

Process 0 of 1 is on exp-2-47 - thread support 0
initial socket setup ...start
initial socket setup ...done 
now start server 0 ... 
                  Welcome to Q-Chem
     A Quantum Leap Into The Future Of Chemistry


 Q-Chem 5.4, Q-Chem, Inc., Pleasanton, CA (2021)

 License issued to: University of California, San Diego (site)

 E. Epifanovsky,  A. T. B. Gilbert,  Xintian Feng,  Joonho Lee,  Yuezhi Mao,  
 N. Mardirossian,  P. Pokhilko,  A. White,  M. Wormit,  M. P. Coons,  
 A. L. Dempwolff,  Zhengting Gan,  D. Hait,  P. R. Horn,  L. D. Jacobson,  
 I. Kaliman,  J. Kussmann,  A. W. Lange,  Ka Un Lao,  D. S. Levine,  Jie Liu,  
 S. C. McKenzie,  A. F. Morrison,  K. Nanda,  F. Plasser,  D. R. Rehn,  
 M. L. Vidal,  Zhi-Qiang You,  Ying Zhu,  B. Alam,  B. Albrecht,  
 A. Aldossary,  E. Alguire,  J. H. Andersen,  D. Barton,  K. Begam,  A. Behn,  
 Y. A. Bernard,  E. J. Berquist,  H. Burton,  A. Carreras,  K. Carter-Fenk,  
 R. Chakraborty,  A. D. Chien,  K. D. Closser,  V. Cofer-Shabica,  
 S. Dasgupta,  Jia Deng,  M. de Wergifosse,  M. Diedenhofen,  Hainam Do,  
 S. Ehlert,  Po-Tung Fang,  S. Fatehi,  Qingguo Feng,  J. Gayvert,  
 Qinghui Ge,  G. Gidofalvi,  M. Goldey,  J. Gomes,  C. Gonzalez-Espinoza,  
 S. Gulania,  A. Gunina,  M. W. D. Hanson-Heine,  P. H. P. Harbach,  
 A. W. Hauser,  M. F. Herbst,  M. Hernandez Vera,  M. Hodecker,  
 Z. C. Holden,  S. Houck,  Xunkun Huang,  Kerwin Hui,  B. C. Huynh,  
 M. Ivanov,  Hyunjun Ji,  Hanjie Jiang,  B. Kaduk,  S. Kaehler,  
 K. Khistyaev,  Jaehoon Kim,  P. Klunzinger,  Z. Koczor-Benda,  
 Joong Hoon Koh,  D. Kosenkov,  L. Koulias,  T. Kowalczyk,  C. M. Krauter,  
 K. Kue,  A. Kunitsa,  T. Kus,  A. Landau,  K. V. Lawler,  D. Lefrancois,  
 S. Lehtola,  Rain Li,  Yi-Pei Li,  Jiashu Liang,  M. Liebenthal,  
 Hung-Hsuan Lin,  You-Sheng Lin,  Fenglai Liu,  Kuan-Yu Liu,  
 M. Loipersberger,  A. Luenser,  A. Manjanath,  P. Manohar,  E. Mansoor,  
 S. F. Manzer,  Shan-Ping Mao,  A. V. Marenich,  T. Markovich,  S. Mason,  
 S. A. Maurer,  P. F. McLaughlin,  M. F. S. J. Menger,  J.-M. Mewes,  
 S. A. Mewes,  P. Morgante,  J. W. Mullinax,  T. S. Nguyen-Beck,  
 K. J. Oosterbaan,  G. Paran,  Alexander C. Paul,  Suranjan K. Paul,  
 F. Pavosevic,  Zheng Pei,  S. Prager,  E. I. Proynov,  E. Ramos,  B. Rana,  
 A. E. Rask,  A. Rettig,  R. M. Richard,  F. Rob,  E. Rossomme,  T. Scheele,  
 M. Scheurer,  M. Schneider,  N. Sergueev,  S. M. Sharada,  W. Skomorowski,  
 D. W. Small,  C. J. Stein,  Yu-Chuan Su,  E. J. Sundstrom,  Zhen Tao,  
 J. Thirman,  T. Tsuchimochi,  N. M. Tubman,  S. P. Veccham,  O. Vydrov,  
 J. Wenzel,  J. Witte,  A. Yamada,  Kun Yao,  S. Yeganeh,  S. R. Yost,  
 A. Zech,  Igor Ying Zhang,  Xing Zhang,  Yu Zhang,  D. Zuev,  
 A. Aspuru-Guzik,  A. T. Bell,  N. A. Besley,  K. B. Bravaya,  B. R. Brooks,  
 D. Casanova,  Jeng-Da Chai,  S. Coriani,  C. J. Cramer,  
 A. E. DePrince, III,  R. A. DiStasio Jr.,  A. Dreuw,  B. D. Dunietz,  
 T. R. Furlani,  W. A. Goddard III,  S. Grimme,  S. Hammes-Schiffer,  
 T. Head-Gordon,  W. J. Hehre,  Chao-Ping Hsu,  T.-C. Jagau,  Yousung Jung,  
 A. Klamt,  Jing Kong,  D. S. Lambrecht,  WanZhen Liang,  N. J. Mayhall,  
 C. W. McCurdy,  J. B. Neaton,  C. Ochsenfeld,  J. A. Parkhill,  R. Peverati,  
 V. A. Rassolov,  Yihan Shao,  L. V. Slipchenko,  T. Stauch,  R. P. Steele,  
 J. E. Subotnik,  A. J. W. Thom,  A. Tkatchenko,  D. G. Truhlar,  
 T. Van Voorhis,  T. A. Wesolowski,  K. B. Whaley,  H. L. Woodcock III,  
 P. M. Zimmerman,  S. Faraji,  P. M. W. Gill,  M. Head-Gordon,  
 J. M. Herbert,  A. I. Krylov

 Contributors to earlier versions of Q-Chem not listed above: 
 R. D. Adamson,  B. Austin,  R. Baer,  J. Baker,  G. J. O. Beran,  
 K. Brandhorst,  S. T. Brown,  E. F. C. Byrd,  A. K. Chakraborty,  
 G. K. L. Chan,  Chun-Min Chang,  Yunqing Chen,  C.-L. Cheng,  
 Siu Hung Chien,  D. M. Chipman,  D. L. Crittenden,  H. Dachsel,  
 R. J. Doerksen,  A. D. Dutoi,  R. G. Edgar,  J. Fosso-Tande,  
 L. Fusti-Molnar,  D. Ghosh,  A. Ghysels,  A. Golubeva-Zadorozhnaya,  
 J. Gonthier,  M. S. Gordon,  S. R. Gwaltney,  G. Hawkins,  J. E. Herr,  
 A. Heyden,  S. Hirata,  E. G. Hohenstein,  G. Kedziora,  F. J. Keil,  
 C. Kelley,  Jihan Kim,  R. A. King,  R. Z. Khaliullin,  P. P. Korambath,  
 W. Kurlancheek,  A. Laurent,  A. M. Lee,  M. S. Lee,  S. V. Levchenko,  
 Ching Yeh Lin,  D. Liotard,  E. Livshits,  R. C. Lochan,  I. Lotan,  
 L. A. Martinez-Martinez,  P. E. Maslen,  N. Nair,  D. P. O'Neill,  
 D. Neuhauser,  E. Neuscamman,  C. M. Oana,  R. Olivares-Amaya,  R. Olson,  
 T. M. Perrine,  B. Peters,  P. A. Pieniazek,  A. Prociuk,  Y. M. Rhee,  
 J. Ritchie,  M. A. Rohrdanz,  E. Rosta,  N. J. Russ,  H. F. Schaefer III,  
 M. W. Schmidt,  N. E. Schultz,  S. Sharma,  N. Shenvi,  C. D. Sherrill,  
 A. C. Simmonett,  A. Sodt,  T. Stein,  D. Stuck,  K. S. Thanthiriwatte,  
 V. Vanovschi,  L. Vogt,  Tao Wang,  A. Warshel,  M. A. Watson,  
 C. F. Williams,  Q. Wu,  X. Xu,  Jun Yang,  W. Zhang,  Yan Zhao

 Please cite Q-Chem as follows:
 Y. Shao et al., Mol. Phys. 113, 184-215 (2015)
 DOI: 10.1080/00268976.2014.952696

 Q-Chem 5.4.0 for Intel X86 EM64T Linux

 Parts of Q-Chem use Armadillo 9.800.1 (Horizon Scraper).
 http://arma.sourceforge.net/

 Q-Chem begins on Wed Dec 27 11:30:05 2023  

 Host: 
0

     Scratch files written to ./qchem3762398//
 May1621 |scratch|qcdevops|jenkins|workspace|build_RNUM    
 Parallel job on  1  processors
 Processing $rem in /cm/shared/apps/spack/cpu/opt/spack/linux-centos8-zen2/gcc-10.2.0/qchem-5.4-akfmr7b3t57bfs6qan3padb2wnb2i7cl/config/preferences:
 Processing $rem in /home/rramji/.qchemrc:
 Symmetry turned off for PCM/SM12/SMD calculation
 Core orbitals will be frozen

 Checking the input file for inconsistencies... 	...done.

 Q-Chem warning in module forms1/BasisType.C, line 2236:

 You are not using the predefined 5D/6D in this basis set.


--------------------------------------------------------------
User input:
--------------------------------------------------------------
$molecule
0 1
C	-0.043160	-6.741404	0.253280
C	-0.269777	-6.155638	1.539213
C	0.145543	-5.791452	-0.814295
C	-0.318377	-4.803786	1.813519
H	-0.422058	-6.821518	2.403941
C	0.094194	-4.378638	-0.527140
C	-0.137191	-3.838032	0.783072
C	0.275104	-3.413062	-1.556403
C	-0.188116	-2.426473	1.067932
C	0.226701	-2.059348	-1.285420
C	0.000000	-1.478216	0.000000
H	0.378931	-1.394783	-2.151147
C	0.397845	-6.187987	-2.234582
C	0.523637	-3.798164	-2.965273
N	0.567586	-5.170003	-3.204744
C	-0.567421	-4.424987	3.226257
C	-0.439541	-2.036627	2.489446
N	-0.609650	-3.049156	3.459801
O	0.468608	-7.353131	-2.619468
O	0.683034	-2.986854	-3.874668
O	-0.725131	-5.248946	4.124806
O	-0.512648	-0.878829	2.895819
C	0.813908	-5.563799	-4.595691
H	0.822891	-6.664085	-4.640022
H	1.781600	-5.147101	-4.934830
H	0.020360	-5.148785	-5.246157
C	-0.851649	-2.587487	4.829716
H	-0.962191	-3.483329	5.462742
H	-1.765865	-1.964972	4.863242
H	-0.005383	-1.962932	5.173521
C	0.000000	0.000000	0.000000
S	0.509686	0.607733	1.580530
C	1.562368	1.862312	0.904911
C	0.641367	0.764613	-0.985400
C	1.489926	1.776040	-0.493528
H	0.489914	0.584081	-2.059934
H	2.056124	2.450920	-1.152593
H	2.128395	2.537007	1.556025
H	-0.909181	-7.361589	-0.008120
H	0.860264	-7.361192	0.304668
H	-1.063500	-1.478831	-0.188062
$end

$rem
JOBTYPE		SP
EXCHANGE	HF
CORRELATION	pRIMP2
BASIS		cc-pvtz
METHOD		rimp2
AUX_BASIS	rimp2-cc-pvtz
SOLVENT_METHOD	PCM
PURECART	11111
SYMMETRY	false
MEM_TOTAL	110000
SCF_CONVERGENCE = 6
THRESH=10
GUI = 2
$end



$solvent
dielectric 4.90
$end
--------------------------------------------------------------
 ----------------------------------------------------------------
             Standard Nuclear Orientation (Angstroms)
    I     Atom           X                Y                Z
 ----------------------------------------------------------------
    1      C      -0.0431600000    -6.7414040000     0.2532800000
    2      C      -0.2697770000    -6.1556380000     1.5392130000
    3      C       0.1455430000    -5.7914520000    -0.8142950000
    4      C      -0.3183770000    -4.8037860000     1.8135190000
    5      H      -0.4220580000    -6.8215180000     2.4039410000
    6      C       0.0941940000    -4.3786380000    -0.5271400000
    7      C      -0.1371910000    -3.8380320000     0.7830720000
    8      C       0.2751040000    -3.4130620000    -1.5564030000
    9      C      -0.1881160000    -2.4264730000     1.0679320000
   10      C       0.2267010000    -2.0593480000    -1.2854200000
   11      C       0.0000000000    -1.4782160000     0.0000000000
   12      H       0.3789310000    -1.3947830000    -2.1511470000
   13      C       0.3978450000    -6.1879870000    -2.2345820000
   14      C       0.5236370000    -3.7981640000    -2.9652730000
   15      N       0.5675860000    -5.1700030000    -3.2047440000
   16      C      -0.5674210000    -4.4249870000     3.2262570000
   17      C      -0.4395410000    -2.0366270000     2.4894460000
   18      N      -0.6096500000    -3.0491560000     3.4598010000
   19      O       0.4686080000    -7.3531310000    -2.6194680000
   20      O       0.6830340000    -2.9868540000    -3.8746680000
   21      O      -0.7251310000    -5.2489460000     4.1248060000
   22      O      -0.5126480000    -0.8788290000     2.8958190000
   23      C       0.8139080000    -5.5637990000    -4.5956910000
   24      H       0.8228910000    -6.6640850000    -4.6400220000
   25      H       1.7816000000    -5.1471010000    -4.9348300000
   26      H       0.0203600000    -5.1487850000    -5.2461570000
   27      C      -0.8516490000    -2.5874870000     4.8297160000
   28      H      -0.9621910000    -3.4833290000     5.4627420000
   29      H      -1.7658650000    -1.9649720000     4.8632420000
   30      H      -0.0053830000    -1.9629320000     5.1735210000
   31      C       0.0000000000     0.0000000000     0.0000000000
   32      S       0.5096860000     0.6077330000     1.5805300000
   33      C       1.5623680000     1.8623120000     0.9049110000
   34      C       0.6413670000     0.7646130000    -0.9854000000
   35      C       1.4899260000     1.7760400000    -0.4935280000
   36      H       0.4899140000     0.5840810000    -2.0599340000
   37      H       2.0561240000     2.4509200000    -1.1525930000
   38      H       2.1283950000     2.5370070000     1.5560250000
   39      H      -0.9091810000    -7.3615890000    -0.0081200000
   40      H       0.8602640000    -7.3611920000     0.3046680000
   41      H      -1.0635000000    -1.4788310000    -0.1880620000
 ----------------------------------------------------------------
 Nuclear Repulsion Energy =        2582.86387376 hartrees
 There are       98 alpha and       98 beta electrons
 Requested basis set is cc-pVTZ
 There are 356 shells and 1010 basis functions

 Total QAlloc Memory Limit 110000 MB
 Mega-Array Size       188 MB
 MEM_STATIC part       192 MB
 Discretize the solute cavity surface with Lebedev spheres
	Using 110 Lebedev grid points for each H atom
	Using 194 Lebedev grid points for other atoms
	Atomic van der Waals radii will be scaled by 1.20
 Remove points where switching function is < 1.0e-08
 Keep 2592 surface tesserae and discard 4186 interior tesserae
 Molecular Surface Area = 358.243 Angst**2
 Requested basis set is rimp2-cc-pVTZ
 There are 770 shells and 2648 basis functions
 A cutoff of  1.0D-10 yielded  34597 shell pairs
 There are    261311 function pairs (    338050 Cartesian)
 Smallest overlap matrix eigenvalue = 8.53E-06

 Q-Chem warning in module stvman/mkSTV.C, line 323:

 Overlap eigenvalue is smaller than square root of threshold
 Use THRESH >= 12 to get rid of this warning


 Scale SEOQF with 1.000000e-01/1.000000e-02/1.000000e-02

 Standard Electronic Orientation quadrupole field applied
 Nucleus-field energy     =     0.0000000122 hartrees
 Guess from superposition of atomic densities
 Warning:  Energy on first SCF cycle will be non-variational
 SAD guess density has 196.000000 electrons

 -----------------------------------------------------------------------
  General SCF calculation program by
  Eric Jon Sundstrom, Paul Horn, Yuezhi Mao, Dmitri Zuev, Alec White,
  David Stuck, Shaama M.S., Shane Yost, Joonho Lee, David Small,
  Daniel Levine, Susi Lehtola, Hugh Burton, Evgeny Epifanovsky,
  Bang C. Huynh
 -----------------------------------------------------------------------
 Hartree-Fock
 using 64 threads for integral computing
 -------------------------------------------------------
 OpenMP Integral computing Module                
 Release: version 1.0, May 2013, Q-Chem Inc. Pittsburgh 
 -------------------------------------------------------
 A restricted SCF calculation will be
 performed using DIIS
 SCF converges when DIIS error is below 1.0e-06
 ---------------------------------------
  Cycle       Energy         DIIS error
 ---------------------------------------
    1   -1583.2862209024      1.87e-02  
    2   -1571.0995303407      2.02e-03  
    3   -1571.4382442069      1.53e-03  
    4   -1571.6562472453      2.56e-04  
    5   -1571.6703013880      7.86e-05  
    6   -1571.6717570959      3.12e-05  
    7   -1571.6722092499      1.64e-05  
    8   -1571.6723424170      6.93e-06  
    9   -1571.6723674474      3.05e-06  
   10   -1571.6723724997      1.30e-06  
   11   -1571.6723739188      6.03e-07  Convergence criterion met
 ---------------------------------------
 SCF time:   CPU 7171.81s  wall 271.00s 

************** Final PCM Free Energy Summary **************
 G_electrostatic  =      -0.02860814 hartree =     -17.95187898 kcal/mol
 G_cavitation     =       0.00000000 hartree =       0.00000000 kcal/mol
 G_dispersion     =       0.00000000 hartree =       0.00000000 kcal/mol
 G_repulsion      =       0.00000000 hartree =       0.00000000 kcal/mol
 --------------------------------------------------
 Non-electrostatic Free Energy =       0.00000000 hartree =       0.00000000 kcal/mol
 Total                         =      -0.02860814 hartree =     -17.95187898 kcal/mol
 --------------------------------------------------
 SCF Energy (H0 + V/2)                       =   -1571.67237392 
 Solute Internal Energy (H0)                 =   -1571.64376578 
 Total Free Energy (H0 + V/2 + non-elec)     =   -1571.67237392 hartree
                                             = -986239.29994308 kcal/mol
***********************************************************

 SCF   energy in the final basis set =    -1571.6723739188
 Total energy in the final basis set =    -1571.6723739188


 --------------------------------------------------------------
  Generalized many-body perturbation theory program
  by Joonho Lee, Fazle Rob, Xintian Feng, Evgeny Epifanovsky

 No regularization used 
 (reg. param. = 0.0000e+00)
  (P|Q)^-1/2 Time:  CPU 140.66 s  wall 2.88 s

 In RI-MP2 calculation: 
 # of frozen core orbitals: 31

 Components of the RIMP2 correlation energy:
        aaaa    correlation energy =        -0.6197186686 a.u.
        abab    correlation energy =        -3.4365989143 a.u.
        bbbb    correlation energy =        -0.6197186686 a.u.
        non-Brillouin singles      =        -0.0000000000 a.u.
        total same-spin energy     =        -1.2394373371 a.u.
        total opposite-spin energy =        -3.4365989143 a.u.

 Total  RIMP2   correlation energy =        -4.6760362514 a.u.
        RIMP2         total energy =     -1576.3484101702 a.u.

 RI-MP2 Energy Time:  CPU 2035.02 s  wall 33.75 s
 
 --------------------------------------------------------------
 
                    Orbital Energies (a.u.)
 --------------------------------------------------------------
 
 Alpha MOs
 -- Occupied --
-91.9712 -20.5579 -20.5460 -20.5402 -20.5401 -15.6305 -15.6208 -11.3998
-11.3867 -11.3823 -11.3786 -11.3097 -11.3081 -11.3075 -11.3044 -11.2975
-11.2863 -11.2806 -11.2690 -11.2689 -11.2668 -11.2647 -11.2638 -11.2592
-11.2570 -11.2524 -11.2418  -8.9715  -6.6519  -6.6506  -6.6498  -1.4314
 -1.4115  -1.4025  -1.3906  -1.2670  -1.2551  -1.2304  -1.1861  -1.1479
 -1.1143  -1.0846  -1.0477  -0.9948  -0.9887  -0.9803  -0.9557  -0.9479
 -0.8975  -0.8895  -0.8785  -0.8612  -0.7901  -0.7813  -0.7746  -0.7614
 -0.7303  -0.7237  -0.7016  -0.6905  -0.6873  -0.6757  -0.6683  -0.6581
 -0.6503  -0.6441  -0.6367  -0.6322  -0.6320  -0.6308  -0.6217  -0.6061
 -0.5900  -0.5722  -0.5680  -0.5626  -0.5602  -0.5550  -0.5522  -0.5487
 -0.5473  -0.5449  -0.5248  -0.5106  -0.5088  -0.4886  -0.4689  -0.4611
 -0.4543  -0.4432  -0.4365  -0.4212  -0.4073  -0.3920  -0.3539  -0.3432
 -0.3293  -0.2741
 -- Virtual --
  0.0118   0.0411   0.0807   0.0922   0.1410   0.1505   0.1585   0.1607
  0.1636   0.1729   0.1791   0.1822   0.1879   0.1919   0.1954   0.2040
  0.2154   0.2223   0.2281   0.2309   0.2331   0.2371   0.2624   0.2637
  0.2719   0.2811   0.3021   0.3035   0.3168   0.3223   0.3254   0.3281
  0.3408   0.3416   0.3459   0.3495   0.3561   0.3625   0.3650   0.3697
  0.3756   0.3804   0.3856   0.3904   0.3942   0.3957   0.4023   0.4129
  0.4191   0.4229   0.4281   0.4337   0.4396   0.4430   0.4449   0.4532
  0.4537   0.4569   0.4650   0.4693   0.4759   0.4872   0.4909   0.4939
  0.4995   0.5035   0.5052   0.5079   0.5162   0.5179   0.5233   0.5283
  0.5340   0.5398   0.5487   0.5529   0.5557   0.5599   0.5655   0.5658
  0.5722   0.5757   0.5826   0.5886   0.5913   0.5924   0.5980   0.5997
  0.6008   0.6082   0.6099   0.6132   0.6192   0.6204   0.6234   0.6273
  0.6313   0.6325   0.6373   0.6397   0.6407   0.6459   0.6475   0.6551
  0.6637   0.6748   0.6766   0.6864   0.6894   0.6926   0.6984   0.7053
  0.7063   0.7142   0.7292   0.7366   0.7406   0.7442   0.7616   0.7643
  0.7680   0.7707   0.7736   0.7767   0.7929   0.8001   0.8057   0.8072
  0.8090   0.8196   0.8204   0.8364   0.8378   0.8429   0.8430   0.8495
  0.8506   0.8558   0.8632   0.8704   0.8783   0.8818   0.8853   0.8945
  0.8988   0.9037   0.9077   0.9146   0.9189   0.9222   0.9272   0.9303
  0.9330   0.9371   0.9459   0.9581   0.9626   0.9676   0.9719   0.9823
  0.9865   0.9902   0.9955   1.0008   1.0068   1.0106   1.0134   1.0218
  1.0250   1.0352   1.0401   1.0455   1.0472   1.0531   1.0635   1.0661
  1.0724   1.0759   1.0792   1.0814   1.0860   1.0950   1.0985   1.1025
  1.1069   1.1112   1.1227   1.1267   1.1324   1.1354   1.1358   1.1457
  1.1525   1.1596   1.1641   1.1710   1.1737   1.1814   1.1830   1.1899
  1.1911   1.1999   1.2030   1.2077   1.2138   1.2173   1.2249   1.2353
  1.2374   1.2388   1.2431   1.2486   1.2560   1.2644   1.2702   1.2729
  1.2783   1.2918   1.2967   1.3124   1.3167   1.3302   1.3414   1.3436
  1.3478   1.3517   1.3577   1.3648   1.3707   1.3831   1.3876   1.3888
  1.3890   1.3965   1.3996   1.4100   1.4148   1.4182   1.4322   1.4394
  1.4504   1.4570   1.4600   1.4752   1.4789   1.4817   1.4884   1.4963
  1.5018   1.5052   1.5063   1.5147   1.5221   1.5292   1.5321   1.5349
  1.5472   1.5533   1.5568   1.5601   1.5686   1.5708   1.5756   1.5814
  1.5938   1.5980   1.5994   1.6103   1.6179   1.6222   1.6432   1.6460
  1.6487   1.6565   1.6615   1.6770   1.6873   1.6920   1.6977   1.7007
  1.7102   1.7170   1.7262   1.7378   1.7423   1.7464   1.7526   1.7551
  1.7653   1.7765   1.7865   1.7890   1.7966   1.8039   1.8134   1.8181
  1.8187   1.8321   1.8371   1.8518   1.8607   1.8674   1.8703   1.8712
  1.8754   1.8854   1.8875   1.9008   1.9193   1.9274   1.9422   1.9564
  1.9592   1.9665   1.9802   1.9928   1.9961   2.0004   2.0177   2.0211
  2.0419   2.0579   2.0628   2.0936   2.0976   2.1172   2.1202   2.1355
  2.1477   2.1508   2.1667   2.1837   2.1917   2.2003   2.2207   2.2275
  2.2341   2.2512   2.2672   2.2872   2.2906   2.2959   2.3015   2.3135
  2.3292   2.3302   2.3400   2.3498   2.3590   2.3679   2.3820   2.4075
  2.4142   2.4227   2.4395   2.4428   2.4574   2.4610   2.4616   2.4834
  2.4881   2.5003   2.5060   2.5189   2.5289   2.5418   2.5490   2.5586
  2.5666   2.5786   2.5837   2.5891   2.5969   2.6048   2.6098   2.6189
  2.6254   2.6406   2.6434   2.6500   2.6525   2.6698   2.6741   2.6793
  2.6805   2.6941   2.6987   2.7193   2.7259   2.7307   2.7403   2.7436
  2.7498   2.7565   2.7595   2.7685   2.7725   2.7846   2.7905   2.8115
  2.8179   2.8295   2.8393   2.8456   2.8564   2.8620   2.8670   2.8691
  2.8803   2.8836   2.8952   2.8987   2.9005   2.9042   2.9168   2.9184
  2.9234   2.9287   2.9359   2.9467   2.9540   2.9596   2.9716   2.9786
  2.9847   2.9916   3.0003   3.0042   3.0129   3.0215   3.0265   3.0328
  3.0377   3.0504   3.0529   3.0593   3.0744   3.0764   3.0802   3.0868
  3.0955   3.1009   3.1058   3.1075   3.1114   3.1179   3.1260   3.1310
  3.1330   3.1419   3.1484   3.1505   3.1600   3.1619   3.1740   3.1793
  3.1844   3.1883   3.1977   3.2054   3.2070   3.2110   3.2211   3.2285
  3.2301   3.2388   3.2415   3.2470   3.2515   3.2564   3.2612   3.2641
  3.2707   3.2773   3.2801   3.2834   3.2897   3.2998   3.3029   3.3087
  3.3117   3.3146   3.3173   3.3214   3.3246   3.3284   3.3357   3.3399
  3.3426   3.3510   3.3560   3.3602   3.3633   3.3657   3.3722   3.3805
  3.3833   3.3841   3.3881   3.3968   3.3985   3.4017   3.4102   3.4131
  3.4195   3.4259   3.4289   3.4347   3.4382   3.4431   3.4456   3.4526
  3.4590   3.4632   3.4708   3.4715   3.4753   3.4832   3.4891   3.4932
  3.4973   3.5015   3.5090   3.5132   3.5172   3.5204   3.5281   3.5329
  3.5369   3.5432   3.5499   3.5558   3.5624   3.5709   3.5762   3.5814
  3.5943   3.5974   3.5985   3.6057   3.6139   3.6208   3.6217   3.6279
  3.6351   3.6370   3.6403   3.6471   3.6482   3.6546   3.6610   3.6624
  3.6680   3.6808   3.6813   3.6942   3.6981   3.7015   3.7075   3.7175
  3.7217   3.7230   3.7363   3.7401   3.7422   3.7466   3.7547   3.7617
  3.7634   3.7696   3.7703   3.7770   3.7920   3.7977   3.8027   3.8040
  3.8079   3.8160   3.8227   3.8279   3.8329   3.8361   3.8413   3.8473
  3.8558   3.8622   3.8676   3.8794   3.8839   3.8937   3.9021   3.9144
  3.9165   3.9229   3.9297   3.9334   3.9465   3.9516   3.9579   3.9605
  3.9624   3.9748   3.9816   3.9873   3.9938   4.0005   4.0104   4.0135
  4.0187   4.0297   4.0326   4.0400   4.0464   4.0578   4.0667   4.0838
  4.0892   4.0954   4.1151   4.1242   4.1290   4.1322   4.1455   4.1502
  4.1525   4.1588   4.1662   4.1702   4.1750   4.1808   4.2025   4.2116
  4.2139   4.2347   4.2418   4.2443   4.2540   4.2558   4.2625   4.2645
  4.2767   4.2829   4.2885   4.2926   4.2944   4.2954   4.3041   4.3173
  4.3197   4.3284   4.3353   4.3405   4.3408   4.3458   4.3523   4.3595
  4.3648   4.3691   4.3704   4.3788   4.3831   4.3871   4.3918   4.4007
  4.4107   4.4136   4.4174   4.4265   4.4365   4.4461   4.4505   4.4635
  4.4674   4.4913   4.4982   4.4989   4.5104   4.5153   4.5248   4.5359
  4.5379   4.5443   4.5554   4.5613   4.5681   4.5743   4.5834   4.5884
  4.5940   4.6023   4.6119   4.6223   4.6231   4.6262   4.6308   4.6354
  4.6517   4.6698   4.6715   4.6822   4.6864   4.7000   4.7066   4.7139
  4.7301   4.7426   4.7451   4.7746   4.7859   4.7904   4.7933   4.8053
  4.8282   4.8357   4.8399   4.8462   4.8486   4.8628   4.8766   4.8820
  4.8937   4.8945   4.9189   4.9275   4.9403   4.9504   4.9675   4.9859
  4.9946   5.0015   5.0142   5.0256   5.0347   5.0371   5.0486   5.0667
  5.0796   5.0967   5.1108   5.1225   5.1250   5.1272   5.1336   5.1362
  5.1534   5.1612   5.1742   5.1897   5.1926   5.2021   5.2126   5.2276
  5.2551   5.2620   5.2807   5.2852   5.3027   5.3062   5.3195   5.3306
  5.3310   5.3365   5.3583   5.3684   5.3785   5.3912   5.4039   5.4155
  5.4366   5.4567   5.4803   5.4884   5.4994   5.5121   5.5129   5.5147
  5.5173   5.5363   5.5501   5.5553   5.5593   5.5649   5.5675   5.5745
  5.5811   5.5867   5.5927   5.6029   5.6101   5.6254   5.6277   5.6319
  5.6470   5.6499   5.6608   5.6622   5.6670   5.6727   5.6942   5.6993
  5.7099   5.7142   5.7355   5.7421   5.7587   5.7625   5.7695   5.7751
  5.7877   5.7923   5.8139   5.8304   5.8486   5.8730   5.8991   5.9071
  5.9303   5.9513   5.9740   5.9904   5.9975   6.0232   6.0351   6.0406
  6.0463   6.0520   6.1086   6.1119   6.1240   6.1422   6.1546   6.1872
  6.1949   6.2192   6.2230   6.2258   6.2480   6.2518   6.2810   6.2836
  6.3039   6.3109   6.3240   6.3482   6.3696   6.3862   6.4179   6.4870
  6.5241   6.5368   6.5706   6.5835   6.5983   6.6228   6.6267   6.6562
  6.6736   6.6788   6.8502   6.8530   6.8906   6.9032   6.9066   6.9263
  6.9283   7.0286   7.1066   7.1342   7.1613   7.1947   7.2165   7.2640
  7.3477   7.3522   7.3592   7.3676   7.4747   7.5416   7.5720   7.5839
  7.5953   7.6395   7.6559   7.6914   7.6959   7.7246   8.8773  10.1163
 10.3179  11.2923  11.5449  11.8017  11.9868  12.2620  12.4465  12.5005
 12.9517  13.2267  13.3167  13.5658  13.8114  13.9350  14.0877  14.2940
 14.3273  14.3701  14.5620  14.6029  15.0009  15.6225  15.8006  16.3272
 --------------------------------------------------------------
 
          Ground-State Mulliken Net Atomic Charges

     Atom                 Charge (a.u.)
  ----------------------------------------
      1 C                    -0.084487
      2 C                    -0.030151
      3 C                    -0.112089
      4 C                    -0.121868
      5 H                     0.199010
      6 C                     0.020385
      7 C                     0.114878
      8 C                    -0.088919
      9 C                    -0.187766
     10 C                    -0.136892
     11 C                     0.175807
     12 H                     0.188062
     13 C                     0.340286
     14 C                     0.348344
     15 N                    -0.089591
     16 C                     0.357320
     17 C                     0.382888
     18 N                    -0.088000
     19 O                    -0.497045
     20 O                    -0.510864
     21 O                    -0.499888
     22 O                    -0.460428
     23 C                    -0.205289
     24 H                     0.139550
     25 H                     0.108995
     26 H                     0.108817
     27 C                    -0.198239
     28 H                     0.134869
     29 H                     0.112185
     30 H                     0.113100
     31 C                    -0.022200
     32 S                     0.085073
     33 C                    -0.233892
     34 C                    -0.202175
     35 C                    -0.220349
     36 H                     0.184798
     37 H                     0.183988
     38 H                     0.203096
     39 H                     0.136981
     40 H                     0.137372
     41 H                     0.214327
  ----------------------------------------
  Sum of atomic charges =     0.000000

 -----------------------------------------------------------------
                    Cartesian Multipole Moments
 -----------------------------------------------------------------
    Charge (ESU x 10^10)
                 0.0000
    Dipole Moment (Debye)
         X      -0.1794      Y       1.3858      Z       0.9884
       Tot       1.7116
    Quadrupole Moments (Debye-Ang)
        XX    -159.6836     XY       7.6990     YY    -184.7270
        XZ       5.7548     YZ      -9.8842     ZZ    -186.0674
    Octopole Moments (Debye-Ang^2)
       XXX     -79.6864    XXY     484.8359    XYY     -28.1323
       YYY    1706.5112    XXZ     -28.9707    XYZ     -19.8557
       YYZ      39.3108    XZZ     -22.0226    YZZ     610.2293
       ZZZ     -88.2652
    Hexadecapole Moments (Debye-Ang^3)
      XXXX    -587.6638   XXXY     -45.5714   XXYY   -2665.8553
      XYYY     116.8405   YYYY  -18018.8759   XXXZ     466.0039
      XXYZ    -120.7307   XYYZ     316.8945   YYYZ   -1227.0948
      XXZZ   -1107.6261   XYZZ     -58.3566   YYZZ   -4430.7248
      XZZZ     531.4462   YZZZ    -113.2468   ZZZZ   -6404.8900
 -----------------------------------------------------------------
 Total job time:  309.41s(wall), 9316.64s(cpu) 
 Wed Dec 27 11:35:15 2023

        *************************************************************
        *                                                           *
        *  Thank you very much for using Q-Chem.  Have a nice day.  *
        *                                                           *
        *************************************************************


0 sent ACK to 0 
now end server 0 ... 
cleanup process ... done
remove work dirs ./qchem3762398.0 -- ./qchem3762398.0
rm -rf ./qchem3762398.0
rm -rf ./qchem3762398
