You are running Q-Chem version: 5.4.0

#
# job setting
#
local host:  exp-2-30
current dir: /expanse/lustre/projects/csd626/rramji/aromodel/impropers-p3ht/Improper_Bend_Test
input file:  Methylcarbonyl_3_Fluoro_Thienothiophene_Improper_Bend_Methyl_Phi_0.qcin
output file: 
nprocs     : 1
nthreads   : 64
#
# qchem installation setting
#
QC:          /cm/shared/apps/spack/cpu/opt/spack/linux-centos8-zen2/gcc-10.2.0/qchem-5.4-akfmr7b3t57bfs6qan3padb2wnb2i7cl
QCAUX:       /cm/shared/apps/spack/cpu/opt/spack/linux-centos8-zen2/gcc-10.2.0/qchem-5.4-akfmr7b3t57bfs6qan3padb2wnb2i7cl/qcaux
QCPROG:      /cm/shared/apps/spack/cpu/opt/spack/linux-centos8-zen2/gcc-10.2.0/qchem-5.4-akfmr7b3t57bfs6qan3padb2wnb2i7cl/exe/qcprog.exe
QCPROG_S:    /cm/shared/apps/spack/cpu/opt/spack/linux-centos8-zen2/gcc-10.2.0/qchem-5.4-akfmr7b3t57bfs6qan3padb2wnb2i7cl/exe/qcprog.exe_s
PARALLEL:    -DPARALLEL
QCMPI:       mpich
#
# qchem directory setting
#
qcrun:       qchem1319209
QCSCRATCH:   .
QCLOCALSCR:  
QCTMPDIR:    .
QCFILEPREF:  ./qchem1319209
QCSAVEDIR:   
workdirs:    ./qchem1319209
workdir0:    ./qchem1319209
partmpdirs =  
#
# parallel setting
#
QCRSH:           ssh
QCMPI:           mpich
QCMPIRUN:        /cm/shared/apps/spack/cpu/opt/spack/linux-centos8-zen2/gcc-10.2.0/qchem-5.4-akfmr7b3t57bfs6qan3padb2wnb2i7cl/bin/mpi/mpirun_qchem
QCMACHINEFILE:   ./qchem1319209/hostfile
exp-2-30

#
# env setting
#
exported envs:   QC QCAUX QCSCRATCH QCRUNNAME QCFILEPREF QCPROG QCPROG_S GUIFILE

Running Job 1 of 1 Methylcarbonyl_3_Fluoro_Thienothiophene_Improper_Bend_Methyl_Phi_0.qcin
qchem Methylcarbonyl_3_Fluoro_Thienothiophene_Improper_Bend_Methyl_Phi_0.qcin_1319209.0 ./qchem1319209/ 1
/cm/shared/apps/spack/cpu/opt/spack/linux-centos8-zen2/gcc-10.2.0/qchem-5.4-akfmr7b3t57bfs6qan3padb2wnb2i7cl/bin/mpi/mpirun_qchem -machinefile ./qchem1319209/hostfile -np 1 /cm/shared/apps/spack/cpu/opt/spack/linux-centos8-zen2/gcc-10.2.0/qchem-5.4-akfmr7b3t57bfs6qan3padb2wnb2i7cl/exe/qcprog.exe Methylcarbonyl_3_Fluoro_Thienothiophene_Improper_Bend_Methyl_Phi_0.qcin_1319209.0 ./qchem1319209/

Process 0 of 1 is on exp-2-30 - thread support 0
initial socket setup ...start
initial socket setup ...done 
now start server 0 ... 
                  Welcome to Q-Chem
     A Quantum Leap Into The Future Of Chemistry


 Q-Chem 5.4, Q-Chem, Inc., Pleasanton, CA (2021)

 License issued to: University of California, San Diego (site)

 E. Epifanovsky,  A. T. B. Gilbert,  Xintian Feng,  Joonho Lee,  Yuezhi Mao,  
 N. Mardirossian,  P. Pokhilko,  A. White,  M. Wormit,  M. P. Coons,  
 A. L. Dempwolff,  Zhengting Gan,  D. Hait,  P. R. Horn,  L. D. Jacobson,  
 I. Kaliman,  J. Kussmann,  A. W. Lange,  Ka Un Lao,  D. S. Levine,  Jie Liu,  
 S. C. McKenzie,  A. F. Morrison,  K. Nanda,  F. Plasser,  D. R. Rehn,  
 M. L. Vidal,  Zhi-Qiang You,  Ying Zhu,  B. Alam,  B. Albrecht,  
 A. Aldossary,  E. Alguire,  J. H. Andersen,  D. Barton,  K. Begam,  A. Behn,  
 Y. A. Bernard,  E. J. Berquist,  H. Burton,  A. Carreras,  K. Carter-Fenk,  
 R. Chakraborty,  A. D. Chien,  K. D. Closser,  V. Cofer-Shabica,  
 S. Dasgupta,  Jia Deng,  M. de Wergifosse,  M. Diedenhofen,  Hainam Do,  
 S. Ehlert,  Po-Tung Fang,  S. Fatehi,  Qingguo Feng,  J. Gayvert,  
 Qinghui Ge,  G. Gidofalvi,  M. Goldey,  J. Gomes,  C. Gonzalez-Espinoza,  
 S. Gulania,  A. Gunina,  M. W. D. Hanson-Heine,  P. H. P. Harbach,  
 A. W. Hauser,  M. F. Herbst,  M. Hernandez Vera,  M. Hodecker,  
 Z. C. Holden,  S. Houck,  Xunkun Huang,  Kerwin Hui,  B. C. Huynh,  
 M. Ivanov,  Hyunjun Ji,  Hanjie Jiang,  B. Kaduk,  S. Kaehler,  
 K. Khistyaev,  Jaehoon Kim,  P. Klunzinger,  Z. Koczor-Benda,  
 Joong Hoon Koh,  D. Kosenkov,  L. Koulias,  T. Kowalczyk,  C. M. Krauter,  
 K. Kue,  A. Kunitsa,  T. Kus,  A. Landau,  K. V. Lawler,  D. Lefrancois,  
 S. Lehtola,  Rain Li,  Yi-Pei Li,  Jiashu Liang,  M. Liebenthal,  
 Hung-Hsuan Lin,  You-Sheng Lin,  Fenglai Liu,  Kuan-Yu Liu,  
 M. Loipersberger,  A. Luenser,  A. Manjanath,  P. Manohar,  E. Mansoor,  
 S. F. Manzer,  Shan-Ping Mao,  A. V. Marenich,  T. Markovich,  S. Mason,  
 S. A. Maurer,  P. F. McLaughlin,  M. F. S. J. Menger,  J.-M. Mewes,  
 S. A. Mewes,  P. Morgante,  J. W. Mullinax,  T. S. Nguyen-Beck,  
 K. J. Oosterbaan,  G. Paran,  Alexander C. Paul,  Suranjan K. Paul,  
 F. Pavosevic,  Zheng Pei,  S. Prager,  E. I. Proynov,  E. Ramos,  B. Rana,  
 A. E. Rask,  A. Rettig,  R. M. Richard,  F. Rob,  E. Rossomme,  T. Scheele,  
 M. Scheurer,  M. Schneider,  N. Sergueev,  S. M. Sharada,  W. Skomorowski,  
 D. W. Small,  C. J. Stein,  Yu-Chuan Su,  E. J. Sundstrom,  Zhen Tao,  
 J. Thirman,  T. Tsuchimochi,  N. M. Tubman,  S. P. Veccham,  O. Vydrov,  
 J. Wenzel,  J. Witte,  A. Yamada,  Kun Yao,  S. Yeganeh,  S. R. Yost,  
 A. Zech,  Igor Ying Zhang,  Xing Zhang,  Yu Zhang,  D. Zuev,  
 A. Aspuru-Guzik,  A. T. Bell,  N. A. Besley,  K. B. Bravaya,  B. R. Brooks,  
 D. Casanova,  Jeng-Da Chai,  S. Coriani,  C. J. Cramer,  
 A. E. DePrince, III,  R. A. DiStasio Jr.,  A. Dreuw,  B. D. Dunietz,  
 T. R. Furlani,  W. A. Goddard III,  S. Grimme,  S. Hammes-Schiffer,  
 T. Head-Gordon,  W. J. Hehre,  Chao-Ping Hsu,  T.-C. Jagau,  Yousung Jung,  
 A. Klamt,  Jing Kong,  D. S. Lambrecht,  WanZhen Liang,  N. J. Mayhall,  
 C. W. McCurdy,  J. B. Neaton,  C. Ochsenfeld,  J. A. Parkhill,  R. Peverati,  
 V. A. Rassolov,  Yihan Shao,  L. V. Slipchenko,  T. Stauch,  R. P. Steele,  
 J. E. Subotnik,  A. J. W. Thom,  A. Tkatchenko,  D. G. Truhlar,  
 T. Van Voorhis,  T. A. Wesolowski,  K. B. Whaley,  H. L. Woodcock III,  
 P. M. Zimmerman,  S. Faraji,  P. M. W. Gill,  M. Head-Gordon,  
 J. M. Herbert,  A. I. Krylov

 Contributors to earlier versions of Q-Chem not listed above: 
 R. D. Adamson,  B. Austin,  R. Baer,  J. Baker,  G. J. O. Beran,  
 K. Brandhorst,  S. T. Brown,  E. F. C. Byrd,  A. K. Chakraborty,  
 G. K. L. Chan,  Chun-Min Chang,  Yunqing Chen,  C.-L. Cheng,  
 Siu Hung Chien,  D. M. Chipman,  D. L. Crittenden,  H. Dachsel,  
 R. J. Doerksen,  A. D. Dutoi,  R. G. Edgar,  J. Fosso-Tande,  
 L. Fusti-Molnar,  D. Ghosh,  A. Ghysels,  A. Golubeva-Zadorozhnaya,  
 J. Gonthier,  M. S. Gordon,  S. R. Gwaltney,  G. Hawkins,  J. E. Herr,  
 A. Heyden,  S. Hirata,  E. G. Hohenstein,  G. Kedziora,  F. J. Keil,  
 C. Kelley,  Jihan Kim,  R. A. King,  R. Z. Khaliullin,  P. P. Korambath,  
 W. Kurlancheek,  A. Laurent,  A. M. Lee,  M. S. Lee,  S. V. Levchenko,  
 Ching Yeh Lin,  D. Liotard,  E. Livshits,  R. C. Lochan,  I. Lotan,  
 L. A. Martinez-Martinez,  P. E. Maslen,  N. Nair,  D. P. O'Neill,  
 D. Neuhauser,  E. Neuscamman,  C. M. Oana,  R. Olivares-Amaya,  R. Olson,  
 T. M. Perrine,  B. Peters,  P. A. Pieniazek,  A. Prociuk,  Y. M. Rhee,  
 J. Ritchie,  M. A. Rohrdanz,  E. Rosta,  N. J. Russ,  H. F. Schaefer III,  
 M. W. Schmidt,  N. E. Schultz,  S. Sharma,  N. Shenvi,  C. D. Sherrill,  
 A. C. Simmonett,  A. Sodt,  T. Stein,  D. Stuck,  K. S. Thanthiriwatte,  
 V. Vanovschi,  L. Vogt,  Tao Wang,  A. Warshel,  M. A. Watson,  
 C. F. Williams,  Q. Wu,  X. Xu,  Jun Yang,  W. Zhang,  Yan Zhao

 Please cite Q-Chem as follows:
 Y. Shao et al., Mol. Phys. 113, 184-215 (2015)
 DOI: 10.1080/00268976.2014.952696

 Q-Chem 5.4.0 for Intel X86 EM64T Linux

 Parts of Q-Chem use Armadillo 9.800.1 (Horizon Scraper).
 http://arma.sourceforge.net/

 Q-Chem begins on Fri Mar  1 10:01:46 2024  

 Host: 
0

     Scratch files written to ./qchem1319209//
 May1621 |scratch|qcdevops|jenkins|workspace|build_RNUM    
 Parallel job on  1  processors
 Processing $rem in /cm/shared/apps/spack/cpu/opt/spack/linux-centos8-zen2/gcc-10.2.0/qchem-5.4-akfmr7b3t57bfs6qan3padb2wnb2i7cl/config/preferences:
 Processing $rem in /home/rramji/.qchemrc:
 Symmetry turned off for PCM/SM12/SMD calculation
 Core orbitals will be frozen

 Checking the input file for inconsistencies... 	...done.

 Q-Chem warning in module forms1/BasisType.C, line 2236:

 You are not using the predefined 5D/6D in this basis set.


--------------------------------------------------------------
User input:
--------------------------------------------------------------
$molecule
0 1
C	0.000344	0.991323	-0.975913
S	0.000818	0.086559	-2.483454
C	0.000049	-1.485982	-1.694786
C	0.001096	0.086876	0.091959
C	-0.001216	-1.303270	-0.289503
S	0.003946	0.330451	1.829603
C	-0.001584	-1.421223	2.078617
C	-0.004037	-2.129531	0.886638
F	-0.008841	-3.466180	0.843175
C	0.000306	-1.869247	3.480171
O	0.008288	-1.099401	4.430597
O	-0.007157	-3.219769	3.593312
C	-0.001934	-3.714854	4.940294
H	-0.008921	-4.815884	4.857151
H	-0.895037	-3.361552	5.494255
H	0.901865	-3.371978	5.483380
C	0.000344	2.426508	-0.975913
H	-1.007923	2.813546	-0.975913
H	0.504477	2.813546	-1.849098
H	0.504477	2.813546	-0.102728
H	-0.001364	-2.410239	-2.282399
$end

$rem
JOBTYPE		SP
EXCHANGE	HF
CORRELATION	pRIMP2
BASIS		cc-pvtz
METHOD		rimp2
AUX_BASIS	rimp2-cc-pvtz
SOLVENT_METHOD	PCM
PURECART	11111
SYMMETRY	false
MEM_TOTAL	110000
SCF_CONVERGENCE = 6
THRESH=10
GUI = 2
$end



$solvent
dielectric 4.90
$end
--------------------------------------------------------------
 ----------------------------------------------------------------
             Standard Nuclear Orientation (Angstroms)
    I     Atom           X                Y                Z
 ----------------------------------------------------------------
    1      C       0.0003440000     0.9913230000    -0.9759130000
    2      S       0.0008180000     0.0865590000    -2.4834540000
    3      C       0.0000490000    -1.4859820000    -1.6947860000
    4      C       0.0010960000     0.0868760000     0.0919590000
    5      C      -0.0012160000    -1.3032700000    -0.2895030000
    6      S       0.0039460000     0.3304510000     1.8296030000
    7      C      -0.0015840000    -1.4212230000     2.0786170000
    8      C      -0.0040370000    -2.1295310000     0.8866380000
    9      F      -0.0088410000    -3.4661800000     0.8431750000
   10      C       0.0003060000    -1.8692470000     3.4801710000
   11      O       0.0082880000    -1.0994010000     4.4305970000
   12      O      -0.0071570000    -3.2197690000     3.5933120000
   13      C      -0.0019340000    -3.7148540000     4.9402940000
   14      H      -0.0089210000    -4.8158840000     4.8571510000
   15      H      -0.8950370000    -3.3615520000     5.4942550000
   16      H       0.9018650000    -3.3719780000     5.4833800000
   17      C       0.0003440000     2.4265080000    -0.9759130000
   18      H      -1.0079230000     2.8135460000    -0.9759130000
   19      H       0.5044770000     2.8135460000    -1.8490980000
   20      H       0.5044770000     2.8135460000    -0.1027280000
   21      H      -0.0013640000    -2.4102390000    -2.2823990000
 ----------------------------------------------------------------
 Nuclear Repulsion Energy =        1082.67335473 hartrees
 There are       59 alpha and       59 beta electrons
 Requested basis set is cc-pVTZ
 There are 186 shells and 526 basis functions

 Total QAlloc Memory Limit 110000 MB
 Mega-Array Size       188 MB
 MEM_STATIC part       192 MB
 Discretize the solute cavity surface with Lebedev spheres
	Using 110 Lebedev grid points for each H atom
	Using 194 Lebedev grid points for other atoms
	Atomic van der Waals radii will be scaled by 1.20
 Remove points where switching function is < 1.0e-08
 Keep 1561 surface tesserae and discard 1925 interior tesserae
 Molecular Surface Area = 243.646 Angst**2
 Requested basis set is rimp2-cc-pVTZ
 There are 410 shells and 1426 basis functions
 A cutoff of  1.0D-10 yielded  11503 shell pairs
 There are     90247 function pairs (    118117 Cartesian)
 Smallest overlap matrix eigenvalue = 5.81E-05

 Scale SEOQF with 1.000000e+00/1.000000e-01/1.000000e-02

 Standard Electronic Orientation quadrupole field applied
 Nucleus-field energy     =     0.0000000273 hartrees
 Guess from superposition of atomic densities
 Warning:  Energy on first SCF cycle will be non-variational
 SAD guess density has 118.000000 electrons

 -----------------------------------------------------------------------
  General SCF calculation program by
  Eric Jon Sundstrom, Paul Horn, Yuezhi Mao, Dmitri Zuev, Alec White,
  David Stuck, Shaama M.S., Shane Yost, Joonho Lee, David Small,
  Daniel Levine, Susi Lehtola, Hugh Burton, Evgeny Epifanovsky,
  Bang C. Huynh
 -----------------------------------------------------------------------
 Hartree-Fock
 using 64 threads for integral computing
 -------------------------------------------------------
 OpenMP Integral computing Module                
 Release: version 1.0, May 2013, Q-Chem Inc. Pittsburgh 
 -------------------------------------------------------
 A restricted SCF calculation will be
 performed using DIIS
 SCF converges when DIIS error is below 1.0e-06
 ---------------------------------------
  Cycle       Energy         DIIS error
 ---------------------------------------
    1   -1394.1852413902      2.46e-02  
    2   -1389.0853808996      2.47e-03  
    3   -1389.2545357467      1.53e-03  
    4   -1389.3134867568      3.54e-04  
    5   -1389.3192383324      1.11e-04  
    6   -1389.3199095736      3.62e-05  
    7   -1389.3200557332      1.82e-05  
    8   -1389.3201064289      7.06e-06  
    9   -1389.3201171130      3.04e-06  
   10   -1389.3201185406      1.13e-06  
   11   -1389.3201187582      5.07e-07  Convergence criterion met
 ---------------------------------------
 SCF time:   CPU 1772.09s  wall 54.00s 

************** Final PCM Free Energy Summary **************
 G_electrostatic  =      -0.01186461 hartree =      -7.44515820 kcal/mol
 G_cavitation     =       0.00000000 hartree =       0.00000000 kcal/mol
 G_dispersion     =       0.00000000 hartree =       0.00000000 kcal/mol
 G_repulsion      =       0.00000000 hartree =       0.00000000 kcal/mol
 --------------------------------------------------
 Non-electrostatic Free Energy =       0.00000000 hartree =       0.00000000 kcal/mol
 Total                         =      -0.01186461 hartree =      -7.44515820 kcal/mol
 --------------------------------------------------
 SCF Energy (H0 + V/2)                       =   -1389.32011876 
 Solute Internal Energy (H0)                 =   -1389.30825414 
 Total Free Energy (H0 + V/2 + non-elec)     =   -1389.32011876 hartree
                                             = -871811.53277160 kcal/mol
***********************************************************

 SCF   energy in the final basis set =    -1389.3201187582
 Total energy in the final basis set =    -1389.3201187582


 --------------------------------------------------------------
  Generalized many-body perturbation theory program
  by Joonho Lee, Fazle Rob, Xintian Feng, Evgeny Epifanovsky

 No regularization used 
 (reg. param. = 0.0000e+00)
  (P|Q)^-1/2 Time:  CPU 40.09 s  wall 0.72 s

 In RI-MP2 calculation: 
 # of frozen core orbitals: 22

 Components of the RIMP2 correlation energy:
        aaaa    correlation energy =        -0.3268023289 a.u.
        abab    correlation energy =        -1.8436408401 a.u.
        bbbb    correlation energy =        -0.3268023289 a.u.
        non-Brillouin singles      =        -0.0000000000 a.u.
        total same-spin energy     =        -0.6536046579 a.u.
        total opposite-spin energy =        -1.8436408401 a.u.

 Total  RIMP2   correlation energy =        -2.4972454979 a.u.
        RIMP2         total energy =     -1391.8173642561 a.u.

 RI-MP2 Energy Time:  CPU 556.93 s  wall 9.98 s
 
 --------------------------------------------------------------
 
                    Orbital Energies (a.u.)
 --------------------------------------------------------------
 
 Alpha MOs
 -- Occupied --
-92.0059 -91.9914 -26.3402 -20.6134 -20.5595 -11.4073 -11.3782 -11.2963
-11.2941 -11.2880 -11.2879 -11.2842 -11.2781 -11.2285  -9.0047  -8.9916
 -6.6855  -6.6849  -6.6844  -6.6726  -6.6719  -6.6708  -1.6575  -1.4657
 -1.3683  -1.2110  -1.1339  -1.0605  -1.0182  -0.9912  -0.9578  -0.9086
 -0.8628  -0.8044  -0.7880  -0.7573  -0.7250  -0.7224  -0.6900  -0.6831
 -0.6725  -0.6584  -0.6099  -0.6048  -0.5940  -0.5710  -0.5655  -0.5588
 -0.5377  -0.5305  -0.5205  -0.4989  -0.4729  -0.4711  -0.4696  -0.4636
 -0.3901  -0.3447  -0.2881
 -- Virtual --
  0.0412   0.1262   0.1328   0.1542   0.1579   0.1768   0.1867   0.1970
  0.2127   0.2157   0.2211   0.2296   0.2354   0.2420   0.2516   0.2704
  0.2835   0.3087   0.3176   0.3407   0.3501   0.3716   0.3767   0.3798
  0.3851   0.3943   0.4054   0.4086   0.4195   0.4318   0.4374   0.4477
  0.4530   0.4660   0.4766   0.4912   0.5035   0.5047   0.5109   0.5203
  0.5223   0.5335   0.5446   0.5461   0.5536   0.5608   0.5718   0.5848
  0.5865   0.5925   0.6032   0.6157   0.6184   0.6226   0.6247   0.6270
  0.6454   0.6473   0.6607   0.6616   0.6690   0.6770   0.6949   0.7053
  0.7131   0.7206   0.7296   0.7420   0.7557   0.7726   0.7780   0.8084
  0.8154   0.8205   0.8304   0.8481   0.8633   0.8687   0.8766   0.8803
  0.8859   0.8963   0.9099   0.9198   0.9523   0.9561   0.9702   0.9731
  0.9832   0.9918   1.0001   1.0167   1.0217   1.0320   1.0517   1.0542
  1.0601   1.0751   1.0844   1.0954   1.1037   1.1090   1.1153   1.1176
  1.1259   1.1543   1.1661   1.1810   1.1839   1.1933   1.2067   1.2106
  1.2180   1.2383   1.2442   1.2548   1.2654   1.2700   1.2930   1.3086
  1.3146   1.3308   1.3332   1.3597   1.3910   1.3922   1.3947   1.4133
  1.4241   1.4382   1.4491   1.4638   1.4791   1.4912   1.5020   1.5047
  1.5151   1.5368   1.5412   1.5429   1.5618   1.5670   1.5776   1.6048
  1.6239   1.6359   1.6576   1.6625   1.6706   1.6923   1.7062   1.7160
  1.7372   1.7643   1.7968   1.8094   1.8214   1.8297   1.8358   1.8575
  1.8603   1.8787   1.8970   1.9014   1.9084   1.9408   1.9455   1.9646
  1.9936   2.0046   2.0167   2.0227   2.0585   2.0847   2.0880   2.1020
  2.1199   2.1593   2.1721   2.1975   2.1983   2.2019   2.2184   2.2253
  2.2318   2.2487   2.2553   2.2813   2.2954   2.3057   2.3320   2.3484
  2.3618   2.3726   2.3758   2.4093   2.4292   2.4383   2.4767   2.4883
  2.4993   2.5380   2.5438   2.5570   2.5759   2.5979   2.6117   2.6207
  2.6396   2.6481   2.6657   2.6717   2.6832   2.6942   2.7008   2.7063
  2.7232   2.7375   2.7425   2.7794   2.7986   2.7996   2.8089   2.8192
  2.8368   2.8566   2.8604   2.8832   2.9068   2.9179   2.9421   2.9590
  2.9740   2.9824   2.9891   2.9939   3.0243   3.0363   3.0679   3.0716
  3.0833   3.0993   3.1017   3.1171   3.1294   3.1352   3.1480   3.1606
  3.1718   3.1973   3.2009   3.2142   3.2271   3.2330   3.2474   3.2478
  3.2553   3.2733   3.2749   3.2867   3.2945   3.3132   3.3207   3.3236
  3.3335   3.3500   3.3640   3.3691   3.3759   3.3903   3.4022   3.4108
  3.4197   3.4320   3.4449   3.4547   3.4566   3.4638   3.4779   3.4844
  3.4867   3.4993   3.5220   3.5394   3.5518   3.5549   3.5678   3.5760
  3.5800   3.5900   3.6018   3.6168   3.6341   3.6379   3.6535   3.6716
  3.6723   3.6829   3.6896   3.7029   3.7074   3.7200   3.7312   3.7395
  3.7509   3.7781   3.7819   3.7903   3.8121   3.8129   3.8204   3.8228
  3.8294   3.8628   3.8689   3.8852   3.8947   3.9041   3.9323   3.9439
  3.9539   3.9599   3.9760   3.9882   4.0090   4.0136   4.0547   4.0674
  4.0731   4.0894   4.1046   4.1118   4.1240   4.1586   4.1656   4.1673
  4.1760   4.2065   4.2314   4.2561   4.2647   4.2939   4.3073   4.3173
  4.3378   4.3427   4.3604   4.3668   4.3910   4.4066   4.4180   4.4265
  4.4358   4.4398   4.4624   4.5170   4.5283   4.5452   4.5724   4.5825
  4.5910   4.6027   4.6415   4.6503   4.6684   4.6841   4.6916   4.7230
  4.7534   4.7697   4.7841   4.8270   4.8533   4.8821   4.9121   4.9191
  4.9263   4.9842   5.0071   5.0098   5.0184   5.0491   5.1108   5.1314
  5.1997   5.2065   5.2512   5.2530   5.2577   5.2655   5.3328   5.3530
  5.3753   5.4105   5.4271   5.4601   5.4721   5.4857   5.5166   5.5303
  5.5513   5.5812   5.5848   5.6220   5.6233   5.6620   5.6714   5.7223
  5.7378   5.7525   5.7661   5.8089   5.8340   5.9136   5.9307   5.9781
  6.0433   6.0724   6.1514   6.1781   6.2251   6.2554   6.2626   6.2728
  6.3419   6.4516   6.5387   6.6033   6.6622   6.6728   6.7476   6.8315
  6.8611   6.9797   7.2053   7.2070   7.3114   7.3653   7.3659   7.4078
  7.4147   7.4884   7.5259   7.5525   7.6161   7.7759   7.7889   7.8880
  7.9522   8.1334   8.1726   8.9247   9.0114   9.3656   9.4562   9.6354
 10.0377  11.0233  11.5772  11.8036  12.4065  12.9453  13.0869  13.3859
 13.7710  14.0309  14.9155
 --------------------------------------------------------------
 
          Ground-State Mulliken Net Atomic Charges

     Atom                 Charge (a.u.)
  ----------------------------------------
      1 C                     0.029685
      2 S                     0.073105
      3 C                    -0.215355
      4 C                    -0.024827
      5 C                    -0.093165
      6 S                    -0.011199
      7 C                    -0.157134
      8 C                     0.388516
      9 F                    -0.208702
     10 C                     0.445374
     11 O                    -0.462603
     12 O                    -0.300865
     13 C                    -0.058677
     14 H                     0.121085
     15 H                     0.094728
     16 H                     0.094676
     17 C                    -0.284451
     18 H                     0.122407
     19 H                     0.117408
     20 H                     0.116806
     21 H                     0.213188
  ----------------------------------------
  Sum of atomic charges =     0.000000

 -----------------------------------------------------------------
                    Cartesian Multipole Moments
 -----------------------------------------------------------------
    Charge (ESU x 10^10)
                -0.0000
    Dipole Moment (Debye)
         X      -0.0173      Y      -0.4291      Z      -3.2710
       Tot       3.2990
    Quadrupole Moments (Debye-Ang)
        XX     -96.3799     XY       0.0175     YY     -81.6378
        XZ      -0.0533     YZ     -10.2419     ZZ     -96.4244
    Octopole Moments (Debye-Ang^2)
       XXX      -0.6590    XXY      82.4096    XYY       0.3989
       YYY     236.6301    XXZ     -80.4638    XYZ      -0.0789
       YYZ     -48.9050    XZZ       0.3369    YZZ       4.9660
       ZZZ    -271.8324
    Hexadecapole Moments (Debye-Ang^3)
      XXXX    -120.4204   XXXY      -3.0356   XXYY    -386.1654
      XYYY      -0.4395   YYYY   -2079.2797   XXXZ       0.6804
      XXYZ     282.1640   XYYZ      -0.0819   YYYZ     680.3722
      XXZZ    -637.8063   XYZZ       1.8841   YYZZ    -630.3400
      XZZZ      -3.8756   YZZZ     520.0963   ZZZZ   -3708.6566
 -----------------------------------------------------------------
 Total job time:  67.71s(wall), 2452.31s(cpu) 
 Fri Mar  1 10:02:54 2024

        *************************************************************
        *                                                           *
        *  Thank you very much for using Q-Chem.  Have a nice day.  *
        *                                                           *
        *************************************************************


0 sent ACK to 0 
now end server 0 ... 
cleanup process ... done
remove work dirs ./qchem1319209.0 -- ./qchem1319209.0
rm -rf ./qchem1319209.0
rm -rf ./qchem1319209
