You are running Q-Chem version: 5.4.0

#
# job setting
#
local host:  exp-4-19
current dir: /home/rramji/project-csd799/aromodel/ptb7fout-qchem/hydrogenated-rotation-run
input file:  Dimethoxy_Benzodithiophene_Phi_25_Theta_90_Methylcarbonyl_3_Fluoro_Thienothiophene_Hydrogenated.qcin
output file: 
nprocs     : 1
nthreads   : 64
#
# qchem installation setting
#
QC:          /cm/shared/apps/spack/cpu/opt/spack/linux-centos8-zen2/gcc-10.2.0/qchem-5.4-akfmr7b3t57bfs6qan3padb2wnb2i7cl
QCAUX:       /cm/shared/apps/spack/cpu/opt/spack/linux-centos8-zen2/gcc-10.2.0/qchem-5.4-akfmr7b3t57bfs6qan3padb2wnb2i7cl/qcaux
QCPROG:      /cm/shared/apps/spack/cpu/opt/spack/linux-centos8-zen2/gcc-10.2.0/qchem-5.4-akfmr7b3t57bfs6qan3padb2wnb2i7cl/exe/qcprog.exe
QCPROG_S:    /cm/shared/apps/spack/cpu/opt/spack/linux-centos8-zen2/gcc-10.2.0/qchem-5.4-akfmr7b3t57bfs6qan3padb2wnb2i7cl/exe/qcprog.exe_s
PARALLEL:    -DPARALLEL
QCMPI:       mpich
#
# qchem directory setting
#
qcrun:       qchem3299259
QCSCRATCH:   .
QCLOCALSCR:  
QCTMPDIR:    .
QCFILEPREF:  ./qchem3299259
QCSAVEDIR:   
workdirs:    ./qchem3299259
workdir0:    ./qchem3299259
partmpdirs =  
#
# parallel setting
#
QCRSH:           ssh
QCMPI:           mpich
QCMPIRUN:        /cm/shared/apps/spack/cpu/opt/spack/linux-centos8-zen2/gcc-10.2.0/qchem-5.4-akfmr7b3t57bfs6qan3padb2wnb2i7cl/bin/mpi/mpirun_qchem
QCMACHINEFILE:   ./qchem3299259/hostfile
exp-4-19

#
# env setting
#
exported envs:   QC QCAUX QCSCRATCH QCRUNNAME QCFILEPREF QCPROG QCPROG_S GUIFILE

Running Job 1 of 1 Dimethoxy_Benzodithiophene_Phi_25_Theta_90_Methylcarbonyl_3_Fluoro_Thienothiophene_Hydrogenated.qcin
qchem Dimethoxy_Benzodithiophene_Phi_25_Theta_90_Methylcarbonyl_3_Fluoro_Thienothiophene_Hydrogenated.qcin_3299259.0 ./qchem3299259/ 1
/cm/shared/apps/spack/cpu/opt/spack/linux-centos8-zen2/gcc-10.2.0/qchem-5.4-akfmr7b3t57bfs6qan3padb2wnb2i7cl/bin/mpi/mpirun_qchem -machinefile ./qchem3299259/hostfile -np 1 /cm/shared/apps/spack/cpu/opt/spack/linux-centos8-zen2/gcc-10.2.0/qchem-5.4-akfmr7b3t57bfs6qan3padb2wnb2i7cl/exe/qcprog.exe Dimethoxy_Benzodithiophene_Phi_25_Theta_90_Methylcarbonyl_3_Fluoro_Thienothiophene_Hydrogenated.qcin_3299259.0 ./qchem3299259/

Process 0 of 1 is on exp-4-19 - thread support 0
initial socket setup ...start
initial socket setup ...done 
now start server 0 ... 
                  Welcome to Q-Chem
     A Quantum Leap Into The Future Of Chemistry


 Q-Chem 5.4, Q-Chem, Inc., Pleasanton, CA (2021)

 License issued to: University of California, San Diego (site)

 E. Epifanovsky,  A. T. B. Gilbert,  Xintian Feng,  Joonho Lee,  Yuezhi Mao,  
 N. Mardirossian,  P. Pokhilko,  A. White,  M. Wormit,  M. P. Coons,  
 A. L. Dempwolff,  Zhengting Gan,  D. Hait,  P. R. Horn,  L. D. Jacobson,  
 I. Kaliman,  J. Kussmann,  A. W. Lange,  Ka Un Lao,  D. S. Levine,  Jie Liu,  
 S. C. McKenzie,  A. F. Morrison,  K. Nanda,  F. Plasser,  D. R. Rehn,  
 M. L. Vidal,  Zhi-Qiang You,  Ying Zhu,  B. Alam,  B. Albrecht,  
 A. Aldossary,  E. Alguire,  J. H. Andersen,  D. Barton,  K. Begam,  A. Behn,  
 Y. A. Bernard,  E. J. Berquist,  H. Burton,  A. Carreras,  K. Carter-Fenk,  
 R. Chakraborty,  A. D. Chien,  K. D. Closser,  V. Cofer-Shabica,  
 S. Dasgupta,  Jia Deng,  M. de Wergifosse,  M. Diedenhofen,  Hainam Do,  
 S. Ehlert,  Po-Tung Fang,  S. Fatehi,  Qingguo Feng,  J. Gayvert,  
 Qinghui Ge,  G. Gidofalvi,  M. Goldey,  J. Gomes,  C. Gonzalez-Espinoza,  
 S. Gulania,  A. Gunina,  M. W. D. Hanson-Heine,  P. H. P. Harbach,  
 A. W. Hauser,  M. F. Herbst,  M. Hernandez Vera,  M. Hodecker,  
 Z. C. Holden,  S. Houck,  Xunkun Huang,  Kerwin Hui,  B. C. Huynh,  
 M. Ivanov,  Hyunjun Ji,  Hanjie Jiang,  B. Kaduk,  S. Kaehler,  
 K. Khistyaev,  Jaehoon Kim,  P. Klunzinger,  Z. Koczor-Benda,  
 Joong Hoon Koh,  D. Kosenkov,  L. Koulias,  T. Kowalczyk,  C. M. Krauter,  
 K. Kue,  A. Kunitsa,  T. Kus,  A. Landau,  K. V. Lawler,  D. Lefrancois,  
 S. Lehtola,  Rain Li,  Yi-Pei Li,  Jiashu Liang,  M. Liebenthal,  
 Hung-Hsuan Lin,  You-Sheng Lin,  Fenglai Liu,  Kuan-Yu Liu,  
 M. Loipersberger,  A. Luenser,  A. Manjanath,  P. Manohar,  E. Mansoor,  
 S. F. Manzer,  Shan-Ping Mao,  A. V. Marenich,  T. Markovich,  S. Mason,  
 S. A. Maurer,  P. F. McLaughlin,  M. F. S. J. Menger,  J.-M. Mewes,  
 S. A. Mewes,  P. Morgante,  J. W. Mullinax,  T. S. Nguyen-Beck,  
 K. J. Oosterbaan,  G. Paran,  Alexander C. Paul,  Suranjan K. Paul,  
 F. Pavosevic,  Zheng Pei,  S. Prager,  E. I. Proynov,  E. Ramos,  B. Rana,  
 A. E. Rask,  A. Rettig,  R. M. Richard,  F. Rob,  E. Rossomme,  T. Scheele,  
 M. Scheurer,  M. Schneider,  N. Sergueev,  S. M. Sharada,  W. Skomorowski,  
 D. W. Small,  C. J. Stein,  Yu-Chuan Su,  E. J. Sundstrom,  Zhen Tao,  
 J. Thirman,  T. Tsuchimochi,  N. M. Tubman,  S. P. Veccham,  O. Vydrov,  
 J. Wenzel,  J. Witte,  A. Yamada,  Kun Yao,  S. Yeganeh,  S. R. Yost,  
 A. Zech,  Igor Ying Zhang,  Xing Zhang,  Yu Zhang,  D. Zuev,  
 A. Aspuru-Guzik,  A. T. Bell,  N. A. Besley,  K. B. Bravaya,  B. R. Brooks,  
 D. Casanova,  Jeng-Da Chai,  S. Coriani,  C. J. Cramer,  
 A. E. DePrince, III,  R. A. DiStasio Jr.,  A. Dreuw,  B. D. Dunietz,  
 T. R. Furlani,  W. A. Goddard III,  S. Grimme,  S. Hammes-Schiffer,  
 T. Head-Gordon,  W. J. Hehre,  Chao-Ping Hsu,  T.-C. Jagau,  Yousung Jung,  
 A. Klamt,  Jing Kong,  D. S. Lambrecht,  WanZhen Liang,  N. J. Mayhall,  
 C. W. McCurdy,  J. B. Neaton,  C. Ochsenfeld,  J. A. Parkhill,  R. Peverati,  
 V. A. Rassolov,  Yihan Shao,  L. V. Slipchenko,  T. Stauch,  R. P. Steele,  
 J. E. Subotnik,  A. J. W. Thom,  A. Tkatchenko,  D. G. Truhlar,  
 T. Van Voorhis,  T. A. Wesolowski,  K. B. Whaley,  H. L. Woodcock III,  
 P. M. Zimmerman,  S. Faraji,  P. M. W. Gill,  M. Head-Gordon,  
 J. M. Herbert,  A. I. Krylov

 Contributors to earlier versions of Q-Chem not listed above: 
 R. D. Adamson,  B. Austin,  R. Baer,  J. Baker,  G. J. O. Beran,  
 K. Brandhorst,  S. T. Brown,  E. F. C. Byrd,  A. K. Chakraborty,  
 G. K. L. Chan,  Chun-Min Chang,  Yunqing Chen,  C.-L. Cheng,  
 Siu Hung Chien,  D. M. Chipman,  D. L. Crittenden,  H. Dachsel,  
 R. J. Doerksen,  A. D. Dutoi,  R. G. Edgar,  J. Fosso-Tande,  
 L. Fusti-Molnar,  D. Ghosh,  A. Ghysels,  A. Golubeva-Zadorozhnaya,  
 J. Gonthier,  M. S. Gordon,  S. R. Gwaltney,  G. Hawkins,  J. E. Herr,  
 A. Heyden,  S. Hirata,  E. G. Hohenstein,  G. Kedziora,  F. J. Keil,  
 C. Kelley,  Jihan Kim,  R. A. King,  R. Z. Khaliullin,  P. P. Korambath,  
 W. Kurlancheek,  A. Laurent,  A. M. Lee,  M. S. Lee,  S. V. Levchenko,  
 Ching Yeh Lin,  D. Liotard,  E. Livshits,  R. C. Lochan,  I. Lotan,  
 L. A. Martinez-Martinez,  P. E. Maslen,  N. Nair,  D. P. O'Neill,  
 D. Neuhauser,  E. Neuscamman,  C. M. Oana,  R. Olivares-Amaya,  R. Olson,  
 T. M. Perrine,  B. Peters,  P. A. Pieniazek,  A. Prociuk,  Y. M. Rhee,  
 J. Ritchie,  M. A. Rohrdanz,  E. Rosta,  N. J. Russ,  H. F. Schaefer III,  
 M. W. Schmidt,  N. E. Schultz,  S. Sharma,  N. Shenvi,  C. D. Sherrill,  
 A. C. Simmonett,  A. Sodt,  T. Stein,  D. Stuck,  K. S. Thanthiriwatte,  
 V. Vanovschi,  L. Vogt,  Tao Wang,  A. Warshel,  M. A. Watson,  
 C. F. Williams,  Q. Wu,  X. Xu,  Jun Yang,  W. Zhang,  Yan Zhao

 Please cite Q-Chem as follows:
 Y. Shao et al., Mol. Phys. 113, 184-215 (2015)
 DOI: 10.1080/00268976.2014.952696

 Q-Chem 5.4.0 for Intel X86 EM64T Linux

 Parts of Q-Chem use Armadillo 9.800.1 (Horizon Scraper).
 http://arma.sourceforge.net/

 Q-Chem begins on Tue Jan  9 10:31:59 2024  

 Host: 
0

     Scratch files written to ./qchem3299259//
 May1621 |scratch|qcdevops|jenkins|workspace|build_RNUM    
 Parallel job on  1  processors
 Processing $rem in /cm/shared/apps/spack/cpu/opt/spack/linux-centos8-zen2/gcc-10.2.0/qchem-5.4-akfmr7b3t57bfs6qan3padb2wnb2i7cl/config/preferences:
 Processing $rem in /home/rramji/.qchemrc:
 Symmetry turned off for PCM/SM12/SMD calculation
 Core orbitals will be frozen

 Checking the input file for inconsistencies... 	...done.

 Q-Chem warning in module forms1/BasisType.C, line 2236:

 You are not using the predefined 5D/6D in this basis set.


--------------------------------------------------------------
User input:
--------------------------------------------------------------
$molecule
0 1
C	-0.318247	-8.517702	-0.041330
C	0.757333	-7.641575	-0.049453
S	-1.866383	-7.638634	-0.024919
C	0.380867	-6.264785	-0.049488
H	1.805573	-7.966081	-0.055368
C	-1.045647	-6.072714	-0.051115
C	-1.608077	-4.787049	-0.026203
C	1.282948	-5.162801	-0.026637
C	0.720187	-3.874817	0.002586
C	-0.707853	-3.683952	-0.001903
O	2.602386	-5.499772	-0.054867
O	-2.933517	-4.459055	0.003348
C	-3.881999	-5.329063	-0.602384
H	-4.825744	-4.755694	-0.675079
H	-4.070972	-6.238095	0.009592
H	-3.562152	-5.637262	-1.621263
C	3.588253	-4.572261	0.381947
H	4.535674	-5.139743	0.449872
H	3.342986	-4.153131	1.381388
H	3.728239	-3.739531	-0.341040
C	-1.080725	-2.306654	0.000348
S	1.542694	-2.306501	-0.010924
C	-0.000000	-1.435185	-0.000000
H	-2.127635	-1.978138	0.003612
C	0.000000	0.000000	0.000000
S	0.382799	0.819795	1.507541
C	1.046687	2.245325	0.718873
C	0.382918	0.819389	-1.067872
C	0.968323	2.080267	-0.686410
S	0.282561	0.597432	-2.805516
C	1.017839	2.187324	-3.054530
C	1.314960	2.830306	-1.862551
F	1.875498	4.043751	-1.819088
C	1.208895	2.592573	-4.456084
O	0.890778	1.891482	-5.406510
O	1.772886	3.819715	-4.569225
C	1.986852	4.266207	-5.916207
H	2.445834	5.267032	-5.833064
H	1.028114	4.323448	-6.470168
H	2.661066	3.573494	-6.459293
H	1.436015	3.083584	1.306486
H	-0.313367	-9.143623	0.858809
H	-0.325780	-9.149441	-0.937378
H	0.007439	-1.443175	1.079945
$end

$rem
JOBTYPE		SP
EXCHANGE	HF
CORRELATION	pRIMP2
BASIS		cc-pvtz
METHOD		rimp2
AUX_BASIS	rimp2-cc-pvtz
SOLVENT_METHOD	PCM
PURECART	11111
SYMMETRY	false
MEM_TOTAL	110000
SCF_CONVERGENCE = 6
THRESH=10
GUI = 2
$end



$solvent
dielectric 4.90
$end
--------------------------------------------------------------
 ----------------------------------------------------------------
             Standard Nuclear Orientation (Angstroms)
    I     Atom           X                Y                Z
 ----------------------------------------------------------------
    1      C      -0.3182470000    -8.5177020000    -0.0413300000
    2      C       0.7573330000    -7.6415750000    -0.0494530000
    3      S      -1.8663830000    -7.6386340000    -0.0249190000
    4      C       0.3808670000    -6.2647850000    -0.0494880000
    5      H       1.8055730000    -7.9660810000    -0.0553680000
    6      C      -1.0456470000    -6.0727140000    -0.0511150000
    7      C      -1.6080770000    -4.7870490000    -0.0262030000
    8      C       1.2829480000    -5.1628010000    -0.0266370000
    9      C       0.7201870000    -3.8748170000     0.0025860000
   10      C      -0.7078530000    -3.6839520000    -0.0019030000
   11      O       2.6023860000    -5.4997720000    -0.0548670000
   12      O      -2.9335170000    -4.4590550000     0.0033480000
   13      C      -3.8819990000    -5.3290630000    -0.6023840000
   14      H      -4.8257440000    -4.7556940000    -0.6750790000
   15      H      -4.0709720000    -6.2380950000     0.0095920000
   16      H      -3.5621520000    -5.6372620000    -1.6212630000
   17      C       3.5882530000    -4.5722610000     0.3819470000
   18      H       4.5356740000    -5.1397430000     0.4498720000
   19      H       3.3429860000    -4.1531310000     1.3813880000
   20      H       3.7282390000    -3.7395310000    -0.3410400000
   21      C      -1.0807250000    -2.3066540000     0.0003480000
   22      S       1.5426940000    -2.3065010000    -0.0109240000
   23      C       0.0000000000    -1.4351850000     0.0000000000
   24      H      -2.1276350000    -1.9781380000     0.0036120000
   25      C       0.0000000000     0.0000000000     0.0000000000
   26      S       0.3827990000     0.8197950000     1.5075410000
   27      C       1.0466870000     2.2453250000     0.7188730000
   28      C       0.3829180000     0.8193890000    -1.0678720000
   29      C       0.9683230000     2.0802670000    -0.6864100000
   30      S       0.2825610000     0.5974320000    -2.8055160000
   31      C       1.0178390000     2.1873240000    -3.0545300000
   32      C       1.3149600000     2.8303060000    -1.8625510000
   33      F       1.8754980000     4.0437510000    -1.8190880000
   34      C       1.2088950000     2.5925730000    -4.4560840000
   35      O       0.8907780000     1.8914820000    -5.4065100000
   36      O       1.7728860000     3.8197150000    -4.5692250000
   37      C       1.9868520000     4.2662070000    -5.9162070000
   38      H       2.4458340000     5.2670320000    -5.8330640000
   39      H       1.0281140000     4.3234480000    -6.4701680000
   40      H       2.6610660000     3.5734940000    -6.4592930000
   41      H       1.4360150000     3.0835840000     1.3064860000
   42      H      -0.3133670000    -9.1436230000     0.8588090000
   43      H      -0.3257800000    -9.1494410000    -0.9373780000
   44      H       0.0074390000    -1.4431750000     1.0799450000
 ----------------------------------------------------------------
 Nuclear Repulsion Energy =        3345.71658866 hartrees
 There are      120 alpha and      120 beta electrons
 Requested basis set is cc-pVTZ
 There are 388 shells and 1096 basis functions

 Total QAlloc Memory Limit 110000 MB
 Mega-Array Size       188 MB
 MEM_STATIC part       192 MB
 Discretize the solute cavity surface with Lebedev spheres
	Using 110 Lebedev grid points for each H atom
	Using 194 Lebedev grid points for other atoms
	Atomic van der Waals radii will be scaled by 1.20
 Remove points where switching function is < 1.0e-08
 Keep 2980 surface tesserae and discard 4296 interior tesserae
 Molecular Surface Area = 444.686 Angst**2
 Requested basis set is rimp2-cc-pVTZ
 There are 853 shells and 2963 basis functions
 A cutoff of  1.0D-10 yielded  33011 shell pairs
 There are    249137 function pairs (    322351 Cartesian)
 Smallest overlap matrix eigenvalue = 2.20E-05

 Scale SEOQF with 1.000000e-01/1.000000e-02/1.000000e-02

 Standard Electronic Orientation quadrupole field applied
 Nucleus-field energy     =     0.0000000446 hartrees
 Guess from superposition of atomic densities
 Warning:  Energy on first SCF cycle will be non-variational
 SAD guess density has 240.000000 electrons

 -----------------------------------------------------------------------
  General SCF calculation program by
  Eric Jon Sundstrom, Paul Horn, Yuezhi Mao, Dmitri Zuev, Alec White,
  David Stuck, Shaama M.S., Shane Yost, Joonho Lee, David Small,
  Daniel Levine, Susi Lehtola, Hugh Burton, Evgeny Epifanovsky,
  Bang C. Huynh
 -----------------------------------------------------------------------
 Hartree-Fock
 using 64 threads for integral computing
 -------------------------------------------------------
 OpenMP Integral computing Module                
 Release: version 1.0, May 2013, Q-Chem Inc. Pittsburgh 
 -------------------------------------------------------
 A restricted SCF calculation will be
 performed using DIIS
 SCF converges when DIIS error is below 1.0e-06
 ---------------------------------------
  Cycle       Energy         DIIS error
 ---------------------------------------
    1   -2767.0396421142      1.75e-02  
    2   -2754.8857759697      1.53e-03  
    3   -2755.2341157453      8.48e-04  
    4   -2755.3188966845      2.57e-04  
    5   -2755.3322803455      7.32e-05  
    6   -2755.3337513641      2.56e-05  
    7   -2755.3341278229      1.32e-05  
    8   -2755.3342503519      5.57e-06  
    9   -2755.3342796590      2.80e-06  
   10   -2755.3342866181      1.48e-06  
   11   -2755.3342888118      7.31e-07  Convergence criterion met
 ---------------------------------------
 SCF time:   CPU 7568.31s  wall 273.00s 

************** Final PCM Free Energy Summary **************
 G_electrostatic  =      -0.02166755 hartree =     -13.59659021 kcal/mol
 G_cavitation     =       0.00000000 hartree =       0.00000000 kcal/mol
 G_dispersion     =       0.00000000 hartree =       0.00000000 kcal/mol
 G_repulsion      =       0.00000000 hartree =       0.00000000 kcal/mol
 --------------------------------------------------
 Non-electrostatic Free Energy =       0.00000000 hartree =       0.00000000 kcal/mol
 Total                         =      -0.02166755 hartree =     -13.59659021 kcal/mol
 --------------------------------------------------
 SCF Energy (H0 + V/2)                       =   -2755.33428881 
 Solute Internal Energy (H0)                 =   -2755.31262127 
 Total Free Energy (H0 + V/2 + non-elec)     =   -2755.33428881 hartree
                                             = -1728998.36200047 kcal/mol
***********************************************************

 SCF   energy in the final basis set =    -2755.3342888118
 Total energy in the final basis set =    -2755.3342888118


 --------------------------------------------------------------
  Generalized many-body perturbation theory program
  by Joonho Lee, Fazle Rob, Xintian Feng, Evgeny Epifanovsky

 No regularization used 
 (reg. param. = 0.0000e+00)
  (P|Q)^-1/2 Time:  CPU 140.22 s  wall 2.70 s

 In RI-MP2 calculation: 
 # of frozen core orbitals: 45

 Components of the RIMP2 correlation energy:
        aaaa    correlation energy =        -0.6687658121 a.u.
        abab    correlation energy =        -3.7517961954 a.u.
        bbbb    correlation energy =        -0.6687658121 a.u.
        non-Brillouin singles      =        -0.0000000000 a.u.
        total same-spin energy     =        -1.3375316241 a.u.
        total opposite-spin energy =        -3.7517961954 a.u.

 Total  RIMP2   correlation energy =        -5.0893278195 a.u.
        RIMP2         total energy =     -2760.4236166313 a.u.

 RI-MP2 Energy Time:  CPU 2947.24 s  wall 47.98 s
 
 --------------------------------------------------------------
 
                    Orbital Energies (a.u.)
 --------------------------------------------------------------
 
 Alpha MOs
 -- Occupied --
-92.0170 -92.0003 -91.9758 -91.9569 -26.3441 -20.6151 -20.5866 -20.5858
-20.5615 -11.4097 -11.3835 -11.3163 -11.3082 -11.3054 -11.3025 -11.2981
-11.2936 -11.2890 -11.2857 -11.2838 -11.2823 -11.2819 -11.2774 -11.2709
-11.2709 -11.2571 -11.2546 -11.2485 -11.2343  -9.0158  -9.0003  -8.9780
 -8.9595  -6.6965  -6.6959  -6.6954  -6.6813  -6.6805  -6.6794  -6.6591
 -6.6583  -6.6570  -6.6408  -6.6398  -6.6388  -1.6612  -1.4675  -1.4094
 -1.4082  -1.3702  -1.2302  -1.2017  -1.1724  -1.1384  -1.0985  -1.0458
 -1.0439  -1.0254  -1.0028  -0.9955  -0.9635  -0.9584  -0.9476  -0.9403
 -0.8924  -0.8694  -0.8648  -0.8151  -0.7973  -0.7885  -0.7838  -0.7669
 -0.7569  -0.7375  -0.7260  -0.7172  -0.6966  -0.6865  -0.6847  -0.6790
 -0.6741  -0.6603  -0.6554  -0.6479  -0.6334  -0.6297  -0.6189  -0.6145
 -0.6111  -0.5997  -0.5912  -0.5750  -0.5722  -0.5630  -0.5585  -0.5545
 -0.5449  -0.5329  -0.5312  -0.5244  -0.5122  -0.5079  -0.5066  -0.5004
 -0.4853  -0.4822  -0.4757  -0.4742  -0.4699  -0.4686  -0.4602  -0.4455
 -0.4217  -0.3997  -0.3842  -0.3691  -0.3506  -0.3034  -0.2884  -0.2195
 -- Virtual --
  0.0317   0.0539   0.0953   0.1186   0.1407   0.1493   0.1531   0.1558
  0.1575   0.1613   0.1685   0.1754   0.1813   0.1831   0.1884   0.1959
  0.2002   0.2040   0.2055   0.2148   0.2190   0.2214   0.2258   0.2276
  0.2319   0.2333   0.2370   0.2464   0.2487   0.2547   0.2631   0.2659
  0.2721   0.2879   0.3016   0.3218   0.3294   0.3318   0.3348   0.3409
  0.3473   0.3548   0.3589   0.3623   0.3639   0.3804   0.3812   0.3857
  0.3882   0.3910   0.3952   0.3972   0.4026   0.4102   0.4157   0.4195
  0.4227   0.4274   0.4314   0.4337   0.4381   0.4432   0.4483   0.4526
  0.4565   0.4574   0.4609   0.4670   0.4696   0.4778   0.4787   0.4829
  0.4927   0.4938   0.4988   0.5008   0.5059   0.5068   0.5182   0.5205
  0.5231   0.5287   0.5297   0.5328   0.5375   0.5410   0.5438   0.5478
  0.5504   0.5543   0.5564   0.5587   0.5625   0.5687   0.5725   0.5791
  0.5807   0.5868   0.5933   0.5961   0.6000   0.6021   0.6050   0.6111
  0.6137   0.6159   0.6208   0.6217   0.6228   0.6250   0.6263   0.6319
  0.6349   0.6407   0.6414   0.6453   0.6483   0.6494   0.6544   0.6592
  0.6628   0.6689   0.6704   0.6757   0.6839   0.6862   0.6906   0.6936
  0.7017   0.7074   0.7129   0.7166   0.7185   0.7219   0.7233   0.7308
  0.7401   0.7449   0.7516   0.7577   0.7602   0.7691   0.7752   0.7788
  0.7910   0.7974   0.8022   0.8071   0.8096   0.8173   0.8202   0.8258
  0.8284   0.8381   0.8398   0.8457   0.8507   0.8624   0.8665   0.8726
  0.8763   0.8795   0.8845   0.8918   0.8953   0.8996   0.9052   0.9093
  0.9140   0.9233   0.9320   0.9368   0.9382   0.9422   0.9473   0.9576
  0.9580   0.9646   0.9685   0.9757   0.9791   0.9855   0.9874   0.9912
  0.9986   0.9995   1.0038   1.0089   1.0164   1.0197   1.0221   1.0339
  1.0364   1.0419   1.0435   1.0505   1.0551   1.0611   1.0623   1.0664
  1.0720   1.0791   1.0816   1.0868   1.0899   1.0921   1.1023   1.1055
  1.1073   1.1132   1.1185   1.1249   1.1328   1.1353   1.1386   1.1492
  1.1524   1.1528   1.1579   1.1682   1.1734   1.1741   1.1778   1.1798
  1.1884   1.1915   1.1938   1.1967   1.2027   1.2085   1.2122   1.2225
  1.2233   1.2247   1.2336   1.2382   1.2402   1.2425   1.2512   1.2537
  1.2595   1.2618   1.2646   1.2720   1.2784   1.2842   1.2847   1.2900
  1.2976   1.3059   1.3106   1.3177   1.3232   1.3273   1.3327   1.3392
  1.3484   1.3574   1.3590   1.3647   1.3805   1.3864   1.3920   1.3986
  1.4064   1.4083   1.4167   1.4214   1.4270   1.4351   1.4429   1.4522
  1.4597   1.4695   1.4733   1.4801   1.4878   1.4939   1.5007   1.5018
  1.5057   1.5094   1.5175   1.5219   1.5223   1.5311   1.5380   1.5394
  1.5426   1.5449   1.5488   1.5534   1.5566   1.5606   1.5728   1.5760
  1.5800   1.5923   1.6035   1.6059   1.6122   1.6194   1.6269   1.6383
  1.6471   1.6478   1.6596   1.6624   1.6692   1.6746   1.6818   1.6876
  1.6898   1.6955   1.7060   1.7118   1.7173   1.7196   1.7262   1.7535
  1.7576   1.7665   1.7723   1.7776   1.7861   1.7911   1.8043   1.8147
  1.8189   1.8261   1.8306   1.8348   1.8532   1.8634   1.8679   1.8740
  1.8797   1.8900   1.8963   1.9070   1.9173   1.9283   1.9310   1.9343
  1.9403   1.9434   1.9545   1.9677   1.9755   1.9775   1.9847   1.9965
  2.0007   2.0086   2.0149   2.0236   2.0292   2.0346   2.0445   2.0543
  2.0582   2.0729   2.0808   2.0851   2.0967   2.0977   2.1104   2.1228
  2.1421   2.1454   2.1544   2.1639   2.1750   2.1841   2.1858   2.1938
  2.1959   2.2082   2.2130   2.2144   2.2252   2.2306   2.2375   2.2443
  2.2458   2.2481   2.2584   2.2615   2.2688   2.2806   2.2910   2.2990
  2.3045   2.3146   2.3257   2.3313   2.3371   2.3492   2.3577   2.3643
  2.3663   2.3761   2.3958   2.4001   2.4110   2.4130   2.4200   2.4289
  2.4353   2.4362   2.4521   2.4654   2.4746   2.4806   2.4910   2.5000
  2.5086   2.5149   2.5162   2.5333   2.5416   2.5494   2.5548   2.5620
  2.5710   2.5846   2.5919   2.6008   2.6073   2.6191   2.6228   2.6256
  2.6269   2.6332   2.6388   2.6421   2.6481   2.6525   2.6553   2.6697
  2.6788   2.6830   2.6876   2.6945   2.6980   2.7022   2.7062   2.7120
  2.7200   2.7273   2.7393   2.7410   2.7487   2.7600   2.7721   2.7726
  2.7794   2.7839   2.7954   2.7973   2.8105   2.8126   2.8185   2.8282
  2.8400   2.8442   2.8476   2.8531   2.8569   2.8659   2.8689   2.8758
  2.8788   2.8879   2.8930   2.9018   2.9153   2.9185   2.9346   2.9431
  2.9510   2.9536   2.9564   2.9586   2.9644   2.9736   2.9818   2.9853
  2.9956   3.0015   3.0172   3.0206   3.0233   3.0321   3.0370   3.0431
  3.0487   3.0605   3.0630   3.0798   3.0835   3.0935   3.0949   3.0972
  3.1019   3.1064   3.1137   3.1210   3.1240   3.1265   3.1375   3.1432
  3.1459   3.1505   3.1549   3.1580   3.1625   3.1696   3.1756   3.1804
  3.1904   3.1944   3.2041   3.2086   3.2133   3.2165   3.2232   3.2261
  3.2317   3.2351   3.2445   3.2513   3.2567   3.2580   3.2634   3.2678
  3.2692   3.2726   3.2782   3.2830   3.2900   3.2932   3.2979   3.3039
  3.3099   3.3119   3.3171   3.3234   3.3281   3.3364   3.3386   3.3424
  3.3504   3.3515   3.3543   3.3594   3.3628   3.3662   3.3678   3.3689
  3.3792   3.3847   3.3903   3.3963   3.3991   3.4020   3.4052   3.4060
  3.4116   3.4195   3.4251   3.4311   3.4334   3.4376   3.4394   3.4496
  3.4516   3.4543   3.4597   3.4616   3.4695   3.4715   3.4743   3.4840
  3.4841   3.4891   3.4934   3.4994   3.5083   3.5164   3.5214   3.5327
  3.5386   3.5404   3.5541   3.5548   3.5588   3.5621   3.5674   3.5727
  3.5816   3.5874   3.5908   3.5983   3.6026   3.6037   3.6127   3.6175
  3.6193   3.6257   3.6317   3.6354   3.6422   3.6453   3.6575   3.6582
  3.6607   3.6763   3.6768   3.6818   3.6852   3.6862   3.6874   3.6976
  3.7039   3.7055   3.7063   3.7109   3.7188   3.7273   3.7305   3.7384
  3.7406   3.7455   3.7459   3.7538   3.7594   3.7642   3.7686   3.7720
  3.7766   3.7851   3.7899   3.7957   3.7995   3.8042   3.8106   3.8108
  3.8167   3.8200   3.8220   3.8316   3.8414   3.8477   3.8524   3.8549
  3.8650   3.8679   3.8757   3.8820   3.8883   3.8889   3.8948   3.9033
  3.9089   3.9187   3.9278   3.9382   3.9429   3.9486   3.9519   3.9589
  3.9629   3.9697   3.9711   3.9814   3.9885   3.9991   4.0080   4.0102
  4.0153   4.0246   4.0280   4.0387   4.0492   4.0648   4.0650   4.0679
  4.0718   4.0867   4.0923   4.1031   4.1043   4.1160   4.1203   4.1337
  4.1413   4.1520   4.1526   4.1630   4.1651   4.1666   4.1696   4.1720
  4.1738   4.1802   4.1917   4.2052   4.2089   4.2108   4.2233   4.2252
  4.2343   4.2423   4.2500   4.2725   4.2758   4.2859   4.2905   4.2979
  4.3194   4.3233   4.3273   4.3334   4.3417   4.3467   4.3523   4.3588
  4.3669   4.3705   4.3777   4.3826   4.3891   4.4015   4.4108   4.4182
  4.4195   4.4243   4.4285   4.4337   4.4344   4.4413   4.4511   4.4543
  4.4572   4.4682   4.4816   4.4984   4.5089   4.5123   4.5215   4.5288
  4.5408   4.5434   4.5491   4.5597   4.5632   4.5675   4.5791   4.5847
  4.5959   4.6032   4.6131   4.6144   4.6326   4.6353   4.6367   4.6546
  4.6601   4.6723   4.6750   4.6835   4.6934   4.7025   4.7214   4.7306
  4.7337   4.7497   4.7606   4.7686   4.7820   4.7864   4.7978   4.8204
  4.8235   4.8413   4.8496   4.8542   4.8718   4.8749   4.8780   4.8893
  4.9046   4.9222   4.9238   4.9399   4.9522   4.9541   4.9666   4.9693
  4.9734   5.0026   5.0087   5.0101   5.0139   5.0317   5.0432   5.0444
  5.0725   5.0860   5.1006   5.1059   5.1152   5.1218   5.1507   5.1636
  5.1765   5.1958   5.1983   5.2053   5.2142   5.2369   5.2498   5.2534
  5.2568   5.2587   5.2750   5.2887   5.2942   5.3147   5.3170   5.3277
  5.3374   5.3495   5.3526   5.3648   5.3699   5.3818   5.3909   5.4022
  5.4036   5.4120   5.4260   5.4437   5.4518   5.4848   5.4906   5.5049
  5.5102   5.5198   5.5239   5.5374   5.5644   5.5692   5.5786   5.5817
  5.5989   5.6111   5.6206   5.6215   5.6476   5.6563   5.6895   5.6942
  5.7237   5.7337   5.7604   5.7666   5.7855   5.8073   5.8172   5.8472
  5.8599   5.8777   5.9014   5.9140   5.9281   5.9290   5.9654   5.9925
  6.0406   6.0439   6.0698   6.1278   6.1503   6.1527   6.1694   6.1789
  6.1792   6.1919   6.2174   6.2466   6.2611   6.2624   6.2652   6.2799
  6.2943   6.3153   6.3375   6.3686   6.4359   6.4499   6.4774   6.5388
  6.5472   6.5670   6.6023   6.6470   6.6608   6.6709   6.7117   6.7450
  6.8070   6.8294   6.8565   6.8592   6.8999   6.9778   7.1310   7.1465
  7.2037   7.2060   7.2231   7.2396   7.3096   7.3272   7.3420   7.3624
  7.3630   7.4055   7.4130   7.4848   7.4875   7.4972   7.5223   7.5499
  7.6147   7.7376   7.7722   7.7895   7.8033   7.8996   7.9262   7.9551
  7.9682   8.1327   8.2771   8.4864   8.9212   9.0236   9.3622   9.4830
  9.6713  10.2412  11.1938  11.4182  11.7488  11.9458  12.1230  12.3703
 12.4273  12.4911  12.9096  12.9973  13.0089  13.2693  13.3854  13.4811
 13.6907  13.7699  13.8747  13.9384  14.0325  14.3075  14.7986  15.2015
 --------------------------------------------------------------
 
          Ground-State Mulliken Net Atomic Charges

     Atom                 Charge (a.u.)
  ----------------------------------------
      1 C                    -0.069713
      2 C                    -0.266870
      3 S                    -0.138579
      4 C                    -0.042058
      5 H                     0.192538
      6 C                    -0.054616
      7 C                     0.225311
      8 C                     0.221567
      9 C                    -0.073208
     10 C                    -0.047664
     11 O                    -0.335085
     12 O                    -0.343201
     13 C                    -0.082500
     14 H                     0.119766
     15 H                     0.091713
     16 H                     0.093090
     17 C                    -0.086645
     18 H                     0.122920
     19 H                     0.091280
     20 H                     0.090574
     21 C                    -0.261889
     22 S                    -0.070306
     23 C                     0.039028
     24 H                     0.204709
     25 C                    -0.058685
     26 S                     0.093892
     27 C                    -0.180177
     28 C                    -0.013210
     29 C                    -0.086716
     30 S                     0.019217
     31 C                    -0.156097
     32 C                     0.395558
     33 F                    -0.206232
     34 C                     0.445497
     35 O                    -0.460711
     36 O                    -0.300986
     37 C                    -0.058412
     38 H                     0.121356
     39 H                     0.095188
     40 H                     0.095256
     41 H                     0.219548
     42 H                     0.116112
     43 H                     0.114031
     44 H                     0.185411
  ----------------------------------------
  Sum of atomic charges =     0.000000

 -----------------------------------------------------------------
                    Cartesian Multipole Moments
 -----------------------------------------------------------------
    Charge (ESU x 10^10)
                 0.0000
    Dipole Moment (Debye)
         X       1.4197      Y       3.5325      Z       3.4057
       Tot       5.1081
    Quadrupole Moments (Debye-Ang)
        XX    -182.6308     XY       2.6999     YY    -181.4733
        XZ       2.5796     YZ      -6.6046     ZZ    -203.7752
    Octopole Moments (Debye-Ang^2)
       XXX    -180.2997    XXY     332.0405    XYY      -9.2377
       YYY    1040.5048    XXZ     160.7547    XYZ     -52.7055
       YYZ     118.4706    XZZ     -22.2506    YZZ     474.4416
       ZZZ     565.0083
    Hexadecapole Moments (Debye-Ang^3)
      XXXX   -2979.6908   XXXY   -1206.8069   XXYY   -4028.4761
      XYYY   -1413.3652   YYYY  -20200.2415   XXXZ     644.5157
      XXYZ     430.1590   XYYZ     217.2180   YYYZ    1173.9365
      XXZZ   -1348.1092   XYZZ    -175.5036   YYZZ   -4170.7209
      XZZZ     365.8281   YZZZ     876.1752   ZZZZ   -5441.5172
 -----------------------------------------------------------------
 Total job time:  327.94s(wall), 10751.87s(cpu) 
 Tue Jan  9 10:37:27 2024

        *************************************************************
        *                                                           *
        *  Thank you very much for using Q-Chem.  Have a nice day.  *
        *                                                           *
        *************************************************************


0 sent ACK to 0 
now end server 0 ... 
cleanup process ... done
remove work dirs ./qchem3299259.0 -- ./qchem3299259.0
rm -rf ./qchem3299259.0
rm -rf ./qchem3299259
