You are running Q-Chem version: 5.4.0

#
# job setting
#
local host:  exp-6-38
current dir: /home/rramji/project-csd799/aromodel/ptb7fout-qchem/hydrogenated-rotation-run
input file:  Dimethoxy_Benzodithiophene_Phi_5_Theta_270_Methylcarbonyl_3_Fluoro_Thienothiophene_Hydrogenated.qcin
output file: 
nprocs     : 1
nthreads   : 64
#
# qchem installation setting
#
QC:          /cm/shared/apps/spack/cpu/opt/spack/linux-centos8-zen2/gcc-10.2.0/qchem-5.4-akfmr7b3t57bfs6qan3padb2wnb2i7cl
QCAUX:       /cm/shared/apps/spack/cpu/opt/spack/linux-centos8-zen2/gcc-10.2.0/qchem-5.4-akfmr7b3t57bfs6qan3padb2wnb2i7cl/qcaux
QCPROG:      /cm/shared/apps/spack/cpu/opt/spack/linux-centos8-zen2/gcc-10.2.0/qchem-5.4-akfmr7b3t57bfs6qan3padb2wnb2i7cl/exe/qcprog.exe
QCPROG_S:    /cm/shared/apps/spack/cpu/opt/spack/linux-centos8-zen2/gcc-10.2.0/qchem-5.4-akfmr7b3t57bfs6qan3padb2wnb2i7cl/exe/qcprog.exe_s
PARALLEL:    -DPARALLEL
QCMPI:       mpich
#
# qchem directory setting
#
qcrun:       qchem3778286
QCSCRATCH:   .
QCLOCALSCR:  
QCTMPDIR:    .
QCFILEPREF:  ./qchem3778286
QCSAVEDIR:   
workdirs:    ./qchem3778286
workdir0:    ./qchem3778286
partmpdirs =  
#
# parallel setting
#
QCRSH:           ssh
QCMPI:           mpich
QCMPIRUN:        /cm/shared/apps/spack/cpu/opt/spack/linux-centos8-zen2/gcc-10.2.0/qchem-5.4-akfmr7b3t57bfs6qan3padb2wnb2i7cl/bin/mpi/mpirun_qchem
QCMACHINEFILE:   ./qchem3778286/hostfile
exp-6-38

#
# env setting
#
exported envs:   QC QCAUX QCSCRATCH QCRUNNAME QCFILEPREF QCPROG QCPROG_S GUIFILE

Running Job 1 of 1 Dimethoxy_Benzodithiophene_Phi_5_Theta_270_Methylcarbonyl_3_Fluoro_Thienothiophene_Hydrogenated.qcin
qchem Dimethoxy_Benzodithiophene_Phi_5_Theta_270_Methylcarbonyl_3_Fluoro_Thienothiophene_Hydrogenated.qcin_3778286.0 ./qchem3778286/ 1
/cm/shared/apps/spack/cpu/opt/spack/linux-centos8-zen2/gcc-10.2.0/qchem-5.4-akfmr7b3t57bfs6qan3padb2wnb2i7cl/bin/mpi/mpirun_qchem -machinefile ./qchem3778286/hostfile -np 1 /cm/shared/apps/spack/cpu/opt/spack/linux-centos8-zen2/gcc-10.2.0/qchem-5.4-akfmr7b3t57bfs6qan3padb2wnb2i7cl/exe/qcprog.exe Dimethoxy_Benzodithiophene_Phi_5_Theta_270_Methylcarbonyl_3_Fluoro_Thienothiophene_Hydrogenated.qcin_3778286.0 ./qchem3778286/

Process 0 of 1 is on exp-6-38 - thread support 0
initial socket setup ...start
initial socket setup ...done 
now start server 0 ... 
                  Welcome to Q-Chem
     A Quantum Leap Into The Future Of Chemistry


 Q-Chem 5.4, Q-Chem, Inc., Pleasanton, CA (2021)

 License issued to: University of California, San Diego (site)

 E. Epifanovsky,  A. T. B. Gilbert,  Xintian Feng,  Joonho Lee,  Yuezhi Mao,  
 N. Mardirossian,  P. Pokhilko,  A. White,  M. Wormit,  M. P. Coons,  
 A. L. Dempwolff,  Zhengting Gan,  D. Hait,  P. R. Horn,  L. D. Jacobson,  
 I. Kaliman,  J. Kussmann,  A. W. Lange,  Ka Un Lao,  D. S. Levine,  Jie Liu,  
 S. C. McKenzie,  A. F. Morrison,  K. Nanda,  F. Plasser,  D. R. Rehn,  
 M. L. Vidal,  Zhi-Qiang You,  Ying Zhu,  B. Alam,  B. Albrecht,  
 A. Aldossary,  E. Alguire,  J. H. Andersen,  D. Barton,  K. Begam,  A. Behn,  
 Y. A. Bernard,  E. J. Berquist,  H. Burton,  A. Carreras,  K. Carter-Fenk,  
 R. Chakraborty,  A. D. Chien,  K. D. Closser,  V. Cofer-Shabica,  
 S. Dasgupta,  Jia Deng,  M. de Wergifosse,  M. Diedenhofen,  Hainam Do,  
 S. Ehlert,  Po-Tung Fang,  S. Fatehi,  Qingguo Feng,  J. Gayvert,  
 Qinghui Ge,  G. Gidofalvi,  M. Goldey,  J. Gomes,  C. Gonzalez-Espinoza,  
 S. Gulania,  A. Gunina,  M. W. D. Hanson-Heine,  P. H. P. Harbach,  
 A. W. Hauser,  M. F. Herbst,  M. Hernandez Vera,  M. Hodecker,  
 Z. C. Holden,  S. Houck,  Xunkun Huang,  Kerwin Hui,  B. C. Huynh,  
 M. Ivanov,  Hyunjun Ji,  Hanjie Jiang,  B. Kaduk,  S. Kaehler,  
 K. Khistyaev,  Jaehoon Kim,  P. Klunzinger,  Z. Koczor-Benda,  
 Joong Hoon Koh,  D. Kosenkov,  L. Koulias,  T. Kowalczyk,  C. M. Krauter,  
 K. Kue,  A. Kunitsa,  T. Kus,  A. Landau,  K. V. Lawler,  D. Lefrancois,  
 S. Lehtola,  Rain Li,  Yi-Pei Li,  Jiashu Liang,  M. Liebenthal,  
 Hung-Hsuan Lin,  You-Sheng Lin,  Fenglai Liu,  Kuan-Yu Liu,  
 M. Loipersberger,  A. Luenser,  A. Manjanath,  P. Manohar,  E. Mansoor,  
 S. F. Manzer,  Shan-Ping Mao,  A. V. Marenich,  T. Markovich,  S. Mason,  
 S. A. Maurer,  P. F. McLaughlin,  M. F. S. J. Menger,  J.-M. Mewes,  
 S. A. Mewes,  P. Morgante,  J. W. Mullinax,  T. S. Nguyen-Beck,  
 K. J. Oosterbaan,  G. Paran,  Alexander C. Paul,  Suranjan K. Paul,  
 F. Pavosevic,  Zheng Pei,  S. Prager,  E. I. Proynov,  E. Ramos,  B. Rana,  
 A. E. Rask,  A. Rettig,  R. M. Richard,  F. Rob,  E. Rossomme,  T. Scheele,  
 M. Scheurer,  M. Schneider,  N. Sergueev,  S. M. Sharada,  W. Skomorowski,  
 D. W. Small,  C. J. Stein,  Yu-Chuan Su,  E. J. Sundstrom,  Zhen Tao,  
 J. Thirman,  T. Tsuchimochi,  N. M. Tubman,  S. P. Veccham,  O. Vydrov,  
 J. Wenzel,  J. Witte,  A. Yamada,  Kun Yao,  S. Yeganeh,  S. R. Yost,  
 A. Zech,  Igor Ying Zhang,  Xing Zhang,  Yu Zhang,  D. Zuev,  
 A. Aspuru-Guzik,  A. T. Bell,  N. A. Besley,  K. B. Bravaya,  B. R. Brooks,  
 D. Casanova,  Jeng-Da Chai,  S. Coriani,  C. J. Cramer,  
 A. E. DePrince, III,  R. A. DiStasio Jr.,  A. Dreuw,  B. D. Dunietz,  
 T. R. Furlani,  W. A. Goddard III,  S. Grimme,  S. Hammes-Schiffer,  
 T. Head-Gordon,  W. J. Hehre,  Chao-Ping Hsu,  T.-C. Jagau,  Yousung Jung,  
 A. Klamt,  Jing Kong,  D. S. Lambrecht,  WanZhen Liang,  N. J. Mayhall,  
 C. W. McCurdy,  J. B. Neaton,  C. Ochsenfeld,  J. A. Parkhill,  R. Peverati,  
 V. A. Rassolov,  Yihan Shao,  L. V. Slipchenko,  T. Stauch,  R. P. Steele,  
 J. E. Subotnik,  A. J. W. Thom,  A. Tkatchenko,  D. G. Truhlar,  
 T. Van Voorhis,  T. A. Wesolowski,  K. B. Whaley,  H. L. Woodcock III,  
 P. M. Zimmerman,  S. Faraji,  P. M. W. Gill,  M. Head-Gordon,  
 J. M. Herbert,  A. I. Krylov

 Contributors to earlier versions of Q-Chem not listed above: 
 R. D. Adamson,  B. Austin,  R. Baer,  J. Baker,  G. J. O. Beran,  
 K. Brandhorst,  S. T. Brown,  E. F. C. Byrd,  A. K. Chakraborty,  
 G. K. L. Chan,  Chun-Min Chang,  Yunqing Chen,  C.-L. Cheng,  
 Siu Hung Chien,  D. M. Chipman,  D. L. Crittenden,  H. Dachsel,  
 R. J. Doerksen,  A. D. Dutoi,  R. G. Edgar,  J. Fosso-Tande,  
 L. Fusti-Molnar,  D. Ghosh,  A. Ghysels,  A. Golubeva-Zadorozhnaya,  
 J. Gonthier,  M. S. Gordon,  S. R. Gwaltney,  G. Hawkins,  J. E. Herr,  
 A. Heyden,  S. Hirata,  E. G. Hohenstein,  G. Kedziora,  F. J. Keil,  
 C. Kelley,  Jihan Kim,  R. A. King,  R. Z. Khaliullin,  P. P. Korambath,  
 W. Kurlancheek,  A. Laurent,  A. M. Lee,  M. S. Lee,  S. V. Levchenko,  
 Ching Yeh Lin,  D. Liotard,  E. Livshits,  R. C. Lochan,  I. Lotan,  
 L. A. Martinez-Martinez,  P. E. Maslen,  N. Nair,  D. P. O'Neill,  
 D. Neuhauser,  E. Neuscamman,  C. M. Oana,  R. Olivares-Amaya,  R. Olson,  
 T. M. Perrine,  B. Peters,  P. A. Pieniazek,  A. Prociuk,  Y. M. Rhee,  
 J. Ritchie,  M. A. Rohrdanz,  E. Rosta,  N. J. Russ,  H. F. Schaefer III,  
 M. W. Schmidt,  N. E. Schultz,  S. Sharma,  N. Shenvi,  C. D. Sherrill,  
 A. C. Simmonett,  A. Sodt,  T. Stein,  D. Stuck,  K. S. Thanthiriwatte,  
 V. Vanovschi,  L. Vogt,  Tao Wang,  A. Warshel,  M. A. Watson,  
 C. F. Williams,  Q. Wu,  X. Xu,  Jun Yang,  W. Zhang,  Yan Zhao

 Please cite Q-Chem as follows:
 Y. Shao et al., Mol. Phys. 113, 184-215 (2015)
 DOI: 10.1080/00268976.2014.952696

 Q-Chem 5.4.0 for Intel X86 EM64T Linux

 Parts of Q-Chem use Armadillo 9.800.1 (Horizon Scraper).
 http://arma.sourceforge.net/

 Q-Chem begins on Tue Jan  9 12:12:54 2024  

 Host: 
0

     Scratch files written to ./qchem3778286//
 May1621 |scratch|qcdevops|jenkins|workspace|build_RNUM    
 Parallel job on  1  processors
 Processing $rem in /cm/shared/apps/spack/cpu/opt/spack/linux-centos8-zen2/gcc-10.2.0/qchem-5.4-akfmr7b3t57bfs6qan3padb2wnb2i7cl/config/preferences:
 Processing $rem in /home/rramji/.qchemrc:
 Symmetry turned off for PCM/SM12/SMD calculation
 Core orbitals will be frozen

 Checking the input file for inconsistencies... 	...done.

 Q-Chem warning in module forms1/BasisType.C, line 2236:

 You are not using the predefined 5D/6D in this basis set.


--------------------------------------------------------------
User input:
--------------------------------------------------------------
$molecule
0 1
C	0.318247	-8.517702	0.041330
C	-0.757333	-7.641575	0.049453
S	1.866383	-7.638634	0.024919
C	-0.380867	-6.264785	0.049488
H	-1.805573	-7.966081	0.055368
C	1.045647	-6.072714	0.051115
C	1.608077	-4.787049	0.026203
C	-1.282948	-5.162801	0.026637
C	-0.720187	-3.874817	-0.002586
C	0.707853	-3.683952	0.001903
O	-2.602386	-5.499772	0.054867
O	2.933517	-4.459055	-0.003348
C	3.881999	-5.329063	0.602384
H	4.825744	-4.755694	0.675079
H	4.070972	-6.238095	-0.009592
H	3.562152	-5.637262	1.621263
C	-3.588253	-4.572261	-0.381947
H	-4.535674	-5.139743	-0.449872
H	-3.342986	-4.153131	-1.381388
H	-3.728239	-3.739531	0.341040
C	1.080725	-2.306654	-0.000348
S	-1.542694	-2.306501	0.010924
C	-0.000000	-1.435185	-0.000000
H	2.127635	-1.978138	-0.003612
C	0.000000	0.000000	0.000000
S	0.079327	0.901280	1.507541
C	0.215617	2.467903	0.718873
C	0.079577	0.900940	-1.067872
C	0.198433	2.285998	-0.686410
S	0.061187	0.658044	-2.805516
C	0.208347	2.403534	-3.054530
C	0.267636	3.109360	-1.862551
F	0.379347	4.441341	-1.819088
C	0.249278	2.849688	-4.456084
O	0.190132	2.082076	-5.406510
O	0.359548	4.195721	-4.569225
C	0.407901	4.688467	-5.916207
H	0.496901	5.785916	-5.833064
H	-0.512596	4.414348	-6.470168
H	1.278377	4.268124	-6.459293
H	0.294764	3.388767	1.306486
H	0.313367	-9.143623	-0.858809
H	0.325780	-9.149441	0.937378
H	-0.007439	-1.443175	-1.079945
$end

$rem
JOBTYPE		SP
EXCHANGE	HF
CORRELATION	pRIMP2
BASIS		cc-pvtz
METHOD		rimp2
AUX_BASIS	rimp2-cc-pvtz
SOLVENT_METHOD	PCM
PURECART	11111
SYMMETRY	false
MEM_TOTAL	110000
SCF_CONVERGENCE = 6
THRESH=10
GUI = 2
$end



$solvent
dielectric 4.90
$end
--------------------------------------------------------------
 ----------------------------------------------------------------
             Standard Nuclear Orientation (Angstroms)
    I     Atom           X                Y                Z
 ----------------------------------------------------------------
    1      C       0.3182470000    -8.5177020000     0.0413300000
    2      C      -0.7573330000    -7.6415750000     0.0494530000
    3      S       1.8663830000    -7.6386340000     0.0249190000
    4      C      -0.3808670000    -6.2647850000     0.0494880000
    5      H      -1.8055730000    -7.9660810000     0.0553680000
    6      C       1.0456470000    -6.0727140000     0.0511150000
    7      C       1.6080770000    -4.7870490000     0.0262030000
    8      C      -1.2829480000    -5.1628010000     0.0266370000
    9      C      -0.7201870000    -3.8748170000    -0.0025860000
   10      C       0.7078530000    -3.6839520000     0.0019030000
   11      O      -2.6023860000    -5.4997720000     0.0548670000
   12      O       2.9335170000    -4.4590550000    -0.0033480000
   13      C       3.8819990000    -5.3290630000     0.6023840000
   14      H       4.8257440000    -4.7556940000     0.6750790000
   15      H       4.0709720000    -6.2380950000    -0.0095920000
   16      H       3.5621520000    -5.6372620000     1.6212630000
   17      C      -3.5882530000    -4.5722610000    -0.3819470000
   18      H      -4.5356740000    -5.1397430000    -0.4498720000
   19      H      -3.3429860000    -4.1531310000    -1.3813880000
   20      H      -3.7282390000    -3.7395310000     0.3410400000
   21      C       1.0807250000    -2.3066540000    -0.0003480000
   22      S      -1.5426940000    -2.3065010000     0.0109240000
   23      C       0.0000000000    -1.4351850000     0.0000000000
   24      H       2.1276350000    -1.9781380000    -0.0036120000
   25      C       0.0000000000     0.0000000000     0.0000000000
   26      S       0.0793270000     0.9012800000     1.5075410000
   27      C       0.2156170000     2.4679030000     0.7188730000
   28      C       0.0795770000     0.9009400000    -1.0678720000
   29      C       0.1984330000     2.2859980000    -0.6864100000
   30      S       0.0611870000     0.6580440000    -2.8055160000
   31      C       0.2083470000     2.4035340000    -3.0545300000
   32      C       0.2676360000     3.1093600000    -1.8625510000
   33      F       0.3793470000     4.4413410000    -1.8190880000
   34      C       0.2492780000     2.8496880000    -4.4560840000
   35      O       0.1901320000     2.0820760000    -5.4065100000
   36      O       0.3595480000     4.1957210000    -4.5692250000
   37      C       0.4079010000     4.6884670000    -5.9162070000
   38      H       0.4969010000     5.7859160000    -5.8330640000
   39      H      -0.5125960000     4.4143480000    -6.4701680000
   40      H       1.2783770000     4.2681240000    -6.4592930000
   41      H       0.2947640000     3.3887670000     1.3064860000
   42      H       0.3133670000    -9.1436230000    -0.8588090000
   43      H       0.3257800000    -9.1494410000     0.9373780000
   44      H      -0.0074390000    -1.4431750000    -1.0799450000
 ----------------------------------------------------------------
 Nuclear Repulsion Energy =        3329.04657169 hartrees
 There are      120 alpha and      120 beta electrons
 Requested basis set is cc-pVTZ
 There are 388 shells and 1096 basis functions

 Total QAlloc Memory Limit 110000 MB
 Mega-Array Size       188 MB
 MEM_STATIC part       192 MB
 Discretize the solute cavity surface with Lebedev spheres
	Using 110 Lebedev grid points for each H atom
	Using 194 Lebedev grid points for other atoms
	Atomic van der Waals radii will be scaled by 1.20
 Remove points where switching function is < 1.0e-08
 Keep 2981 surface tesserae and discard 4295 interior tesserae
 Molecular Surface Area = 446.003 Angst**2
 Requested basis set is rimp2-cc-pVTZ
 There are 853 shells and 2963 basis functions
 A cutoff of  1.0D-10 yielded  32899 shell pairs
 There are    248599 function pairs (    321761 Cartesian)
 Smallest overlap matrix eigenvalue = 2.21E-05

 Scale SEOQF with 1.000000e-01/1.000000e-02/1.000000e-02

 Standard Electronic Orientation quadrupole field applied
 Nucleus-field energy     =     0.0000000406 hartrees
 Guess from superposition of atomic densities
 Warning:  Energy on first SCF cycle will be non-variational
 SAD guess density has 240.000000 electrons

 -----------------------------------------------------------------------
  General SCF calculation program by
  Eric Jon Sundstrom, Paul Horn, Yuezhi Mao, Dmitri Zuev, Alec White,
  David Stuck, Shaama M.S., Shane Yost, Joonho Lee, David Small,
  Daniel Levine, Susi Lehtola, Hugh Burton, Evgeny Epifanovsky,
  Bang C. Huynh
 -----------------------------------------------------------------------
 Hartree-Fock
 using 64 threads for integral computing
 -------------------------------------------------------
 OpenMP Integral computing Module                
 Release: version 1.0, May 2013, Q-Chem Inc. Pittsburgh 
 -------------------------------------------------------
 A restricted SCF calculation will be
 performed using DIIS
 SCF converges when DIIS error is below 1.0e-06
 ---------------------------------------
  Cycle       Energy         DIIS error
 ---------------------------------------
    1   -2767.0172152644      1.75e-02  
    2   -2754.9001831306      1.53e-03  
    3   -2755.2474612940      8.51e-04  
    4   -2755.3330002734      2.56e-04  
    5   -2755.3463578645      7.28e-05  
    6   -2755.3477975406      2.52e-05  
    7   -2755.3481582379      1.30e-05  
    8   -2755.3482727065      5.38e-06  
    9   -2755.3482991520      2.64e-06  
   10   -2755.3483051716      1.37e-06  
   11   -2755.3483070035      6.76e-07  Convergence criterion met
 ---------------------------------------
 SCF time:   CPU 7395.94s  wall 271.00s 

************** Final PCM Free Energy Summary **************
 G_electrostatic  =      -0.02060507 hartree =     -12.92987646 kcal/mol
 G_cavitation     =       0.00000000 hartree =       0.00000000 kcal/mol
 G_dispersion     =       0.00000000 hartree =       0.00000000 kcal/mol
 G_repulsion      =       0.00000000 hartree =       0.00000000 kcal/mol
 --------------------------------------------------
 Non-electrostatic Free Energy =       0.00000000 hartree =       0.00000000 kcal/mol
 Total                         =      -0.02060507 hartree =     -12.92987646 kcal/mol
 --------------------------------------------------
 SCF Energy (H0 + V/2)                       =   -2755.34830700 
 Solute Internal Energy (H0)                 =   -2755.32770193 
 Total Free Energy (H0 + V/2 + non-elec)     =   -2755.34830700 hartree
                                             = -1729007.15854851 kcal/mol
***********************************************************

 SCF   energy in the final basis set =    -2755.3483070035
 Total energy in the final basis set =    -2755.3483070035


 --------------------------------------------------------------
  Generalized many-body perturbation theory program
  by Joonho Lee, Fazle Rob, Xintian Feng, Evgeny Epifanovsky

 No regularization used 
 (reg. param. = 0.0000e+00)
  (P|Q)^-1/2 Time:  CPU 115.77 s  wall 2.46 s

 In RI-MP2 calculation: 
 # of frozen core orbitals: 45

 Components of the RIMP2 correlation energy:
        aaaa    correlation energy =        -0.6684679073 a.u.
        abab    correlation energy =        -3.7505731034 a.u.
        bbbb    correlation energy =        -0.6684679073 a.u.
        non-Brillouin singles      =        -0.0000000000 a.u.
        total same-spin energy     =        -1.3369358146 a.u.
        total opposite-spin energy =        -3.7505731034 a.u.

 Total  RIMP2   correlation energy =        -5.0875089180 a.u.
        RIMP2         total energy =     -2760.4358159215 a.u.

 RI-MP2 Energy Time:  CPU 2856.04 s  wall 46.73 s
 
 --------------------------------------------------------------
 
                    Orbital Energies (a.u.)
 --------------------------------------------------------------
 
 Alpha MOs
 -- Occupied --
-92.0114 -92.0001 -91.9763 -91.9582 -26.3445 -20.6153 -20.5871 -20.5866
-20.5618 -11.4101 -11.3841 -11.3117 -11.3089 -11.3069 -11.3045 -11.3011
-11.2987 -11.2892 -11.2851 -11.2841 -11.2828 -11.2824 -11.2801 -11.2729
-11.2715 -11.2580 -11.2576 -11.2497 -11.2369  -9.0103  -9.0003  -8.9785
 -8.9608  -6.6910  -6.6904  -6.6900  -6.6813  -6.6806  -6.6795  -6.6596
 -6.6588  -6.6575  -6.6420  -6.6411  -6.6401  -1.6615  -1.4678  -1.4101
 -1.4088  -1.3705  -1.2295  -1.2023  -1.1733  -1.1369  -1.1008  -1.0466
 -1.0453  -1.0235  -1.0033  -0.9968  -0.9627  -0.9585  -0.9484  -0.9413
 -0.8930  -0.8711  -0.8649  -0.8136  -0.7954  -0.7900  -0.7845  -0.7680
 -0.7589  -0.7352  -0.7263  -0.7102  -0.7010  -0.6947  -0.6853  -0.6797
 -0.6744  -0.6650  -0.6553  -0.6484  -0.6347  -0.6304  -0.6200  -0.6148
 -0.6112  -0.5991  -0.5922  -0.5777  -0.5703  -0.5649  -0.5576  -0.5543
 -0.5489  -0.5316  -0.5300  -0.5257  -0.5129  -0.5087  -0.5070  -0.5015
 -0.4854  -0.4809  -0.4763  -0.4745  -0.4712  -0.4676  -0.4604  -0.4460
 -0.4217  -0.4012  -0.3850  -0.3700  -0.3505  -0.3023  -0.2892  -0.2210
 -- Virtual --
  0.0348   0.0519   0.1079   0.1249   0.1395   0.1467   0.1500   0.1547
  0.1567   0.1600   0.1694   0.1784   0.1835   0.1850   0.1893   0.1932
  0.2015   0.2045   0.2077   0.2130   0.2147   0.2209   0.2243   0.2273
  0.2291   0.2350   0.2384   0.2436   0.2512   0.2546   0.2611   0.2677
  0.2735   0.2959   0.3043   0.3249   0.3294   0.3324   0.3378   0.3429
  0.3466   0.3572   0.3605   0.3639   0.3676   0.3775   0.3832   0.3842
  0.3867   0.3937   0.3969   0.3985   0.4045   0.4106   0.4159   0.4225
  0.4252   0.4264   0.4312   0.4335   0.4392   0.4421   0.4461   0.4483
  0.4541   0.4563   0.4620   0.4666   0.4680   0.4760   0.4784   0.4797
  0.4872   0.4964   0.5002   0.5007   0.5046   0.5082   0.5118   0.5174
  0.5257   0.5291   0.5301   0.5344   0.5415   0.5443   0.5459   0.5481
  0.5503   0.5528   0.5554   0.5581   0.5639   0.5714   0.5747   0.5754
  0.5821   0.5831   0.5848   0.5955   0.6001   0.6061   0.6067   0.6103
  0.6138   0.6147   0.6198   0.6204   0.6222   0.6225   0.6262   0.6307
  0.6329   0.6385   0.6411   0.6435   0.6476   0.6508   0.6531   0.6555
  0.6614   0.6644   0.6751   0.6809   0.6839   0.6874   0.6943   0.6970
  0.7015   0.7076   0.7120   0.7130   0.7174   0.7219   0.7233   0.7416
  0.7438   0.7510   0.7577   0.7620   0.7681   0.7737   0.7752   0.7834
  0.7892   0.7944   0.8027   0.8103   0.8114   0.8183   0.8233   0.8235
  0.8268   0.8375   0.8423   0.8516   0.8584   0.8630   0.8712   0.8734
  0.8779   0.8837   0.8882   0.8921   0.8952   0.9003   0.9047   0.9139
  0.9170   0.9251   0.9318   0.9348   0.9417   0.9464   0.9515   0.9557
  0.9592   0.9653   0.9694   0.9755   0.9760   0.9839   0.9848   0.9901
  0.9935   0.9997   1.0058   1.0078   1.0113   1.0186   1.0230   1.0305
  1.0349   1.0387   1.0432   1.0471   1.0548   1.0565   1.0599   1.0686
  1.0742   1.0801   1.0849   1.0888   1.0954   1.0988   1.1023   1.1066
  1.1113   1.1131   1.1153   1.1223   1.1266   1.1365   1.1456   1.1483
  1.1509   1.1587   1.1614   1.1685   1.1718   1.1722   1.1765   1.1836
  1.1843   1.1910   1.1964   1.2002   1.2082   1.2116   1.2142   1.2168
  1.2224   1.2256   1.2320   1.2390   1.2432   1.2472   1.2493   1.2539
  1.2573   1.2632   1.2667   1.2688   1.2808   1.2812   1.2855   1.2897
  1.2950   1.3005   1.3018   1.3125   1.3236   1.3311   1.3355   1.3397
  1.3556   1.3585   1.3626   1.3738   1.3790   1.3849   1.3934   1.4031
  1.4071   1.4112   1.4160   1.4192   1.4291   1.4372   1.4397   1.4569
  1.4573   1.4672   1.4754   1.4820   1.4885   1.4901   1.4935   1.5018
  1.5063   1.5072   1.5113   1.5128   1.5220   1.5314   1.5372   1.5386
  1.5399   1.5438   1.5466   1.5512   1.5552   1.5657   1.5729   1.5751
  1.5876   1.5964   1.6005   1.6061   1.6141   1.6200   1.6314   1.6362
  1.6429   1.6489   1.6574   1.6643   1.6692   1.6759   1.6825   1.6868
  1.6928   1.6958   1.7022   1.7114   1.7140   1.7228   1.7378   1.7525
  1.7557   1.7620   1.7803   1.7819   1.7938   1.8014   1.8066   1.8173
  1.8202   1.8254   1.8305   1.8429   1.8536   1.8651   1.8669   1.8741
  1.8757   1.8882   1.9005   1.9123   1.9151   1.9219   1.9290   1.9407
  1.9415   1.9464   1.9563   1.9742   1.9783   1.9841   1.9931   2.0049
  2.0054   2.0107   2.0200   2.0234   2.0332   2.0388   2.0450   2.0500
  2.0697   2.0759   2.0800   2.0934   2.0949   2.0979   2.1118   2.1222
  2.1354   2.1441   2.1549   2.1664   2.1760   2.1795   2.1913   2.1937
  2.1954   2.2014   2.2091   2.2175   2.2223   2.2294   2.2392   2.2473
  2.2513   2.2528   2.2598   2.2671   2.2729   2.2787   2.2906   2.3025
  2.3050   2.3072   2.3202   2.3286   2.3371   2.3484   2.3582   2.3635
  2.3639   2.3711   2.3910   2.3925   2.4000   2.4141   2.4183   2.4202
  2.4330   2.4467   2.4484   2.4623   2.4712   2.4824   2.4853   2.4914
  2.5062   2.5118   2.5143   2.5336   2.5408   2.5440   2.5503   2.5610
  2.5643   2.5763   2.6003   2.6027   2.6184   2.6201   2.6252   2.6267
  2.6274   2.6317   2.6410   2.6451   2.6500   2.6542   2.6657   2.6676
  2.6763   2.6792   2.6853   2.6956   2.6974   2.7034   2.7054   2.7124
  2.7184   2.7227   2.7363   2.7432   2.7504   2.7634   2.7640   2.7718
  2.7787   2.7861   2.7899   2.7989   2.8027   2.8120   2.8156   2.8180
  2.8330   2.8403   2.8459   2.8530   2.8608   2.8662   2.8715   2.8729
  2.8810   2.8859   2.8925   2.9048   2.9119   2.9187   2.9237   2.9344
  2.9493   2.9553   2.9602   2.9625   2.9742   2.9781   2.9850   2.9903
  2.9934   3.0017   3.0174   3.0190   3.0231   3.0281   3.0390   3.0458
  3.0511   3.0610   3.0712   3.0732   3.0801   3.0900   3.0940   3.0956
  3.1013   3.1062   3.1116   3.1218   3.1294   3.1319   3.1326   3.1420
  3.1460   3.1467   3.1549   3.1597   3.1649   3.1678   3.1773   3.1806
  3.1861   3.1916   3.1997   3.2071   3.2135   3.2164   3.2209   3.2248
  3.2307   3.2424   3.2446   3.2480   3.2546   3.2584   3.2631   3.2646
  3.2690   3.2720   3.2751   3.2828   3.2833   3.2935   3.2972   3.3012
  3.3073   3.3104   3.3145   3.3187   3.3256   3.3287   3.3399   3.3417
  3.3447   3.3494   3.3554   3.3564   3.3599   3.3642   3.3662   3.3673
  3.3713   3.3834   3.3849   3.3960   3.3997   3.4004   3.4046   3.4062
  3.4100   3.4151   3.4192   3.4281   3.4309   3.4325   3.4376   3.4494
  3.4507   3.4538   3.4582   3.4618   3.4654   3.4661   3.4756   3.4809
  3.4849   3.4873   3.4983   3.5013   3.5063   3.5149   3.5257   3.5272
  3.5337   3.5397   3.5498   3.5528   3.5602   3.5656   3.5706   3.5729
  3.5811   3.5867   3.5885   3.5924   3.5984   3.6058   3.6068   3.6155
  3.6179   3.6203   3.6269   3.6288   3.6372   3.6389   3.6481   3.6567
  3.6656   3.6683   3.6756   3.6774   3.6835   3.6863   3.6906   3.6985
  3.7007   3.7042   3.7057   3.7126   3.7146   3.7170   3.7236   3.7313
  3.7381   3.7410   3.7462   3.7545   3.7606   3.7633   3.7706   3.7758
  3.7866   3.7905   3.7915   3.7980   3.8024   3.8100   3.8115   3.8164
  3.8183   3.8211   3.8248   3.8356   3.8424   3.8477   3.8550   3.8578
  3.8636   3.8648   3.8734   3.8765   3.8797   3.8847   3.8929   3.8940
  3.9071   3.9172   3.9252   3.9327   3.9382   3.9506   3.9564   3.9598
  3.9652   3.9759   3.9800   3.9843   3.9915   3.9967   4.0058   4.0068
  4.0187   4.0260   4.0337   4.0455   4.0479   4.0564   4.0646   4.0672
  4.0681   4.0724   4.0877   4.0944   4.1081   4.1123   4.1157   4.1232
  4.1341   4.1442   4.1479   4.1546   4.1648   4.1673   4.1699   4.1732
  4.1775   4.1813   4.1934   4.2043   4.2115   4.2176   4.2209   4.2369
  4.2449   4.2477   4.2510   4.2660   4.2783   4.2823   4.2887   4.2957
  4.3156   4.3218   4.3376   4.3411   4.3420   4.3471   4.3545   4.3572
  4.3625   4.3688   4.3747   4.3835   4.3946   4.4033   4.4079   4.4167
  4.4206   4.4276   4.4293   4.4298   4.4338   4.4410   4.4485   4.4565
  4.4599   4.4727   4.4889   4.4907   4.5076   4.5185   4.5228   4.5323
  4.5344   4.5381   4.5587   4.5656   4.5694   4.5724   4.5738   4.5810
  4.5894   4.6060   4.6100   4.6208   4.6348   4.6423   4.6457   4.6563
  4.6655   4.6700   4.6740   4.7002   4.7047   4.7213   4.7224   4.7268
  4.7435   4.7472   4.7685   4.7784   4.7804   4.7926   4.8031   4.8168
  4.8237   4.8314   4.8502   4.8534   4.8654   4.8814   4.8841   4.8933
  4.9155   4.9203   4.9326   4.9355   4.9465   4.9538   4.9634   4.9698
  4.9864   4.9980   5.0084   5.0085   5.0156   5.0233   5.0412   5.0470
  5.0632   5.0789   5.0928   5.1131   5.1236   5.1242   5.1383   5.1641
  5.1760   5.1947   5.2036   5.2104   5.2184   5.2356   5.2510   5.2512
  5.2577   5.2631   5.2743   5.2833   5.2946   5.3059   5.3203   5.3270
  5.3393   5.3454   5.3494   5.3672   5.3732   5.3885   5.3943   5.4027
  5.4087   5.4220   5.4259   5.4423   5.4536   5.4846   5.4921   5.5051
  5.5104   5.5119   5.5238   5.5331   5.5643   5.5697   5.5807   5.5858
  5.5979   5.6109   5.6161   5.6211   5.6438   5.6640   5.6913   5.6993
  5.7204   5.7433   5.7592   5.7652   5.7958   5.8070   5.8386   5.8529
  5.8595   5.8822   5.9026   5.9158   5.9286   5.9547   5.9758   6.0008
  6.0402   6.0437   6.0887   6.1235   6.1501   6.1547   6.1726   6.1774
  6.1815   6.2020   6.2308   6.2452   6.2610   6.2627   6.2735   6.2846
  6.2984   6.3137   6.3386   6.3767   6.4345   6.4496   6.4830   6.5380
  6.5460   6.5679   6.6023   6.6462   6.6605   6.6706   6.7133   6.7459
  6.8069   6.8295   6.8562   6.8589   6.8996   6.9778   7.1313   7.1470
  7.2034   7.2072   7.2223   7.2395   7.3093   7.3269   7.3416   7.3621
  7.3634   7.4063   7.4128   7.4845   7.4867   7.4970   7.5236   7.5517
  7.6164   7.7388   7.7718   7.7897   7.8029   7.9007   7.9269   7.9561
  7.9751   8.1336   8.3029   8.5321   8.9208   9.0247   9.3617   9.4801
  9.6753  10.2037  11.1756  11.4343  11.7513  11.9364  12.1213  12.3578
 12.4167  12.4871  12.9199  12.9936  13.0530  13.3078  13.3851  13.4820
 13.6960  13.7943  13.8751  13.9410  14.0336  14.3112  14.9278  15.2051
 --------------------------------------------------------------
 
          Ground-State Mulliken Net Atomic Charges

     Atom                 Charge (a.u.)
  ----------------------------------------
      1 C                    -0.070229
      2 C                    -0.259048
      3 S                    -0.135312
      4 C                    -0.044403
      5 H                     0.193569
      6 C                    -0.052440
      7 C                     0.226450
      8 C                     0.227972
      9 C                    -0.082703
     10 C                    -0.064037
     11 O                    -0.335186
     12 O                    -0.343162
     13 C                    -0.082581
     14 H                     0.120001
     15 H                     0.092004
     16 H                     0.092555
     17 C                    -0.086448
     18 H                     0.122799
     19 H                     0.092741
     20 H                     0.090218
     21 C                    -0.229747
     22 S                    -0.070779
     23 C                     0.060720
     24 H                     0.205699
     25 C                    -0.090451
     26 S                     0.088081
     27 C                    -0.178041
     28 C                     0.018634
     29 C                    -0.112709
     30 S                     0.000468
     31 C                    -0.160618
     32 C                     0.400363
     33 F                    -0.205790
     34 C                     0.444016
     35 O                    -0.461317
     36 O                    -0.300790
     37 C                    -0.058668
     38 H                     0.121510
     39 H                     0.095283
     40 H                     0.095183
     41 H                     0.217511
     42 H                     0.117413
     43 H                     0.114951
     44 H                     0.186318
  ----------------------------------------
  Sum of atomic charges =     0.000000

 -----------------------------------------------------------------
                    Cartesian Multipole Moments
 -----------------------------------------------------------------
    Charge (ESU x 10^10)
                -0.0000
    Dipole Moment (Debye)
         X       0.1299      Y       2.9514      Z       2.3729
       Tot       3.7892
    Quadrupole Moments (Debye-Ang)
        XX    -185.2837     XY       5.1551     YY    -174.4645
        XZ       5.1282     YZ      -7.6740     ZZ    -204.5067
    Octopole Moments (Debye-Ang^2)
       XXX    -100.2124    XXY     303.4083    XYY     -58.8570
       YYY     968.4133    XXZ     175.1715    XYZ     -33.9112
       YYZ     111.8326    XZZ     -25.7527    YZZ     464.7903
       ZZZ     544.4560
    Hexadecapole Moments (Debye-Ang^3)
      XXXX   -2385.4558   XXXY     402.1579   XXYY   -4054.4624
      XYYY     698.8152   YYYY  -20422.8129   XXXZ     131.9300
      XXYZ     531.0441   XYYZ     126.7202   YYYZ    1287.9798
      XXZZ   -1355.4070   XYZZ     194.1206   YYZZ   -4158.5917
      XZZZ      14.3977   YZZZ    1114.6054   ZZZZ   -5449.3748
 -----------------------------------------------------------------
 Total job time:  322.21s(wall), 10362.38s(cpu) 
 Tue Jan  9 12:18:16 2024

        *************************************************************
        *                                                           *
        *  Thank you very much for using Q-Chem.  Have a nice day.  *
        *                                                           *
        *************************************************************


0 sent ACK to 0 
now end server 0 ... 
cleanup process ... done
remove work dirs ./qchem3778286.0 -- ./qchem3778286.0
rm -rf ./qchem3778286.0
rm -rf ./qchem3778286
