You are running Q-Chem version: 5.4.0

#
# job setting
#
local host:  exp-14-17
current dir: /home/rramji/project-csd799/aromodel/ptb7fout-qchem/hydrogenated-rotation-run
input file:  Dimethoxy_Benzodithiophene_Phi_40_Theta_130_Methylcarbonyl_3_Fluoro_Thienothiophene_Hydrogenated.qcin
output file: 
nprocs     : 1
nthreads   : 64
#
# qchem installation setting
#
QC:          /cm/shared/apps/spack/cpu/opt/spack/linux-centos8-zen2/gcc-10.2.0/qchem-5.4-akfmr7b3t57bfs6qan3padb2wnb2i7cl
QCAUX:       /cm/shared/apps/spack/cpu/opt/spack/linux-centos8-zen2/gcc-10.2.0/qchem-5.4-akfmr7b3t57bfs6qan3padb2wnb2i7cl/qcaux
QCPROG:      /cm/shared/apps/spack/cpu/opt/spack/linux-centos8-zen2/gcc-10.2.0/qchem-5.4-akfmr7b3t57bfs6qan3padb2wnb2i7cl/exe/qcprog.exe
QCPROG_S:    /cm/shared/apps/spack/cpu/opt/spack/linux-centos8-zen2/gcc-10.2.0/qchem-5.4-akfmr7b3t57bfs6qan3padb2wnb2i7cl/exe/qcprog.exe_s
PARALLEL:    -DPARALLEL
QCMPI:       mpich
#
# qchem directory setting
#
qcrun:       qchem1953367
QCSCRATCH:   .
QCLOCALSCR:  
QCTMPDIR:    .
QCFILEPREF:  ./qchem1953367
QCSAVEDIR:   
workdirs:    ./qchem1953367
workdir0:    ./qchem1953367
partmpdirs =  
#
# parallel setting
#
QCRSH:           ssh
QCMPI:           mpich
QCMPIRUN:        /cm/shared/apps/spack/cpu/opt/spack/linux-centos8-zen2/gcc-10.2.0/qchem-5.4-akfmr7b3t57bfs6qan3padb2wnb2i7cl/bin/mpi/mpirun_qchem
QCMACHINEFILE:   ./qchem1953367/hostfile
exp-14-17

#
# env setting
#
exported envs:   QC QCAUX QCSCRATCH QCRUNNAME QCFILEPREF QCPROG QCPROG_S GUIFILE

Running Job 1 of 1 Dimethoxy_Benzodithiophene_Phi_40_Theta_130_Methylcarbonyl_3_Fluoro_Thienothiophene_Hydrogenated.qcin
qchem Dimethoxy_Benzodithiophene_Phi_40_Theta_130_Methylcarbonyl_3_Fluoro_Thienothiophene_Hydrogenated.qcin_1953367.0 ./qchem1953367/ 1
/cm/shared/apps/spack/cpu/opt/spack/linux-centos8-zen2/gcc-10.2.0/qchem-5.4-akfmr7b3t57bfs6qan3padb2wnb2i7cl/bin/mpi/mpirun_qchem -machinefile ./qchem1953367/hostfile -np 1 /cm/shared/apps/spack/cpu/opt/spack/linux-centos8-zen2/gcc-10.2.0/qchem-5.4-akfmr7b3t57bfs6qan3padb2wnb2i7cl/exe/qcprog.exe Dimethoxy_Benzodithiophene_Phi_40_Theta_130_Methylcarbonyl_3_Fluoro_Thienothiophene_Hydrogenated.qcin_1953367.0 ./qchem1953367/

Process 0 of 1 is on exp-14-17 - thread support 0
initial socket setup ...start
initial socket setup ...done 
now start server 0 ... 
                  Welcome to Q-Chem
     A Quantum Leap Into The Future Of Chemistry


 Q-Chem 5.4, Q-Chem, Inc., Pleasanton, CA (2021)

 License issued to: University of California, San Diego (site)

 E. Epifanovsky,  A. T. B. Gilbert,  Xintian Feng,  Joonho Lee,  Yuezhi Mao,  
 N. Mardirossian,  P. Pokhilko,  A. White,  M. Wormit,  M. P. Coons,  
 A. L. Dempwolff,  Zhengting Gan,  D. Hait,  P. R. Horn,  L. D. Jacobson,  
 I. Kaliman,  J. Kussmann,  A. W. Lange,  Ka Un Lao,  D. S. Levine,  Jie Liu,  
 S. C. McKenzie,  A. F. Morrison,  K. Nanda,  F. Plasser,  D. R. Rehn,  
 M. L. Vidal,  Zhi-Qiang You,  Ying Zhu,  B. Alam,  B. Albrecht,  
 A. Aldossary,  E. Alguire,  J. H. Andersen,  D. Barton,  K. Begam,  A. Behn,  
 Y. A. Bernard,  E. J. Berquist,  H. Burton,  A. Carreras,  K. Carter-Fenk,  
 R. Chakraborty,  A. D. Chien,  K. D. Closser,  V. Cofer-Shabica,  
 S. Dasgupta,  Jia Deng,  M. de Wergifosse,  M. Diedenhofen,  Hainam Do,  
 S. Ehlert,  Po-Tung Fang,  S. Fatehi,  Qingguo Feng,  J. Gayvert,  
 Qinghui Ge,  G. Gidofalvi,  M. Goldey,  J. Gomes,  C. Gonzalez-Espinoza,  
 S. Gulania,  A. Gunina,  M. W. D. Hanson-Heine,  P. H. P. Harbach,  
 A. W. Hauser,  M. F. Herbst,  M. Hernandez Vera,  M. Hodecker,  
 Z. C. Holden,  S. Houck,  Xunkun Huang,  Kerwin Hui,  B. C. Huynh,  
 M. Ivanov,  Hyunjun Ji,  Hanjie Jiang,  B. Kaduk,  S. Kaehler,  
 K. Khistyaev,  Jaehoon Kim,  P. Klunzinger,  Z. Koczor-Benda,  
 Joong Hoon Koh,  D. Kosenkov,  L. Koulias,  T. Kowalczyk,  C. M. Krauter,  
 K. Kue,  A. Kunitsa,  T. Kus,  A. Landau,  K. V. Lawler,  D. Lefrancois,  
 S. Lehtola,  Rain Li,  Yi-Pei Li,  Jiashu Liang,  M. Liebenthal,  
 Hung-Hsuan Lin,  You-Sheng Lin,  Fenglai Liu,  Kuan-Yu Liu,  
 M. Loipersberger,  A. Luenser,  A. Manjanath,  P. Manohar,  E. Mansoor,  
 S. F. Manzer,  Shan-Ping Mao,  A. V. Marenich,  T. Markovich,  S. Mason,  
 S. A. Maurer,  P. F. McLaughlin,  M. F. S. J. Menger,  J.-M. Mewes,  
 S. A. Mewes,  P. Morgante,  J. W. Mullinax,  T. S. Nguyen-Beck,  
 K. J. Oosterbaan,  G. Paran,  Alexander C. Paul,  Suranjan K. Paul,  
 F. Pavosevic,  Zheng Pei,  S. Prager,  E. I. Proynov,  E. Ramos,  B. Rana,  
 A. E. Rask,  A. Rettig,  R. M. Richard,  F. Rob,  E. Rossomme,  T. Scheele,  
 M. Scheurer,  M. Schneider,  N. Sergueev,  S. M. Sharada,  W. Skomorowski,  
 D. W. Small,  C. J. Stein,  Yu-Chuan Su,  E. J. Sundstrom,  Zhen Tao,  
 J. Thirman,  T. Tsuchimochi,  N. M. Tubman,  S. P. Veccham,  O. Vydrov,  
 J. Wenzel,  J. Witte,  A. Yamada,  Kun Yao,  S. Yeganeh,  S. R. Yost,  
 A. Zech,  Igor Ying Zhang,  Xing Zhang,  Yu Zhang,  D. Zuev,  
 A. Aspuru-Guzik,  A. T. Bell,  N. A. Besley,  K. B. Bravaya,  B. R. Brooks,  
 D. Casanova,  Jeng-Da Chai,  S. Coriani,  C. J. Cramer,  
 A. E. DePrince, III,  R. A. DiStasio Jr.,  A. Dreuw,  B. D. Dunietz,  
 T. R. Furlani,  W. A. Goddard III,  S. Grimme,  S. Hammes-Schiffer,  
 T. Head-Gordon,  W. J. Hehre,  Chao-Ping Hsu,  T.-C. Jagau,  Yousung Jung,  
 A. Klamt,  Jing Kong,  D. S. Lambrecht,  WanZhen Liang,  N. J. Mayhall,  
 C. W. McCurdy,  J. B. Neaton,  C. Ochsenfeld,  J. A. Parkhill,  R. Peverati,  
 V. A. Rassolov,  Yihan Shao,  L. V. Slipchenko,  T. Stauch,  R. P. Steele,  
 J. E. Subotnik,  A. J. W. Thom,  A. Tkatchenko,  D. G. Truhlar,  
 T. Van Voorhis,  T. A. Wesolowski,  K. B. Whaley,  H. L. Woodcock III,  
 P. M. Zimmerman,  S. Faraji,  P. M. W. Gill,  M. Head-Gordon,  
 J. M. Herbert,  A. I. Krylov

 Contributors to earlier versions of Q-Chem not listed above: 
 R. D. Adamson,  B. Austin,  R. Baer,  J. Baker,  G. J. O. Beran,  
 K. Brandhorst,  S. T. Brown,  E. F. C. Byrd,  A. K. Chakraborty,  
 G. K. L. Chan,  Chun-Min Chang,  Yunqing Chen,  C.-L. Cheng,  
 Siu Hung Chien,  D. M. Chipman,  D. L. Crittenden,  H. Dachsel,  
 R. J. Doerksen,  A. D. Dutoi,  R. G. Edgar,  J. Fosso-Tande,  
 L. Fusti-Molnar,  D. Ghosh,  A. Ghysels,  A. Golubeva-Zadorozhnaya,  
 J. Gonthier,  M. S. Gordon,  S. R. Gwaltney,  G. Hawkins,  J. E. Herr,  
 A. Heyden,  S. Hirata,  E. G. Hohenstein,  G. Kedziora,  F. J. Keil,  
 C. Kelley,  Jihan Kim,  R. A. King,  R. Z. Khaliullin,  P. P. Korambath,  
 W. Kurlancheek,  A. Laurent,  A. M. Lee,  M. S. Lee,  S. V. Levchenko,  
 Ching Yeh Lin,  D. Liotard,  E. Livshits,  R. C. Lochan,  I. Lotan,  
 L. A. Martinez-Martinez,  P. E. Maslen,  N. Nair,  D. P. O'Neill,  
 D. Neuhauser,  E. Neuscamman,  C. M. Oana,  R. Olivares-Amaya,  R. Olson,  
 T. M. Perrine,  B. Peters,  P. A. Pieniazek,  A. Prociuk,  Y. M. Rhee,  
 J. Ritchie,  M. A. Rohrdanz,  E. Rosta,  N. J. Russ,  H. F. Schaefer III,  
 M. W. Schmidt,  N. E. Schultz,  S. Sharma,  N. Shenvi,  C. D. Sherrill,  
 A. C. Simmonett,  A. Sodt,  T. Stein,  D. Stuck,  K. S. Thanthiriwatte,  
 V. Vanovschi,  L. Vogt,  Tao Wang,  A. Warshel,  M. A. Watson,  
 C. F. Williams,  Q. Wu,  X. Xu,  Jun Yang,  W. Zhang,  Yan Zhao

 Please cite Q-Chem as follows:
 Y. Shao et al., Mol. Phys. 113, 184-215 (2015)
 DOI: 10.1080/00268976.2014.952696

 Q-Chem 5.4.0 for Intel X86 EM64T Linux

 Parts of Q-Chem use Armadillo 9.800.1 (Horizon Scraper).
 http://arma.sourceforge.net/

 Q-Chem begins on Tue Jan  9 10:57:57 2024  

 Host: 
0

     Scratch files written to ./qchem1953367//
 May1621 |scratch|qcdevops|jenkins|workspace|build_RNUM    
 Parallel job on  1  processors
 Processing $rem in /cm/shared/apps/spack/cpu/opt/spack/linux-centos8-zen2/gcc-10.2.0/qchem-5.4-akfmr7b3t57bfs6qan3padb2wnb2i7cl/config/preferences:
 Processing $rem in /home/rramji/.qchemrc:
 Symmetry turned off for PCM/SM12/SMD calculation
 Core orbitals will be frozen

 Checking the input file for inconsistencies... 	...done.

 Q-Chem warning in module forms1/BasisType.C, line 2236:

 You are not using the predefined 5D/6D in this basis set.


--------------------------------------------------------------
User input:
--------------------------------------------------------------
$molecule
0 1
C	-0.217225	-8.517702	-0.236226
C	0.611939	-7.641575	0.448921
S	-1.413715	-7.638634	-1.218777
C	0.323572	-6.264785	0.206907
H	1.418739	-7.966081	1.118185
C	-0.768156	-6.072714	-0.711285
C	-1.215016	-4.787049	-1.053725
C	0.999917	-5.162801	0.804258
C	0.550033	-3.874817	0.464908
C	-0.541024	-3.683952	-0.456457
O	2.028811	-5.499772	1.630752
O	-2.249357	-4.459055	-1.883064
C	-2.586579	-5.329063	-2.956754
H	-3.262802	-4.755694	-3.619069
H	-3.124711	-6.238095	-2.609423
H	-1.686639	-5.637262	-3.531667
C	2.503251	-4.572261	2.599073
H	3.185356	-5.139743	3.260097
H	1.672937	-4.153131	3.207034
H	3.075213	-3.739531	2.135214
C	-0.828107	-2.306654	-0.694410
S	1.188794	-2.306501	0.983256
C	-0.000000	-1.435185	-0.000000
H	-1.632185	-1.978138	-1.364851
C	0.000000	0.000000	0.000000
S	0.581934	0.692785	1.507541
C	1.592155	1.897915	0.718873
C	0.581944	0.692363	-1.067872
C	1.473741	1.758764	-0.686410
S	0.427560	0.503942	-2.805516
C	1.549278	1.849357	-3.054530
C	2.002690	2.393529	-1.862551
F	2.858191	3.420549	-1.819088
C	1.838710	2.191348	-4.456084
O	1.349977	1.596481	-5.406510
O	2.701091	3.230705	-4.569225
C	3.023327	3.606605	-5.916207
H	3.725703	4.454534	-5.833064
H	2.112072	3.910035	-6.470168
H	3.495281	2.762996	-6.459293
H	2.185174	2.606846	1.306486
H	-0.792084	-9.143623	0.456457
H	0.352973	-9.149441	-0.927480
H	-0.688477	-1.443175	0.832067
$end

$rem
JOBTYPE		SP
EXCHANGE	HF
CORRELATION	pRIMP2
BASIS		cc-pvtz
METHOD		rimp2
AUX_BASIS	rimp2-cc-pvtz
SOLVENT_METHOD	PCM
PURECART	11111
SYMMETRY	false
MEM_TOTAL	110000
SCF_CONVERGENCE = 6
THRESH=10
GUI = 2
$end



$solvent
dielectric 4.90
$end
--------------------------------------------------------------
 ----------------------------------------------------------------
             Standard Nuclear Orientation (Angstroms)
    I     Atom           X                Y                Z
 ----------------------------------------------------------------
    1      C      -0.2172250000    -8.5177020000    -0.2362260000
    2      C       0.6119390000    -7.6415750000     0.4489210000
    3      S      -1.4137150000    -7.6386340000    -1.2187770000
    4      C       0.3235720000    -6.2647850000     0.2069070000
    5      H       1.4187390000    -7.9660810000     1.1181850000
    6      C      -0.7681560000    -6.0727140000    -0.7112850000
    7      C      -1.2150160000    -4.7870490000    -1.0537250000
    8      C       0.9999170000    -5.1628010000     0.8042580000
    9      C       0.5500330000    -3.8748170000     0.4649080000
   10      C      -0.5410240000    -3.6839520000    -0.4564570000
   11      O       2.0288110000    -5.4997720000     1.6307520000
   12      O      -2.2493570000    -4.4590550000    -1.8830640000
   13      C      -2.5865790000    -5.3290630000    -2.9567540000
   14      H      -3.2628020000    -4.7556940000    -3.6190690000
   15      H      -3.1247110000    -6.2380950000    -2.6094230000
   16      H      -1.6866390000    -5.6372620000    -3.5316670000
   17      C       2.5032510000    -4.5722610000     2.5990730000
   18      H       3.1853560000    -5.1397430000     3.2600970000
   19      H       1.6729370000    -4.1531310000     3.2070340000
   20      H       3.0752130000    -3.7395310000     2.1352140000
   21      C      -0.8281070000    -2.3066540000    -0.6944100000
   22      S       1.1887940000    -2.3065010000     0.9832560000
   23      C       0.0000000000    -1.4351850000     0.0000000000
   24      H      -1.6321850000    -1.9781380000    -1.3648510000
   25      C       0.0000000000     0.0000000000     0.0000000000
   26      S       0.5819340000     0.6927850000     1.5075410000
   27      C       1.5921550000     1.8979150000     0.7188730000
   28      C       0.5819440000     0.6923630000    -1.0678720000
   29      C       1.4737410000     1.7587640000    -0.6864100000
   30      S       0.4275600000     0.5039420000    -2.8055160000
   31      C       1.5492780000     1.8493570000    -3.0545300000
   32      C       2.0026900000     2.3935290000    -1.8625510000
   33      F       2.8581910000     3.4205490000    -1.8190880000
   34      C       1.8387100000     2.1913480000    -4.4560840000
   35      O       1.3499770000     1.5964810000    -5.4065100000
   36      O       2.7010910000     3.2307050000    -4.5692250000
   37      C       3.0233270000     3.6066050000    -5.9162070000
   38      H       3.7257030000     4.4545340000    -5.8330640000
   39      H       2.1120720000     3.9100350000    -6.4701680000
   40      H       3.4952810000     2.7629960000    -6.4592930000
   41      H       2.1851740000     2.6068460000     1.3064860000
   42      H      -0.7920840000    -9.1436230000     0.4564570000
   43      H       0.3529730000    -9.1494410000    -0.9274800000
   44      H      -0.6884770000    -1.4431750000     0.8320670000
 ----------------------------------------------------------------
 Nuclear Repulsion Energy =        3370.26899878 hartrees
 There are      120 alpha and      120 beta electrons
 Requested basis set is cc-pVTZ
 There are 388 shells and 1096 basis functions

 Total QAlloc Memory Limit 110000 MB
 Mega-Array Size       188 MB
 MEM_STATIC part       192 MB
 Discretize the solute cavity surface with Lebedev spheres
	Using 110 Lebedev grid points for each H atom
	Using 194 Lebedev grid points for other atoms
	Atomic van der Waals radii will be scaled by 1.20
 Remove points where switching function is < 1.0e-08
 Keep 2944 surface tesserae and discard 4332 interior tesserae
 Molecular Surface Area = 440.256 Angst**2
 Requested basis set is rimp2-cc-pVTZ
 There are 853 shells and 2963 basis functions
 A cutoff of  1.0D-10 yielded  33386 shell pairs
 There are    251632 function pairs (    325380 Cartesian)
 Smallest overlap matrix eigenvalue = 2.19E-05

 Scale SEOQF with 1.000000e-01/1.000000e-02/1.000000e-02

 Standard Electronic Orientation quadrupole field applied
 Nucleus-field energy     =     0.0000000382 hartrees
 Guess from superposition of atomic densities
 Warning:  Energy on first SCF cycle will be non-variational
 SAD guess density has 240.000000 electrons

 -----------------------------------------------------------------------
  General SCF calculation program by
  Eric Jon Sundstrom, Paul Horn, Yuezhi Mao, Dmitri Zuev, Alec White,
  David Stuck, Shaama M.S., Shane Yost, Joonho Lee, David Small,
  Daniel Levine, Susi Lehtola, Hugh Burton, Evgeny Epifanovsky,
  Bang C. Huynh
 -----------------------------------------------------------------------
 Hartree-Fock
 using 64 threads for integral computing
 -------------------------------------------------------
 OpenMP Integral computing Module                
 Release: version 1.0, May 2013, Q-Chem Inc. Pittsburgh 
 -------------------------------------------------------
 A restricted SCF calculation will be
 performed using DIIS
 SCF converges when DIIS error is below 1.0e-06
 ---------------------------------------
  Cycle       Energy         DIIS error
 ---------------------------------------
    1   -2767.0713548878      1.75e-02  
    2   -2754.8619499837      1.53e-03  
    3   -2755.2115805310      8.50e-04  
    4   -2755.2970974228      2.56e-04  
    5   -2755.3106237966      7.39e-05  
    6   -2755.3121608016      2.63e-05  
    7   -2755.3125703671      1.37e-05  
    8   -2755.3127086154      5.88e-06  
    9   -2755.3127422198      2.99e-06  
   10   -2755.3127504361      1.61e-06  
   11   -2755.3127531184      8.01e-07  Convergence criterion met
 ---------------------------------------
 SCF time:   CPU 7574.94s  wall 296.00s 

************** Final PCM Free Energy Summary **************
 G_electrostatic  =      -0.02166988 hartree =     -13.59805501 kcal/mol
 G_cavitation     =       0.00000000 hartree =       0.00000000 kcal/mol
 G_dispersion     =       0.00000000 hartree =       0.00000000 kcal/mol
 G_repulsion      =       0.00000000 hartree =       0.00000000 kcal/mol
 --------------------------------------------------
 Non-electrostatic Free Energy =       0.00000000 hartree =       0.00000000 kcal/mol
 Total                         =      -0.02166988 hartree =     -13.59805501 kcal/mol
 --------------------------------------------------
 SCF Energy (H0 + V/2)                       =   -2755.31275312 
 Solute Internal Energy (H0)                 =   -2755.29108324 
 Total Free Energy (H0 + V/2 + non-elec)     =   -2755.31275312 hartree
                                             = -1728984.84814885 kcal/mol
***********************************************************

 SCF   energy in the final basis set =    -2755.3127531184
 Total energy in the final basis set =    -2755.3127531184


 --------------------------------------------------------------
  Generalized many-body perturbation theory program
  by Joonho Lee, Fazle Rob, Xintian Feng, Evgeny Epifanovsky

 No regularization used 
 (reg. param. = 0.0000e+00)
  (P|Q)^-1/2 Time:  CPU 196.22 s  wall 3.43 s

 In RI-MP2 calculation: 
 # of frozen core orbitals: 45

 Components of the RIMP2 correlation energy:
        aaaa    correlation energy =        -0.6701387177 a.u.
        abab    correlation energy =        -3.7553934615 a.u.
        bbbb    correlation energy =        -0.6701387177 a.u.
        non-Brillouin singles      =        -0.0000000000 a.u.
        total same-spin energy     =        -1.3402774354 a.u.
        total opposite-spin energy =        -3.7553934615 a.u.

 Total  RIMP2   correlation energy =        -5.0956708969 a.u.
        RIMP2         total energy =     -2760.4084240152 a.u.

 RI-MP2 Energy Time:  CPU 3027.36 s  wall 49.88 s
 
 --------------------------------------------------------------
 
                    Orbital Energies (a.u.)
 --------------------------------------------------------------
 
 Alpha MOs
 -- Occupied --
-92.0159 -92.0036 -91.9752 -91.9560 -26.3450 -20.6156 -20.5861 -20.5849
-20.5621 -11.4104 -11.3849 -11.3225 -11.3077 -11.3068 -11.3034 -11.2989
-11.2894 -11.2868 -11.2862 -11.2837 -11.2817 -11.2809 -11.2752 -11.2721
-11.2698 -11.2561 -11.2535 -11.2474 -11.2316  -9.0151  -9.0035  -8.9776
 -8.9586  -6.6958  -6.6951  -6.6947  -6.6845  -6.6838  -6.6827  -6.6586
 -6.6578  -6.6564  -6.6399  -6.6390  -6.6379  -1.6620  -1.4681  -1.4086
 -1.4075  -1.3708  -1.2330  -1.2012  -1.1716  -1.1395  -1.0978  -1.0465
 -1.0440  -1.0264  -1.0025  -0.9949  -0.9643  -0.9592  -0.9470  -0.9399
 -0.8922  -0.8704  -0.8632  -0.8147  -0.7988  -0.7886  -0.7827  -0.7656
 -0.7575  -0.7371  -0.7268  -0.7168  -0.6966  -0.6875  -0.6852  -0.6791
 -0.6746  -0.6607  -0.6550  -0.6474  -0.6347  -0.6301  -0.6178  -0.6137
 -0.6114  -0.6009  -0.5910  -0.5762  -0.5702  -0.5634  -0.5567  -0.5539
 -0.5412  -0.5333  -0.5308  -0.5268  -0.5129  -0.5086  -0.5065  -0.4997
 -0.4846  -0.4833  -0.4756  -0.4749  -0.4725  -0.4681  -0.4566  -0.4442
 -0.4254  -0.3947  -0.3844  -0.3676  -0.3506  -0.3049  -0.2870  -0.2159
 -- Virtual --
  0.0272   0.0549   0.0854   0.1246   0.1418   0.1452   0.1520   0.1563
  0.1579   0.1596   0.1664   0.1751   0.1839   0.1843   0.1882   0.1955
  0.2026   0.2040   0.2073   0.2144   0.2178   0.2228   0.2241   0.2268
  0.2300   0.2346   0.2360   0.2440   0.2501   0.2574   0.2616   0.2674
  0.2741   0.2934   0.2973   0.3186   0.3298   0.3329   0.3377   0.3418
  0.3480   0.3570   0.3596   0.3643   0.3682   0.3764   0.3828   0.3852
  0.3870   0.3884   0.3936   0.3984   0.4084   0.4111   0.4165   0.4240
  0.4280   0.4305   0.4317   0.4335   0.4366   0.4438   0.4466   0.4485
  0.4566   0.4581   0.4618   0.4696   0.4752   0.4779   0.4816   0.4868
  0.4903   0.4945   0.4975   0.5004   0.5035   0.5091   0.5114   0.5206
  0.5246   0.5294   0.5300   0.5340   0.5361   0.5401   0.5424   0.5462
  0.5504   0.5531   0.5570   0.5605   0.5639   0.5640   0.5769   0.5818
  0.5830   0.5880   0.5945   0.5968   0.6006   0.6059   0.6074   0.6098
  0.6134   0.6171   0.6171   0.6183   0.6211   0.6242   0.6281   0.6298
  0.6351   0.6361   0.6421   0.6477   0.6497   0.6549   0.6586   0.6605
  0.6647   0.6711   0.6723   0.6774   0.6824   0.6855   0.6925   0.6978
  0.7060   0.7068   0.7135   0.7165   0.7174   0.7209   0.7233   0.7373
  0.7399   0.7480   0.7583   0.7593   0.7607   0.7681   0.7766   0.7809
  0.7866   0.7926   0.8029   0.8089   0.8138   0.8165   0.8180   0.8294
  0.8313   0.8359   0.8403   0.8463   0.8495   0.8627   0.8682   0.8726
  0.8764   0.8823   0.8843   0.8931   0.8969   0.9007   0.9083   0.9147
  0.9219   0.9279   0.9311   0.9379   0.9414   0.9489   0.9526   0.9555
  0.9563   0.9646   0.9724   0.9748   0.9809   0.9822   0.9882   0.9913
  0.9943   1.0026   1.0041   1.0097   1.0174   1.0199   1.0253   1.0313
  1.0359   1.0361   1.0444   1.0530   1.0563   1.0583   1.0658   1.0667
  1.0743   1.0772   1.0884   1.0895   1.0993   1.1007   1.1042   1.1088
  1.1154   1.1164   1.1186   1.1227   1.1263   1.1323   1.1381   1.1513
  1.1537   1.1625   1.1641   1.1670   1.1727   1.1763   1.1772   1.1826
  1.1876   1.1906   1.1962   1.2012   1.2039   1.2082   1.2110   1.2170
  1.2214   1.2285   1.2323   1.2404   1.2413   1.2476   1.2518   1.2562
  1.2616   1.2655   1.2660   1.2738   1.2815   1.2862   1.2872   1.2908
  1.2934   1.3057   1.3094   1.3183   1.3202   1.3254   1.3363   1.3450
  1.3523   1.3568   1.3662   1.3708   1.3798   1.3860   1.3915   1.3958
  1.4065   1.4107   1.4176   1.4199   1.4277   1.4322   1.4399   1.4457
  1.4612   1.4684   1.4780   1.4856   1.4906   1.4943   1.4977   1.5014
  1.5034   1.5086   1.5132   1.5165   1.5236   1.5309   1.5359   1.5403
  1.5417   1.5455   1.5494   1.5520   1.5555   1.5635   1.5654   1.5742
  1.5805   1.5935   1.6022   1.6082   1.6205   1.6272   1.6334   1.6400
  1.6454   1.6562   1.6567   1.6585   1.6657   1.6699   1.6760   1.6873
  1.6912   1.6982   1.7080   1.7149   1.7226   1.7255   1.7308   1.7474
  1.7514   1.7612   1.7742   1.7817   1.7920   1.7979   1.8037   1.8084
  1.8141   1.8224   1.8324   1.8367   1.8460   1.8623   1.8725   1.8750
  1.8774   1.8916   1.8972   1.9087   1.9149   1.9228   1.9285   1.9360
  1.9433   1.9473   1.9541   1.9589   1.9702   1.9790   1.9900   1.9982
  2.0054   2.0087   2.0165   2.0243   2.0327   2.0400   2.0425   2.0564
  2.0670   2.0765   2.0833   2.0935   2.0939   2.1053   2.1202   2.1348
  2.1385   2.1501   2.1612   2.1622   2.1771   2.1872   2.1885   2.1921
  2.1944   2.1981   2.2101   2.2216   2.2270   2.2308   2.2342   2.2453
  2.2465   2.2499   2.2548   2.2677   2.2738   2.2830   2.2868   2.2914
  2.2989   2.3075   2.3185   2.3360   2.3370   2.3461   2.3608   2.3631
  2.3668   2.3815   2.3907   2.4030   2.4073   2.4132   2.4195   2.4244
  2.4299   2.4384   2.4526   2.4611   2.4735   2.4821   2.4870   2.4934
  2.5028   2.5109   2.5142   2.5316   2.5330   2.5466   2.5555   2.5638
  2.5686   2.5776   2.5849   2.5990   2.6181   2.6198   2.6236   2.6266
  2.6299   2.6354   2.6403   2.6428   2.6505   2.6538   2.6571   2.6700
  2.6734   2.6843   2.6903   2.6971   2.6997   2.7025   2.7052   2.7196
  2.7210   2.7308   2.7401   2.7436   2.7474   2.7640   2.7675   2.7758
  2.7825   2.7867   2.7938   2.8020   2.8065   2.8164   2.8220   2.8241
  2.8383   2.8486   2.8496   2.8537   2.8549   2.8657   2.8691   2.8804
  2.8807   2.8915   2.8994   2.9086   2.9235   2.9292   2.9336   2.9491
  2.9524   2.9578   2.9589   2.9642   2.9731   2.9808   2.9873   2.9924
  3.0010   3.0114   3.0212   3.0230   3.0316   3.0364   3.0420   3.0467
  3.0526   3.0628   3.0647   3.0717   3.0832   3.0850   3.0928   3.0959
  3.1025   3.1094   3.1118   3.1144   3.1244   3.1266   3.1397   3.1428
  3.1474   3.1537   3.1576   3.1616   3.1632   3.1674   3.1695   3.1827
  3.1886   3.1947   3.2003   3.2058   3.2079   3.2174   3.2187   3.2263
  3.2286   3.2381   3.2454   3.2482   3.2535   3.2578   3.2632   3.2661
  3.2694   3.2755   3.2813   3.2841   3.2907   3.2974   3.3019   3.3054
  3.3064   3.3121   3.3177   3.3258   3.3306   3.3396   3.3433   3.3472
  3.3509   3.3517   3.3563   3.3600   3.3645   3.3671   3.3699   3.3731
  3.3768   3.3874   3.3903   3.3961   3.4010   3.4013   3.4067   3.4082
  3.4112   3.4202   3.4263   3.4285   3.4325   3.4369   3.4407   3.4485
  3.4489   3.4539   3.4564   3.4628   3.4704   3.4730   3.4793   3.4804
  3.4841   3.4854   3.4947   3.5044   3.5136   3.5167   3.5281   3.5325
  3.5364   3.5467   3.5475   3.5529   3.5601   3.5662   3.5673   3.5724
  3.5794   3.5854   3.5932   3.5960   3.6021   3.6084   3.6113   3.6189
  3.6225   3.6280   3.6313   3.6368   3.6383   3.6465   3.6507   3.6580
  3.6639   3.6695   3.6735   3.6815   3.6849   3.6892   3.6916   3.7003
  3.7051   3.7052   3.7126   3.7161   3.7213   3.7269   3.7303   3.7331
  3.7440   3.7442   3.7490   3.7630   3.7687   3.7718   3.7741   3.7806
  3.7876   3.7944   3.7986   3.7991   3.8064   3.8081   3.8105   3.8159
  3.8187   3.8244   3.8282   3.8427   3.8465   3.8487   3.8541   3.8637
  3.8654   3.8695   3.8768   3.8848   3.8890   3.8897   3.9051   3.9085
  3.9157   3.9202   3.9303   3.9339   3.9453   3.9485   3.9547   3.9614
  3.9655   3.9705   3.9720   3.9847   3.9854   3.9962   4.0078   4.0155
  4.0238   4.0308   4.0391   4.0497   4.0512   4.0588   4.0635   4.0682
  4.0697   4.0719   4.0800   4.0918   4.1109   4.1161   4.1181   4.1253
  4.1379   4.1431   4.1499   4.1565   4.1597   4.1634   4.1657   4.1728
  4.1795   4.1880   4.1920   4.2016   4.2120   4.2150   4.2259   4.2386
  4.2429   4.2507   4.2589   4.2680   4.2777   4.2893   4.2943   4.3038
  4.3162   4.3294   4.3412   4.3433   4.3491   4.3524   4.3552   4.3629
  4.3705   4.3725   4.3786   4.3894   4.4008   4.4076   4.4110   4.4138
  4.4231   4.4251   4.4295   4.4338   4.4363   4.4482   4.4506   4.4613
  4.4642   4.4709   4.4805   4.4981   4.5129   4.5143   4.5190   4.5280
  4.5425   4.5460   4.5510   4.5627   4.5662   4.5731   4.5813   4.5852
  4.5901   4.5981   4.6210   4.6258   4.6341   4.6399   4.6433   4.6537
  4.6635   4.6711   4.6800   4.6852   4.6912   4.6992   4.7188   4.7316
  4.7431   4.7551   4.7621   4.7700   4.7814   4.7893   4.7960   4.8150
  4.8249   4.8305   4.8468   4.8547   4.8604   4.8709   4.8834   4.8861
  4.9026   4.9203   4.9254   4.9381   4.9445   4.9589   4.9652   4.9746
  4.9814   4.9975   5.0084   5.0139   5.0213   5.0245   5.0352   5.0464
  5.0512   5.0859   5.0900   5.1094   5.1115   5.1240   5.1521   5.1644
  5.1793   5.1965   5.1985   5.2066   5.2172   5.2322   5.2473   5.2507
  5.2566   5.2607   5.2733   5.2885   5.2954   5.3112   5.3174   5.3284
  5.3335   5.3495   5.3520   5.3646   5.3662   5.3897   5.3994   5.4038
  5.4089   5.4170   5.4257   5.4444   5.4481   5.4845   5.4936   5.5049
  5.5106   5.5177   5.5227   5.5362   5.5660   5.5728   5.5806   5.5863
  5.5981   5.6119   5.6209   5.6286   5.6517   5.6596   5.6699   5.6947
  5.7127   5.7356   5.7586   5.7614   5.7698   5.8068   5.8158   5.8407
  5.8604   5.8784   5.9023   5.9111   5.9284   5.9584   5.9877   6.0155
  6.0400   6.0417   6.0629   6.1278   6.1499   6.1510   6.1698   6.1766
  6.1811   6.1872   6.2254   6.2478   6.2536   6.2608   6.2617   6.2736
  6.2880   6.2969   6.3476   6.3720   6.4389   6.4494   6.4784   6.5389
  6.5479   6.5672   6.6009   6.6481   6.6604   6.6704   6.7136   6.7444
  6.8081   6.8288   6.8554   6.8587   6.8995   6.9774   7.1327   7.1464
  7.2032   7.2048   7.2241   7.2404   7.3091   7.3283   7.3423   7.3616
  7.3624   7.4043   7.4126   7.4840   7.4887   7.4972   7.5202   7.5497
  7.6150   7.7391   7.7714   7.7888   7.8040   7.8972   7.9280   7.9552
  7.9687   8.1328   8.2508   8.4693   8.9204   9.0266   9.3615   9.4844
  9.6731  10.2529  11.2058  11.3973  11.7665  11.9917  12.1232  12.3692
 12.4224  12.5081  12.9395  12.9947  13.0285  13.3833  13.3988  13.4878
 13.6041  13.7840  13.8710  13.9365  14.0350  14.3090  14.8326  15.2084
 --------------------------------------------------------------
 
          Ground-State Mulliken Net Atomic Charges

     Atom                 Charge (a.u.)
  ----------------------------------------
      1 C                    -0.069287
      2 C                    -0.275244
      3 S                    -0.140112
      4 C                    -0.040399
      5 H                     0.191386
      6 C                    -0.053782
      7 C                     0.221554
      8 C                     0.217213
      9 C                    -0.077775
     10 C                    -0.053371
     11 O                    -0.335749
     12 O                    -0.343765
     13 C                    -0.082554
     14 H                     0.119911
     15 H                     0.091747
     16 H                     0.093012
     17 C                    -0.086941
     18 H                     0.122940
     19 H                     0.090907
     20 H                     0.089398
     21 C                    -0.263044
     22 S                    -0.077709
     23 C                     0.029995
     24 H                     0.210015
     25 C                    -0.120519
     26 S                     0.087439
     27 C                    -0.150574
     28 C                     0.071231
     29 C                    -0.111849
     30 S                     0.027892
     31 C                    -0.155035
     32 C                     0.398209
     33 F                    -0.205543
     34 C                     0.446163
     35 O                    -0.461069
     36 O                    -0.301060
     37 C                    -0.058353
     38 H                     0.121525
     39 H                     0.095217
     40 H                     0.095396
     41 H                     0.220320
     42 H                     0.115165
     43 H                     0.113020
     44 H                     0.194076
  ----------------------------------------
  Sum of atomic charges =     0.000000

 -----------------------------------------------------------------
                    Cartesian Multipole Moments
 -----------------------------------------------------------------
    Charge (ESU x 10^10)
                 0.0000
    Dipole Moment (Debye)
         X       1.9388      Y       3.8726      Z       3.2393
       Tot       5.4082
    Quadrupole Moments (Debye-Ang)
        XX    -190.0909     XY       6.0005     YY    -188.9588
        XZ       3.3618     YZ      -7.7854     ZZ    -191.6610
    Octopole Moments (Debye-Ang^2)
       XXX    -303.6537    XXY     425.0620    XYY     -58.8463
       YYY    1134.6750    XXZ     162.2469    XYZ     -68.3680
       YYZ     163.7424    XZZ     -50.9864    YZZ     433.6838
       ZZZ     588.7307
    Hexadecapole Moments (Debye-Ang^3)
      XXXX   -2931.8540   XXXY   -1215.9599   XXYY   -4066.8798
      XYYY   -1389.4159   YYYY  -19722.1767   XXXZ     404.2109
      XXYZ     163.0776   XYYZ     169.4175   YYYZ     531.3500
      XXZZ   -1221.8204   XYZZ     -91.1503   YYZZ   -4127.4068
      XZZZ     170.3214   YZZZ     404.3645   ZZZZ   -6495.5015
 -----------------------------------------------------------------
 Total job time:  351.26s(wall), 10724.16s(cpu) 
 Tue Jan  9 11:03:48 2024

        *************************************************************
        *                                                           *
        *  Thank you very much for using Q-Chem.  Have a nice day.  *
        *                                                           *
        *************************************************************


0 sent ACK to 0 
now end server 0 ... 
cleanup process ... done
remove work dirs ./qchem1953367.0 -- ./qchem1953367.0
rm -rf ./qchem1953367.0
rm -rf ./qchem1953367
