You are running Q-Chem version: 5.4.0

#
# job setting
#
local host:  exp-14-17
current dir: /home/rramji/project-csd799/aromodel/ptb7fout-qchem/hydrogenated-rotation-run
input file:  Dimethoxy_Benzodithiophene_Phi_40_Theta_170_Methylcarbonyl_3_Fluoro_Thienothiophene_Hydrogenated.qcin
output file: 
nprocs     : 1
nthreads   : 64
#
# qchem installation setting
#
QC:          /cm/shared/apps/spack/cpu/opt/spack/linux-centos8-zen2/gcc-10.2.0/qchem-5.4-akfmr7b3t57bfs6qan3padb2wnb2i7cl
QCAUX:       /cm/shared/apps/spack/cpu/opt/spack/linux-centos8-zen2/gcc-10.2.0/qchem-5.4-akfmr7b3t57bfs6qan3padb2wnb2i7cl/qcaux
QCPROG:      /cm/shared/apps/spack/cpu/opt/spack/linux-centos8-zen2/gcc-10.2.0/qchem-5.4-akfmr7b3t57bfs6qan3padb2wnb2i7cl/exe/qcprog.exe
QCPROG_S:    /cm/shared/apps/spack/cpu/opt/spack/linux-centos8-zen2/gcc-10.2.0/qchem-5.4-akfmr7b3t57bfs6qan3padb2wnb2i7cl/exe/qcprog.exe_s
PARALLEL:    -DPARALLEL
QCMPI:       mpich
#
# qchem directory setting
#
qcrun:       qchem1957522
QCSCRATCH:   .
QCLOCALSCR:  
QCTMPDIR:    .
QCFILEPREF:  ./qchem1957522
QCSAVEDIR:   
workdirs:    ./qchem1957522
workdir0:    ./qchem1957522
partmpdirs =  
#
# parallel setting
#
QCRSH:           ssh
QCMPI:           mpich
QCMPIRUN:        /cm/shared/apps/spack/cpu/opt/spack/linux-centos8-zen2/gcc-10.2.0/qchem-5.4-akfmr7b3t57bfs6qan3padb2wnb2i7cl/bin/mpi/mpirun_qchem
QCMACHINEFILE:   ./qchem1957522/hostfile
exp-14-17

#
# env setting
#
exported envs:   QC QCAUX QCSCRATCH QCRUNNAME QCFILEPREF QCPROG QCPROG_S GUIFILE

Running Job 1 of 1 Dimethoxy_Benzodithiophene_Phi_40_Theta_170_Methylcarbonyl_3_Fluoro_Thienothiophene_Hydrogenated.qcin
qchem Dimethoxy_Benzodithiophene_Phi_40_Theta_170_Methylcarbonyl_3_Fluoro_Thienothiophene_Hydrogenated.qcin_1957522.0 ./qchem1957522/ 1
/cm/shared/apps/spack/cpu/opt/spack/linux-centos8-zen2/gcc-10.2.0/qchem-5.4-akfmr7b3t57bfs6qan3padb2wnb2i7cl/bin/mpi/mpirun_qchem -machinefile ./qchem1957522/hostfile -np 1 /cm/shared/apps/spack/cpu/opt/spack/linux-centos8-zen2/gcc-10.2.0/qchem-5.4-akfmr7b3t57bfs6qan3padb2wnb2i7cl/exe/qcprog.exe Dimethoxy_Benzodithiophene_Phi_40_Theta_170_Methylcarbonyl_3_Fluoro_Thienothiophene_Hydrogenated.qcin_1957522.0 ./qchem1957522/

Process 0 of 1 is on exp-14-17 - thread support 0
initial socket setup ...start
initial socket setup ...done 
now start server 0 ... 
                  Welcome to Q-Chem
     A Quantum Leap Into The Future Of Chemistry


 Q-Chem 5.4, Q-Chem, Inc., Pleasanton, CA (2021)

 License issued to: University of California, San Diego (site)

 E. Epifanovsky,  A. T. B. Gilbert,  Xintian Feng,  Joonho Lee,  Yuezhi Mao,  
 N. Mardirossian,  P. Pokhilko,  A. White,  M. Wormit,  M. P. Coons,  
 A. L. Dempwolff,  Zhengting Gan,  D. Hait,  P. R. Horn,  L. D. Jacobson,  
 I. Kaliman,  J. Kussmann,  A. W. Lange,  Ka Un Lao,  D. S. Levine,  Jie Liu,  
 S. C. McKenzie,  A. F. Morrison,  K. Nanda,  F. Plasser,  D. R. Rehn,  
 M. L. Vidal,  Zhi-Qiang You,  Ying Zhu,  B. Alam,  B. Albrecht,  
 A. Aldossary,  E. Alguire,  J. H. Andersen,  D. Barton,  K. Begam,  A. Behn,  
 Y. A. Bernard,  E. J. Berquist,  H. Burton,  A. Carreras,  K. Carter-Fenk,  
 R. Chakraborty,  A. D. Chien,  K. D. Closser,  V. Cofer-Shabica,  
 S. Dasgupta,  Jia Deng,  M. de Wergifosse,  M. Diedenhofen,  Hainam Do,  
 S. Ehlert,  Po-Tung Fang,  S. Fatehi,  Qingguo Feng,  J. Gayvert,  
 Qinghui Ge,  G. Gidofalvi,  M. Goldey,  J. Gomes,  C. Gonzalez-Espinoza,  
 S. Gulania,  A. Gunina,  M. W. D. Hanson-Heine,  P. H. P. Harbach,  
 A. W. Hauser,  M. F. Herbst,  M. Hernandez Vera,  M. Hodecker,  
 Z. C. Holden,  S. Houck,  Xunkun Huang,  Kerwin Hui,  B. C. Huynh,  
 M. Ivanov,  Hyunjun Ji,  Hanjie Jiang,  B. Kaduk,  S. Kaehler,  
 K. Khistyaev,  Jaehoon Kim,  P. Klunzinger,  Z. Koczor-Benda,  
 Joong Hoon Koh,  D. Kosenkov,  L. Koulias,  T. Kowalczyk,  C. M. Krauter,  
 K. Kue,  A. Kunitsa,  T. Kus,  A. Landau,  K. V. Lawler,  D. Lefrancois,  
 S. Lehtola,  Rain Li,  Yi-Pei Li,  Jiashu Liang,  M. Liebenthal,  
 Hung-Hsuan Lin,  You-Sheng Lin,  Fenglai Liu,  Kuan-Yu Liu,  
 M. Loipersberger,  A. Luenser,  A. Manjanath,  P. Manohar,  E. Mansoor,  
 S. F. Manzer,  Shan-Ping Mao,  A. V. Marenich,  T. Markovich,  S. Mason,  
 S. A. Maurer,  P. F. McLaughlin,  M. F. S. J. Menger,  J.-M. Mewes,  
 S. A. Mewes,  P. Morgante,  J. W. Mullinax,  T. S. Nguyen-Beck,  
 K. J. Oosterbaan,  G. Paran,  Alexander C. Paul,  Suranjan K. Paul,  
 F. Pavosevic,  Zheng Pei,  S. Prager,  E. I. Proynov,  E. Ramos,  B. Rana,  
 A. E. Rask,  A. Rettig,  R. M. Richard,  F. Rob,  E. Rossomme,  T. Scheele,  
 M. Scheurer,  M. Schneider,  N. Sergueev,  S. M. Sharada,  W. Skomorowski,  
 D. W. Small,  C. J. Stein,  Yu-Chuan Su,  E. J. Sundstrom,  Zhen Tao,  
 J. Thirman,  T. Tsuchimochi,  N. M. Tubman,  S. P. Veccham,  O. Vydrov,  
 J. Wenzel,  J. Witte,  A. Yamada,  Kun Yao,  S. Yeganeh,  S. R. Yost,  
 A. Zech,  Igor Ying Zhang,  Xing Zhang,  Yu Zhang,  D. Zuev,  
 A. Aspuru-Guzik,  A. T. Bell,  N. A. Besley,  K. B. Bravaya,  B. R. Brooks,  
 D. Casanova,  Jeng-Da Chai,  S. Coriani,  C. J. Cramer,  
 A. E. DePrince, III,  R. A. DiStasio Jr.,  A. Dreuw,  B. D. Dunietz,  
 T. R. Furlani,  W. A. Goddard III,  S. Grimme,  S. Hammes-Schiffer,  
 T. Head-Gordon,  W. J. Hehre,  Chao-Ping Hsu,  T.-C. Jagau,  Yousung Jung,  
 A. Klamt,  Jing Kong,  D. S. Lambrecht,  WanZhen Liang,  N. J. Mayhall,  
 C. W. McCurdy,  J. B. Neaton,  C. Ochsenfeld,  J. A. Parkhill,  R. Peverati,  
 V. A. Rassolov,  Yihan Shao,  L. V. Slipchenko,  T. Stauch,  R. P. Steele,  
 J. E. Subotnik,  A. J. W. Thom,  A. Tkatchenko,  D. G. Truhlar,  
 T. Van Voorhis,  T. A. Wesolowski,  K. B. Whaley,  H. L. Woodcock III,  
 P. M. Zimmerman,  S. Faraji,  P. M. W. Gill,  M. Head-Gordon,  
 J. M. Herbert,  A. I. Krylov

 Contributors to earlier versions of Q-Chem not listed above: 
 R. D. Adamson,  B. Austin,  R. Baer,  J. Baker,  G. J. O. Beran,  
 K. Brandhorst,  S. T. Brown,  E. F. C. Byrd,  A. K. Chakraborty,  
 G. K. L. Chan,  Chun-Min Chang,  Yunqing Chen,  C.-L. Cheng,  
 Siu Hung Chien,  D. M. Chipman,  D. L. Crittenden,  H. Dachsel,  
 R. J. Doerksen,  A. D. Dutoi,  R. G. Edgar,  J. Fosso-Tande,  
 L. Fusti-Molnar,  D. Ghosh,  A. Ghysels,  A. Golubeva-Zadorozhnaya,  
 J. Gonthier,  M. S. Gordon,  S. R. Gwaltney,  G. Hawkins,  J. E. Herr,  
 A. Heyden,  S. Hirata,  E. G. Hohenstein,  G. Kedziora,  F. J. Keil,  
 C. Kelley,  Jihan Kim,  R. A. King,  R. Z. Khaliullin,  P. P. Korambath,  
 W. Kurlancheek,  A. Laurent,  A. M. Lee,  M. S. Lee,  S. V. Levchenko,  
 Ching Yeh Lin,  D. Liotard,  E. Livshits,  R. C. Lochan,  I. Lotan,  
 L. A. Martinez-Martinez,  P. E. Maslen,  N. Nair,  D. P. O'Neill,  
 D. Neuhauser,  E. Neuscamman,  C. M. Oana,  R. Olivares-Amaya,  R. Olson,  
 T. M. Perrine,  B. Peters,  P. A. Pieniazek,  A. Prociuk,  Y. M. Rhee,  
 J. Ritchie,  M. A. Rohrdanz,  E. Rosta,  N. J. Russ,  H. F. Schaefer III,  
 M. W. Schmidt,  N. E. Schultz,  S. Sharma,  N. Shenvi,  C. D. Sherrill,  
 A. C. Simmonett,  A. Sodt,  T. Stein,  D. Stuck,  K. S. Thanthiriwatte,  
 V. Vanovschi,  L. Vogt,  Tao Wang,  A. Warshel,  M. A. Watson,  
 C. F. Williams,  Q. Wu,  X. Xu,  Jun Yang,  W. Zhang,  Yan Zhao

 Please cite Q-Chem as follows:
 Y. Shao et al., Mol. Phys. 113, 184-215 (2015)
 DOI: 10.1080/00268976.2014.952696

 Q-Chem 5.4.0 for Intel X86 EM64T Linux

 Parts of Q-Chem use Armadillo 9.800.1 (Horizon Scraper).
 http://arma.sourceforge.net/

 Q-Chem begins on Tue Jan  9 11:21:24 2024  

 Host: 
0

     Scratch files written to ./qchem1957522//
 May1621 |scratch|qcdevops|jenkins|workspace|build_RNUM    
 Parallel job on  1  processors
 Processing $rem in /cm/shared/apps/spack/cpu/opt/spack/linux-centos8-zen2/gcc-10.2.0/qchem-5.4-akfmr7b3t57bfs6qan3padb2wnb2i7cl/config/preferences:
 Processing $rem in /home/rramji/.qchemrc:
 Symmetry turned off for PCM/SM12/SMD calculation
 Core orbitals will be frozen

 Checking the input file for inconsistencies... 	...done.

 Q-Chem warning in module forms1/BasisType.C, line 2236:

 You are not using the predefined 5D/6D in this basis set.


--------------------------------------------------------------
User input:
--------------------------------------------------------------
$molecule
0 1
C	-0.014560	-8.517702	-0.320589
C	0.180211	-7.641575	0.737240
S	-0.299553	-7.638634	-1.842356
C	0.114873	-6.264785	0.366488
H	0.368061	-7.966081	1.768528
C	-0.131236	-6.072714	-1.038637
C	-0.253435	-4.787049	-1.588197
C	0.249014	-5.162801	1.258831
C	0.122513	-3.874817	0.709695
C	-0.121043	-3.683952	-0.697430
O	0.505933	-5.499772	2.553323
O	-0.512697	-4.459055	-2.888369
C	-0.080869	-5.329063	-3.927625
H	-0.173159	-4.755694	-4.869656
H	-0.716363	-6.238095	-4.007459
H	0.978072	-5.637262	-3.789565
C	0.246949	-4.572261	3.600064
H	0.344574	-5.139743	4.544887
H	-0.779898	-4.153131	3.532074
H	0.983261	-3.739531	3.612378
C	-0.188009	-2.306654	-1.064246
S	0.278644	-2.306501	1.517360
C	-0.000000	-1.435185	-0.000000
H	-0.373017	-1.978138	-2.094685
C	0.000000	0.000000	0.000000
S	0.581934	0.692785	1.507541
C	1.592155	1.897915	0.718873
C	0.581944	0.692363	-1.067872
C	1.473741	1.758764	-0.686410
S	0.427560	0.503942	-2.805516
C	1.549278	1.849357	-3.054530
C	2.002690	2.393529	-1.862551
F	2.858191	3.420549	-1.819088
C	1.838710	2.191348	-4.456084
O	1.349977	1.596481	-5.406510
O	2.701091	3.230705	-4.569225
C	3.023327	3.606605	-5.916207
H	3.725703	4.454534	-5.833064
H	2.112072	3.910035	-6.470168
H	3.495281	2.762996	-6.459293
H	2.185174	2.606846	1.306486
H	-0.900177	-9.143623	-0.159475
H	0.866566	-9.149441	-0.483604
H	-1.062246	-1.443175	0.194856
$end

$rem
JOBTYPE		SP
EXCHANGE	HF
CORRELATION	pRIMP2
BASIS		cc-pvtz
METHOD		rimp2
AUX_BASIS	rimp2-cc-pvtz
SOLVENT_METHOD	PCM
PURECART	11111
SYMMETRY	false
MEM_TOTAL	110000
SCF_CONVERGENCE = 6
THRESH=10
GUI = 2
$end



$solvent
dielectric 4.90
$end
--------------------------------------------------------------
 ----------------------------------------------------------------
             Standard Nuclear Orientation (Angstroms)
    I     Atom           X                Y                Z
 ----------------------------------------------------------------
    1      C      -0.0145600000    -8.5177020000    -0.3205890000
    2      C       0.1802110000    -7.6415750000     0.7372400000
    3      S      -0.2995530000    -7.6386340000    -1.8423560000
    4      C       0.1148730000    -6.2647850000     0.3664880000
    5      H       0.3680610000    -7.9660810000     1.7685280000
    6      C      -0.1312360000    -6.0727140000    -1.0386370000
    7      C      -0.2534350000    -4.7870490000    -1.5881970000
    8      C       0.2490140000    -5.1628010000     1.2588310000
    9      C       0.1225130000    -3.8748170000     0.7096950000
   10      C      -0.1210430000    -3.6839520000    -0.6974300000
   11      O       0.5059330000    -5.4997720000     2.5533230000
   12      O      -0.5126970000    -4.4590550000    -2.8883690000
   13      C      -0.0808690000    -5.3290630000    -3.9276250000
   14      H      -0.1731590000    -4.7556940000    -4.8696560000
   15      H      -0.7163630000    -6.2380950000    -4.0074590000
   16      H       0.9780720000    -5.6372620000    -3.7895650000
   17      C       0.2469490000    -4.5722610000     3.6000640000
   18      H       0.3445740000    -5.1397430000     4.5448870000
   19      H      -0.7798980000    -4.1531310000     3.5320740000
   20      H       0.9832610000    -3.7395310000     3.6123780000
   21      C      -0.1880090000    -2.3066540000    -1.0642460000
   22      S       0.2786440000    -2.3065010000     1.5173600000
   23      C       0.0000000000    -1.4351850000     0.0000000000
   24      H      -0.3730170000    -1.9781380000    -2.0946850000
   25      C       0.0000000000     0.0000000000     0.0000000000
   26      S       0.5819340000     0.6927850000     1.5075410000
   27      C       1.5921550000     1.8979150000     0.7188730000
   28      C       0.5819440000     0.6923630000    -1.0678720000
   29      C       1.4737410000     1.7587640000    -0.6864100000
   30      S       0.4275600000     0.5039420000    -2.8055160000
   31      C       1.5492780000     1.8493570000    -3.0545300000
   32      C       2.0026900000     2.3935290000    -1.8625510000
   33      F       2.8581910000     3.4205490000    -1.8190880000
   34      C       1.8387100000     2.1913480000    -4.4560840000
   35      O       1.3499770000     1.5964810000    -5.4065100000
   36      O       2.7010910000     3.2307050000    -4.5692250000
   37      C       3.0233270000     3.6066050000    -5.9162070000
   38      H       3.7257030000     4.4545340000    -5.8330640000
   39      H       2.1120720000     3.9100350000    -6.4701680000
   40      H       3.4952810000     2.7629960000    -6.4592930000
   41      H       2.1851740000     2.6068460000     1.3064860000
   42      H      -0.9001770000    -9.1436230000    -0.1594750000
   43      H       0.8665660000    -9.1494410000    -0.4836040000
   44      H      -1.0622460000    -1.4431750000     0.1948560000
 ----------------------------------------------------------------
 Nuclear Repulsion Energy =        3375.93102513 hartrees
 There are      120 alpha and      120 beta electrons
 Requested basis set is cc-pVTZ
 There are 388 shells and 1096 basis functions

 Total QAlloc Memory Limit 110000 MB
 Mega-Array Size       188 MB
 MEM_STATIC part       192 MB
 Discretize the solute cavity surface with Lebedev spheres
	Using 110 Lebedev grid points for each H atom
	Using 194 Lebedev grid points for other atoms
	Atomic van der Waals radii will be scaled by 1.20
 Remove points where switching function is < 1.0e-08
 Keep 2917 surface tesserae and discard 4359 interior tesserae
 Molecular Surface Area = 436.413 Angst**2
 Requested basis set is rimp2-cc-pVTZ
 There are 853 shells and 2963 basis functions
 A cutoff of  1.0D-10 yielded  33598 shell pairs
 There are    253170 function pairs (    327275 Cartesian)
 Smallest overlap matrix eigenvalue = 2.14E-05

 Scale SEOQF with 1.000000e-01/1.000000e-02/1.000000e-02

 Standard Electronic Orientation quadrupole field applied
 Nucleus-field energy     =     0.0000000255 hartrees
 Guess from superposition of atomic densities
 Warning:  Energy on first SCF cycle will be non-variational
 SAD guess density has 240.000000 electrons

 -----------------------------------------------------------------------
  General SCF calculation program by
  Eric Jon Sundstrom, Paul Horn, Yuezhi Mao, Dmitri Zuev, Alec White,
  David Stuck, Shaama M.S., Shane Yost, Joonho Lee, David Small,
  Daniel Levine, Susi Lehtola, Hugh Burton, Evgeny Epifanovsky,
  Bang C. Huynh
 -----------------------------------------------------------------------
 Hartree-Fock
 using 64 threads for integral computing
 -------------------------------------------------------
 OpenMP Integral computing Module                
 Release: version 1.0, May 2013, Q-Chem Inc. Pittsburgh 
 -------------------------------------------------------
 A restricted SCF calculation will be
 performed using DIIS
 SCF converges when DIIS error is below 1.0e-06
 ---------------------------------------
  Cycle       Energy         DIIS error
 ---------------------------------------
    1   -2767.0900949805      1.75e-02  
    2   -2754.8498673817      1.53e-03  
    3   -2755.2001618689      8.54e-04  
    4   -2755.2870672336      2.56e-04  
    5   -2755.3009030143      7.45e-05  
    6   -2755.3025289241      2.68e-05  
    7   -2755.3029755297      1.41e-05  
    8   -2755.3031245467      5.91e-06  
    9   -2755.3031593538      3.05e-06  
   10   -2755.3031676713      1.58e-06  
   11   -2755.3031704780      8.63e-07  Convergence criterion met
 ---------------------------------------
 SCF time:   CPU 7471.08s  wall 280.00s 

************** Final PCM Free Energy Summary **************
 G_electrostatic  =      -0.02065782 hartree =     -12.96297506 kcal/mol
 G_cavitation     =       0.00000000 hartree =       0.00000000 kcal/mol
 G_dispersion     =       0.00000000 hartree =       0.00000000 kcal/mol
 G_repulsion      =       0.00000000 hartree =       0.00000000 kcal/mol
 --------------------------------------------------
 Non-electrostatic Free Energy =       0.00000000 hartree =       0.00000000 kcal/mol
 Total                         =      -0.02065782 hartree =     -12.96297506 kcal/mol
 --------------------------------------------------
 SCF Energy (H0 + V/2)                       =   -2755.30317048 
 Solute Internal Energy (H0)                 =   -2755.28251266 
 Total Free Energy (H0 + V/2 + non-elec)     =   -2755.30317048 hartree
                                             = -1728978.83495127 kcal/mol
***********************************************************

 SCF   energy in the final basis set =    -2755.3031704780
 Total energy in the final basis set =    -2755.3031704780


 --------------------------------------------------------------
  Generalized many-body perturbation theory program
  by Joonho Lee, Fazle Rob, Xintian Feng, Evgeny Epifanovsky

 No regularization used 
 (reg. param. = 0.0000e+00)
  (P|Q)^-1/2 Time:  CPU 136.16 s  wall 2.73 s

 In RI-MP2 calculation: 
 # of frozen core orbitals: 45

 Components of the RIMP2 correlation energy:
        aaaa    correlation energy =        -0.6712908518 a.u.
        abab    correlation energy =        -3.7583542238 a.u.
        bbbb    correlation energy =        -0.6712908518 a.u.
        non-Brillouin singles      =        -0.0000000000 a.u.
        total same-spin energy     =        -1.3425817036 a.u.
        total opposite-spin energy =        -3.7583542238 a.u.

 Total  RIMP2   correlation energy =        -5.1009359274 a.u.
        RIMP2         total energy =     -2760.4041064054 a.u.

 RI-MP2 Energy Time:  CPU 2802.58 s  wall 45.83 s
 
 --------------------------------------------------------------
 
                    Orbital Energies (a.u.)
 --------------------------------------------------------------
 
 Alpha MOs
 -- Occupied --
-92.0139 -92.0024 -91.9804 -91.9565 -26.3445 -20.6156 -20.5866 -20.5865
-20.5621 -11.4104 -11.3842 -11.3148 -11.3087 -11.3064 -11.3032 -11.2988
-11.2934 -11.2894 -11.2863 -11.2847 -11.2830 -11.2818 -11.2769 -11.2747
-11.2703 -11.2571 -11.2551 -11.2481 -11.2333  -9.0132  -9.0025  -8.9826
 -8.9591  -6.6940  -6.6932  -6.6928  -6.6834  -6.6827  -6.6816  -6.6636
 -6.6628  -6.6615  -6.6404  -6.6394  -6.6384  -1.6615  -1.4680  -1.4100
 -1.4082  -1.3708  -1.2334  -1.2021  -1.1725  -1.1391  -1.0991  -1.0469
 -1.0457  -1.0258  -1.0031  -0.9968  -0.9642  -0.9596  -0.9478  -0.9406
 -0.8939  -0.8706  -0.8634  -0.8121  -0.8002  -0.7905  -0.7825  -0.7661
 -0.7575  -0.7371  -0.7263  -0.7142  -0.6980  -0.6904  -0.6853  -0.6809
 -0.6746  -0.6618  -0.6563  -0.6481  -0.6387  -0.6307  -0.6185  -0.6140
 -0.6118  -0.6004  -0.5924  -0.5781  -0.5698  -0.5655  -0.5582  -0.5560
 -0.5408  -0.5353  -0.5303  -0.5280  -0.5139  -0.5095  -0.5075  -0.4996
 -0.4861  -0.4822  -0.4765  -0.4745  -0.4702  -0.4658  -0.4559  -0.4453
 -0.4321  -0.3922  -0.3853  -0.3696  -0.3500  -0.3023  -0.2874  -0.2135
 -- Virtual --
  0.0276   0.0559   0.0890   0.1319   0.1386   0.1436   0.1537   0.1553
  0.1580   0.1590   0.1622   0.1725   0.1785   0.1846   0.1913   0.1927
  0.2008   0.2052   0.2064   0.2147   0.2210   0.2234   0.2250   0.2269
  0.2295   0.2410   0.2443   0.2485   0.2518   0.2585   0.2625   0.2741
  0.2796   0.2930   0.3128   0.3188   0.3243   0.3400   0.3418   0.3470
  0.3581   0.3593   0.3634   0.3708   0.3758   0.3815   0.3849   0.3861
  0.3897   0.3977   0.3992   0.4020   0.4069   0.4123   0.4177   0.4223
  0.4261   0.4274   0.4305   0.4344   0.4426   0.4443   0.4503   0.4560
  0.4575   0.4637   0.4662   0.4735   0.4738   0.4765   0.4816   0.4852
  0.4902   0.4948   0.4963   0.5004   0.5071   0.5095   0.5138   0.5184
  0.5193   0.5252   0.5310   0.5328   0.5368   0.5380   0.5425   0.5487
  0.5509   0.5536   0.5589   0.5633   0.5680   0.5710   0.5715   0.5769
  0.5847   0.5900   0.5933   0.5961   0.5971   0.6028   0.6091   0.6132
  0.6144   0.6174   0.6205   0.6235   0.6246   0.6255   0.6291   0.6311
  0.6345   0.6375   0.6430   0.6484   0.6505   0.6549   0.6575   0.6616
  0.6665   0.6697   0.6717   0.6836   0.6867   0.6918   0.6964   0.6984
  0.7032   0.7101   0.7158   0.7189   0.7213   0.7262   0.7306   0.7369
  0.7410   0.7548   0.7559   0.7648   0.7681   0.7755   0.7826   0.7856
  0.7902   0.7920   0.8024   0.8061   0.8143   0.8199   0.8259   0.8276
  0.8323   0.8420   0.8431   0.8497   0.8540   0.8649   0.8679   0.8742
  0.8808   0.8846   0.8890   0.8949   0.8988   0.8998   0.9067   0.9160
  0.9228   0.9287   0.9353   0.9368   0.9405   0.9477   0.9537   0.9554
  0.9598   0.9664   0.9691   0.9726   0.9771   0.9836   0.9887   0.9914
  0.9943   0.9995   1.0075   1.0098   1.0140   1.0197   1.0287   1.0307
  1.0391   1.0420   1.0468   1.0494   1.0552   1.0579   1.0626   1.0711
  1.0728   1.0821   1.0893   1.0905   1.0987   1.1060   1.1067   1.1077
  1.1144   1.1169   1.1180   1.1209   1.1308   1.1365   1.1424   1.1490
  1.1548   1.1590   1.1658   1.1675   1.1722   1.1769   1.1796   1.1835
  1.1882   1.1914   1.1940   1.2007   1.2047   1.2087   1.2136   1.2189
  1.2209   1.2267   1.2418   1.2442   1.2462   1.2481   1.2526   1.2592
  1.2607   1.2631   1.2712   1.2755   1.2800   1.2834   1.2901   1.2979
  1.3016   1.3057   1.3094   1.3175   1.3220   1.3301   1.3386   1.3462
  1.3484   1.3566   1.3595   1.3664   1.3723   1.3811   1.3930   1.3963
  1.3978   1.4029   1.4131   1.4164   1.4211   1.4317   1.4448   1.4536
  1.4573   1.4731   1.4759   1.4814   1.4867   1.4902   1.4981   1.5020
  1.5062   1.5096   1.5107   1.5212   1.5289   1.5338   1.5373   1.5404
  1.5420   1.5461   1.5469   1.5523   1.5563   1.5661   1.5737   1.5753
  1.5839   1.5923   1.6023   1.6050   1.6196   1.6220   1.6284   1.6426
  1.6443   1.6533   1.6574   1.6594   1.6613   1.6729   1.6785   1.6885
  1.6904   1.6952   1.7030   1.7148   1.7212   1.7278   1.7324   1.7432
  1.7568   1.7586   1.7647   1.7775   1.7869   1.7912   1.8072   1.8149
  1.8180   1.8268   1.8284   1.8407   1.8517   1.8548   1.8592   1.8713
  1.8821   1.8948   1.9092   1.9139   1.9208   1.9258   1.9373   1.9378
  1.9488   1.9556   1.9590   1.9721   1.9770   1.9849   1.9907   2.0032
  2.0076   2.0113   2.0170   2.0227   2.0309   2.0401   2.0468   2.0522
  2.0670   2.0717   2.0858   2.0915   2.0969   2.1069   2.1147   2.1327
  2.1424   2.1573   2.1626   2.1702   2.1746   2.1838   2.1892   2.1962
  2.1994   2.2023   2.2079   2.2182   2.2264   2.2301   2.2345   2.2389
  2.2448   2.2544   2.2586   2.2647   2.2706   2.2792   2.2818   2.2972
  2.2979   2.3136   2.3193   2.3310   2.3414   2.3461   2.3495   2.3683
  2.3708   2.3800   2.3941   2.4031   2.4086   2.4169   2.4204   2.4266
  2.4359   2.4391   2.4471   2.4551   2.4752   2.4808   2.4858   2.4911
  2.4992   2.5101   2.5144   2.5308   2.5339   2.5444   2.5480   2.5580
  2.5648   2.5805   2.5880   2.6031   2.6115   2.6184   2.6209   2.6254
  2.6297   2.6343   2.6407   2.6429   2.6466   2.6497   2.6646   2.6686
  2.6742   2.6846   2.6894   2.6939   2.6985   2.6991   2.7090   2.7161
  2.7219   2.7266   2.7429   2.7437   2.7518   2.7569   2.7665   2.7731
  2.7772   2.7853   2.7945   2.7992   2.8077   2.8130   2.8242   2.8342
  2.8376   2.8494   2.8516   2.8544   2.8558   2.8604   2.8677   2.8784
  2.8846   2.8870   2.8928   2.9056   2.9120   2.9215   2.9327   2.9453
  2.9524   2.9585   2.9595   2.9636   2.9779   2.9804   2.9855   2.9890
  2.9949   3.0089   3.0199   3.0229   3.0263   3.0392   3.0460   3.0505
  3.0541   3.0622   3.0677   3.0748   3.0933   3.0948   3.0974   3.0982
  3.1023   3.1080   3.1172   3.1196   3.1241   3.1287   3.1349   3.1446
  3.1467   3.1476   3.1552   3.1557   3.1625   3.1677   3.1765   3.1795
  3.1889   3.1950   3.2010   3.2078   3.2150   3.2177   3.2215   3.2258
  3.2350   3.2429   3.2481   3.2538   3.2560   3.2594   3.2626   3.2659
  3.2700   3.2727   3.2753   3.2837   3.2946   3.2986   3.2998   3.3049
  3.3081   3.3126   3.3152   3.3266   3.3290   3.3369   3.3402   3.3450
  3.3497   3.3502   3.3531   3.3538   3.3611   3.3661   3.3686   3.3721
  3.3759   3.3837   3.3863   3.3935   3.3950   3.4013   3.4029   3.4101
  3.4181   3.4198   3.4256   3.4291   3.4302   3.4356   3.4406   3.4500
  3.4528   3.4587   3.4629   3.4657   3.4673   3.4737   3.4785   3.4807
  3.4844   3.4867   3.4936   3.4989   3.5020   3.5102   3.5191   3.5251
  3.5377   3.5420   3.5513   3.5556   3.5600   3.5645   3.5714   3.5731
  3.5786   3.5822   3.5927   3.5947   3.6008   3.6032   3.6102   3.6151
  3.6207   3.6228   3.6237   3.6360   3.6363   3.6398   3.6462   3.6561
  3.6579   3.6671   3.6690   3.6705   3.6804   3.6825   3.6935   3.6983
  3.7024   3.7055   3.7118   3.7143   3.7178   3.7240   3.7319   3.7347
  3.7404   3.7479   3.7531   3.7665   3.7692   3.7724   3.7783   3.7849
  3.7925   3.7950   3.7995   3.8034   3.8092   3.8104   3.8119   3.8182
  3.8236   3.8248   3.8341   3.8436   3.8502   3.8510   3.8573   3.8617
  3.8646   3.8735   3.8821   3.8829   3.8885   3.8905   3.9025   3.9078
  3.9216   3.9252   3.9318   3.9360   3.9376   3.9468   3.9579   3.9639
  3.9659   3.9723   3.9750   3.9889   3.9973   4.0001   4.0091   4.0194
  4.0230   4.0329   4.0393   4.0443   4.0473   4.0623   4.0671   4.0688
  4.0703   4.0723   4.0813   4.0906   4.1052   4.1155   4.1191   4.1246
  4.1401   4.1467   4.1512   4.1566   4.1608   4.1647   4.1691   4.1743
  4.1761   4.1912   4.1932   4.1993   4.2137   4.2171   4.2227   4.2338
  4.2453   4.2501   4.2565   4.2647   4.2727   4.2905   4.2979   4.3199
  4.3209   4.3351   4.3402   4.3418   4.3453   4.3505   4.3584   4.3600
  4.3690   4.3731   4.3874   4.3909   4.3925   4.4034   4.4108   4.4142
  4.4189   4.4246   4.4295   4.4332   4.4356   4.4496   4.4536   4.4566
  4.4595   4.4745   4.4917   4.4989   4.5114   4.5181   4.5195   4.5283
  4.5341   4.5475   4.5578   4.5614   4.5684   4.5707   4.5821   4.5864
  4.5913   4.5977   4.6084   4.6149   4.6351   4.6434   4.6527   4.6593
  4.6601   4.6715   4.6754   4.6767   4.7024   4.7116   4.7230   4.7313
  4.7437   4.7508   4.7537   4.7728   4.7857   4.7937   4.8006   4.8198
  4.8220   4.8317   4.8434   4.8483   4.8603   4.8713   4.8857   4.8891
  4.9064   4.9160   4.9385   4.9429   4.9519   4.9585   4.9669   4.9826
  4.9940   5.0066   5.0084   5.0093   5.0143   5.0262   5.0397   5.0512
  5.0644   5.0921   5.1000   5.1158   5.1226   5.1319   5.1582   5.1644
  5.1787   5.1961   5.2024   5.2084   5.2217   5.2347   5.2483   5.2514
  5.2559   5.2607   5.2761   5.2901   5.2945   5.3146   5.3212   5.3267
  5.3300   5.3477   5.3510   5.3601   5.3709   5.3897   5.3994   5.4048
  5.4158   5.4257   5.4260   5.4388   5.4448   5.4782   5.4847   5.5052
  5.5122   5.5216   5.5227   5.5389   5.5667   5.5776   5.5795   5.5902
  5.5926   5.6092   5.6153   5.6209   5.6473   5.6595   5.6718   5.6906
  5.6971   5.7431   5.7489   5.7660   5.7690   5.8069   5.8164   5.8467
  5.8592   5.8795   5.9032   5.9142   5.9284   5.9544   5.9631   6.0044
  6.0398   6.0417   6.0710   6.1253   6.1499   6.1509   6.1708   6.1764
  6.1804   6.1910   6.2317   6.2396   6.2517   6.2608   6.2691   6.2744
  6.2860   6.2950   6.3440   6.3850   6.4433   6.4494   6.4803   6.5395
  6.5488   6.5661   6.6031   6.6485   6.6613   6.6705   6.7144   6.7452
  6.8083   6.8297   6.8563   6.8588   6.8999   6.9774   7.1334   7.1451
  7.2033   7.2052   7.2231   7.2414   7.3092   7.3306   7.3415   7.3621
  7.3631   7.4048   7.4127   7.4846   7.4869   7.4976   7.5220   7.5497
  7.6163   7.7364   7.7719   7.7896   7.8036   7.8976   7.9282   7.9529
  7.9723   8.1340   8.2296   8.5410   8.9210   9.0271   9.3620   9.4894
  9.6755  10.2643  11.1996  11.4168  11.7597  11.9370  12.1276  12.3708
 12.4291  12.5052  12.9380  12.9806  13.0317  13.2123  13.3858  13.4914
 13.6867  13.7830  13.8706  13.9366  14.0324  14.3104  14.9181  15.2276
 --------------------------------------------------------------
 
          Ground-State Mulliken Net Atomic Charges

     Atom                 Charge (a.u.)
  ----------------------------------------
      1 C                    -0.069535
      2 C                    -0.271360
      3 S                    -0.139403
      4 C                    -0.044078
      5 H                     0.191910
      6 C                    -0.054759
      7 C                     0.228244
      8 C                     0.223116
      9 C                    -0.073492
     10 C                    -0.055215
     11 O                    -0.334583
     12 O                    -0.344762
     13 C                    -0.083108
     14 H                     0.120886
     15 H                     0.092440
     16 H                     0.092765
     17 C                    -0.088742
     18 H                     0.124256
     19 H                     0.092212
     20 H                     0.089302
     21 C                    -0.250240
     22 S                    -0.095586
     23 C                     0.063456
     24 H                     0.200791
     25 C                    -0.079669
     26 S                     0.085728
     27 C                    -0.179354
     28 C                     0.019644
     29 C                    -0.108562
     30 S                     0.016714
     31 C                    -0.162320
     32 C                     0.405974
     33 F                    -0.205645
     34 C                     0.447097
     35 O                    -0.461334
     36 O                    -0.301001
     37 C                    -0.058440
     38 H                     0.121626
     39 H                     0.095205
     40 H                     0.095278
     41 H                     0.219395
     42 H                     0.115834
     43 H                     0.113513
     44 H                     0.205802
  ----------------------------------------
  Sum of atomic charges =     0.000000

 -----------------------------------------------------------------
                    Cartesian Multipole Moments
 -----------------------------------------------------------------
    Charge (ESU x 10^10)
                -0.0000
    Dipole Moment (Debye)
         X       1.4434      Y       3.0677      Z       3.0939
       Tot       4.5898
    Quadrupole Moments (Debye-Ang)
        XX    -194.5835     XY       7.4836     YY    -186.6344
        XZ      -7.6169     YZ      -9.5768     ZZ    -187.5187
    Octopole Moments (Debye-Ang^2)
       XXX    -344.1617    XXY     441.7724    XYY     -85.5266
       YYY    1112.7646    XXZ     166.7898    XYZ     -16.5823
       YYZ     182.6614    XZZ     -55.1804    YZZ     412.3136
       ZZZ     604.4266
    Hexadecapole Moments (Debye-Ang^3)
      XXXX   -1704.6112   XXXY    -838.2401   XXYY   -3921.5712
      XYYY    -900.7646   YYYY  -19577.9439   XXXZ     796.8324
      XXYZ     100.2075   XYYZ      88.4636   YYYZ     257.7742
      XXZZ   -1348.1415   XYZZ      -8.0005   YYZZ   -4257.1086
      XZZZ     546.3501   YZZZ     252.2884   ZZZZ   -7472.2765
 -----------------------------------------------------------------
 Total job time:  335.43s(wall), 10407.51s(cpu) 
 Tue Jan  9 11:26:59 2024

        *************************************************************
        *                                                           *
        *  Thank you very much for using Q-Chem.  Have a nice day.  *
        *                                                           *
        *************************************************************


0 sent ACK to 0 
now end server 0 ... 
cleanup process ... done
remove work dirs ./qchem1957522.0 -- ./qchem1957522.0
rm -rf ./qchem1957522.0
rm -rf ./qchem1957522
