You are running Q-Chem version: 5.4.0

#
# job setting
#
local host:  exp-3-50
current dir: /home/rramji/project-csd799/aromodel/ptb7fout-qchem/hydrogenated-rotation-run
input file:  Dimethoxy_Benzodithiophene_Phi_10_Theta_170_Methylcarbonyl_3_Fluoro_Thienothiophene_Hydrogenated.qcin
output file: 
nprocs     : 1
nthreads   : 64
#
# qchem installation setting
#
QC:          /cm/shared/apps/spack/cpu/opt/spack/linux-centos8-zen2/gcc-10.2.0/qchem-5.4-akfmr7b3t57bfs6qan3padb2wnb2i7cl
QCAUX:       /cm/shared/apps/spack/cpu/opt/spack/linux-centos8-zen2/gcc-10.2.0/qchem-5.4-akfmr7b3t57bfs6qan3padb2wnb2i7cl/qcaux
QCPROG:      /cm/shared/apps/spack/cpu/opt/spack/linux-centos8-zen2/gcc-10.2.0/qchem-5.4-akfmr7b3t57bfs6qan3padb2wnb2i7cl/exe/qcprog.exe
QCPROG_S:    /cm/shared/apps/spack/cpu/opt/spack/linux-centos8-zen2/gcc-10.2.0/qchem-5.4-akfmr7b3t57bfs6qan3padb2wnb2i7cl/exe/qcprog.exe_s
PARALLEL:    -DPARALLEL
QCMPI:       mpich
#
# qchem directory setting
#
qcrun:       qchem1296477
QCSCRATCH:   .
QCLOCALSCR:  
QCTMPDIR:    .
QCFILEPREF:  ./qchem1296477
QCSAVEDIR:   
workdirs:    ./qchem1296477
workdir0:    ./qchem1296477
partmpdirs =  
#
# parallel setting
#
QCRSH:           ssh
QCMPI:           mpich
QCMPIRUN:        /cm/shared/apps/spack/cpu/opt/spack/linux-centos8-zen2/gcc-10.2.0/qchem-5.4-akfmr7b3t57bfs6qan3padb2wnb2i7cl/bin/mpi/mpirun_qchem
QCMACHINEFILE:   ./qchem1296477/hostfile
exp-3-50

#
# env setting
#
exported envs:   QC QCAUX QCSCRATCH QCRUNNAME QCFILEPREF QCPROG QCPROG_S GUIFILE

Running Job 1 of 1 Dimethoxy_Benzodithiophene_Phi_10_Theta_170_Methylcarbonyl_3_Fluoro_Thienothiophene_Hydrogenated.qcin
qchem Dimethoxy_Benzodithiophene_Phi_10_Theta_170_Methylcarbonyl_3_Fluoro_Thienothiophene_Hydrogenated.qcin_1296477.0 ./qchem1296477/ 1
/cm/shared/apps/spack/cpu/opt/spack/linux-centos8-zen2/gcc-10.2.0/qchem-5.4-akfmr7b3t57bfs6qan3padb2wnb2i7cl/bin/mpi/mpirun_qchem -machinefile ./qchem1296477/hostfile -np 1 /cm/shared/apps/spack/cpu/opt/spack/linux-centos8-zen2/gcc-10.2.0/qchem-5.4-akfmr7b3t57bfs6qan3padb2wnb2i7cl/exe/qcprog.exe Dimethoxy_Benzodithiophene_Phi_10_Theta_170_Methylcarbonyl_3_Fluoro_Thienothiophene_Hydrogenated.qcin_1296477.0 ./qchem1296477/

Process 0 of 1 is on exp-3-50 - thread support 0
initial socket setup ...start
initial socket setup ...done 
now start server 0 ... 
                  Welcome to Q-Chem
     A Quantum Leap Into The Future Of Chemistry


 Q-Chem 5.4, Q-Chem, Inc., Pleasanton, CA (2021)

 License issued to: University of California, San Diego (site)

 E. Epifanovsky,  A. T. B. Gilbert,  Xintian Feng,  Joonho Lee,  Yuezhi Mao,  
 N. Mardirossian,  P. Pokhilko,  A. White,  M. Wormit,  M. P. Coons,  
 A. L. Dempwolff,  Zhengting Gan,  D. Hait,  P. R. Horn,  L. D. Jacobson,  
 I. Kaliman,  J. Kussmann,  A. W. Lange,  Ka Un Lao,  D. S. Levine,  Jie Liu,  
 S. C. McKenzie,  A. F. Morrison,  K. Nanda,  F. Plasser,  D. R. Rehn,  
 M. L. Vidal,  Zhi-Qiang You,  Ying Zhu,  B. Alam,  B. Albrecht,  
 A. Aldossary,  E. Alguire,  J. H. Andersen,  D. Barton,  K. Begam,  A. Behn,  
 Y. A. Bernard,  E. J. Berquist,  H. Burton,  A. Carreras,  K. Carter-Fenk,  
 R. Chakraborty,  A. D. Chien,  K. D. Closser,  V. Cofer-Shabica,  
 S. Dasgupta,  Jia Deng,  M. de Wergifosse,  M. Diedenhofen,  Hainam Do,  
 S. Ehlert,  Po-Tung Fang,  S. Fatehi,  Qingguo Feng,  J. Gayvert,  
 Qinghui Ge,  G. Gidofalvi,  M. Goldey,  J. Gomes,  C. Gonzalez-Espinoza,  
 S. Gulania,  A. Gunina,  M. W. D. Hanson-Heine,  P. H. P. Harbach,  
 A. W. Hauser,  M. F. Herbst,  M. Hernandez Vera,  M. Hodecker,  
 Z. C. Holden,  S. Houck,  Xunkun Huang,  Kerwin Hui,  B. C. Huynh,  
 M. Ivanov,  Hyunjun Ji,  Hanjie Jiang,  B. Kaduk,  S. Kaehler,  
 K. Khistyaev,  Jaehoon Kim,  P. Klunzinger,  Z. Koczor-Benda,  
 Joong Hoon Koh,  D. Kosenkov,  L. Koulias,  T. Kowalczyk,  C. M. Krauter,  
 K. Kue,  A. Kunitsa,  T. Kus,  A. Landau,  K. V. Lawler,  D. Lefrancois,  
 S. Lehtola,  Rain Li,  Yi-Pei Li,  Jiashu Liang,  M. Liebenthal,  
 Hung-Hsuan Lin,  You-Sheng Lin,  Fenglai Liu,  Kuan-Yu Liu,  
 M. Loipersberger,  A. Luenser,  A. Manjanath,  P. Manohar,  E. Mansoor,  
 S. F. Manzer,  Shan-Ping Mao,  A. V. Marenich,  T. Markovich,  S. Mason,  
 S. A. Maurer,  P. F. McLaughlin,  M. F. S. J. Menger,  J.-M. Mewes,  
 S. A. Mewes,  P. Morgante,  J. W. Mullinax,  T. S. Nguyen-Beck,  
 K. J. Oosterbaan,  G. Paran,  Alexander C. Paul,  Suranjan K. Paul,  
 F. Pavosevic,  Zheng Pei,  S. Prager,  E. I. Proynov,  E. Ramos,  B. Rana,  
 A. E. Rask,  A. Rettig,  R. M. Richard,  F. Rob,  E. Rossomme,  T. Scheele,  
 M. Scheurer,  M. Schneider,  N. Sergueev,  S. M. Sharada,  W. Skomorowski,  
 D. W. Small,  C. J. Stein,  Yu-Chuan Su,  E. J. Sundstrom,  Zhen Tao,  
 J. Thirman,  T. Tsuchimochi,  N. M. Tubman,  S. P. Veccham,  O. Vydrov,  
 J. Wenzel,  J. Witte,  A. Yamada,  Kun Yao,  S. Yeganeh,  S. R. Yost,  
 A. Zech,  Igor Ying Zhang,  Xing Zhang,  Yu Zhang,  D. Zuev,  
 A. Aspuru-Guzik,  A. T. Bell,  N. A. Besley,  K. B. Bravaya,  B. R. Brooks,  
 D. Casanova,  Jeng-Da Chai,  S. Coriani,  C. J. Cramer,  
 A. E. DePrince, III,  R. A. DiStasio Jr.,  A. Dreuw,  B. D. Dunietz,  
 T. R. Furlani,  W. A. Goddard III,  S. Grimme,  S. Hammes-Schiffer,  
 T. Head-Gordon,  W. J. Hehre,  Chao-Ping Hsu,  T.-C. Jagau,  Yousung Jung,  
 A. Klamt,  Jing Kong,  D. S. Lambrecht,  WanZhen Liang,  N. J. Mayhall,  
 C. W. McCurdy,  J. B. Neaton,  C. Ochsenfeld,  J. A. Parkhill,  R. Peverati,  
 V. A. Rassolov,  Yihan Shao,  L. V. Slipchenko,  T. Stauch,  R. P. Steele,  
 J. E. Subotnik,  A. J. W. Thom,  A. Tkatchenko,  D. G. Truhlar,  
 T. Van Voorhis,  T. A. Wesolowski,  K. B. Whaley,  H. L. Woodcock III,  
 P. M. Zimmerman,  S. Faraji,  P. M. W. Gill,  M. Head-Gordon,  
 J. M. Herbert,  A. I. Krylov

 Contributors to earlier versions of Q-Chem not listed above: 
 R. D. Adamson,  B. Austin,  R. Baer,  J. Baker,  G. J. O. Beran,  
 K. Brandhorst,  S. T. Brown,  E. F. C. Byrd,  A. K. Chakraborty,  
 G. K. L. Chan,  Chun-Min Chang,  Yunqing Chen,  C.-L. Cheng,  
 Siu Hung Chien,  D. M. Chipman,  D. L. Crittenden,  H. Dachsel,  
 R. J. Doerksen,  A. D. Dutoi,  R. G. Edgar,  J. Fosso-Tande,  
 L. Fusti-Molnar,  D. Ghosh,  A. Ghysels,  A. Golubeva-Zadorozhnaya,  
 J. Gonthier,  M. S. Gordon,  S. R. Gwaltney,  G. Hawkins,  J. E. Herr,  
 A. Heyden,  S. Hirata,  E. G. Hohenstein,  G. Kedziora,  F. J. Keil,  
 C. Kelley,  Jihan Kim,  R. A. King,  R. Z. Khaliullin,  P. P. Korambath,  
 W. Kurlancheek,  A. Laurent,  A. M. Lee,  M. S. Lee,  S. V. Levchenko,  
 Ching Yeh Lin,  D. Liotard,  E. Livshits,  R. C. Lochan,  I. Lotan,  
 L. A. Martinez-Martinez,  P. E. Maslen,  N. Nair,  D. P. O'Neill,  
 D. Neuhauser,  E. Neuscamman,  C. M. Oana,  R. Olivares-Amaya,  R. Olson,  
 T. M. Perrine,  B. Peters,  P. A. Pieniazek,  A. Prociuk,  Y. M. Rhee,  
 J. Ritchie,  M. A. Rohrdanz,  E. Rosta,  N. J. Russ,  H. F. Schaefer III,  
 M. W. Schmidt,  N. E. Schultz,  S. Sharma,  N. Shenvi,  C. D. Sherrill,  
 A. C. Simmonett,  A. Sodt,  T. Stein,  D. Stuck,  K. S. Thanthiriwatte,  
 V. Vanovschi,  L. Vogt,  Tao Wang,  A. Warshel,  M. A. Watson,  
 C. F. Williams,  Q. Wu,  X. Xu,  Jun Yang,  W. Zhang,  Yan Zhao

 Please cite Q-Chem as follows:
 Y. Shao et al., Mol. Phys. 113, 184-215 (2015)
 DOI: 10.1080/00268976.2014.952696

 Q-Chem 5.4.0 for Intel X86 EM64T Linux

 Parts of Q-Chem use Armadillo 9.800.1 (Horizon Scraper).
 http://arma.sourceforge.net/

 Q-Chem begins on Tue Jan  9 11:27:49 2024  

 Host: 
0

     Scratch files written to ./qchem1296477//
 May1621 |scratch|qcdevops|jenkins|workspace|build_RNUM    
 Parallel job on  1  processors
 Processing $rem in /cm/shared/apps/spack/cpu/opt/spack/linux-centos8-zen2/gcc-10.2.0/qchem-5.4-akfmr7b3t57bfs6qan3padb2wnb2i7cl/config/preferences:
 Processing $rem in /home/rramji/.qchemrc:
 Symmetry turned off for PCM/SM12/SMD calculation
 Core orbitals will be frozen

 Checking the input file for inconsistencies... 	...done.

 Q-Chem warning in module forms1/BasisType.C, line 2236:

 You are not using the predefined 5D/6D in this basis set.


--------------------------------------------------------------
User input:
--------------------------------------------------------------
$molecule
0 1
C	-0.014560	-8.517702	-0.320589
C	0.180211	-7.641575	0.737240
S	-0.299553	-7.638634	-1.842356
C	0.114873	-6.264785	0.366488
H	0.368061	-7.966081	1.768528
C	-0.131236	-6.072714	-1.038637
C	-0.253435	-4.787049	-1.588197
C	0.249014	-5.162801	1.258831
C	0.122513	-3.874817	0.709695
C	-0.121043	-3.683952	-0.697430
O	0.505933	-5.499772	2.553323
O	-0.512697	-4.459055	-2.888369
C	-0.080869	-5.329063	-3.927625
H	-0.173159	-4.755694	-4.869656
H	-0.716363	-6.238095	-4.007459
H	0.978072	-5.637262	-3.789565
C	0.246949	-4.572261	3.600064
H	0.344574	-5.139743	4.544887
H	-0.779898	-4.153131	3.532074
H	0.983261	-3.739531	3.612378
C	-0.188009	-2.306654	-1.064246
S	0.278644	-2.306501	1.517360
C	-0.000000	-1.435185	-0.000000
H	-0.373017	-1.978138	-2.094685
C	0.000000	0.000000	0.000000
S	0.157577	0.890937	1.507541
C	0.429889	2.439720	0.718873
C	0.157797	0.890576	-1.067872
C	0.396915	2.260004	-0.686410
S	0.118307	0.650207	-2.805516
C	0.417036	2.376229	-3.054530
C	0.537616	3.074202	-1.862551
F	0.764992	4.391378	-1.819088
C	0.496696	2.817118	-4.456084
O	0.370874	2.057582	-5.406510
O	0.723861	4.148418	-4.569225
C	0.814976	4.635075	-5.916207
H	0.999286	5.720591	-5.833064
H	-0.125909	4.442226	-6.470168
H	1.645504	4.140465	-6.459293
H	0.588993	3.350182	1.306486
H	-0.900177	-9.143623	-0.159475
H	0.866566	-9.149441	-0.483604
H	-1.062246	-1.443175	0.194856
$end

$rem
JOBTYPE		SP
EXCHANGE	HF
CORRELATION	pRIMP2
BASIS		cc-pvtz
METHOD		rimp2
AUX_BASIS	rimp2-cc-pvtz
SOLVENT_METHOD	PCM
PURECART	11111
SYMMETRY	false
MEM_TOTAL	110000
SCF_CONVERGENCE = 6
THRESH=10
GUI = 2
$end



$solvent
dielectric 4.90
$end
--------------------------------------------------------------
 ----------------------------------------------------------------
             Standard Nuclear Orientation (Angstroms)
    I     Atom           X                Y                Z
 ----------------------------------------------------------------
    1      C      -0.0145600000    -8.5177020000    -0.3205890000
    2      C       0.1802110000    -7.6415750000     0.7372400000
    3      S      -0.2995530000    -7.6386340000    -1.8423560000
    4      C       0.1148730000    -6.2647850000     0.3664880000
    5      H       0.3680610000    -7.9660810000     1.7685280000
    6      C      -0.1312360000    -6.0727140000    -1.0386370000
    7      C      -0.2534350000    -4.7870490000    -1.5881970000
    8      C       0.2490140000    -5.1628010000     1.2588310000
    9      C       0.1225130000    -3.8748170000     0.7096950000
   10      C      -0.1210430000    -3.6839520000    -0.6974300000
   11      O       0.5059330000    -5.4997720000     2.5533230000
   12      O      -0.5126970000    -4.4590550000    -2.8883690000
   13      C      -0.0808690000    -5.3290630000    -3.9276250000
   14      H      -0.1731590000    -4.7556940000    -4.8696560000
   15      H      -0.7163630000    -6.2380950000    -4.0074590000
   16      H       0.9780720000    -5.6372620000    -3.7895650000
   17      C       0.2469490000    -4.5722610000     3.6000640000
   18      H       0.3445740000    -5.1397430000     4.5448870000
   19      H      -0.7798980000    -4.1531310000     3.5320740000
   20      H       0.9832610000    -3.7395310000     3.6123780000
   21      C      -0.1880090000    -2.3066540000    -1.0642460000
   22      S       0.2786440000    -2.3065010000     1.5173600000
   23      C       0.0000000000    -1.4351850000     0.0000000000
   24      H      -0.3730170000    -1.9781380000    -2.0946850000
   25      C       0.0000000000     0.0000000000     0.0000000000
   26      S       0.1575770000     0.8909370000     1.5075410000
   27      C       0.4298890000     2.4397200000     0.7188730000
   28      C       0.1577970000     0.8905760000    -1.0678720000
   29      C       0.3969150000     2.2600040000    -0.6864100000
   30      S       0.1183070000     0.6502070000    -2.8055160000
   31      C       0.4170360000     2.3762290000    -3.0545300000
   32      C       0.5376160000     3.0742020000    -1.8625510000
   33      F       0.7649920000     4.3913780000    -1.8190880000
   34      C       0.4966960000     2.8171180000    -4.4560840000
   35      O       0.3708740000     2.0575820000    -5.4065100000
   36      O       0.7238610000     4.1484180000    -4.5692250000
   37      C       0.8149760000     4.6350750000    -5.9162070000
   38      H       0.9992860000     5.7205910000    -5.8330640000
   39      H      -0.1259090000     4.4422260000    -6.4701680000
   40      H       1.6455040000     4.1404650000    -6.4592930000
   41      H       0.5889930000     3.3501820000     1.3064860000
   42      H      -0.9001770000    -9.1436230000    -0.1594750000
   43      H       0.8665660000    -9.1494410000    -0.4836040000
   44      H      -1.0622460000    -1.4431750000     0.1948560000
 ----------------------------------------------------------------
 Nuclear Repulsion Energy =        3342.02698832 hartrees
 There are      120 alpha and      120 beta electrons
 Requested basis set is cc-pVTZ
 There are 388 shells and 1096 basis functions

 Total QAlloc Memory Limit 110000 MB
 Mega-Array Size       188 MB
 MEM_STATIC part       192 MB
 Discretize the solute cavity surface with Lebedev spheres
	Using 110 Lebedev grid points for each H atom
	Using 194 Lebedev grid points for other atoms
	Atomic van der Waals radii will be scaled by 1.20
 Remove points where switching function is < 1.0e-08
 Keep 2951 surface tesserae and discard 4325 interior tesserae
 Molecular Surface Area = 438.516 Angst**2
 Requested basis set is rimp2-cc-pVTZ
 There are 853 shells and 2963 basis functions
 A cutoff of  1.0D-10 yielded  33060 shell pairs
 There are    249562 function pairs (    322814 Cartesian)
 Smallest overlap matrix eigenvalue = 2.11E-05

 Scale SEOQF with 1.000000e-01/1.000000e-02/1.000000e-02

 Standard Electronic Orientation quadrupole field applied
 Nucleus-field energy     =     0.0000000167 hartrees
 Guess from superposition of atomic densities
 Warning:  Energy on first SCF cycle will be non-variational
 SAD guess density has 240.000000 electrons

 -----------------------------------------------------------------------
  General SCF calculation program by
  Eric Jon Sundstrom, Paul Horn, Yuezhi Mao, Dmitri Zuev, Alec White,
  David Stuck, Shaama M.S., Shane Yost, Joonho Lee, David Small,
  Daniel Levine, Susi Lehtola, Hugh Burton, Evgeny Epifanovsky,
  Bang C. Huynh
 -----------------------------------------------------------------------
 Hartree-Fock
 using 64 threads for integral computing
 -------------------------------------------------------
 OpenMP Integral computing Module                
 Release: version 1.0, May 2013, Q-Chem Inc. Pittsburgh 
 -------------------------------------------------------
 A restricted SCF calculation will be
 performed using DIIS
 SCF converges when DIIS error is below 1.0e-06
 ---------------------------------------
  Cycle       Energy         DIIS error
 ---------------------------------------
    1   -2767.0365394912      1.75e-02  
    2   -2754.8869619418      1.53e-03  
    3   -2755.2364877511      8.57e-04  
    4   -2755.3240864018      2.56e-04  
    5   -2755.3378338525      7.44e-05  
    6   -2755.3394209869      2.64e-05  
    7   -2755.3398446848      1.39e-05  
    8   -2755.3399840361      5.84e-06  
    9   -2755.3400175839      3.11e-06  
   10   -2755.3400260352      1.60e-06  
   11   -2755.3400290473      8.89e-07  Convergence criterion met
 ---------------------------------------
 SCF time:   CPU 7843.54s  wall 301.00s 

************** Final PCM Free Energy Summary **************
 G_electrostatic  =      -0.02005041 hartree =     -12.58182160 kcal/mol
 G_cavitation     =       0.00000000 hartree =       0.00000000 kcal/mol
 G_dispersion     =       0.00000000 hartree =       0.00000000 kcal/mol
 G_repulsion      =       0.00000000 hartree =       0.00000000 kcal/mol
 --------------------------------------------------
 Non-electrostatic Free Energy =       0.00000000 hartree =       0.00000000 kcal/mol
 Total                         =      -0.02005041 hartree =     -12.58182160 kcal/mol
 --------------------------------------------------
 SCF Energy (H0 + V/2)                       =   -2755.34002905 
 Solute Internal Energy (H0)                 =   -2755.31997864 
 Total Free Energy (H0 + V/2 + non-elec)     =   -2755.34002905 hartree
                                             = -1729001.96405258 kcal/mol
***********************************************************

 SCF   energy in the final basis set =    -2755.3400290473
 Total energy in the final basis set =    -2755.3400290473


 --------------------------------------------------------------
  Generalized many-body perturbation theory program
  by Joonho Lee, Fazle Rob, Xintian Feng, Evgeny Epifanovsky

 No regularization used 
 (reg. param. = 0.0000e+00)
  (P|Q)^-1/2 Time:  CPU 135.31 s  wall 2.92 s

 In RI-MP2 calculation: 
 # of frozen core orbitals: 45

 Components of the RIMP2 correlation energy:
        aaaa    correlation energy =        -0.6692407320 a.u.
        abab    correlation energy =        -3.7523665924 a.u.
        bbbb    correlation energy =        -0.6692407320 a.u.
        non-Brillouin singles      =        -0.0000000000 a.u.
        total same-spin energy     =        -1.3384814640 a.u.
        total opposite-spin energy =        -3.7523665924 a.u.

 Total  RIMP2   correlation energy =        -5.0908480564 a.u.
        RIMP2         total energy =     -2760.4308771037 a.u.

 RI-MP2 Energy Time:  CPU 2854.22 s  wall 47.40 s
 
 --------------------------------------------------------------
 
                    Orbital Energies (a.u.)
 --------------------------------------------------------------
 
 Alpha MOs
 -- Occupied --
-92.0150 -91.9960 -91.9829 -91.9593 -26.3426 -20.6149 -20.5894 -20.5875
-20.5615 -11.4095 -11.3814 -11.3113 -11.3105 -11.3100 -11.3010 -11.2982
-11.2918 -11.2889 -11.2861 -11.2858 -11.2845 -11.2842 -11.2826 -11.2745
-11.2744 -11.2609 -11.2597 -11.2510 -11.2401  -9.0137  -8.9963  -8.9851
 -8.9619  -6.6946  -6.6940  -6.6934  -6.6773  -6.6766  -6.6755  -6.6662
 -6.6653  -6.6640  -6.6431  -6.6422  -6.6412  -1.6597  -1.4674  -1.4126
 -1.4094  -1.3701  -1.2300  -1.2034  -1.1754  -1.1375  -1.1015  -1.0484
 -1.0448  -1.0236  -1.0049  -0.9994  -0.9632  -0.9594  -0.9497  -0.9407
 -0.8958  -0.8704  -0.8654  -0.8093  -0.8023  -0.7900  -0.7846  -0.7690
 -0.7565  -0.7384  -0.7246  -0.7131  -0.6994  -0.6905  -0.6847  -0.6811
 -0.6739  -0.6633  -0.6575  -0.6494  -0.6393  -0.6319  -0.6213  -0.6157
 -0.6121  -0.5984  -0.5936  -0.5768  -0.5718  -0.5653  -0.5602  -0.5530
 -0.5489  -0.5356  -0.5316  -0.5298  -0.5146  -0.5095  -0.5087  -0.5015
 -0.4854  -0.4819  -0.4774  -0.4737  -0.4713  -0.4671  -0.4607  -0.4478
 -0.4340  -0.3946  -0.3876  -0.3720  -0.3506  -0.2984  -0.2891  -0.2182
 -- Virtual --
  0.0335   0.0524   0.1139   0.1296   0.1367   0.1464   0.1528   0.1563
  0.1594   0.1598   0.1624   0.1725   0.1798   0.1845   0.1901   0.1951
  0.1990   0.2027   0.2047   0.2151   0.2213   0.2231   0.2243   0.2280
  0.2283   0.2388   0.2440   0.2467   0.2522   0.2577   0.2645   0.2740
  0.2865   0.2945   0.3139   0.3224   0.3352   0.3394   0.3432   0.3501
  0.3547   0.3578   0.3659   0.3682   0.3758   0.3835   0.3843   0.3854
  0.3886   0.3958   0.4038   0.4069   0.4097   0.4131   0.4175   0.4245
  0.4271   0.4289   0.4347   0.4393   0.4412   0.4442   0.4536   0.4552
  0.4584   0.4652   0.4672   0.4716   0.4748   0.4800   0.4832   0.4875
  0.4908   0.4964   0.4972   0.5024   0.5109   0.5116   0.5148   0.5187
  0.5216   0.5262   0.5317   0.5326   0.5398   0.5422   0.5429   0.5464
  0.5522   0.5563   0.5575   0.5591   0.5629   0.5702   0.5738   0.5787
  0.5846   0.5896   0.5901   0.5959   0.5993   0.6027   0.6085   0.6117
  0.6147   0.6169   0.6172   0.6198   0.6218   0.6241   0.6254   0.6290
  0.6330   0.6373   0.6426   0.6462   0.6474   0.6547   0.6577   0.6593
  0.6638   0.6683   0.6754   0.6851   0.6882   0.6887   0.6987   0.7012
  0.7081   0.7104   0.7170   0.7188   0.7233   0.7289   0.7347   0.7361
  0.7462   0.7508   0.7548   0.7624   0.7652   0.7739   0.7759   0.7859
  0.7972   0.8001   0.8075   0.8133   0.8193   0.8226   0.8255   0.8314
  0.8357   0.8388   0.8480   0.8563   0.8622   0.8700   0.8757   0.8775
  0.8828   0.8866   0.8905   0.8948   0.8980   0.9043   0.9072   0.9194
  0.9216   0.9329   0.9360   0.9369   0.9404   0.9459   0.9513   0.9590
  0.9631   0.9650   0.9752   0.9759   0.9829   0.9857   0.9867   0.9929
  0.9957   1.0012   1.0068   1.0149   1.0168   1.0249   1.0284   1.0318
  1.0364   1.0438   1.0481   1.0523   1.0584   1.0634   1.0646   1.0690
  1.0757   1.0780   1.0814   1.0895   1.0989   1.1020   1.1055   1.1112
  1.1146   1.1161   1.1272   1.1285   1.1346   1.1448   1.1505   1.1511
  1.1565   1.1630   1.1660   1.1735   1.1764   1.1792   1.1848   1.1866
  1.1874   1.1905   1.2001   1.2012   1.2071   1.2085   1.2146   1.2220
  1.2266   1.2334   1.2358   1.2370   1.2410   1.2504   1.2533   1.2580
  1.2632   1.2654   1.2689   1.2764   1.2785   1.2886   1.2902   1.2951
  1.2971   1.3080   1.3141   1.3214   1.3276   1.3316   1.3377   1.3411
  1.3476   1.3541   1.3639   1.3682   1.3829   1.3872   1.3905   1.3960
  1.4010   1.4067   1.4135   1.4251   1.4287   1.4341   1.4349   1.4537
  1.4587   1.4669   1.4749   1.4824   1.4869   1.4909   1.4976   1.5014
  1.5024   1.5068   1.5127   1.5145   1.5227   1.5344   1.5371   1.5398
  1.5420   1.5459   1.5476   1.5572   1.5589   1.5597   1.5693   1.5824
  1.5853   1.5931   1.6020   1.6125   1.6176   1.6249   1.6309   1.6388
  1.6427   1.6536   1.6581   1.6613   1.6655   1.6726   1.6768   1.6872
  1.6901   1.6960   1.7105   1.7175   1.7214   1.7262   1.7353   1.7425
  1.7639   1.7717   1.7760   1.7803   1.7915   1.8004   1.8087   1.8179
  1.8199   1.8220   1.8262   1.8443   1.8531   1.8618   1.8670   1.8771
  1.8863   1.8925   1.8990   1.9067   1.9117   1.9192   1.9253   1.9344
  1.9469   1.9555   1.9603   1.9658   1.9715   1.9873   1.9973   2.0007
  2.0092   2.0132   2.0188   2.0254   2.0357   2.0406   2.0438   2.0503
  2.0685   2.0695   2.0840   2.0951   2.0979   2.1067   2.1146   2.1260
  2.1436   2.1563   2.1591   2.1704   2.1749   2.1850   2.1890   2.1934
  2.1967   2.2037   2.2089   2.2162   2.2222   2.2337   2.2382   2.2418
  2.2501   2.2532   2.2540   2.2657   2.2730   2.2826   2.2871   2.2939
  2.3055   2.3126   2.3168   2.3273   2.3419   2.3490   2.3605   2.3616
  2.3651   2.3692   2.3845   2.3911   2.4032   2.4151   2.4180   2.4238
  2.4357   2.4393   2.4606   2.4682   2.4748   2.4799   2.4888   2.4953
  2.5009   2.5108   2.5144   2.5307   2.5433   2.5461   2.5536   2.5589
  2.5673   2.5859   2.5966   2.6020   2.6145   2.6159   2.6242   2.6246
  2.6308   2.6351   2.6421   2.6446   2.6467   2.6505   2.6574   2.6688
  2.6763   2.6802   2.6860   2.6938   2.7003   2.7045   2.7109   2.7161
  2.7244   2.7259   2.7368   2.7420   2.7460   2.7530   2.7629   2.7722
  2.7800   2.7871   2.7973   2.8021   2.8100   2.8152   2.8204   2.8281
  2.8445   2.8467   2.8481   2.8538   2.8577   2.8645   2.8693   2.8746
  2.8815   2.8858   2.8936   2.9004   2.9099   2.9194   2.9219   2.9462
  2.9528   2.9547   2.9590   2.9674   2.9755   2.9817   2.9831   2.9894
  3.0001   3.0081   3.0123   3.0182   3.0236   3.0317   3.0347   3.0445
  3.0517   3.0592   3.0669   3.0699   3.0792   3.0874   3.0957   3.0965
  3.1024   3.1059   3.1135   3.1189   3.1272   3.1281   3.1357   3.1438
  3.1460   3.1486   3.1529   3.1553   3.1633   3.1648   3.1678   3.1754
  3.1800   3.1878   3.1954   3.2042   3.2090   3.2159   3.2174   3.2262
  3.2275   3.2426   3.2450   3.2499   3.2545   3.2595   3.2612   3.2682
  3.2715   3.2727   3.2772   3.2806   3.2827   3.2920   3.2939   3.3000
  3.3067   3.3112   3.3190   3.3243   3.3279   3.3313   3.3401   3.3433
  3.3468   3.3514   3.3523   3.3544   3.3612   3.3636   3.3665   3.3716
  3.3751   3.3818   3.3896   3.3913   3.3962   3.3989   3.3998   3.4037
  3.4097   3.4184   3.4228   3.4262   3.4354   3.4375   3.4399   3.4482
  3.4508   3.4562   3.4569   3.4596   3.4694   3.4735   3.4784   3.4828
  3.4849   3.4884   3.4905   3.4945   3.5046   3.5080   3.5230   3.5379
  3.5408   3.5471   3.5513   3.5523   3.5586   3.5617   3.5677   3.5737
  3.5784   3.5860   3.5887   3.5960   3.5977   3.5997   3.6062   3.6088
  3.6164   3.6210   3.6236   3.6276   3.6354   3.6376   3.6442   3.6480
  3.6542   3.6567   3.6675   3.6724   3.6790   3.6831   3.6865   3.6963
  3.7023   3.7058   3.7096   3.7128   3.7146   3.7173   3.7195   3.7298
  3.7347   3.7411   3.7457   3.7508   3.7630   3.7686   3.7714   3.7805
  3.7840   3.7860   3.7906   3.7970   3.8049   3.8073   3.8139   3.8164
  3.8188   3.8213   3.8244   3.8406   3.8437   3.8497   3.8512   3.8588
  3.8626   3.8689   3.8699   3.8780   3.8831   3.8931   3.8956   3.9056
  3.9106   3.9237   3.9283   3.9373   3.9435   3.9515   3.9533   3.9566
  3.9569   3.9628   3.9661   3.9880   3.9912   4.0000   4.0055   4.0132
  4.0204   4.0211   4.0321   4.0425   4.0541   4.0562   4.0598   4.0665
  4.0692   4.0724   4.0940   4.0984   4.1018   4.1053   4.1183   4.1269
  4.1351   4.1404   4.1450   4.1600   4.1660   4.1669   4.1714   4.1742
  4.1792   4.1852   4.1913   4.2051   4.2087   4.2159   4.2270   4.2354
  4.2481   4.2522   4.2548   4.2667   4.2804   4.2823   4.2960   4.3101
  4.3124   4.3227   4.3330   4.3418   4.3508   4.3526   4.3551   4.3595
  4.3705   4.3761   4.3810   4.3847   4.3901   4.4046   4.4120   4.4173
  4.4222   4.4236   4.4292   4.4319   4.4369   4.4417   4.4483   4.4566
  4.4664   4.4760   4.4958   4.4999   4.5053   4.5170   4.5188   4.5280
  4.5312   4.5443   4.5562   4.5646   4.5668   4.5701   4.5780   4.5817
  4.5940   4.6025   4.6052   4.6166   4.6366   4.6452   4.6474   4.6535
  4.6622   4.6706   4.6785   4.6883   4.6947   4.7114   4.7223   4.7289
  4.7454   4.7520   4.7670   4.7785   4.7831   4.7949   4.8085   4.8190
  4.8222   4.8309   4.8412   4.8588   4.8654   4.8713   4.8790   4.8862
  4.8982   4.9212   4.9320   4.9418   4.9510   4.9586   4.9678   4.9806
  4.9934   5.0061   5.0089   5.0141   5.0164   5.0316   5.0433   5.0583
  5.0768   5.0855   5.0910   5.1124   5.1293   5.1409   5.1604   5.1657
  5.1772   5.1906   5.2003   5.2103   5.2232   5.2406   5.2530   5.2552
  5.2574   5.2611   5.2843   5.2896   5.2984   5.3160   5.3232   5.3294
  5.3326   5.3510   5.3524   5.3565   5.3810   5.3883   5.3901   5.4028
  5.4083   5.4194   5.4262   5.4370   5.4423   5.4850   5.4972   5.5104
  5.5154   5.5185   5.5219   5.5324   5.5624   5.5658   5.5845   5.5857
  5.5985   5.6063   5.6173   5.6215   5.6488   5.6564   5.6744   5.6897
  5.7118   5.7405   5.7523   5.7687   5.7816   5.8074   5.8169   5.8499
  5.8574   5.8799   5.9078   5.9173   5.9290   5.9554   5.9957   6.0196
  6.0410   6.0428   6.1017   6.1358   6.1504   6.1585   6.1723   6.1761
  6.1830   6.1984   6.2346   6.2481   6.2602   6.2614   6.2766   6.2872
  6.2905   6.3127   6.3566   6.4291   6.4500   6.4634   6.5374   6.5418
  6.5544   6.5859   6.6103   6.6496   6.6632   6.6710   6.7148   6.7484
  6.8099   6.8315   6.8575   6.8594   6.8993   6.9784   7.1319   7.1435
  7.2039   7.2079   7.2205   7.2407   7.3097   7.3296   7.3411   7.3638
  7.3652   7.4068   7.4132   7.4845   7.4863   7.4977   7.5275   7.5522
  7.6196   7.7347   7.7736   7.7906   7.8021   7.9029   7.9270   7.9538
  7.9792   8.1380   8.2684   8.6747   8.9225   9.0335   9.3635   9.4935
  9.6789  10.2562  11.1621  11.4757  11.7555  11.8918  12.1281  12.3860
 12.4342  12.5195  12.9295  13.0405  13.0986  13.2355  13.3868  13.4850
 13.7762  13.8326  13.9136  13.9715  14.0341  14.3133  15.1173  15.2866
 --------------------------------------------------------------
 
          Ground-State Mulliken Net Atomic Charges

     Atom                 Charge (a.u.)
  ----------------------------------------
      1 C                    -0.070617
      2 C                    -0.252294
      3 S                    -0.132840
      4 C                    -0.048752
      5 H                     0.194444
      6 C                    -0.050449
      7 C                     0.227607
      8 C                     0.231008
      9 C                    -0.073149
     10 C                    -0.045734
     11 O                    -0.333495
     12 O                    -0.344340
     13 C                    -0.083478
     14 H                     0.121518
     15 H                     0.092663
     16 H                     0.093027
     17 C                    -0.088866
     18 H                     0.124943
     19 H                     0.093274
     20 H                     0.090304
     21 C                    -0.289193
     22 S                    -0.095119
     23 C                     0.128493
     24 H                     0.197767
     25 C                    -0.069935
     26 S                     0.067865
     27 C                    -0.211993
     28 C                     0.035666
     29 C                    -0.127422
     30 S                    -0.013219
     31 C                    -0.164506
     32 C                     0.409675
     33 F                    -0.207537
     34 C                     0.444156
     35 O                    -0.460714
     36 O                    -0.300554
     37 C                    -0.058762
     38 H                     0.121515
     39 H                     0.095139
     40 H                     0.095189
     41 H                     0.218222
     42 H                     0.118502
     43 H                     0.116261
     44 H                     0.205728
  ----------------------------------------
  Sum of atomic charges =     0.000000

 -----------------------------------------------------------------
                    Cartesian Multipole Moments
 -----------------------------------------------------------------
    Charge (ESU x 10^10)
                 0.0000
    Dipole Moment (Debye)
         X      -0.2176      Y       1.5476      Z       3.4472
       Tot       3.7849
    Quadrupole Moments (Debye-Ang)
        XX    -201.0377     XY       1.9141     YY    -170.3445
        XZ      -4.1110     YZ     -11.8505     ZZ    -188.2293
    Octopole Moments (Debye-Ang^2)
       XXX     -98.5817    XXY     380.2374    XYY     -10.5109
       YYY     927.6855    XXZ     191.7489    XYZ       3.4594
       YYZ     159.0755    XZZ     -12.1620    YZZ     386.4445
       ZZZ     608.5540
    Hexadecapole Moments (Debye-Ang^3)
      XXXX    -408.4015   XXXY    -329.0980   XXYY   -3968.6117
      XYYY    -373.6710   YYYY  -20058.3807   XXXZ     133.7605
      XXYZ     316.3994   XYYZ     -87.9083   YYYZ     423.9553
      XXZZ   -1365.2085   XYZZ     -21.6968   YYZZ   -4210.5210
      XZZZ      55.8943   YZZZ     483.5193   ZZZZ   -7477.6651
 -----------------------------------------------------------------
 Total job time:  353.66s(wall), 10830.31s(cpu) 
 Tue Jan  9 11:33:42 2024

        *************************************************************
        *                                                           *
        *  Thank you very much for using Q-Chem.  Have a nice day.  *
        *                                                           *
        *************************************************************


0 sent ACK to 0 
now end server 0 ... 
cleanup process ... done
remove work dirs ./qchem1296477.0 -- ./qchem1296477.0
rm -rf ./qchem1296477.0
rm -rf ./qchem1296477
