You are running Q-Chem version: 5.4.0

#
# job setting
#
local host:  exp-6-39
current dir: /home/rramji/project-csd799/aromodel/ptb7fout-qchem/hydrogenated-rotation-run
input file:  Dimethoxy_Benzodithiophene_Phi_60_Theta_350_Methylcarbonyl_3_Fluoro_Thienothiophene_Hydrogenated.qcin
output file: 
nprocs     : 1
nthreads   : 64
#
# qchem installation setting
#
QC:          /cm/shared/apps/spack/cpu/opt/spack/linux-centos8-zen2/gcc-10.2.0/qchem-5.4-akfmr7b3t57bfs6qan3padb2wnb2i7cl
QCAUX:       /cm/shared/apps/spack/cpu/opt/spack/linux-centos8-zen2/gcc-10.2.0/qchem-5.4-akfmr7b3t57bfs6qan3padb2wnb2i7cl/qcaux
QCPROG:      /cm/shared/apps/spack/cpu/opt/spack/linux-centos8-zen2/gcc-10.2.0/qchem-5.4-akfmr7b3t57bfs6qan3padb2wnb2i7cl/exe/qcprog.exe
QCPROG_S:    /cm/shared/apps/spack/cpu/opt/spack/linux-centos8-zen2/gcc-10.2.0/qchem-5.4-akfmr7b3t57bfs6qan3padb2wnb2i7cl/exe/qcprog.exe_s
PARALLEL:    -DPARALLEL
QCMPI:       mpich
#
# qchem directory setting
#
qcrun:       qchem2070324
QCSCRATCH:   .
QCLOCALSCR:  
QCTMPDIR:    .
QCFILEPREF:  ./qchem2070324
QCSAVEDIR:   
workdirs:    ./qchem2070324
workdir0:    ./qchem2070324
partmpdirs =  
#
# parallel setting
#
QCRSH:           ssh
QCMPI:           mpich
QCMPIRUN:        /cm/shared/apps/spack/cpu/opt/spack/linux-centos8-zen2/gcc-10.2.0/qchem-5.4-akfmr7b3t57bfs6qan3padb2wnb2i7cl/bin/mpi/mpirun_qchem
QCMACHINEFILE:   ./qchem2070324/hostfile
exp-6-39

#
# env setting
#
exported envs:   QC QCAUX QCSCRATCH QCRUNNAME QCFILEPREF QCPROG QCPROG_S GUIFILE

Running Job 1 of 1 Dimethoxy_Benzodithiophene_Phi_60_Theta_350_Methylcarbonyl_3_Fluoro_Thienothiophene_Hydrogenated.qcin
qchem Dimethoxy_Benzodithiophene_Phi_60_Theta_350_Methylcarbonyl_3_Fluoro_Thienothiophene_Hydrogenated.qcin_2070324.0 ./qchem2070324/ 1
/cm/shared/apps/spack/cpu/opt/spack/linux-centos8-zen2/gcc-10.2.0/qchem-5.4-akfmr7b3t57bfs6qan3padb2wnb2i7cl/bin/mpi/mpirun_qchem -machinefile ./qchem2070324/hostfile -np 1 /cm/shared/apps/spack/cpu/opt/spack/linux-centos8-zen2/gcc-10.2.0/qchem-5.4-akfmr7b3t57bfs6qan3padb2wnb2i7cl/exe/qcprog.exe Dimethoxy_Benzodithiophene_Phi_60_Theta_350_Methylcarbonyl_3_Fluoro_Thienothiophene_Hydrogenated.qcin_2070324.0 ./qchem2070324/

Process 0 of 1 is on exp-6-39 - thread support 0
initial socket setup ...start
initial socket setup ...done 
now start server 0 ... 
                  Welcome to Q-Chem
     A Quantum Leap Into The Future Of Chemistry


 Q-Chem 5.4, Q-Chem, Inc., Pleasanton, CA (2021)

 License issued to: University of California, San Diego (site)

 E. Epifanovsky,  A. T. B. Gilbert,  Xintian Feng,  Joonho Lee,  Yuezhi Mao,  
 N. Mardirossian,  P. Pokhilko,  A. White,  M. Wormit,  M. P. Coons,  
 A. L. Dempwolff,  Zhengting Gan,  D. Hait,  P. R. Horn,  L. D. Jacobson,  
 I. Kaliman,  J. Kussmann,  A. W. Lange,  Ka Un Lao,  D. S. Levine,  Jie Liu,  
 S. C. McKenzie,  A. F. Morrison,  K. Nanda,  F. Plasser,  D. R. Rehn,  
 M. L. Vidal,  Zhi-Qiang You,  Ying Zhu,  B. Alam,  B. Albrecht,  
 A. Aldossary,  E. Alguire,  J. H. Andersen,  D. Barton,  K. Begam,  A. Behn,  
 Y. A. Bernard,  E. J. Berquist,  H. Burton,  A. Carreras,  K. Carter-Fenk,  
 R. Chakraborty,  A. D. Chien,  K. D. Closser,  V. Cofer-Shabica,  
 S. Dasgupta,  Jia Deng,  M. de Wergifosse,  M. Diedenhofen,  Hainam Do,  
 S. Ehlert,  Po-Tung Fang,  S. Fatehi,  Qingguo Feng,  J. Gayvert,  
 Qinghui Ge,  G. Gidofalvi,  M. Goldey,  J. Gomes,  C. Gonzalez-Espinoza,  
 S. Gulania,  A. Gunina,  M. W. D. Hanson-Heine,  P. H. P. Harbach,  
 A. W. Hauser,  M. F. Herbst,  M. Hernandez Vera,  M. Hodecker,  
 Z. C. Holden,  S. Houck,  Xunkun Huang,  Kerwin Hui,  B. C. Huynh,  
 M. Ivanov,  Hyunjun Ji,  Hanjie Jiang,  B. Kaduk,  S. Kaehler,  
 K. Khistyaev,  Jaehoon Kim,  P. Klunzinger,  Z. Koczor-Benda,  
 Joong Hoon Koh,  D. Kosenkov,  L. Koulias,  T. Kowalczyk,  C. M. Krauter,  
 K. Kue,  A. Kunitsa,  T. Kus,  A. Landau,  K. V. Lawler,  D. Lefrancois,  
 S. Lehtola,  Rain Li,  Yi-Pei Li,  Jiashu Liang,  M. Liebenthal,  
 Hung-Hsuan Lin,  You-Sheng Lin,  Fenglai Liu,  Kuan-Yu Liu,  
 M. Loipersberger,  A. Luenser,  A. Manjanath,  P. Manohar,  E. Mansoor,  
 S. F. Manzer,  Shan-Ping Mao,  A. V. Marenich,  T. Markovich,  S. Mason,  
 S. A. Maurer,  P. F. McLaughlin,  M. F. S. J. Menger,  J.-M. Mewes,  
 S. A. Mewes,  P. Morgante,  J. W. Mullinax,  T. S. Nguyen-Beck,  
 K. J. Oosterbaan,  G. Paran,  Alexander C. Paul,  Suranjan K. Paul,  
 F. Pavosevic,  Zheng Pei,  S. Prager,  E. I. Proynov,  E. Ramos,  B. Rana,  
 A. E. Rask,  A. Rettig,  R. M. Richard,  F. Rob,  E. Rossomme,  T. Scheele,  
 M. Scheurer,  M. Schneider,  N. Sergueev,  S. M. Sharada,  W. Skomorowski,  
 D. W. Small,  C. J. Stein,  Yu-Chuan Su,  E. J. Sundstrom,  Zhen Tao,  
 J. Thirman,  T. Tsuchimochi,  N. M. Tubman,  S. P. Veccham,  O. Vydrov,  
 J. Wenzel,  J. Witte,  A. Yamada,  Kun Yao,  S. Yeganeh,  S. R. Yost,  
 A. Zech,  Igor Ying Zhang,  Xing Zhang,  Yu Zhang,  D. Zuev,  
 A. Aspuru-Guzik,  A. T. Bell,  N. A. Besley,  K. B. Bravaya,  B. R. Brooks,  
 D. Casanova,  Jeng-Da Chai,  S. Coriani,  C. J. Cramer,  
 A. E. DePrince, III,  R. A. DiStasio Jr.,  A. Dreuw,  B. D. Dunietz,  
 T. R. Furlani,  W. A. Goddard III,  S. Grimme,  S. Hammes-Schiffer,  
 T. Head-Gordon,  W. J. Hehre,  Chao-Ping Hsu,  T.-C. Jagau,  Yousung Jung,  
 A. Klamt,  Jing Kong,  D. S. Lambrecht,  WanZhen Liang,  N. J. Mayhall,  
 C. W. McCurdy,  J. B. Neaton,  C. Ochsenfeld,  J. A. Parkhill,  R. Peverati,  
 V. A. Rassolov,  Yihan Shao,  L. V. Slipchenko,  T. Stauch,  R. P. Steele,  
 J. E. Subotnik,  A. J. W. Thom,  A. Tkatchenko,  D. G. Truhlar,  
 T. Van Voorhis,  T. A. Wesolowski,  K. B. Whaley,  H. L. Woodcock III,  
 P. M. Zimmerman,  S. Faraji,  P. M. W. Gill,  M. Head-Gordon,  
 J. M. Herbert,  A. I. Krylov

 Contributors to earlier versions of Q-Chem not listed above: 
 R. D. Adamson,  B. Austin,  R. Baer,  J. Baker,  G. J. O. Beran,  
 K. Brandhorst,  S. T. Brown,  E. F. C. Byrd,  A. K. Chakraborty,  
 G. K. L. Chan,  Chun-Min Chang,  Yunqing Chen,  C.-L. Cheng,  
 Siu Hung Chien,  D. M. Chipman,  D. L. Crittenden,  H. Dachsel,  
 R. J. Doerksen,  A. D. Dutoi,  R. G. Edgar,  J. Fosso-Tande,  
 L. Fusti-Molnar,  D. Ghosh,  A. Ghysels,  A. Golubeva-Zadorozhnaya,  
 J. Gonthier,  M. S. Gordon,  S. R. Gwaltney,  G. Hawkins,  J. E. Herr,  
 A. Heyden,  S. Hirata,  E. G. Hohenstein,  G. Kedziora,  F. J. Keil,  
 C. Kelley,  Jihan Kim,  R. A. King,  R. Z. Khaliullin,  P. P. Korambath,  
 W. Kurlancheek,  A. Laurent,  A. M. Lee,  M. S. Lee,  S. V. Levchenko,  
 Ching Yeh Lin,  D. Liotard,  E. Livshits,  R. C. Lochan,  I. Lotan,  
 L. A. Martinez-Martinez,  P. E. Maslen,  N. Nair,  D. P. O'Neill,  
 D. Neuhauser,  E. Neuscamman,  C. M. Oana,  R. Olivares-Amaya,  R. Olson,  
 T. M. Perrine,  B. Peters,  P. A. Pieniazek,  A. Prociuk,  Y. M. Rhee,  
 J. Ritchie,  M. A. Rohrdanz,  E. Rosta,  N. J. Russ,  H. F. Schaefer III,  
 M. W. Schmidt,  N. E. Schultz,  S. Sharma,  N. Shenvi,  C. D. Sherrill,  
 A. C. Simmonett,  A. Sodt,  T. Stein,  D. Stuck,  K. S. Thanthiriwatte,  
 V. Vanovschi,  L. Vogt,  Tao Wang,  A. Warshel,  M. A. Watson,  
 C. F. Williams,  Q. Wu,  X. Xu,  Jun Yang,  W. Zhang,  Yan Zhao

 Please cite Q-Chem as follows:
 Y. Shao et al., Mol. Phys. 113, 184-215 (2015)
 DOI: 10.1080/00268976.2014.952696

 Q-Chem 5.4.0 for Intel X86 EM64T Linux

 Parts of Q-Chem use Armadillo 9.800.1 (Horizon Scraper).
 http://arma.sourceforge.net/

 Q-Chem begins on Tue Jan  9 13:00:06 2024  

 Host: 
0

     Scratch files written to ./qchem2070324//
 May1621 |scratch|qcdevops|jenkins|workspace|build_RNUM    
 Parallel job on  1  processors
 Processing $rem in /cm/shared/apps/spack/cpu/opt/spack/linux-centos8-zen2/gcc-10.2.0/qchem-5.4-akfmr7b3t57bfs6qan3padb2wnb2i7cl/config/preferences:
 Processing $rem in /home/rramji/.qchemrc:
 Symmetry turned off for PCM/SM12/SMD calculation
 Core orbitals will be frozen

 Checking the input file for inconsistencies... 	...done.

 Q-Chem warning in module forms1/BasisType.C, line 2236:

 You are not using the predefined 5D/6D in this basis set.


--------------------------------------------------------------
User input:
--------------------------------------------------------------
$molecule
0 1
C	0.014560	-8.517702	0.320589
C	-0.180211	-7.641575	-0.737240
S	0.299553	-7.638634	1.842356
C	-0.114873	-6.264785	-0.366488
H	-0.368061	-7.966081	-1.768528
C	0.131236	-6.072714	1.038637
C	0.253435	-4.787049	1.588197
C	-0.249014	-5.162801	-1.258831
C	-0.122513	-3.874817	-0.709695
C	0.121043	-3.683952	0.697430
O	-0.505933	-5.499772	-2.553323
O	0.512697	-4.459055	2.888369
C	0.080869	-5.329063	3.927625
H	0.173159	-4.755694	4.869656
H	0.716363	-6.238095	4.007459
H	-0.978072	-5.637262	3.789565
C	-0.246949	-4.572261	-3.600064
H	-0.344574	-5.139743	-4.544887
H	0.779898	-4.153131	-3.532074
H	-0.983261	-3.739531	-3.612378
C	0.188009	-2.306654	1.064246
S	-0.278644	-2.306501	-1.517360
C	-0.000000	-1.435185	-0.000000
H	0.373017	-1.978138	2.094685
C	0.000000	0.000000	0.000000
S	0.783786	0.451972	1.507541
C	2.145261	1.238908	0.718873
C	0.783650	0.451572	-1.067872
C	1.986396	1.148648	-0.686410
S	0.574133	0.327317	-2.805516
C	2.088363	1.207943	-3.054530
C	2.700548	1.564221	-1.862551
F	3.855718	2.236706	-1.819088
C	2.477307	1.430318	-4.456084
O	1.814592	1.038482	-5.406510
O	3.643162	2.112042	-4.569225
C	4.074530	2.355061	-5.916207
H	5.024556	2.911627	-5.833064
H	3.322010	2.951860	-6.470168
H	4.229490	1.400910	-6.459293
H	2.944986	1.702260	1.306486
H	0.900177	-9.143623	0.159475
H	-0.866566	-9.149441	0.483604
H	1.062246	-1.443175	-0.194856
$end

$rem
JOBTYPE		SP
EXCHANGE	HF
CORRELATION	pRIMP2
BASIS		cc-pvtz
METHOD		rimp2
AUX_BASIS	rimp2-cc-pvtz
SOLVENT_METHOD	PCM
PURECART	11111
SYMMETRY	false
MEM_TOTAL	110000
SCF_CONVERGENCE = 6
THRESH=10
GUI = 2
$end



$solvent
dielectric 4.90
$end
--------------------------------------------------------------
 ----------------------------------------------------------------
             Standard Nuclear Orientation (Angstroms)
    I     Atom           X                Y                Z
 ----------------------------------------------------------------
    1      C       0.0145600000    -8.5177020000     0.3205890000
    2      C      -0.1802110000    -7.6415750000    -0.7372400000
    3      S       0.2995530000    -7.6386340000     1.8423560000
    4      C      -0.1148730000    -6.2647850000    -0.3664880000
    5      H      -0.3680610000    -7.9660810000    -1.7685280000
    6      C       0.1312360000    -6.0727140000     1.0386370000
    7      C       0.2534350000    -4.7870490000     1.5881970000
    8      C      -0.2490140000    -5.1628010000    -1.2588310000
    9      C      -0.1225130000    -3.8748170000    -0.7096950000
   10      C       0.1210430000    -3.6839520000     0.6974300000
   11      O      -0.5059330000    -5.4997720000    -2.5533230000
   12      O       0.5126970000    -4.4590550000     2.8883690000
   13      C       0.0808690000    -5.3290630000     3.9276250000
   14      H       0.1731590000    -4.7556940000     4.8696560000
   15      H       0.7163630000    -6.2380950000     4.0074590000
   16      H      -0.9780720000    -5.6372620000     3.7895650000
   17      C      -0.2469490000    -4.5722610000    -3.6000640000
   18      H      -0.3445740000    -5.1397430000    -4.5448870000
   19      H       0.7798980000    -4.1531310000    -3.5320740000
   20      H      -0.9832610000    -3.7395310000    -3.6123780000
   21      C       0.1880090000    -2.3066540000     1.0642460000
   22      S      -0.2786440000    -2.3065010000    -1.5173600000
   23      C       0.0000000000    -1.4351850000     0.0000000000
   24      H       0.3730170000    -1.9781380000     2.0946850000
   25      C       0.0000000000     0.0000000000     0.0000000000
   26      S       0.7837860000     0.4519720000     1.5075410000
   27      C       2.1452610000     1.2389080000     0.7188730000
   28      C       0.7836500000     0.4515720000    -1.0678720000
   29      C       1.9863960000     1.1486480000    -0.6864100000
   30      S       0.5741330000     0.3273170000    -2.8055160000
   31      C       2.0883630000     1.2079430000    -3.0545300000
   32      C       2.7005480000     1.5642210000    -1.8625510000
   33      F       3.8557180000     2.2367060000    -1.8190880000
   34      C       2.4773070000     1.4303180000    -4.4560840000
   35      O       1.8145920000     1.0384820000    -5.4065100000
   36      O       3.6431620000     2.1120420000    -4.5692250000
   37      C       4.0745300000     2.3550610000    -5.9162070000
   38      H       5.0245560000     2.9116270000    -5.8330640000
   39      H       3.3220100000     2.9518600000    -6.4701680000
   40      H       4.2294900000     1.4009100000    -6.4592930000
   41      H       2.9449860000     1.7022600000     1.3064860000
   42      H       0.9001770000    -9.1436230000     0.1594750000
   43      H      -0.8665660000    -9.1494410000     0.4836040000
   44      H       1.0622460000    -1.4431750000    -0.1948560000
 ----------------------------------------------------------------
 Nuclear Repulsion Energy =        3430.07746057 hartrees
 There are      120 alpha and      120 beta electrons
 Requested basis set is cc-pVTZ
 There are 388 shells and 1096 basis functions

 Total QAlloc Memory Limit 110000 MB
 Mega-Array Size       188 MB
 MEM_STATIC part       192 MB
 Discretize the solute cavity surface with Lebedev spheres
	Using 110 Lebedev grid points for each H atom
	Using 194 Lebedev grid points for other atoms
	Atomic van der Waals radii will be scaled by 1.20
 Remove points where switching function is < 1.0e-08
 Keep 2906 surface tesserae and discard 4370 interior tesserae
 Molecular Surface Area = 431.987 Angst**2
 Requested basis set is rimp2-cc-pVTZ
 There are 853 shells and 2963 basis functions
 A cutoff of  1.0D-10 yielded  34559 shell pairs
 There are    259211 function pairs (    334674 Cartesian)
 Smallest overlap matrix eigenvalue = 2.19E-05

 Scale SEOQF with 1.000000e-01/1.000000e-02/1.000000e-02

 Standard Electronic Orientation quadrupole field applied
 Nucleus-field energy     =     0.0000000333 hartrees
 Guess from superposition of atomic densities
 Warning:  Energy on first SCF cycle will be non-variational
 SAD guess density has 240.000000 electrons

 -----------------------------------------------------------------------
  General SCF calculation program by
  Eric Jon Sundstrom, Paul Horn, Yuezhi Mao, Dmitri Zuev, Alec White,
  David Stuck, Shaama M.S., Shane Yost, Joonho Lee, David Small,
  Daniel Levine, Susi Lehtola, Hugh Burton, Evgeny Epifanovsky,
  Bang C. Huynh
 -----------------------------------------------------------------------
 Hartree-Fock
 using 64 threads for integral computing
 -------------------------------------------------------
 OpenMP Integral computing Module                
 Release: version 1.0, May 2013, Q-Chem Inc. Pittsburgh 
 -------------------------------------------------------
 A restricted SCF calculation will be
 performed using DIIS
 SCF converges when DIIS error is below 1.0e-06
 ---------------------------------------
  Cycle       Energy         DIIS error
 ---------------------------------------
    1   -2767.2432768510      1.76e-02  
    2   -2754.8039459439      1.53e-03  
    3   -2755.1551879347      8.61e-04  
    4   -2755.2442651914      2.57e-04  
    5   -2755.2585785405      7.43e-05  
    6   -2755.2602978888      2.76e-05  
    7   -2755.2607936317      1.44e-05  
    8   -2755.2609525545      5.88e-06  
    9   -2755.2609855324      2.84e-06  
   10   -2755.2609927761      1.50e-06  
   11   -2755.2609949688      7.47e-07  Convergence criterion met
 ---------------------------------------
 SCF time:   CPU 7839.37s  wall 281.00s 

************** Final PCM Free Energy Summary **************
 G_electrostatic  =      -0.02186272 hartree =     -13.71906602 kcal/mol
 G_cavitation     =       0.00000000 hartree =       0.00000000 kcal/mol
 G_dispersion     =       0.00000000 hartree =       0.00000000 kcal/mol
 G_repulsion      =       0.00000000 hartree =       0.00000000 kcal/mol
 --------------------------------------------------
 Non-electrostatic Free Energy =       0.00000000 hartree =       0.00000000 kcal/mol
 Total                         =      -0.02186272 hartree =     -13.71906602 kcal/mol
 --------------------------------------------------
 SCF Energy (H0 + V/2)                       =   -2755.26099497 
 Solute Internal Energy (H0)                 =   -2755.23913225 
 Total Free Energy (H0 + V/2 + non-elec)     =   -2755.26099497 hartree
                                             = -1728952.36941983 kcal/mol
***********************************************************

 SCF   energy in the final basis set =    -2755.2609949688
 Total energy in the final basis set =    -2755.2609949688


 --------------------------------------------------------------
  Generalized many-body perturbation theory program
  by Joonho Lee, Fazle Rob, Xintian Feng, Evgeny Epifanovsky

 No regularization used 
 (reg. param. = 0.0000e+00)
  (P|Q)^-1/2 Time:  CPU 153.25 s  wall 3.13 s

 In RI-MP2 calculation: 
 # of frozen core orbitals: 45

 Components of the RIMP2 correlation energy:
        aaaa    correlation energy =        -0.6741384229 a.u.
        abab    correlation energy =        -3.7649968377 a.u.
        bbbb    correlation energy =        -0.6741384229 a.u.
        non-Brillouin singles      =        -0.0000000000 a.u.
        total same-spin energy     =        -1.3482768457 a.u.
        total opposite-spin energy =        -3.7649968377 a.u.

 Total  RIMP2   correlation energy =        -5.1132736834 a.u.
        RIMP2         total energy =     -2760.3742686523 a.u.

 RI-MP2 Energy Time:  CPU 2937.90 s  wall 48.18 s
 
 --------------------------------------------------------------
 
                    Orbital Energies (a.u.)
 --------------------------------------------------------------
 
 Alpha MOs
 -- Occupied --
-92.0141 -92.0067 -91.9712 -91.9562 -26.3455 -20.6162 -20.5866 -20.5844
-20.5627 -11.4113 -11.3850 -11.3297 -11.3116 -11.3078 -11.3035 -11.2996
-11.2905 -11.2898 -11.2825 -11.2824 -11.2820 -11.2805 -11.2791 -11.2700
-11.2696 -11.2561 -11.2528 -11.2476 -11.2321  -9.0140  -9.0067  -8.9743
 -8.9588  -6.6946  -6.6938  -6.6936  -6.6876  -6.6868  -6.6858  -6.6553
 -6.6545  -6.6532  -6.6400  -6.6391  -6.6381  -1.6626  -1.4688  -1.4088
 -1.4074  -1.3715  -1.2472  -1.1994  -1.1726  -1.1423  -1.0989  -1.0509
 -1.0437  -1.0298  -1.0011  -0.9942  -0.9682  -0.9553  -0.9492  -0.9420
 -0.8918  -0.8741  -0.8561  -0.8215  -0.7953  -0.7865  -0.7806  -0.7668
 -0.7578  -0.7371  -0.7277  -0.7131  -0.7010  -0.6938  -0.6862  -0.6822
 -0.6752  -0.6687  -0.6542  -0.6473  -0.6372  -0.6313  -0.6180  -0.6145
 -0.6096  -0.6037  -0.5927  -0.5808  -0.5694  -0.5672  -0.5581  -0.5545
 -0.5445  -0.5338  -0.5302  -0.5233  -0.5168  -0.5105  -0.5067  -0.4980
 -0.4841  -0.4827  -0.4784  -0.4737  -0.4693  -0.4600  -0.4551  -0.4446
 -0.4286  -0.3961  -0.3749  -0.3701  -0.3506  -0.3085  -0.2840  -0.2118
 -- Virtual --
  0.0189   0.0605   0.0735   0.1286   0.1393   0.1444   0.1514   0.1550
  0.1560   0.1600   0.1668   0.1760   0.1805   0.1843   0.1898   0.1941
  0.2005   0.2034   0.2056   0.2114   0.2143   0.2212   0.2245   0.2255
  0.2293   0.2366   0.2441   0.2480   0.2530   0.2594   0.2623   0.2742
  0.2896   0.2970   0.3039   0.3127   0.3243   0.3302   0.3404   0.3413
  0.3472   0.3582   0.3588   0.3671   0.3710   0.3767   0.3826   0.3839
  0.3876   0.3934   0.3983   0.3996   0.4061   0.4092   0.4139   0.4234
  0.4285   0.4295   0.4360   0.4377   0.4385   0.4430   0.4497   0.4508
  0.4548   0.4595   0.4630   0.4706   0.4753   0.4771   0.4827   0.4854
  0.4912   0.4932   0.4966   0.4999   0.5056   0.5085   0.5136   0.5178
  0.5208   0.5245   0.5297   0.5349   0.5382   0.5388   0.5426   0.5487
  0.5499   0.5538   0.5564   0.5573   0.5631   0.5693   0.5760   0.5852
  0.5859   0.5925   0.5959   0.5970   0.6032   0.6081   0.6110   0.6127
  0.6157   0.6175   0.6209   0.6222   0.6255   0.6284   0.6307   0.6357
  0.6388   0.6437   0.6464   0.6505   0.6551   0.6564   0.6591   0.6622
  0.6636   0.6703   0.6784   0.6801   0.6856   0.6900   0.6979   0.7022
  0.7043   0.7114   0.7160   0.7170   0.7191   0.7230   0.7349   0.7397
  0.7441   0.7449   0.7552   0.7582   0.7651   0.7762   0.7783   0.7881
  0.7945   0.7996   0.8031   0.8071   0.8114   0.8186   0.8232   0.8243
  0.8301   0.8367   0.8431   0.8475   0.8551   0.8639   0.8697   0.8791
  0.8816   0.8872   0.8897   0.8937   0.8960   0.9032   0.9071   0.9146
  0.9188   0.9301   0.9346   0.9371   0.9423   0.9466   0.9521   0.9530
  0.9630   0.9634   0.9668   0.9787   0.9807   0.9835   0.9935   0.9951
  0.9974   1.0023   1.0059   1.0095   1.0175   1.0221   1.0264   1.0315
  1.0358   1.0396   1.0518   1.0527   1.0551   1.0609   1.0663   1.0706
  1.0767   1.0789   1.0832   1.0888   1.0948   1.1004   1.1038   1.1081
  1.1106   1.1153   1.1185   1.1259   1.1328   1.1343   1.1418   1.1546
  1.1590   1.1623   1.1650   1.1706   1.1760   1.1801   1.1860   1.1863
  1.1883   1.1928   1.1935   1.2022   1.2092   1.2114   1.2150   1.2209
  1.2274   1.2333   1.2392   1.2413   1.2477   1.2506   1.2526   1.2556
  1.2589   1.2675   1.2693   1.2769   1.2823   1.2847   1.2910   1.2943
  1.3042   1.3081   1.3105   1.3137   1.3249   1.3331   1.3354   1.3446
  1.3497   1.3548   1.3634   1.3648   1.3727   1.3853   1.3903   1.3996
  1.4069   1.4086   1.4117   1.4177   1.4333   1.4378   1.4424   1.4538
  1.4656   1.4689   1.4730   1.4834   1.4862   1.4890   1.4953   1.5015
  1.5056   1.5074   1.5124   1.5227   1.5281   1.5343   1.5382   1.5406
  1.5431   1.5448   1.5470   1.5593   1.5630   1.5697   1.5726   1.5759
  1.5845   1.5946   1.5989   1.6070   1.6139   1.6194   1.6338   1.6410
  1.6415   1.6451   1.6537   1.6591   1.6619   1.6688   1.6776   1.6844
  1.6899   1.6938   1.7066   1.7159   1.7231   1.7292   1.7317   1.7369
  1.7474   1.7559   1.7610   1.7705   1.7858   1.7878   1.8051   1.8102
  1.8146   1.8207   1.8307   1.8402   1.8432   1.8614   1.8714   1.8728
  1.8860   1.8895   1.9007   1.9054   1.9184   1.9270   1.9394   1.9434
  1.9518   1.9599   1.9680   1.9717   1.9825   1.9935   2.0022   2.0045
  2.0175   2.0230   2.0290   2.0335   2.0449   2.0495   2.0513   2.0549
  2.0732   2.0759   2.0841   2.0912   2.0924   2.1151   2.1210   2.1326
  2.1449   2.1510   2.1606   2.1716   2.1756   2.1849   2.1869   2.1916
  2.1956   2.2149   2.2179   2.2194   2.2263   2.2341   2.2411   2.2434
  2.2546   2.2597   2.2650   2.2693   2.2751   2.2875   2.2938   2.2986
  2.3098   2.3107   2.3279   2.3360   2.3369   2.3491   2.3588   2.3616
  2.3693   2.3747   2.3897   2.4009   2.4055   2.4163   2.4178   2.4213
  2.4288   2.4328   2.4452   2.4608   2.4689   2.4818   2.4858   2.4940
  2.4966   2.5153   2.5206   2.5328   2.5394   2.5412   2.5516   2.5563
  2.5682   2.5706   2.5809   2.6048   2.6093   2.6153   2.6215   2.6289
  2.6328   2.6416   2.6430   2.6458   2.6507   2.6564   2.6645   2.6707
  2.6817   2.6842   2.6911   2.6932   2.7043   2.7071   2.7096   2.7156
  2.7293   2.7370   2.7434   2.7521   2.7598   2.7621   2.7679   2.7766
  2.7840   2.7898   2.7914   2.8033   2.8134   2.8154   2.8196   2.8385
  2.8397   2.8446   2.8488   2.8546   2.8613   2.8674   2.8763   2.8811
  2.8867   2.8915   2.8986   2.9120   2.9127   2.9271   2.9399   2.9495
  2.9513   2.9586   2.9616   2.9731   2.9816   2.9839   2.9878   2.9934
  3.0012   3.0089   3.0186   3.0227   3.0332   3.0354   3.0456   3.0471
  3.0529   3.0649   3.0716   3.0758   3.0899   3.0940   3.0991   3.1007
  3.1102   3.1152   3.1188   3.1223   3.1304   3.1372   3.1424   3.1447
  3.1494   3.1549   3.1608   3.1669   3.1683   3.1757   3.1787   3.1843
  3.1897   3.1987   3.2081   3.2088   3.2140   3.2176   3.2209   3.2269
  3.2336   3.2365   3.2445   3.2471   3.2518   3.2537   3.2624   3.2686
  3.2706   3.2740   3.2777   3.2877   3.2901   3.2933   3.2957   3.3037
  3.3091   3.3153   3.3199   3.3265   3.3302   3.3313   3.3415   3.3461
  3.3485   3.3526   3.3575   3.3584   3.3678   3.3719   3.3737   3.3748
  3.3775   3.3795   3.3906   3.3964   3.4006   3.4014   3.4069   3.4089
  3.4106   3.4190   3.4245   3.4281   3.4323   3.4345   3.4434   3.4502
  3.4550   3.4568   3.4630   3.4690   3.4702   3.4735   3.4802   3.4827
  3.4856   3.4963   3.4990   3.5004   3.5040   3.5247   3.5263   3.5346
  3.5426   3.5448   3.5508   3.5580   3.5658   3.5681   3.5720   3.5824
  3.5857   3.5936   3.5957   3.5980   3.6011   3.6040   3.6098   3.6170
  3.6232   3.6278   3.6303   3.6373   3.6398   3.6447   3.6522   3.6555
  3.6641   3.6655   3.6770   3.6803   3.6837   3.6859   3.6989   3.7003
  3.7048   3.7052   3.7143   3.7195   3.7285   3.7295   3.7344   3.7405
  3.7453   3.7509   3.7613   3.7642   3.7741   3.7780   3.7814   3.7826
  3.7849   3.7941   3.7985   3.8030   3.8090   3.8120   3.8147   3.8176
  3.8226   3.8267   3.8401   3.8489   3.8515   3.8608   3.8635   3.8693
  3.8715   3.8827   3.8837   3.8898   3.8933   3.8989   3.9060   3.9139
  3.9219   3.9255   3.9356   3.9435   3.9457   3.9481   3.9616   3.9677
  3.9709   3.9727   3.9871   3.9945   4.0026   4.0070   4.0179   4.0238
  4.0311   4.0337   4.0432   4.0518   4.0650   4.0678   4.0680   4.0749
  4.0837   4.0874   4.0976   4.1055   4.1161   4.1208   4.1276   4.1341
  4.1438   4.1514   4.1599   4.1619   4.1630   4.1657   4.1704   4.1773
  4.1811   4.1951   4.2025   4.2080   4.2152   4.2155   4.2340   4.2396
  4.2468   4.2533   4.2596   4.2741   4.2781   4.2889   4.2958   4.3196
  4.3271   4.3349   4.3386   4.3410   4.3539   4.3579   4.3594   4.3607
  4.3720   4.3757   4.3858   4.3964   4.4099   4.4137   4.4167   4.4207
  4.4236   4.4271   4.4313   4.4364   4.4427   4.4490   4.4572   4.4646
  4.4711   4.4881   4.5003   4.5042   4.5140   4.5210   4.5286   4.5334
  4.5435   4.5599   4.5647   4.5703   4.5757   4.5812   4.5860   4.5950
  4.6028   4.6132   4.6244   4.6278   4.6440   4.6499   4.6517   4.6549
  4.6587   4.6717   4.6824   4.6929   4.7099   4.7141   4.7349   4.7373
  4.7467   4.7565   4.7611   4.7745   4.7775   4.7934   4.8072   4.8242
  4.8265   4.8315   4.8413   4.8563   4.8607   4.8730   4.8833   4.8951
  4.9017   4.9234   4.9353   4.9454   4.9551   4.9641   4.9675   4.9737
  4.9913   5.0064   5.0081   5.0187   5.0233   5.0398   5.0436   5.0503
  5.0632   5.0888   5.0971   5.1148   5.1243   5.1485   5.1611   5.1675
  5.1803   5.1969   5.1984   5.2099   5.2254   5.2272   5.2350   5.2519
  5.2549   5.2567   5.2712   5.2951   5.2958   5.3150   5.3180   5.3299
  5.3390   5.3516   5.3545   5.3614   5.3727   5.3883   5.3953   5.4042
  5.4116   5.4252   5.4300   5.4438   5.4463   5.4574   5.4842   5.5057
  5.5143   5.5159   5.5221   5.5345   5.5674   5.5736   5.5802   5.5878
  5.5983   5.6125   5.6203   5.6433   5.6516   5.6584   5.6800   5.6941
  5.7244   5.7280   5.7481   5.7550   5.7685   5.8062   5.8145   5.8423
  5.8614   5.8787   5.8988   5.9152   5.9278   5.9632   5.9816   6.0301
  6.0353   6.0448   6.0514   6.1249   6.1494   6.1560   6.1685   6.1778
  6.1818   6.1865   6.2289   6.2377   6.2517   6.2603   6.2725   6.2736
  6.2879   6.2967   6.3575   6.3777   6.4485   6.4488   6.5158   6.5386
  6.5499   6.5779   6.5988   6.6483   6.6621   6.6698   6.7212   6.7451
  6.8113   6.8291   6.8583   6.8612   6.9029   6.9770   7.1342   7.1492
  7.2026   7.2040   7.2249   7.2412   7.3087   7.3296   7.3444   7.3611
  7.3620   7.4039   7.4120   7.4836   7.4903   7.4978   7.5174   7.5492
  7.6150   7.7465   7.7709   7.7883   7.8048   7.8975   7.9283   7.9583
  7.9722   8.1322   8.3019   8.4606   8.9203   9.0319   9.3612   9.4871
  9.6732  10.2771  11.2585  11.4542  11.7750  12.1100  12.1255  12.3623
 12.4634  12.5072  12.9701  12.9797  13.0270  13.3542  13.3978  13.4960
 13.7893  13.8631  13.9270  14.0002  14.0782  14.3253  14.9376  15.2193
 --------------------------------------------------------------
 
          Ground-State Mulliken Net Atomic Charges

     Atom                 Charge (a.u.)
  ----------------------------------------
      1 C                    -0.069320
      2 C                    -0.272780
      3 S                    -0.141221
      4 C                    -0.041771
      5 H                     0.191892
      6 C                    -0.051630
      7 C                     0.221874
      8 C                     0.218433
      9 C                    -0.061781
     10 C                    -0.047183
     11 O                    -0.335666
     12 O                    -0.344724
     13 C                    -0.082901
     14 H                     0.119230
     15 H                     0.092192
     16 H                     0.093017
     17 C                    -0.087299
     18 H                     0.123009
     19 H                     0.091213
     20 H                     0.090340
     21 C                    -0.271769
     22 S                    -0.106051
     23 C                     0.085993
     24 H                     0.197938
     25 C                    -0.151092
     26 S                     0.099440
     27 C                    -0.149025
     28 C                     0.064652
     29 C                    -0.124112
     30 S                     0.056799
     31 C                    -0.157834
     32 C                     0.398440
     33 F                    -0.205981
     34 C                     0.449033
     35 O                    -0.461239
     36 O                    -0.300865
     37 C                    -0.058291
     38 H                     0.121720
     39 H                     0.095432
     40 H                     0.095277
     41 H                     0.221208
     42 H                     0.115506
     43 H                     0.113201
     44 H                     0.166694
  ----------------------------------------
  Sum of atomic charges =     0.000000

 -----------------------------------------------------------------
                    Cartesian Multipole Moments
 -----------------------------------------------------------------
    Charge (ESU x 10^10)
                -0.0000
    Dipole Moment (Debye)
         X       3.8670      Y       2.8681      Z       2.3107
       Tot       5.3404
    Quadrupole Moments (Debye-Ang)
        XX    -188.5551     XY       8.4924     YY    -194.2813
        XZ      -9.3895     YZ       0.1676     ZZ    -185.9078
    Octopole Moments (Debye-Ang^2)
       XXX    -440.0447    XXY     496.7867    XYY    -157.8030
       YYY    1260.6487    XXZ     106.9799    XYZ     -11.6388
       YYZ     110.8499    XZZ     -82.9227    YZZ     439.1640
       ZZZ     497.6929
    Hexadecapole Moments (Debye-Ang^3)
      XXXX   -2773.1797   XXXY    -637.2310   XXYY   -3938.2311
      XYYY    -616.5303   YYYY  -18587.0196   XXXZ    1023.5355
      XXYZ     338.4124   XYYZ     262.9745   YYYZ    1580.4717
      XXZZ   -1331.6635   XYZZ      46.1430   YYZZ   -4282.7166
      XZZZ     773.7896   YZZZ    1066.8964   ZZZZ   -7453.1957
 -----------------------------------------------------------------
 Total job time:  333.59s(wall), 10896.84s(cpu) 
 Tue Jan  9 13:05:40 2024

        *************************************************************
        *                                                           *
        *  Thank you very much for using Q-Chem.  Have a nice day.  *
        *                                                           *
        *************************************************************


0 sent ACK to 0 
now end server 0 ... 
cleanup process ... done
remove work dirs ./qchem2070324.0 -- ./qchem2070324.0
rm -rf ./qchem2070324.0
rm -rf ./qchem2070324
