You are running Q-Chem version: 5.4.0

#
# job setting
#
local host:  exp-14-16
current dir: /home/rramji/project-csd799/aromodel/ptb7fout-qchem/hydrogenated-rotation-run
input file:  Dimethoxy_Benzodithiophene_Phi_30_Theta_200_Methylcarbonyl_3_Fluoro_Thienothiophene_Hydrogenated.qcin
output file: 
nprocs     : 1
nthreads   : 64
#
# qchem installation setting
#
QC:          /cm/shared/apps/spack/cpu/opt/spack/linux-centos8-zen2/gcc-10.2.0/qchem-5.4-akfmr7b3t57bfs6qan3padb2wnb2i7cl
QCAUX:       /cm/shared/apps/spack/cpu/opt/spack/linux-centos8-zen2/gcc-10.2.0/qchem-5.4-akfmr7b3t57bfs6qan3padb2wnb2i7cl/qcaux
QCPROG:      /cm/shared/apps/spack/cpu/opt/spack/linux-centos8-zen2/gcc-10.2.0/qchem-5.4-akfmr7b3t57bfs6qan3padb2wnb2i7cl/exe/qcprog.exe
QCPROG_S:    /cm/shared/apps/spack/cpu/opt/spack/linux-centos8-zen2/gcc-10.2.0/qchem-5.4-akfmr7b3t57bfs6qan3padb2wnb2i7cl/exe/qcprog.exe_s
PARALLEL:    -DPARALLEL
QCMPI:       mpich
#
# qchem directory setting
#
qcrun:       qchem1502693
QCSCRATCH:   .
QCLOCALSCR:  
QCTMPDIR:    .
QCFILEPREF:  ./qchem1502693
QCSAVEDIR:   
workdirs:    ./qchem1502693
workdir0:    ./qchem1502693
partmpdirs =  
#
# parallel setting
#
QCRSH:           ssh
QCMPI:           mpich
QCMPIRUN:        /cm/shared/apps/spack/cpu/opt/spack/linux-centos8-zen2/gcc-10.2.0/qchem-5.4-akfmr7b3t57bfs6qan3padb2wnb2i7cl/bin/mpi/mpirun_qchem
QCMACHINEFILE:   ./qchem1502693/hostfile
exp-14-16

#
# env setting
#
exported envs:   QC QCAUX QCSCRATCH QCRUNNAME QCFILEPREF QCPROG QCPROG_S GUIFILE

Running Job 1 of 1 Dimethoxy_Benzodithiophene_Phi_30_Theta_200_Methylcarbonyl_3_Fluoro_Thienothiophene_Hydrogenated.qcin
qchem Dimethoxy_Benzodithiophene_Phi_30_Theta_200_Methylcarbonyl_3_Fluoro_Thienothiophene_Hydrogenated.qcin_1502693.0 ./qchem1502693/ 1
/cm/shared/apps/spack/cpu/opt/spack/linux-centos8-zen2/gcc-10.2.0/qchem-5.4-akfmr7b3t57bfs6qan3padb2wnb2i7cl/bin/mpi/mpirun_qchem -machinefile ./qchem1502693/hostfile -np 1 /cm/shared/apps/spack/cpu/opt/spack/linux-centos8-zen2/gcc-10.2.0/qchem-5.4-akfmr7b3t57bfs6qan3padb2wnb2i7cl/exe/qcprog.exe Dimethoxy_Benzodithiophene_Phi_30_Theta_200_Methylcarbonyl_3_Fluoro_Thienothiophene_Hydrogenated.qcin_1502693.0 ./qchem1502693/

Process 0 of 1 is on exp-14-16 - thread support 0
initial socket setup ...start
initial socket setup ...done 
now start server 0 ... 
                  Welcome to Q-Chem
     A Quantum Leap Into The Future Of Chemistry


 Q-Chem 5.4, Q-Chem, Inc., Pleasanton, CA (2021)

 License issued to: University of California, San Diego (site)

 E. Epifanovsky,  A. T. B. Gilbert,  Xintian Feng,  Joonho Lee,  Yuezhi Mao,  
 N. Mardirossian,  P. Pokhilko,  A. White,  M. Wormit,  M. P. Coons,  
 A. L. Dempwolff,  Zhengting Gan,  D. Hait,  P. R. Horn,  L. D. Jacobson,  
 I. Kaliman,  J. Kussmann,  A. W. Lange,  Ka Un Lao,  D. S. Levine,  Jie Liu,  
 S. C. McKenzie,  A. F. Morrison,  K. Nanda,  F. Plasser,  D. R. Rehn,  
 M. L. Vidal,  Zhi-Qiang You,  Ying Zhu,  B. Alam,  B. Albrecht,  
 A. Aldossary,  E. Alguire,  J. H. Andersen,  D. Barton,  K. Begam,  A. Behn,  
 Y. A. Bernard,  E. J. Berquist,  H. Burton,  A. Carreras,  K. Carter-Fenk,  
 R. Chakraborty,  A. D. Chien,  K. D. Closser,  V. Cofer-Shabica,  
 S. Dasgupta,  Jia Deng,  M. de Wergifosse,  M. Diedenhofen,  Hainam Do,  
 S. Ehlert,  Po-Tung Fang,  S. Fatehi,  Qingguo Feng,  J. Gayvert,  
 Qinghui Ge,  G. Gidofalvi,  M. Goldey,  J. Gomes,  C. Gonzalez-Espinoza,  
 S. Gulania,  A. Gunina,  M. W. D. Hanson-Heine,  P. H. P. Harbach,  
 A. W. Hauser,  M. F. Herbst,  M. Hernandez Vera,  M. Hodecker,  
 Z. C. Holden,  S. Houck,  Xunkun Huang,  Kerwin Hui,  B. C. Huynh,  
 M. Ivanov,  Hyunjun Ji,  Hanjie Jiang,  B. Kaduk,  S. Kaehler,  
 K. Khistyaev,  Jaehoon Kim,  P. Klunzinger,  Z. Koczor-Benda,  
 Joong Hoon Koh,  D. Kosenkov,  L. Koulias,  T. Kowalczyk,  C. M. Krauter,  
 K. Kue,  A. Kunitsa,  T. Kus,  A. Landau,  K. V. Lawler,  D. Lefrancois,  
 S. Lehtola,  Rain Li,  Yi-Pei Li,  Jiashu Liang,  M. Liebenthal,  
 Hung-Hsuan Lin,  You-Sheng Lin,  Fenglai Liu,  Kuan-Yu Liu,  
 M. Loipersberger,  A. Luenser,  A. Manjanath,  P. Manohar,  E. Mansoor,  
 S. F. Manzer,  Shan-Ping Mao,  A. V. Marenich,  T. Markovich,  S. Mason,  
 S. A. Maurer,  P. F. McLaughlin,  M. F. S. J. Menger,  J.-M. Mewes,  
 S. A. Mewes,  P. Morgante,  J. W. Mullinax,  T. S. Nguyen-Beck,  
 K. J. Oosterbaan,  G. Paran,  Alexander C. Paul,  Suranjan K. Paul,  
 F. Pavosevic,  Zheng Pei,  S. Prager,  E. I. Proynov,  E. Ramos,  B. Rana,  
 A. E. Rask,  A. Rettig,  R. M. Richard,  F. Rob,  E. Rossomme,  T. Scheele,  
 M. Scheurer,  M. Schneider,  N. Sergueev,  S. M. Sharada,  W. Skomorowski,  
 D. W. Small,  C. J. Stein,  Yu-Chuan Su,  E. J. Sundstrom,  Zhen Tao,  
 J. Thirman,  T. Tsuchimochi,  N. M. Tubman,  S. P. Veccham,  O. Vydrov,  
 J. Wenzel,  J. Witte,  A. Yamada,  Kun Yao,  S. Yeganeh,  S. R. Yost,  
 A. Zech,  Igor Ying Zhang,  Xing Zhang,  Yu Zhang,  D. Zuev,  
 A. Aspuru-Guzik,  A. T. Bell,  N. A. Besley,  K. B. Bravaya,  B. R. Brooks,  
 D. Casanova,  Jeng-Da Chai,  S. Coriani,  C. J. Cramer,  
 A. E. DePrince, III,  R. A. DiStasio Jr.,  A. Dreuw,  B. D. Dunietz,  
 T. R. Furlani,  W. A. Goddard III,  S. Grimme,  S. Hammes-Schiffer,  
 T. Head-Gordon,  W. J. Hehre,  Chao-Ping Hsu,  T.-C. Jagau,  Yousung Jung,  
 A. Klamt,  Jing Kong,  D. S. Lambrecht,  WanZhen Liang,  N. J. Mayhall,  
 C. W. McCurdy,  J. B. Neaton,  C. Ochsenfeld,  J. A. Parkhill,  R. Peverati,  
 V. A. Rassolov,  Yihan Shao,  L. V. Slipchenko,  T. Stauch,  R. P. Steele,  
 J. E. Subotnik,  A. J. W. Thom,  A. Tkatchenko,  D. G. Truhlar,  
 T. Van Voorhis,  T. A. Wesolowski,  K. B. Whaley,  H. L. Woodcock III,  
 P. M. Zimmerman,  S. Faraji,  P. M. W. Gill,  M. Head-Gordon,  
 J. M. Herbert,  A. I. Krylov

 Contributors to earlier versions of Q-Chem not listed above: 
 R. D. Adamson,  B. Austin,  R. Baer,  J. Baker,  G. J. O. Beran,  
 K. Brandhorst,  S. T. Brown,  E. F. C. Byrd,  A. K. Chakraborty,  
 G. K. L. Chan,  Chun-Min Chang,  Yunqing Chen,  C.-L. Cheng,  
 Siu Hung Chien,  D. M. Chipman,  D. L. Crittenden,  H. Dachsel,  
 R. J. Doerksen,  A. D. Dutoi,  R. G. Edgar,  J. Fosso-Tande,  
 L. Fusti-Molnar,  D. Ghosh,  A. Ghysels,  A. Golubeva-Zadorozhnaya,  
 J. Gonthier,  M. S. Gordon,  S. R. Gwaltney,  G. Hawkins,  J. E. Herr,  
 A. Heyden,  S. Hirata,  E. G. Hohenstein,  G. Kedziora,  F. J. Keil,  
 C. Kelley,  Jihan Kim,  R. A. King,  R. Z. Khaliullin,  P. P. Korambath,  
 W. Kurlancheek,  A. Laurent,  A. M. Lee,  M. S. Lee,  S. V. Levchenko,  
 Ching Yeh Lin,  D. Liotard,  E. Livshits,  R. C. Lochan,  I. Lotan,  
 L. A. Martinez-Martinez,  P. E. Maslen,  N. Nair,  D. P. O'Neill,  
 D. Neuhauser,  E. Neuscamman,  C. M. Oana,  R. Olivares-Amaya,  R. Olson,  
 T. M. Perrine,  B. Peters,  P. A. Pieniazek,  A. Prociuk,  Y. M. Rhee,  
 J. Ritchie,  M. A. Rohrdanz,  E. Rosta,  N. J. Russ,  H. F. Schaefer III,  
 M. W. Schmidt,  N. E. Schultz,  S. Sharma,  N. Shenvi,  C. D. Sherrill,  
 A. C. Simmonett,  A. Sodt,  T. Stein,  D. Stuck,  K. S. Thanthiriwatte,  
 V. Vanovschi,  L. Vogt,  Tao Wang,  A. Warshel,  M. A. Watson,  
 C. F. Williams,  Q. Wu,  X. Xu,  Jun Yang,  W. Zhang,  Yan Zhao

 Please cite Q-Chem as follows:
 Y. Shao et al., Mol. Phys. 113, 184-215 (2015)
 DOI: 10.1080/00268976.2014.952696

 Q-Chem 5.4.0 for Intel X86 EM64T Linux

 Parts of Q-Chem use Armadillo 9.800.1 (Horizon Scraper).
 http://arma.sourceforge.net/

 Q-Chem begins on Tue Jan  9 11:38:52 2024  

 Host: 
0

     Scratch files written to ./qchem1502693//
 May1621 |scratch|qcdevops|jenkins|workspace|build_RNUM    
 Parallel job on  1  processors
 Processing $rem in /cm/shared/apps/spack/cpu/opt/spack/linux-centos8-zen2/gcc-10.2.0/qchem-5.4-akfmr7b3t57bfs6qan3padb2wnb2i7cl/config/preferences:
 Processing $rem in /home/rramji/.qchemrc:
 Symmetry turned off for PCM/SM12/SMD calculation
 Core orbitals will be frozen

 Checking the input file for inconsistencies... 	...done.

 Q-Chem warning in module forms1/BasisType.C, line 2236:

 You are not using the predefined 5D/6D in this basis set.


--------------------------------------------------------------
User input:
--------------------------------------------------------------
$molecule
0 1
C	0.147685	-8.517702	-0.284919
C	-0.212552	-7.641575	0.728574
S	0.661757	-7.638634	-1.745304
C	-0.083761	-6.264785	0.374824
H	-0.565513	-7.966081	1.715621
C	0.405665	-6.072714	-0.965104
C	0.574617	-4.787049	-1.502136
C	-0.413763	-5.162801	1.214687
C	-0.248748	-3.874817	0.675870
C	0.243888	-3.683952	-0.664513
O	-0.838511	-5.499772	2.464209
O	1.000176	-4.459055	-2.757750
C	1.893778	-5.329063	-3.441858
H	2.284868	-4.755694	-4.303826
H	1.383341	-6.238095	-3.828743
H	2.741817	-5.637262	-2.792824
C	-1.586168	-4.572261	3.241222
H	-1.974033	-5.139743	4.108274
H	-2.441448	-4.153131	2.668916
H	-0.954660	-3.739531	3.620041
C	0.369302	-2.306654	-1.015668
S	-0.517367	-2.306501	1.453394
C	0.000000	-1.435185	0.000000
H	0.724300	-1.978138	-2.000559
C	0.000000	0.000000	0.000000
S	0.452792	0.783312	1.507541
C	1.238397	2.145556	0.718873
C	0.452875	0.782898	-1.067872
C	1.145945	1.987956	-0.686410
S	0.333556	0.570531	-2.805516
C	1.204604	2.090290	-3.054530
C	1.556633	2.704929	-1.862551
F	2.220797	3.864903	-1.819088
C	1.430252	2.477345	-4.456084
O	1.052242	1.806648	-5.406510
O	2.099050	3.650663	-4.569225
C	2.351116	4.076808	-5.916207
H	2.895579	5.033821	-5.833064
H	1.401015	4.217390	-6.470168
H	2.962391	3.327969	-6.459293
H	1.699302	2.946693	1.306486
H	-0.699838	-9.143623	-0.588198
H	0.992270	-9.149441	0.014470
H	-1.017360	-1.443175	-0.362373
$end

$rem
JOBTYPE		SP
EXCHANGE	HF
CORRELATION	pRIMP2
BASIS		cc-pvtz
METHOD		rimp2
AUX_BASIS	rimp2-cc-pvtz
SOLVENT_METHOD	PCM
PURECART	11111
SYMMETRY	false
MEM_TOTAL	110000
SCF_CONVERGENCE = 6
THRESH=10
GUI = 2
$end



$solvent
dielectric 4.90
$end
--------------------------------------------------------------
 ----------------------------------------------------------------
             Standard Nuclear Orientation (Angstroms)
    I     Atom           X                Y                Z
 ----------------------------------------------------------------
    1      C       0.1476850000    -8.5177020000    -0.2849190000
    2      C      -0.2125520000    -7.6415750000     0.7285740000
    3      S       0.6617570000    -7.6386340000    -1.7453040000
    4      C      -0.0837610000    -6.2647850000     0.3748240000
    5      H      -0.5655130000    -7.9660810000     1.7156210000
    6      C       0.4056650000    -6.0727140000    -0.9651040000
    7      C       0.5746170000    -4.7870490000    -1.5021360000
    8      C      -0.4137630000    -5.1628010000     1.2146870000
    9      C      -0.2487480000    -3.8748170000     0.6758700000
   10      C       0.2438880000    -3.6839520000    -0.6645130000
   11      O      -0.8385110000    -5.4997720000     2.4642090000
   12      O       1.0001760000    -4.4590550000    -2.7577500000
   13      C       1.8937780000    -5.3290630000    -3.4418580000
   14      H       2.2848680000    -4.7556940000    -4.3038260000
   15      H       1.3833410000    -6.2380950000    -3.8287430000
   16      H       2.7418170000    -5.6372620000    -2.7928240000
   17      C      -1.5861680000    -4.5722610000     3.2412220000
   18      H      -1.9740330000    -5.1397430000     4.1082740000
   19      H      -2.4414480000    -4.1531310000     2.6689160000
   20      H      -0.9546600000    -3.7395310000     3.6200410000
   21      C       0.3693020000    -2.3066540000    -1.0156680000
   22      S      -0.5173670000    -2.3065010000     1.4533940000
   23      C       0.0000000000    -1.4351850000     0.0000000000
   24      H       0.7243000000    -1.9781380000    -2.0005590000
   25      C       0.0000000000     0.0000000000     0.0000000000
   26      S       0.4527920000     0.7833120000     1.5075410000
   27      C       1.2383970000     2.1455560000     0.7188730000
   28      C       0.4528750000     0.7828980000    -1.0678720000
   29      C       1.1459450000     1.9879560000    -0.6864100000
   30      S       0.3335560000     0.5705310000    -2.8055160000
   31      C       1.2046040000     2.0902900000    -3.0545300000
   32      C       1.5566330000     2.7049290000    -1.8625510000
   33      F       2.2207970000     3.8649030000    -1.8190880000
   34      C       1.4302520000     2.4773450000    -4.4560840000
   35      O       1.0522420000     1.8066480000    -5.4065100000
   36      O       2.0990500000     3.6506630000    -4.5692250000
   37      C       2.3511160000     4.0768080000    -5.9162070000
   38      H       2.8955790000     5.0338210000    -5.8330640000
   39      H       1.4010150000     4.2173900000    -6.4701680000
   40      H       2.9623910000     3.3279690000    -6.4592930000
   41      H       1.6993020000     2.9466930000     1.3064860000
   42      H      -0.6998380000    -9.1436230000    -0.5881980000
   43      H       0.9922700000    -9.1494410000     0.0144700000
   44      H      -1.0173600000    -1.4431750000    -0.3623730000
 ----------------------------------------------------------------
 Nuclear Repulsion Energy =        3358.81836531 hartrees
 There are      120 alpha and      120 beta electrons
 Requested basis set is cc-pVTZ
 There are 388 shells and 1096 basis functions

 Total QAlloc Memory Limit 110000 MB
 Mega-Array Size       188 MB
 MEM_STATIC part       192 MB
 Discretize the solute cavity surface with Lebedev spheres
	Using 110 Lebedev grid points for each H atom
	Using 194 Lebedev grid points for other atoms
	Atomic van der Waals radii will be scaled by 1.20
 Remove points where switching function is < 1.0e-08
 Keep 2943 surface tesserae and discard 4333 interior tesserae
 Molecular Surface Area = 438.030 Angst**2
 Requested basis set is rimp2-cc-pVTZ
 There are 853 shells and 2963 basis functions
 A cutoff of  1.0D-10 yielded  33371 shell pairs
 There are    251581 function pairs (    325321 Cartesian)
 Smallest overlap matrix eigenvalue = 2.08E-05

 Scale SEOQF with 1.000000e-01/1.000000e-02/1.000000e-02

 Standard Electronic Orientation quadrupole field applied
 Nucleus-field energy     =     0.0000000256 hartrees
 Guess from superposition of atomic densities
 Warning:  Energy on first SCF cycle will be non-variational
 SAD guess density has 240.000000 electrons

 -----------------------------------------------------------------------
  General SCF calculation program by
  Eric Jon Sundstrom, Paul Horn, Yuezhi Mao, Dmitri Zuev, Alec White,
  David Stuck, Shaama M.S., Shane Yost, Joonho Lee, David Small,
  Daniel Levine, Susi Lehtola, Hugh Burton, Evgeny Epifanovsky,
  Bang C. Huynh
 -----------------------------------------------------------------------
 Hartree-Fock
 using 64 threads for integral computing
 -------------------------------------------------------
 OpenMP Integral computing Module                
 Release: version 1.0, May 2013, Q-Chem Inc. Pittsburgh 
 -------------------------------------------------------
 A restricted SCF calculation will be
 performed using DIIS
 SCF converges when DIIS error is below 1.0e-06
 ---------------------------------------
  Cycle       Energy         DIIS error
 ---------------------------------------
    1   -2767.0552190873      1.75e-02  
    2   -2754.8710320527      1.53e-03  
    3   -2755.2198155902      8.55e-04  
    4   -2755.3066750553      2.56e-04  
    5   -2755.3203343527      7.38e-05  
    6   -2755.3218848367      2.60e-05  
    7   -2755.3222912255      1.36e-05  
    8   -2755.3224217910      5.60e-06  
    9   -2755.3224516034      2.87e-06  
   10   -2755.3224587660      1.48e-06  
   11   -2755.3224612132      8.10e-07  Convergence criterion met
 ---------------------------------------
 SCF time:   CPU 7703.69s  wall 291.00s 

************** Final PCM Free Energy Summary **************
 G_electrostatic  =      -0.02001866 hartree =     -12.56190164 kcal/mol
 G_cavitation     =       0.00000000 hartree =       0.00000000 kcal/mol
 G_dispersion     =       0.00000000 hartree =       0.00000000 kcal/mol
 G_repulsion      =       0.00000000 hartree =       0.00000000 kcal/mol
 --------------------------------------------------
 Non-electrostatic Free Energy =       0.00000000 hartree =       0.00000000 kcal/mol
 Total                         =      -0.02001866 hartree =     -12.56190164 kcal/mol
 --------------------------------------------------
 SCF Energy (H0 + V/2)                       =   -2755.32246121 
 Solute Internal Energy (H0)                 =   -2755.30244255 
 Total Free Energy (H0 + V/2 + non-elec)     =   -2755.32246121 hartree
                                             = -1728990.94007033 kcal/mol
***********************************************************

 SCF   energy in the final basis set =    -2755.3224612132
 Total energy in the final basis set =    -2755.3224612132


 --------------------------------------------------------------
  Generalized many-body perturbation theory program
  by Joonho Lee, Fazle Rob, Xintian Feng, Evgeny Epifanovsky

 No regularization used 
 (reg. param. = 0.0000e+00)
  (P|Q)^-1/2 Time:  CPU 252.60 s  wall 4.76 s

 In RI-MP2 calculation: 
 # of frozen core orbitals: 45

 Components of the RIMP2 correlation energy:
        aaaa    correlation energy =        -0.6704251913 a.u.
        abab    correlation energy =        -3.7557501870 a.u.
        bbbb    correlation energy =        -0.6704251913 a.u.
        non-Brillouin singles      =        -0.0000000000 a.u.
        total same-spin energy     =        -1.3408503826 a.u.
        total opposite-spin energy =        -3.7557501870 a.u.

 Total  RIMP2   correlation energy =        -5.0966005695 a.u.
        RIMP2         total energy =     -2760.4190617828 a.u.

 RI-MP2 Energy Time:  CPU 3140.67 s  wall 52.70 s
 
 --------------------------------------------------------------
 
                    Orbital Energies (a.u.)
 --------------------------------------------------------------
 
 Alpha MOs
 -- Occupied --
-92.0128 -92.0003 -91.9811 -91.9579 -26.3440 -20.6154 -20.5879 -20.5870
-20.5619 -11.4101 -11.3833 -11.3094 -11.3087 -11.3083 -11.3017 -11.2996
-11.2986 -11.2892 -11.2858 -11.2853 -11.2847 -11.2823 -11.2801 -11.2733
-11.2724 -11.2584 -11.2578 -11.2496 -11.2367  -9.0118  -9.0004  -8.9832
 -8.9605  -6.6926  -6.6919  -6.6914  -6.6814  -6.6807  -6.6796  -6.6644
 -6.6635  -6.6623  -6.6418  -6.6408  -6.6398  -1.6610  -1.4679  -1.4112
 -1.4088  -1.3706  -1.2316  -1.2027  -1.1738  -1.1380  -1.1005  -1.0473
 -1.0460  -1.0243  -1.0036  -0.9981  -0.9632  -0.9595  -0.9489  -0.9412
 -0.8945  -0.8708  -0.8641  -0.8101  -0.8009  -0.7905  -0.7837  -0.7675
 -0.7577  -0.7370  -0.7259  -0.7112  -0.6991  -0.6936  -0.6852  -0.6812
 -0.6744  -0.6634  -0.6567  -0.6488  -0.6385  -0.6310  -0.6199  -0.6149
 -0.6122  -0.5993  -0.5934  -0.5778  -0.5710  -0.5657  -0.5591  -0.5558
 -0.5426  -0.5344  -0.5309  -0.5274  -0.5129  -0.5097  -0.5080  -0.5014
 -0.4852  -0.4822  -0.4772  -0.4742  -0.4700  -0.4655  -0.4603  -0.4469
 -0.4315  -0.3946  -0.3855  -0.3704  -0.3504  -0.3003  -0.2885  -0.2165
 -- Virtual --
  0.0317   0.0538   0.0998   0.1268   0.1381   0.1426   0.1523   0.1552
  0.1574   0.1604   0.1668   0.1711   0.1800   0.1858   0.1909   0.1958
  0.2005   0.2030   0.2052   0.2148   0.2218   0.2230   0.2235   0.2274
  0.2289   0.2386   0.2436   0.2480   0.2509   0.2545   0.2640   0.2733
  0.2825   0.2913   0.3021   0.3159   0.3294   0.3342   0.3432   0.3473
  0.3544   0.3586   0.3600   0.3718   0.3741   0.3800   0.3844   0.3849
  0.3887   0.3916   0.3988   0.4072   0.4114   0.4137   0.4174   0.4238
  0.4259   0.4298   0.4321   0.4399   0.4423   0.4468   0.4499   0.4546
  0.4576   0.4631   0.4643   0.4712   0.4755   0.4765   0.4790   0.4845
  0.4914   0.4947   0.4973   0.4981   0.5020   0.5062   0.5152   0.5174
  0.5219   0.5280   0.5319   0.5325   0.5342   0.5408   0.5431   0.5438
  0.5503   0.5547   0.5596   0.5611   0.5620   0.5686   0.5772   0.5834
  0.5857   0.5887   0.5936   0.5979   0.5999   0.6047   0.6082   0.6123
  0.6142   0.6178   0.6198   0.6204   0.6238   0.6246   0.6299   0.6310
  0.6349   0.6367   0.6438   0.6466   0.6486   0.6503   0.6550   0.6568
  0.6679   0.6705   0.6748   0.6817   0.6870   0.6910   0.6954   0.7000
  0.7027   0.7109   0.7152   0.7166   0.7196   0.7273   0.7300   0.7351
  0.7403   0.7486   0.7563   0.7605   0.7670   0.7757   0.7813   0.7832
  0.7954   0.7985   0.8029   0.8088   0.8101   0.8210   0.8234   0.8258
  0.8304   0.8390   0.8427   0.8480   0.8534   0.8640   0.8708   0.8715
  0.8783   0.8885   0.8932   0.8975   0.8999   0.9040   0.9094   0.9159
  0.9211   0.9288   0.9342   0.9392   0.9420   0.9451   0.9498   0.9578
  0.9594   0.9645   0.9711   0.9725   0.9802   0.9858   0.9872   0.9907
  0.9923   0.9987   1.0072   1.0089   1.0187   1.0220   1.0252   1.0283
  1.0343   1.0444   1.0493   1.0528   1.0571   1.0592   1.0610   1.0700
  1.0722   1.0801   1.0845   1.0921   1.0929   1.1009   1.1054   1.1080
  1.1114   1.1187   1.1210   1.1253   1.1270   1.1302   1.1436   1.1485
  1.1522   1.1585   1.1648   1.1683   1.1706   1.1753   1.1774   1.1853
  1.1872   1.1907   1.1939   1.2001   1.2074   1.2111   1.2124   1.2201
  1.2235   1.2277   1.2303   1.2383   1.2467   1.2512   1.2544   1.2568
  1.2619   1.2650   1.2711   1.2743   1.2786   1.2875   1.2888   1.2927
  1.2997   1.3027   1.3088   1.3196   1.3235   1.3278   1.3364   1.3391
  1.3459   1.3509   1.3603   1.3660   1.3748   1.3874   1.3937   1.3989
  1.4035   1.4049   1.4127   1.4215   1.4276   1.4330   1.4502   1.4539
  1.4601   1.4694   1.4760   1.4804   1.4862   1.4887   1.4965   1.5023
  1.5041   1.5062   1.5124   1.5156   1.5253   1.5300   1.5349   1.5398
  1.5421   1.5432   1.5500   1.5545   1.5550   1.5625   1.5689   1.5760
  1.5802   1.5920   1.6063   1.6121   1.6164   1.6235   1.6263   1.6368
  1.6450   1.6462   1.6529   1.6575   1.6694   1.6742   1.6769   1.6878
  1.6912   1.6942   1.7086   1.7123   1.7228   1.7288   1.7333   1.7418
  1.7538   1.7633   1.7728   1.7877   1.7896   1.7986   1.8067   1.8144
  1.8173   1.8218   1.8338   1.8385   1.8487   1.8585   1.8696   1.8759
  1.8817   1.8958   1.9034   1.9058   1.9206   1.9239   1.9291   1.9421
  1.9457   1.9561   1.9612   1.9719   1.9775   1.9861   1.9942   1.9990
  2.0011   2.0103   2.0205   2.0312   2.0343   2.0413   2.0531   2.0597
  2.0669   2.0746   2.0902   2.0935   2.0985   2.1033   2.1120   2.1234
  2.1362   2.1527   2.1576   2.1713   2.1775   2.1797   2.1872   2.1948
  2.1963   2.2046   2.2124   2.2195   2.2221   2.2329   2.2340   2.2371
  2.2414   2.2537   2.2635   2.2669   2.2706   2.2805   2.2875   2.2917
  2.2987   2.3071   2.3271   2.3345   2.3388   2.3462   2.3542   2.3594
  2.3693   2.3763   2.3857   2.4010   2.4050   2.4131   2.4184   2.4216
  2.4282   2.4387   2.4445   2.4666   2.4713   2.4823   2.4841   2.4896
  2.5074   2.5107   2.5117   2.5273   2.5358   2.5468   2.5550   2.5647
  2.5699   2.5796   2.5888   2.6025   2.6082   2.6182   2.6211   2.6235
  2.6263   2.6347   2.6407   2.6427   2.6478   2.6502   2.6641   2.6707
  2.6761   2.6848   2.6862   2.6906   2.6980   2.7028   2.7076   2.7157
  2.7193   2.7224   2.7404   2.7442   2.7518   2.7547   2.7631   2.7709
  2.7774   2.7845   2.7965   2.7986   2.8060   2.8110   2.8157   2.8285
  2.8395   2.8457   2.8514   2.8546   2.8579   2.8623   2.8724   2.8745
  2.8830   2.8853   2.8915   2.8976   2.9116   2.9210   2.9367   2.9440
  2.9490   2.9556   2.9577   2.9661   2.9673   2.9763   2.9837   2.9952
  2.9966   3.0051   3.0085   3.0207   3.0237   3.0309   3.0410   3.0434
  3.0478   3.0607   3.0667   3.0682   3.0831   3.0910   3.0944   3.0982
  3.0995   3.1081   3.1109   3.1180   3.1237   3.1289   3.1358   3.1436
  3.1502   3.1504   3.1556   3.1584   3.1605   3.1647   3.1709   3.1784
  3.1852   3.1953   3.2022   3.2063   3.2099   3.2141   3.2183   3.2239
  3.2259   3.2325   3.2442   3.2483   3.2527   3.2585   3.2652   3.2660
  3.2702   3.2750   3.2777   3.2816   3.2898   3.2951   3.2960   3.3051
  3.3054   3.3091   3.3145   3.3238   3.3314   3.3338   3.3405   3.3446
  3.3483   3.3505   3.3508   3.3536   3.3609   3.3621   3.3673   3.3745
  3.3746   3.3836   3.3858   3.3914   3.3969   3.3997   3.4010   3.4037
  3.4141   3.4171   3.4281   3.4294   3.4309   3.4353   3.4360   3.4433
  3.4511   3.4543   3.4588   3.4665   3.4685   3.4767   3.4775   3.4784
  3.4808   3.4865   3.4920   3.4983   3.5056   3.5180   3.5238   3.5261
  3.5360   3.5396   3.5437   3.5505   3.5540   3.5653   3.5679   3.5785
  3.5833   3.5855   3.5911   3.5965   3.6005   3.6041   3.6065   3.6074
  3.6131   3.6157   3.6242   3.6282   3.6361   3.6375   3.6440   3.6545
  3.6651   3.6653   3.6699   3.6785   3.6827   3.6875   3.6891   3.6960
  3.6996   3.7040   3.7057   3.7127   3.7188   3.7215   3.7276   3.7321
  3.7395   3.7453   3.7492   3.7612   3.7659   3.7712   3.7754   3.7793
  3.7821   3.7839   3.7975   3.8028   3.8058   3.8063   3.8104   3.8174
  3.8235   3.8257   3.8321   3.8340   3.8449   3.8480   3.8549   3.8550
  3.8644   3.8666   3.8710   3.8827   3.8862   3.8901   3.8961   3.9082
  3.9103   3.9168   3.9227   3.9315   3.9443   3.9462   3.9505   3.9583
  3.9632   3.9665   3.9720   3.9897   3.9899   3.9989   4.0054   4.0126
  4.0173   4.0316   4.0327   4.0452   4.0479   4.0521   4.0632   4.0671
  4.0681   4.0741   4.0777   4.0929   4.1029   4.1088   4.1200   4.1298
  4.1412   4.1444   4.1550   4.1576   4.1635   4.1670   4.1705   4.1749
  4.1827   4.1887   4.1922   4.1961   4.2128   4.2138   4.2249   4.2340
  4.2433   4.2465   4.2528   4.2609   4.2709   4.2860   4.3046   4.3121
  4.3169   4.3255   4.3307   4.3411   4.3437   4.3470   4.3561   4.3605
  4.3673   4.3725   4.3823   4.3858   4.3971   4.4062   4.4117   4.4182
  4.4229   4.4247   4.4297   4.4334   4.4358   4.4424   4.4500   4.4621
  4.4648   4.4740   4.4892   4.4975   4.4985   4.5157   4.5194   4.5303
  4.5332   4.5538   4.5554   4.5626   4.5680   4.5729   4.5766   4.5824
  4.5984   4.6003   4.6084   4.6148   4.6340   4.6445   4.6460   4.6534
  4.6554   4.6707   4.6809   4.6842   4.6896   4.7134   4.7208   4.7311
  4.7422   4.7499   4.7605   4.7718   4.7842   4.7951   4.8043   4.8170
  4.8247   4.8317   4.8398   4.8536   4.8647   4.8729   4.8762   4.8926
  4.9003   4.9114   4.9353   4.9474   4.9528   4.9611   4.9689   4.9797
  4.9889   4.9978   5.0084   5.0086   5.0195   5.0329   5.0464   5.0531
  5.0612   5.0933   5.0991   5.1046   5.1130   5.1359   5.1427   5.1640
  5.1745   5.1916   5.2039   5.2047   5.2257   5.2304   5.2504   5.2535
  5.2569   5.2616   5.2731   5.2889   5.2934   5.3165   5.3234   5.3311
  5.3363   5.3469   5.3518   5.3633   5.3701   5.3827   5.3966   5.3976
  5.4047   5.4165   5.4258   5.4346   5.4436   5.4846   5.4978   5.5060
  5.5114   5.5191   5.5218   5.5350   5.5663   5.5722   5.5831   5.5861
  5.5953   5.6096   5.6142   5.6212   5.6429   5.6616   5.6691   5.6912
  5.7086   5.7336   5.7431   5.7656   5.7783   5.8070   5.8189   5.8376
  5.8586   5.8799   5.9069   5.9159   5.9286   5.9585   5.9764   6.0028
  6.0377   6.0428   6.0818   6.1315   6.1445   6.1501   6.1703   6.1754
  6.1799   6.1926   6.2388   6.2503   6.2609   6.2664   6.2754   6.2827
  6.2900   6.3022   6.3440   6.4023   6.4425   6.4496   6.4861   6.5389
  6.5497   6.5665   6.6045   6.6476   6.6610   6.6707   6.7153   6.7459
  6.8086   6.8296   6.8559   6.8592   6.8987   6.9779   7.1316   7.1443
  7.2034   7.2061   7.2215   7.2406   7.3094   7.3293   7.3412   7.3626
  7.3636   7.4053   7.4128   7.4851   7.4854   7.4973   7.5231   7.5500
  7.6154   7.7346   7.7724   7.7902   7.8030   7.9008   7.9273   7.9543
  7.9708   8.1333   8.2465   8.5763   8.9216   9.0280   9.3626   9.4838
  9.6767  10.2342  11.1875  11.4312  11.7495  11.9400  12.1285  12.3723
 12.4211  12.5033  12.9205  12.9721  13.0492  13.1355  13.3863  13.4853
 13.6893  13.7828  13.8716  13.9354  14.0306  14.3105  15.0948  15.2568
 --------------------------------------------------------------
 
          Ground-State Mulliken Net Atomic Charges

     Atom                 Charge (a.u.)
  ----------------------------------------
      1 C                    -0.070148
      2 C                    -0.261779
      3 S                    -0.136054
      4 C                    -0.047720
      5 H                     0.193149
      6 C                    -0.052268
      7 C                     0.224665
      8 C                     0.231588
      9 C                    -0.072605
     10 C                    -0.040894
     11 O                    -0.334289
     12 O                    -0.343542
     13 C                    -0.083151
     14 H                     0.120914
     15 H                     0.092360
     16 H                     0.092735
     17 C                    -0.088172
     18 H                     0.124638
     19 H                     0.092903
     20 H                     0.089833
     21 C                    -0.305347
     22 S                    -0.098571
     23 C                     0.108857
     24 H                     0.202484
     25 C                    -0.038337
     26 S                     0.096344
     27 C                    -0.207682
     28 C                    -0.047259
     29 C                    -0.085296
     30 S                     0.014837
     31 C                    -0.162259
     32 C                     0.405031
     33 F                    -0.206196
     34 C                     0.444283
     35 O                    -0.460843
     36 O                    -0.300818
     37 C                    -0.058421
     38 H                     0.121627
     39 H                     0.095216
     40 H                     0.095171
     41 H                     0.216688
     42 H                     0.117193
     43 H                     0.114843
     44 H                     0.206291
  ----------------------------------------
  Sum of atomic charges =     0.000000

 -----------------------------------------------------------------
                    Cartesian Multipole Moments
 -----------------------------------------------------------------
    Charge (ESU x 10^10)
                -0.0000
    Dipole Moment (Debye)
         X       0.7220      Y       2.3603      Z       2.8419
       Tot       3.7641
    Quadrupole Moments (Debye-Ang)
        XX    -190.5528     XY       8.3079     YY    -178.8280
        XZ     -12.9579     YZ     -10.4406     ZZ    -194.8476
    Octopole Moments (Debye-Ang^2)
       XXX    -298.7736    XXY     381.4958    XYY     -84.8591
       YYY    1022.9972    XXZ     169.7815    XYZ      15.7942
       YYZ     171.8105    XZZ     -52.8364    YZZ     434.4152
       ZZZ     605.2763
    Hexadecapole Moments (Debye-Ang^3)
      XXXX   -1520.4414   XXXY    -475.6696   XXYY   -3830.9896
      XYYY    -361.6931   YYYY  -19738.0827   XXXZ    1184.7437
      XXYZ     232.4797   XYYZ      86.6608   YYYZ     395.8153
      XXZZ   -1264.9161   XYZZ      84.9288   YYZZ   -4335.5620
      XZZZ     834.1143   YZZZ     383.7918   ZZZZ   -7300.4740
 -----------------------------------------------------------------
 Total job time:  349.11s(wall), 10975.60s(cpu) 
 Tue Jan  9 11:44:41 2024

        *************************************************************
        *                                                           *
        *  Thank you very much for using Q-Chem.  Have a nice day.  *
        *                                                           *
        *************************************************************


0 sent ACK to 0 
now end server 0 ... 
cleanup process ... done
remove work dirs ./qchem1502693.0 -- ./qchem1502693.0
rm -rf ./qchem1502693.0
rm -rf ./qchem1502693
