You are running Q-Chem version: 5.4.0

#
# job setting
#
local host:  exp-6-38
current dir: /home/rramji/project-csd799/aromodel/ptb7fout-qchem/hydrogenated-rotation-run
input file:  Dimethoxy_Benzodithiophene_Phi_50_Theta_150_Methylcarbonyl_3_Fluoro_Thienothiophene_Hydrogenated.qcin
output file: 
nprocs     : 1
nthreads   : 64
#
# qchem installation setting
#
QC:          /cm/shared/apps/spack/cpu/opt/spack/linux-centos8-zen2/gcc-10.2.0/qchem-5.4-akfmr7b3t57bfs6qan3padb2wnb2i7cl
QCAUX:       /cm/shared/apps/spack/cpu/opt/spack/linux-centos8-zen2/gcc-10.2.0/qchem-5.4-akfmr7b3t57bfs6qan3padb2wnb2i7cl/qcaux
QCPROG:      /cm/shared/apps/spack/cpu/opt/spack/linux-centos8-zen2/gcc-10.2.0/qchem-5.4-akfmr7b3t57bfs6qan3padb2wnb2i7cl/exe/qcprog.exe
QCPROG_S:    /cm/shared/apps/spack/cpu/opt/spack/linux-centos8-zen2/gcc-10.2.0/qchem-5.4-akfmr7b3t57bfs6qan3padb2wnb2i7cl/exe/qcprog.exe_s
PARALLEL:    -DPARALLEL
QCMPI:       mpich
#
# qchem directory setting
#
qcrun:       qchem3764888
QCSCRATCH:   .
QCLOCALSCR:  
QCTMPDIR:    .
QCFILEPREF:  ./qchem3764888
QCSAVEDIR:   
workdirs:    ./qchem3764888
workdir0:    ./qchem3764888
partmpdirs =  
#
# parallel setting
#
QCRSH:           ssh
QCMPI:           mpich
QCMPIRUN:        /cm/shared/apps/spack/cpu/opt/spack/linux-centos8-zen2/gcc-10.2.0/qchem-5.4-akfmr7b3t57bfs6qan3padb2wnb2i7cl/bin/mpi/mpirun_qchem
QCMACHINEFILE:   ./qchem3764888/hostfile
exp-6-38

#
# env setting
#
exported envs:   QC QCAUX QCSCRATCH QCRUNNAME QCFILEPREF QCPROG QCPROG_S GUIFILE

Running Job 1 of 1 Dimethoxy_Benzodithiophene_Phi_50_Theta_150_Methylcarbonyl_3_Fluoro_Thienothiophene_Hydrogenated.qcin
qchem Dimethoxy_Benzodithiophene_Phi_50_Theta_150_Methylcarbonyl_3_Fluoro_Thienothiophene_Hydrogenated.qcin_3764888.0 ./qchem3764888/ 1
/cm/shared/apps/spack/cpu/opt/spack/linux-centos8-zen2/gcc-10.2.0/qchem-5.4-akfmr7b3t57bfs6qan3padb2wnb2i7cl/bin/mpi/mpirun_qchem -machinefile ./qchem3764888/hostfile -np 1 /cm/shared/apps/spack/cpu/opt/spack/linux-centos8-zen2/gcc-10.2.0/qchem-5.4-akfmr7b3t57bfs6qan3padb2wnb2i7cl/exe/qcprog.exe Dimethoxy_Benzodithiophene_Phi_50_Theta_150_Methylcarbonyl_3_Fluoro_Thienothiophene_Hydrogenated.qcin_3764888.0 ./qchem3764888/

Process 0 of 1 is on exp-6-38 - thread support 0
initial socket setup ...start
initial socket setup ...done 
now start server 0 ... 
                  Welcome to Q-Chem
     A Quantum Leap Into The Future Of Chemistry


 Q-Chem 5.4, Q-Chem, Inc., Pleasanton, CA (2021)

 License issued to: University of California, San Diego (site)

 E. Epifanovsky,  A. T. B. Gilbert,  Xintian Feng,  Joonho Lee,  Yuezhi Mao,  
 N. Mardirossian,  P. Pokhilko,  A. White,  M. Wormit,  M. P. Coons,  
 A. L. Dempwolff,  Zhengting Gan,  D. Hait,  P. R. Horn,  L. D. Jacobson,  
 I. Kaliman,  J. Kussmann,  A. W. Lange,  Ka Un Lao,  D. S. Levine,  Jie Liu,  
 S. C. McKenzie,  A. F. Morrison,  K. Nanda,  F. Plasser,  D. R. Rehn,  
 M. L. Vidal,  Zhi-Qiang You,  Ying Zhu,  B. Alam,  B. Albrecht,  
 A. Aldossary,  E. Alguire,  J. H. Andersen,  D. Barton,  K. Begam,  A. Behn,  
 Y. A. Bernard,  E. J. Berquist,  H. Burton,  A. Carreras,  K. Carter-Fenk,  
 R. Chakraborty,  A. D. Chien,  K. D. Closser,  V. Cofer-Shabica,  
 S. Dasgupta,  Jia Deng,  M. de Wergifosse,  M. Diedenhofen,  Hainam Do,  
 S. Ehlert,  Po-Tung Fang,  S. Fatehi,  Qingguo Feng,  J. Gayvert,  
 Qinghui Ge,  G. Gidofalvi,  M. Goldey,  J. Gomes,  C. Gonzalez-Espinoza,  
 S. Gulania,  A. Gunina,  M. W. D. Hanson-Heine,  P. H. P. Harbach,  
 A. W. Hauser,  M. F. Herbst,  M. Hernandez Vera,  M. Hodecker,  
 Z. C. Holden,  S. Houck,  Xunkun Huang,  Kerwin Hui,  B. C. Huynh,  
 M. Ivanov,  Hyunjun Ji,  Hanjie Jiang,  B. Kaduk,  S. Kaehler,  
 K. Khistyaev,  Jaehoon Kim,  P. Klunzinger,  Z. Koczor-Benda,  
 Joong Hoon Koh,  D. Kosenkov,  L. Koulias,  T. Kowalczyk,  C. M. Krauter,  
 K. Kue,  A. Kunitsa,  T. Kus,  A. Landau,  K. V. Lawler,  D. Lefrancois,  
 S. Lehtola,  Rain Li,  Yi-Pei Li,  Jiashu Liang,  M. Liebenthal,  
 Hung-Hsuan Lin,  You-Sheng Lin,  Fenglai Liu,  Kuan-Yu Liu,  
 M. Loipersberger,  A. Luenser,  A. Manjanath,  P. Manohar,  E. Mansoor,  
 S. F. Manzer,  Shan-Ping Mao,  A. V. Marenich,  T. Markovich,  S. Mason,  
 S. A. Maurer,  P. F. McLaughlin,  M. F. S. J. Menger,  J.-M. Mewes,  
 S. A. Mewes,  P. Morgante,  J. W. Mullinax,  T. S. Nguyen-Beck,  
 K. J. Oosterbaan,  G. Paran,  Alexander C. Paul,  Suranjan K. Paul,  
 F. Pavosevic,  Zheng Pei,  S. Prager,  E. I. Proynov,  E. Ramos,  B. Rana,  
 A. E. Rask,  A. Rettig,  R. M. Richard,  F. Rob,  E. Rossomme,  T. Scheele,  
 M. Scheurer,  M. Schneider,  N. Sergueev,  S. M. Sharada,  W. Skomorowski,  
 D. W. Small,  C. J. Stein,  Yu-Chuan Su,  E. J. Sundstrom,  Zhen Tao,  
 J. Thirman,  T. Tsuchimochi,  N. M. Tubman,  S. P. Veccham,  O. Vydrov,  
 J. Wenzel,  J. Witte,  A. Yamada,  Kun Yao,  S. Yeganeh,  S. R. Yost,  
 A. Zech,  Igor Ying Zhang,  Xing Zhang,  Yu Zhang,  D. Zuev,  
 A. Aspuru-Guzik,  A. T. Bell,  N. A. Besley,  K. B. Bravaya,  B. R. Brooks,  
 D. Casanova,  Jeng-Da Chai,  S. Coriani,  C. J. Cramer,  
 A. E. DePrince, III,  R. A. DiStasio Jr.,  A. Dreuw,  B. D. Dunietz,  
 T. R. Furlani,  W. A. Goddard III,  S. Grimme,  S. Hammes-Schiffer,  
 T. Head-Gordon,  W. J. Hehre,  Chao-Ping Hsu,  T.-C. Jagau,  Yousung Jung,  
 A. Klamt,  Jing Kong,  D. S. Lambrecht,  WanZhen Liang,  N. J. Mayhall,  
 C. W. McCurdy,  J. B. Neaton,  C. Ochsenfeld,  J. A. Parkhill,  R. Peverati,  
 V. A. Rassolov,  Yihan Shao,  L. V. Slipchenko,  T. Stauch,  R. P. Steele,  
 J. E. Subotnik,  A. J. W. Thom,  A. Tkatchenko,  D. G. Truhlar,  
 T. Van Voorhis,  T. A. Wesolowski,  K. B. Whaley,  H. L. Woodcock III,  
 P. M. Zimmerman,  S. Faraji,  P. M. W. Gill,  M. Head-Gordon,  
 J. M. Herbert,  A. I. Krylov

 Contributors to earlier versions of Q-Chem not listed above: 
 R. D. Adamson,  B. Austin,  R. Baer,  J. Baker,  G. J. O. Beran,  
 K. Brandhorst,  S. T. Brown,  E. F. C. Byrd,  A. K. Chakraborty,  
 G. K. L. Chan,  Chun-Min Chang,  Yunqing Chen,  C.-L. Cheng,  
 Siu Hung Chien,  D. M. Chipman,  D. L. Crittenden,  H. Dachsel,  
 R. J. Doerksen,  A. D. Dutoi,  R. G. Edgar,  J. Fosso-Tande,  
 L. Fusti-Molnar,  D. Ghosh,  A. Ghysels,  A. Golubeva-Zadorozhnaya,  
 J. Gonthier,  M. S. Gordon,  S. R. Gwaltney,  G. Hawkins,  J. E. Herr,  
 A. Heyden,  S. Hirata,  E. G. Hohenstein,  G. Kedziora,  F. J. Keil,  
 C. Kelley,  Jihan Kim,  R. A. King,  R. Z. Khaliullin,  P. P. Korambath,  
 W. Kurlancheek,  A. Laurent,  A. M. Lee,  M. S. Lee,  S. V. Levchenko,  
 Ching Yeh Lin,  D. Liotard,  E. Livshits,  R. C. Lochan,  I. Lotan,  
 L. A. Martinez-Martinez,  P. E. Maslen,  N. Nair,  D. P. O'Neill,  
 D. Neuhauser,  E. Neuscamman,  C. M. Oana,  R. Olivares-Amaya,  R. Olson,  
 T. M. Perrine,  B. Peters,  P. A. Pieniazek,  A. Prociuk,  Y. M. Rhee,  
 J. Ritchie,  M. A. Rohrdanz,  E. Rosta,  N. J. Russ,  H. F. Schaefer III,  
 M. W. Schmidt,  N. E. Schultz,  S. Sharma,  N. Shenvi,  C. D. Sherrill,  
 A. C. Simmonett,  A. Sodt,  T. Stein,  D. Stuck,  K. S. Thanthiriwatte,  
 V. Vanovschi,  L. Vogt,  Tao Wang,  A. Warshel,  M. A. Watson,  
 C. F. Williams,  Q. Wu,  X. Xu,  Jun Yang,  W. Zhang,  Yan Zhao

 Please cite Q-Chem as follows:
 Y. Shao et al., Mol. Phys. 113, 184-215 (2015)
 DOI: 10.1080/00268976.2014.952696

 Q-Chem 5.4.0 for Intel X86 EM64T Linux

 Parts of Q-Chem use Armadillo 9.800.1 (Horizon Scraper).
 http://arma.sourceforge.net/

 Q-Chem begins on Tue Jan  9 11:05:52 2024  

 Host: 
0

     Scratch files written to ./qchem3764888//
 May1621 |scratch|qcdevops|jenkins|workspace|build_RNUM    
 Parallel job on  1  processors
 Processing $rem in /cm/shared/apps/spack/cpu/opt/spack/linux-centos8-zen2/gcc-10.2.0/qchem-5.4-akfmr7b3t57bfs6qan3padb2wnb2i7cl/config/preferences:
 Processing $rem in /home/rramji/.qchemrc:
 Symmetry turned off for PCM/SM12/SMD calculation
 Core orbitals will be frozen

 Checking the input file for inconsistencies... 	...done.

 Q-Chem warning in module forms1/BasisType.C, line 2236:

 You are not using the predefined 5D/6D in this basis set.


--------------------------------------------------------------
User input:
--------------------------------------------------------------
$molecule
0 1
C	-0.123330	-8.517702	-0.296276
C	0.421494	-7.641575	0.631143
S	-0.911611	-7.638634	-1.628795
C	0.233291	-6.264785	0.305097
H	0.950737	-7.966081	1.535988
C	-0.478557	-6.072714	-0.931114
C	-0.781346	-4.787049	-1.405737
C	0.664542	-5.162801	1.097747
C	0.357854	-3.874817	0.624993
C	-0.352278	-3.683952	-0.613970
O	1.348709	-5.499772	2.226300
O	-1.469658	-4.459055	-2.538827
C	-1.419319	-5.329063	-3.663102
H	-1.828237	-4.755694	-4.516756
H	-2.043793	-6.238095	-3.520769
H	-0.377021	-5.637262	-3.895546
C	1.463351	-4.572261	3.298492
H	1.878237	-5.139743	4.152945
H	0.475176	-4.153131	3.585804
H	2.159469	-3.739531	3.058230
C	-0.540664	-2.306654	-0.935761
S	0.780808	-2.306501	1.330550
C	0.000000	-1.435185	0.000000
H	-1.066946	-1.978138	-1.840780
C	0.000000	0.000000	0.000000
S	0.693394	0.581209	1.507541
C	1.897536	1.592607	0.718873
C	0.693330	0.580791	-1.067872
C	1.756758	1.476132	-0.686410
S	0.508573	0.422041	-2.805516
C	1.846879	1.552232	-3.054530
C	2.387897	2.009402	-1.862551
F	3.408741	2.872264	-1.819088
C	2.191300	1.838768	-4.456084
O	1.606694	1.337806	-5.406510
O	3.221062	2.712584	-4.569225
C	3.603677	3.026817	-5.916207
H	4.442623	3.739898	-5.833064
H	2.758956	3.483875	-6.470168
H	3.921969	2.114070	-6.459293
H	2.604650	2.187790	1.306486
H	-0.900433	-9.143623	0.158021
H	0.648903	-9.149441	-0.750822
H	-0.931540	-1.443175	0.546415
$end

$rem
JOBTYPE		SP
EXCHANGE	HF
CORRELATION	pRIMP2
BASIS		cc-pvtz
METHOD		rimp2
AUX_BASIS	rimp2-cc-pvtz
SOLVENT_METHOD	PCM
PURECART	11111
SYMMETRY	false
MEM_TOTAL	110000
SCF_CONVERGENCE = 6
THRESH=10
GUI = 2
$end



$solvent
dielectric 4.90
$end
--------------------------------------------------------------
 ----------------------------------------------------------------
             Standard Nuclear Orientation (Angstroms)
    I     Atom           X                Y                Z
 ----------------------------------------------------------------
    1      C      -0.1233300000    -8.5177020000    -0.2962760000
    2      C       0.4214940000    -7.6415750000     0.6311430000
    3      S      -0.9116110000    -7.6386340000    -1.6287950000
    4      C       0.2332910000    -6.2647850000     0.3050970000
    5      H       0.9507370000    -7.9660810000     1.5359880000
    6      C      -0.4785570000    -6.0727140000    -0.9311140000
    7      C      -0.7813460000    -4.7870490000    -1.4057370000
    8      C       0.6645420000    -5.1628010000     1.0977470000
    9      C       0.3578540000    -3.8748170000     0.6249930000
   10      C      -0.3522780000    -3.6839520000    -0.6139700000
   11      O       1.3487090000    -5.4997720000     2.2263000000
   12      O      -1.4696580000    -4.4590550000    -2.5388270000
   13      C      -1.4193190000    -5.3290630000    -3.6631020000
   14      H      -1.8282370000    -4.7556940000    -4.5167560000
   15      H      -2.0437930000    -6.2380950000    -3.5207690000
   16      H      -0.3770210000    -5.6372620000    -3.8955460000
   17      C       1.4633510000    -4.5722610000     3.2984920000
   18      H       1.8782370000    -5.1397430000     4.1529450000
   19      H       0.4751760000    -4.1531310000     3.5858040000
   20      H       2.1594690000    -3.7395310000     3.0582300000
   21      C      -0.5406640000    -2.3066540000    -0.9357610000
   22      S       0.7808080000    -2.3065010000     1.3305500000
   23      C       0.0000000000    -1.4351850000     0.0000000000
   24      H      -1.0669460000    -1.9781380000    -1.8407800000
   25      C       0.0000000000     0.0000000000     0.0000000000
   26      S       0.6933940000     0.5812090000     1.5075410000
   27      C       1.8975360000     1.5926070000     0.7188730000
   28      C       0.6933300000     0.5807910000    -1.0678720000
   29      C       1.7567580000     1.4761320000    -0.6864100000
   30      S       0.5085730000     0.4220410000    -2.8055160000
   31      C       1.8468790000     1.5522320000    -3.0545300000
   32      C       2.3878970000     2.0094020000    -1.8625510000
   33      F       3.4087410000     2.8722640000    -1.8190880000
   34      C       2.1913000000     1.8387680000    -4.4560840000
   35      O       1.6066940000     1.3378060000    -5.4065100000
   36      O       3.2210620000     2.7125840000    -4.5692250000
   37      C       3.6036770000     3.0268170000    -5.9162070000
   38      H       4.4426230000     3.7398980000    -5.8330640000
   39      H       2.7589560000     3.4838750000    -6.4701680000
   40      H       3.9219690000     2.1140700000    -6.4592930000
   41      H       2.6046500000     2.1877900000     1.3064860000
   42      H      -0.9004330000    -9.1436230000     0.1580210000
   43      H       0.6489030000    -9.1494410000    -0.7508220000
   44      H      -0.9315400000    -1.4431750000     0.5464150000
 ----------------------------------------------------------------
 Nuclear Repulsion Energy =        3394.42659154 hartrees
 There are      120 alpha and      120 beta electrons
 Requested basis set is cc-pVTZ
 There are 388 shells and 1096 basis functions

 Total QAlloc Memory Limit 110000 MB
 Mega-Array Size       188 MB
 MEM_STATIC part       192 MB
 Discretize the solute cavity surface with Lebedev spheres
	Using 110 Lebedev grid points for each H atom
	Using 194 Lebedev grid points for other atoms
	Atomic van der Waals radii will be scaled by 1.20
 Remove points where switching function is < 1.0e-08
 Keep 2933 surface tesserae and discard 4343 interior tesserae
 Molecular Surface Area = 436.137 Angst**2
 Requested basis set is rimp2-cc-pVTZ
 There are 853 shells and 2963 basis functions
 A cutoff of  1.0D-10 yielded  33790 shell pairs
 There are    254234 function pairs (    328575 Cartesian)
 Smallest overlap matrix eigenvalue = 2.16E-05

 Scale SEOQF with 1.000000e-01/1.000000e-02/1.000000e-02

 Standard Electronic Orientation quadrupole field applied
 Nucleus-field energy     =     0.0000000341 hartrees
 Guess from superposition of atomic densities
 Warning:  Energy on first SCF cycle will be non-variational
 SAD guess density has 240.000000 electrons

 -----------------------------------------------------------------------
  General SCF calculation program by
  Eric Jon Sundstrom, Paul Horn, Yuezhi Mao, Dmitri Zuev, Alec White,
  David Stuck, Shaama M.S., Shane Yost, Joonho Lee, David Small,
  Daniel Levine, Susi Lehtola, Hugh Burton, Evgeny Epifanovsky,
  Bang C. Huynh
 -----------------------------------------------------------------------
 Hartree-Fock
 using 64 threads for integral computing
 -------------------------------------------------------
 OpenMP Integral computing Module                
 Release: version 1.0, May 2013, Q-Chem Inc. Pittsburgh 
 -------------------------------------------------------
 A restricted SCF calculation will be
 performed using DIIS
 SCF converges when DIIS error is below 1.0e-06
 ---------------------------------------
  Cycle       Energy         DIIS error
 ---------------------------------------
    1   -2767.1235894467      1.75e-02  
    2   -2754.8323218994      1.53e-03  
    3   -2755.1839230452      8.54e-04  
    4   -2755.2706963630      2.56e-04  
    5   -2755.2844872507      7.46e-05  
    6   -2755.2861151323      2.73e-05  
    7   -2755.2865707776      1.43e-05  
    8   -2755.2867298609      6.20e-06  
    9   -2755.2867688369      3.16e-06  
   10   -2755.2867782964      1.70e-06  
   11   -2755.2867813627      8.58e-07  Convergence criterion met
 ---------------------------------------
 SCF time:   CPU 7614.18s  wall 275.00s 

************** Final PCM Free Energy Summary **************
 G_electrostatic  =      -0.02187067 hartree =     -13.72405457 kcal/mol
 G_cavitation     =       0.00000000 hartree =       0.00000000 kcal/mol
 G_dispersion     =       0.00000000 hartree =       0.00000000 kcal/mol
 G_repulsion      =       0.00000000 hartree =       0.00000000 kcal/mol
 --------------------------------------------------
 Non-electrostatic Free Energy =       0.00000000 hartree =       0.00000000 kcal/mol
 Total                         =      -0.02187067 hartree =     -13.72405457 kcal/mol
 --------------------------------------------------
 SCF Energy (H0 + V/2)                       =   -2755.28678136 
 Solute Internal Energy (H0)                 =   -2755.26491069 
 Total Free Energy (H0 + V/2 + non-elec)     =   -2755.28678136 hartree
                                             = -1728968.55062622 kcal/mol
***********************************************************

 SCF   energy in the final basis set =    -2755.2867813627
 Total energy in the final basis set =    -2755.2867813627


 --------------------------------------------------------------
  Generalized many-body perturbation theory program
  by Joonho Lee, Fazle Rob, Xintian Feng, Evgeny Epifanovsky

 No regularization used 
 (reg. param. = 0.0000e+00)
  (P|Q)^-1/2 Time:  CPU 133.30 s  wall 2.56 s

 In RI-MP2 calculation: 
 # of frozen core orbitals: 45

 Components of the RIMP2 correlation energy:
        aaaa    correlation energy =        -0.6716650559 a.u.
        abab    correlation energy =        -3.7591311348 a.u.
        bbbb    correlation energy =        -0.6716650559 a.u.
        non-Brillouin singles      =        -0.0000000000 a.u.
        total same-spin energy     =        -1.3433301118 a.u.
        total opposite-spin energy =        -3.7591311348 a.u.

 Total  RIMP2   correlation energy =        -5.1024612466 a.u.
        RIMP2         total energy =     -2760.3892426093 a.u.

 RI-MP2 Energy Time:  CPU 2909.73 s  wall 47.39 s
 
 --------------------------------------------------------------
 
                    Orbital Energies (a.u.)
 --------------------------------------------------------------
 
 Alpha MOs
 -- Occupied --
-92.0147 -92.0070 -91.9761 -91.9548 -26.3459 -20.6161 -20.5857 -20.5840
-20.5627 -11.4111 -11.3864 -11.3270 -11.3117 -11.3073 -11.3017 -11.2997
-11.2897 -11.2881 -11.2834 -11.2813 -11.2798 -11.2792 -11.2741 -11.2725
-11.2680 -11.2551 -11.2515 -11.2461 -11.2286  -9.0143  -9.0068  -8.9784
 -8.9574  -6.6950  -6.6942  -6.6939  -6.6878  -6.6870  -6.6860  -6.6594
 -6.6585  -6.6572  -6.6387  -6.6378  -6.6367  -1.6630  -1.4686  -1.4080
 -1.4069  -1.3714  -1.2366  -1.2008  -1.1707  -1.1406  -1.0973  -1.0479
 -1.0437  -1.0277  -1.0020  -0.9945  -0.9655  -0.9596  -0.9463  -0.9399
 -0.8922  -0.8717  -0.8613  -0.8152  -0.7994  -0.7895  -0.7812  -0.7643
 -0.7581  -0.7369  -0.7277  -0.7162  -0.6966  -0.6890  -0.6858  -0.6797
 -0.6751  -0.6614  -0.6548  -0.6469  -0.6372  -0.6303  -0.6166  -0.6129
 -0.6110  -0.6022  -0.5906  -0.5787  -0.5689  -0.5646  -0.5563  -0.5555
 -0.5380  -0.5343  -0.5304  -0.5262  -0.5147  -0.5087  -0.5064  -0.4989
 -0.4871  -0.4822  -0.4765  -0.4744  -0.4693  -0.4677  -0.4523  -0.4431
 -0.4284  -0.3907  -0.3832  -0.3671  -0.3504  -0.3068  -0.2859  -0.2119
 -- Virtual --
  0.0228   0.0572   0.0791   0.1294   0.1427   0.1429   0.1512   0.1561
  0.1567   0.1596   0.1645   0.1721   0.1828   0.1850   0.1909   0.1919
  0.2032   0.2061   0.2121   0.2146   0.2149   0.2224   0.2250   0.2263
  0.2306   0.2375   0.2388   0.2464   0.2510   0.2597   0.2617   0.2680
  0.2753   0.2945   0.3059   0.3123   0.3267   0.3344   0.3407   0.3481
  0.3517   0.3598   0.3605   0.3649   0.3726   0.3778   0.3832   0.3854
  0.3880   0.3914   0.3935   0.4032   0.4097   0.4110   0.4151   0.4210
  0.4244   0.4277   0.4305   0.4339   0.4414   0.4458   0.4469   0.4507
  0.4582   0.4604   0.4669   0.4728   0.4766   0.4781   0.4826   0.4851
  0.4893   0.4938   0.4977   0.5032   0.5039   0.5105   0.5139   0.5155
  0.5220   0.5285   0.5328   0.5343   0.5353   0.5377   0.5416   0.5466
  0.5477   0.5497   0.5569   0.5627   0.5665   0.5705   0.5753   0.5812
  0.5843   0.5948   0.5949   0.5970   0.5998   0.6013   0.6099   0.6118
  0.6133   0.6150   0.6176   0.6192   0.6239   0.6254   0.6291   0.6347
  0.6364   0.6369   0.6427   0.6492   0.6501   0.6556   0.6578   0.6622
  0.6648   0.6688   0.6716   0.6802   0.6866   0.6904   0.6959   0.6980
  0.6990   0.7095   0.7129   0.7157   0.7207   0.7258   0.7292   0.7384
  0.7456   0.7506   0.7594   0.7646   0.7673   0.7679   0.7786   0.7804
  0.7906   0.7928   0.8030   0.8069   0.8099   0.8140   0.8242   0.8257
  0.8314   0.8402   0.8480   0.8488   0.8516   0.8593   0.8652   0.8761
  0.8782   0.8811   0.8831   0.8948   0.8973   0.9021   0.9089   0.9187
  0.9242   0.9297   0.9315   0.9357   0.9435   0.9476   0.9481   0.9576
  0.9596   0.9654   0.9698   0.9725   0.9790   0.9838   0.9862   0.9929
  1.0014   1.0065   1.0114   1.0133   1.0156   1.0217   1.0264   1.0333
  1.0389   1.0405   1.0461   1.0488   1.0568   1.0608   1.0666   1.0747
  1.0782   1.0811   1.0855   1.0899   1.1002   1.1011   1.1067   1.1091
  1.1158   1.1183   1.1213   1.1226   1.1289   1.1342   1.1457   1.1509
  1.1556   1.1608   1.1668   1.1710   1.1754   1.1771   1.1821   1.1872
  1.1899   1.1907   1.1958   1.2030   1.2053   1.2092   1.2126   1.2189
  1.2238   1.2268   1.2402   1.2433   1.2465   1.2472   1.2506   1.2608
  1.2640   1.2679   1.2696   1.2770   1.2810   1.2838   1.2882   1.2945
  1.2982   1.3052   1.3118   1.3151   1.3207   1.3267   1.3375   1.3487
  1.3516   1.3593   1.3642   1.3713   1.3840   1.3868   1.3913   1.3947
  1.4010   1.4097   1.4113   1.4186   1.4288   1.4348   1.4444   1.4509
  1.4589   1.4739   1.4776   1.4828   1.4877   1.4901   1.4958   1.5012
  1.5054   1.5108   1.5127   1.5221   1.5297   1.5335   1.5370   1.5381
  1.5416   1.5427   1.5478   1.5529   1.5575   1.5636   1.5745   1.5755
  1.5871   1.5984   1.6004   1.6103   1.6201   1.6249   1.6297   1.6398
  1.6480   1.6541   1.6565   1.6596   1.6655   1.6740   1.6803   1.6870
  1.6972   1.6981   1.7059   1.7139   1.7217   1.7293   1.7369   1.7479
  1.7548   1.7551   1.7648   1.7785   1.7811   1.7930   1.8069   1.8141
  1.8176   1.8243   1.8300   1.8362   1.8471   1.8593   1.8693   1.8706
  1.8822   1.8905   1.8975   1.9019   1.9136   1.9212   1.9324   1.9409
  1.9472   1.9504   1.9589   1.9648   1.9703   1.9833   1.9904   2.0041
  2.0081   2.0131   2.0200   2.0276   2.0322   2.0408   2.0456   2.0515
  2.0678   2.0730   2.0878   2.0937   2.0988   2.1076   2.1201   2.1335
  2.1394   2.1552   2.1570   2.1646   2.1718   2.1871   2.1884   2.1920
  2.1940   2.2029   2.2178   2.2210   2.2304   2.2338   2.2356   2.2411
  2.2508   2.2560   2.2594   2.2661   2.2684   2.2750   2.2833   2.3015
  2.3071   2.3118   2.3240   2.3358   2.3388   2.3441   2.3510   2.3588
  2.3688   2.3798   2.3910   2.3945   2.4135   2.4184   2.4253   2.4277
  2.4367   2.4377   2.4542   2.4624   2.4817   2.4843   2.4889   2.4940
  2.5037   2.5151   2.5215   2.5310   2.5384   2.5485   2.5492   2.5633
  2.5683   2.5765   2.5862   2.5983   2.6086   2.6187   2.6229   2.6298
  2.6323   2.6389   2.6424   2.6446   2.6518   2.6561   2.6636   2.6681
  2.6719   2.6847   2.6890   2.6954   2.7020   2.7051   2.7066   2.7176
  2.7231   2.7334   2.7406   2.7467   2.7510   2.7592   2.7712   2.7763
  2.7765   2.7853   2.7913   2.7992   2.8087   2.8143   2.8153   2.8249
  2.8371   2.8493   2.8507   2.8550   2.8605   2.8640   2.8687   2.8797
  2.8827   2.8912   2.8995   2.9101   2.9172   2.9212   2.9306   2.9468
  2.9542   2.9586   2.9634   2.9671   2.9707   2.9823   2.9893   2.9915
  2.9998   3.0055   3.0220   3.0229   3.0289   3.0410   3.0477   3.0506
  3.0604   3.0632   3.0686   3.0777   3.0867   3.0937   3.0980   3.1001
  3.1016   3.1113   3.1163   3.1214   3.1301   3.1331   3.1414   3.1468
  3.1478   3.1512   3.1570   3.1595   3.1652   3.1687   3.1776   3.1824
  3.1902   3.1944   3.1994   3.2062   3.2072   3.2168   3.2187   3.2236
  3.2280   3.2406   3.2462   3.2521   3.2563   3.2602   3.2623   3.2655
  3.2659   3.2729   3.2780   3.2879   3.2963   3.2970   3.3032   3.3049
  3.3087   3.3117   3.3175   3.3316   3.3375   3.3386   3.3403   3.3474
  3.3486   3.3508   3.3563   3.3609   3.3644   3.3688   3.3719   3.3721
  3.3765   3.3833   3.3895   3.3936   3.3982   3.4014   3.4021   3.4078
  3.4157   3.4202   3.4241   3.4286   3.4324   3.4344   3.4444   3.4468
  3.4499   3.4542   3.4604   3.4648   3.4687   3.4710   3.4744   3.4803
  3.4839   3.4858   3.4969   3.5033   3.5092   3.5175   3.5252   3.5290
  3.5376   3.5432   3.5493   3.5585   3.5647   3.5670   3.5719   3.5785
  3.5836   3.5855   3.5910   3.5967   3.6022   3.6079   3.6120   3.6204
  3.6251   3.6276   3.6339   3.6380   3.6410   3.6419   3.6476   3.6556
  3.6606   3.6676   3.6736   3.6835   3.6850   3.6882   3.6938   3.6973
  3.7050   3.7081   3.7146   3.7152   3.7215   3.7228   3.7319   3.7384
  3.7459   3.7474   3.7586   3.7691   3.7710   3.7741   3.7779   3.7870
  3.7936   3.7962   3.8012   3.8036   3.8066   3.8113   3.8136   3.8174
  3.8209   3.8260   3.8323   3.8453   3.8500   3.8563   3.8600   3.8677
  3.8711   3.8728   3.8789   3.8877   3.8904   3.8968   3.9046   3.9102
  3.9205   3.9261   3.9295   3.9345   3.9418   3.9478   3.9612   3.9678
  3.9686   3.9705   3.9781   3.9888   3.9962   4.0086   4.0114   4.0233
  4.0304   4.0354   4.0426   4.0487   4.0569   4.0655   4.0670   4.0712
  4.0715   4.0719   4.0814   4.0911   4.0980   4.1178   4.1272   4.1304
  4.1401   4.1440   4.1545   4.1572   4.1602   4.1653   4.1669   4.1734
  4.1788   4.1913   4.2033   4.2085   4.2134   4.2159   4.2199   4.2412
  4.2449   4.2498   4.2549   4.2708   4.2847   4.2912   4.3026   4.3159
  4.3202   4.3362   4.3407   4.3434   4.3495   4.3561   4.3575   4.3643
  4.3710   4.3747   4.3856   4.3930   4.3979   4.4001   4.4100   4.4154
  4.4222   4.4262   4.4285   4.4327   4.4365   4.4458   4.4500   4.4545
  4.4693   4.4746   4.4907   4.5003   4.5094   4.5167   4.5230   4.5316
  4.5381   4.5463   4.5492   4.5641   4.5701   4.5730   4.5839   4.5857
  4.5921   4.5985   4.6192   4.6197   4.6343   4.6413   4.6511   4.6563
  4.6625   4.6699   4.6802   4.6836   4.6965   4.7007   4.7209   4.7351
  4.7486   4.7546   4.7571   4.7727   4.7837   4.7887   4.8024   4.8185
  4.8252   4.8288   4.8465   4.8498   4.8594   4.8746   4.8822   4.8919
  4.9115   4.9215   4.9347   4.9426   4.9487   4.9617   4.9665   4.9838
  4.9955   5.0034   5.0080   5.0112   5.0169   5.0236   5.0314   5.0480
  5.0492   5.0898   5.0934   5.1114   5.1157   5.1212   5.1573   5.1656
  5.1791   5.1970   5.1993   5.2090   5.2224   5.2339   5.2443   5.2497
  5.2563   5.2608   5.2755   5.2911   5.2963   5.3096   5.3177   5.3282
  5.3318   5.3486   5.3544   5.3615   5.3681   5.3916   5.4000   5.4041
  5.4096   5.4228   5.4253   5.4410   5.4468   5.4666   5.4842   5.5040
  5.5112   5.5150   5.5227   5.5353   5.5662   5.5748   5.5789   5.5882
  5.5950   5.6123   5.6204   5.6287   5.6458   5.6589   5.6777   5.6964
  5.7013   5.7390   5.7496   5.7635   5.7674   5.8063   5.8162   5.8479
  5.8615   5.8795   5.9040   5.9123   5.9279   5.9579   5.9878   6.0368
  6.0400   6.0484   6.0703   6.1238   6.1496   6.1539   6.1730   6.1773
  6.1820   6.1869   6.2290   6.2498   6.2564   6.2583   6.2604   6.2730
  6.2883   6.2982   6.3482   6.3800   6.4418   6.4488   6.4839   6.5387
  6.5495   6.5681   6.6006   6.6503   6.6605   6.6698   6.7145   6.7441
  6.8094   6.8286   6.8572   6.8582   6.9011   6.9769   7.1342   7.1475
  7.2027   7.2039   7.2253   7.2413   7.3086   7.3303   7.3430   7.3608
  7.3617   7.4038   7.4121   7.4832   7.4896   7.4979   7.5196   7.5491
  7.6148   7.7387   7.7705   7.7884   7.8049   7.8955   7.9287   7.9547
  7.9692   8.1318   8.2290   8.4975   8.9196   9.0275   9.3607   9.4862
  9.6730  10.2646  11.2158  11.4034  11.7697  11.9751  12.1249  12.3673
 12.4324  12.5008  12.9545  12.9945  13.0170  13.3458  13.3877  13.4948
 13.6695  13.8028  13.8722  13.9385  14.0389  14.3129  14.8570  15.2238
 --------------------------------------------------------------
 
          Ground-State Mulliken Net Atomic Charges

     Atom                 Charge (a.u.)
  ----------------------------------------
      1 C                    -0.068751
      2 C                    -0.284168
      3 S                    -0.142924
      4 C                    -0.039529
      5 H                     0.190138
      6 C                    -0.056483
      7 C                     0.224940
      8 C                     0.213593
      9 C                    -0.075621
     10 C                    -0.058464
     11 O                    -0.335940
     12 O                    -0.344301
     13 C                    -0.082514
     14 H                     0.119980
     15 H                     0.091918
     16 H                     0.092718
     17 C                    -0.087588
     18 H                     0.123121
     19 H                     0.090877
     20 H                     0.088662
     21 C                    -0.263096
     22 S                    -0.090330
     23 C                     0.050480
     24 H                     0.207754
     25 C                    -0.149338
     26 S                     0.086834
     27 C                    -0.137601
     28 C                     0.088812
     29 C                    -0.122482
     30 S                     0.036402
     31 C                    -0.157464
     32 C                     0.402249
     33 F                    -0.204754
     34 C                     0.447297
     35 O                    -0.461334
     36 O                    -0.301110
     37 C                    -0.058284
     38 H                     0.121693
     39 H                     0.095251
     40 H                     0.095507
     41 H                     0.221498
     42 H                     0.114026
     43 H                     0.111690
     44 H                     0.206638
  ----------------------------------------
  Sum of atomic charges =     0.000000

 -----------------------------------------------------------------
                    Cartesian Multipole Moments
 -----------------------------------------------------------------
    Charge (ESU x 10^10)
                -0.0000
    Dipole Moment (Debye)
         X       2.4795      Y       4.2245      Z       2.9788
       Tot       5.7331
    Quadrupole Moments (Debye-Ang)
        XX    -190.8671     XY       7.2156     YY    -196.7091
        XZ      -2.2770     YZ      -7.5988     ZZ    -186.9723
    Octopole Moments (Debye-Ang^2)
       XXX    -377.6999    XXY     472.0747    XYY     -97.3466
       YYY    1233.0130    XXZ     156.4767    XYZ     -45.0501
       YYZ     184.8410    XZZ     -63.2134    YZZ     428.1466
       ZZZ     594.3850
    Hexadecapole Moments (Debye-Ang^3)
      XXXX   -2729.5281   XXXY   -1016.7701   XXYY   -4016.5989
      XYYY   -1184.7078   YYYY  -19485.5027   XXXZ     581.6912
      XXYZ      25.6940   XYYZ     186.3808   YYYZ     224.9104
      XXZZ   -1279.5468   XYZZ     -50.2434   YYZZ   -4200.8956
      XZZZ     435.9023   YZZZ     176.5625   ZZZZ   -7111.4675
 -----------------------------------------------------------------
 Total job time:  326.71s(wall), 10622.89s(cpu) 
 Tue Jan  9 11:11:19 2024

        *************************************************************
        *                                                           *
        *  Thank you very much for using Q-Chem.  Have a nice day.  *
        *                                                           *
        *************************************************************


0 sent ACK to 0 
now end server 0 ... 
cleanup process ... done
remove work dirs ./qchem3764888.0 -- ./qchem3764888.0
rm -rf ./qchem3764888.0
rm -rf ./qchem3764888
