You are running Q-Chem version: 5.4.0

#
# job setting
#
local host:  exp-14-15
current dir: /home/rramji/project-csd799/aromodel/ptb7fout-qchem/hydrogenated-rotation-run
input file:  Dimethoxy_Benzodithiophene_Phi_0_Theta_230_Methylcarbonyl_3_Fluoro_Thienothiophene_Hydrogenated.qcin
output file: 
nprocs     : 1
nthreads   : 64
#
# qchem installation setting
#
QC:          /cm/shared/apps/spack/cpu/opt/spack/linux-centos8-zen2/gcc-10.2.0/qchem-5.4-akfmr7b3t57bfs6qan3padb2wnb2i7cl
QCAUX:       /cm/shared/apps/spack/cpu/opt/spack/linux-centos8-zen2/gcc-10.2.0/qchem-5.4-akfmr7b3t57bfs6qan3padb2wnb2i7cl/qcaux
QCPROG:      /cm/shared/apps/spack/cpu/opt/spack/linux-centos8-zen2/gcc-10.2.0/qchem-5.4-akfmr7b3t57bfs6qan3padb2wnb2i7cl/exe/qcprog.exe
QCPROG_S:    /cm/shared/apps/spack/cpu/opt/spack/linux-centos8-zen2/gcc-10.2.0/qchem-5.4-akfmr7b3t57bfs6qan3padb2wnb2i7cl/exe/qcprog.exe_s
PARALLEL:    -DPARALLEL
QCMPI:       mpich
#
# qchem directory setting
#
qcrun:       qchem1988220
QCSCRATCH:   .
QCLOCALSCR:  
QCTMPDIR:    .
QCFILEPREF:  ./qchem1988220
QCSAVEDIR:   
workdirs:    ./qchem1988220
workdir0:    ./qchem1988220
partmpdirs =  
#
# parallel setting
#
QCRSH:           ssh
QCMPI:           mpich
QCMPIRUN:        /cm/shared/apps/spack/cpu/opt/spack/linux-centos8-zen2/gcc-10.2.0/qchem-5.4-akfmr7b3t57bfs6qan3padb2wnb2i7cl/bin/mpi/mpirun_qchem
QCMACHINEFILE:   ./qchem1988220/hostfile
exp-14-15

#
# env setting
#
exported envs:   QC QCAUX QCSCRATCH QCRUNNAME QCFILEPREF QCPROG QCPROG_S GUIFILE

Running Job 1 of 1 Dimethoxy_Benzodithiophene_Phi_0_Theta_230_Methylcarbonyl_3_Fluoro_Thienothiophene_Hydrogenated.qcin
qchem Dimethoxy_Benzodithiophene_Phi_0_Theta_230_Methylcarbonyl_3_Fluoro_Thienothiophene_Hydrogenated.qcin_1988220.0 ./qchem1988220/ 1
/cm/shared/apps/spack/cpu/opt/spack/linux-centos8-zen2/gcc-10.2.0/qchem-5.4-akfmr7b3t57bfs6qan3padb2wnb2i7cl/bin/mpi/mpirun_qchem -machinefile ./qchem1988220/hostfile -np 1 /cm/shared/apps/spack/cpu/opt/spack/linux-centos8-zen2/gcc-10.2.0/qchem-5.4-akfmr7b3t57bfs6qan3padb2wnb2i7cl/exe/qcprog.exe Dimethoxy_Benzodithiophene_Phi_0_Theta_230_Methylcarbonyl_3_Fluoro_Thienothiophene_Hydrogenated.qcin_1988220.0 ./qchem1988220/

Process 0 of 1 is on exp-14-15 - thread support 0
initial socket setup ...start
initial socket setup ...done 
now start server 0 ... 
                  Welcome to Q-Chem
     A Quantum Leap Into The Future Of Chemistry


 Q-Chem 5.4, Q-Chem, Inc., Pleasanton, CA (2021)

 License issued to: University of California, San Diego (site)

 E. Epifanovsky,  A. T. B. Gilbert,  Xintian Feng,  Joonho Lee,  Yuezhi Mao,  
 N. Mardirossian,  P. Pokhilko,  A. White,  M. Wormit,  M. P. Coons,  
 A. L. Dempwolff,  Zhengting Gan,  D. Hait,  P. R. Horn,  L. D. Jacobson,  
 I. Kaliman,  J. Kussmann,  A. W. Lange,  Ka Un Lao,  D. S. Levine,  Jie Liu,  
 S. C. McKenzie,  A. F. Morrison,  K. Nanda,  F. Plasser,  D. R. Rehn,  
 M. L. Vidal,  Zhi-Qiang You,  Ying Zhu,  B. Alam,  B. Albrecht,  
 A. Aldossary,  E. Alguire,  J. H. Andersen,  D. Barton,  K. Begam,  A. Behn,  
 Y. A. Bernard,  E. J. Berquist,  H. Burton,  A. Carreras,  K. Carter-Fenk,  
 R. Chakraborty,  A. D. Chien,  K. D. Closser,  V. Cofer-Shabica,  
 S. Dasgupta,  Jia Deng,  M. de Wergifosse,  M. Diedenhofen,  Hainam Do,  
 S. Ehlert,  Po-Tung Fang,  S. Fatehi,  Qingguo Feng,  J. Gayvert,  
 Qinghui Ge,  G. Gidofalvi,  M. Goldey,  J. Gomes,  C. Gonzalez-Espinoza,  
 S. Gulania,  A. Gunina,  M. W. D. Hanson-Heine,  P. H. P. Harbach,  
 A. W. Hauser,  M. F. Herbst,  M. Hernandez Vera,  M. Hodecker,  
 Z. C. Holden,  S. Houck,  Xunkun Huang,  Kerwin Hui,  B. C. Huynh,  
 M. Ivanov,  Hyunjun Ji,  Hanjie Jiang,  B. Kaduk,  S. Kaehler,  
 K. Khistyaev,  Jaehoon Kim,  P. Klunzinger,  Z. Koczor-Benda,  
 Joong Hoon Koh,  D. Kosenkov,  L. Koulias,  T. Kowalczyk,  C. M. Krauter,  
 K. Kue,  A. Kunitsa,  T. Kus,  A. Landau,  K. V. Lawler,  D. Lefrancois,  
 S. Lehtola,  Rain Li,  Yi-Pei Li,  Jiashu Liang,  M. Liebenthal,  
 Hung-Hsuan Lin,  You-Sheng Lin,  Fenglai Liu,  Kuan-Yu Liu,  
 M. Loipersberger,  A. Luenser,  A. Manjanath,  P. Manohar,  E. Mansoor,  
 S. F. Manzer,  Shan-Ping Mao,  A. V. Marenich,  T. Markovich,  S. Mason,  
 S. A. Maurer,  P. F. McLaughlin,  M. F. S. J. Menger,  J.-M. Mewes,  
 S. A. Mewes,  P. Morgante,  J. W. Mullinax,  T. S. Nguyen-Beck,  
 K. J. Oosterbaan,  G. Paran,  Alexander C. Paul,  Suranjan K. Paul,  
 F. Pavosevic,  Zheng Pei,  S. Prager,  E. I. Proynov,  E. Ramos,  B. Rana,  
 A. E. Rask,  A. Rettig,  R. M. Richard,  F. Rob,  E. Rossomme,  T. Scheele,  
 M. Scheurer,  M. Schneider,  N. Sergueev,  S. M. Sharada,  W. Skomorowski,  
 D. W. Small,  C. J. Stein,  Yu-Chuan Su,  E. J. Sundstrom,  Zhen Tao,  
 J. Thirman,  T. Tsuchimochi,  N. M. Tubman,  S. P. Veccham,  O. Vydrov,  
 J. Wenzel,  J. Witte,  A. Yamada,  Kun Yao,  S. Yeganeh,  S. R. Yost,  
 A. Zech,  Igor Ying Zhang,  Xing Zhang,  Yu Zhang,  D. Zuev,  
 A. Aspuru-Guzik,  A. T. Bell,  N. A. Besley,  K. B. Bravaya,  B. R. Brooks,  
 D. Casanova,  Jeng-Da Chai,  S. Coriani,  C. J. Cramer,  
 A. E. DePrince, III,  R. A. DiStasio Jr.,  A. Dreuw,  B. D. Dunietz,  
 T. R. Furlani,  W. A. Goddard III,  S. Grimme,  S. Hammes-Schiffer,  
 T. Head-Gordon,  W. J. Hehre,  Chao-Ping Hsu,  T.-C. Jagau,  Yousung Jung,  
 A. Klamt,  Jing Kong,  D. S. Lambrecht,  WanZhen Liang,  N. J. Mayhall,  
 C. W. McCurdy,  J. B. Neaton,  C. Ochsenfeld,  J. A. Parkhill,  R. Peverati,  
 V. A. Rassolov,  Yihan Shao,  L. V. Slipchenko,  T. Stauch,  R. P. Steele,  
 J. E. Subotnik,  A. J. W. Thom,  A. Tkatchenko,  D. G. Truhlar,  
 T. Van Voorhis,  T. A. Wesolowski,  K. B. Whaley,  H. L. Woodcock III,  
 P. M. Zimmerman,  S. Faraji,  P. M. W. Gill,  M. Head-Gordon,  
 J. M. Herbert,  A. I. Krylov

 Contributors to earlier versions of Q-Chem not listed above: 
 R. D. Adamson,  B. Austin,  R. Baer,  J. Baker,  G. J. O. Beran,  
 K. Brandhorst,  S. T. Brown,  E. F. C. Byrd,  A. K. Chakraborty,  
 G. K. L. Chan,  Chun-Min Chang,  Yunqing Chen,  C.-L. Cheng,  
 Siu Hung Chien,  D. M. Chipman,  D. L. Crittenden,  H. Dachsel,  
 R. J. Doerksen,  A. D. Dutoi,  R. G. Edgar,  J. Fosso-Tande,  
 L. Fusti-Molnar,  D. Ghosh,  A. Ghysels,  A. Golubeva-Zadorozhnaya,  
 J. Gonthier,  M. S. Gordon,  S. R. Gwaltney,  G. Hawkins,  J. E. Herr,  
 A. Heyden,  S. Hirata,  E. G. Hohenstein,  G. Kedziora,  F. J. Keil,  
 C. Kelley,  Jihan Kim,  R. A. King,  R. Z. Khaliullin,  P. P. Korambath,  
 W. Kurlancheek,  A. Laurent,  A. M. Lee,  M. S. Lee,  S. V. Levchenko,  
 Ching Yeh Lin,  D. Liotard,  E. Livshits,  R. C. Lochan,  I. Lotan,  
 L. A. Martinez-Martinez,  P. E. Maslen,  N. Nair,  D. P. O'Neill,  
 D. Neuhauser,  E. Neuscamman,  C. M. Oana,  R. Olivares-Amaya,  R. Olson,  
 T. M. Perrine,  B. Peters,  P. A. Pieniazek,  A. Prociuk,  Y. M. Rhee,  
 J. Ritchie,  M. A. Rohrdanz,  E. Rosta,  N. J. Russ,  H. F. Schaefer III,  
 M. W. Schmidt,  N. E. Schultz,  S. Sharma,  N. Shenvi,  C. D. Sherrill,  
 A. C. Simmonett,  A. Sodt,  T. Stein,  D. Stuck,  K. S. Thanthiriwatte,  
 V. Vanovschi,  L. Vogt,  Tao Wang,  A. Warshel,  M. A. Watson,  
 C. F. Williams,  Q. Wu,  X. Xu,  Jun Yang,  W. Zhang,  Yan Zhao

 Please cite Q-Chem as follows:
 Y. Shao et al., Mol. Phys. 113, 184-215 (2015)
 DOI: 10.1080/00268976.2014.952696

 Q-Chem 5.4.0 for Intel X86 EM64T Linux

 Parts of Q-Chem use Armadillo 9.800.1 (Horizon Scraper).
 http://arma.sourceforge.net/

 Q-Chem begins on Tue Jan  9 11:51:40 2024  

 Host: 
0

     Scratch files written to ./qchem1988220//
 May1621 |scratch|qcdevops|jenkins|workspace|build_RNUM    
 Parallel job on  1  processors
 Processing $rem in /cm/shared/apps/spack/cpu/opt/spack/linux-centos8-zen2/gcc-10.2.0/qchem-5.4-akfmr7b3t57bfs6qan3padb2wnb2i7cl/config/preferences:
 Processing $rem in /home/rramji/.qchemrc:
 Symmetry turned off for PCM/SM12/SMD calculation
 Core orbitals will be frozen

 Checking the input file for inconsistencies... 	...done.

 Q-Chem warning in module forms1/BasisType.C, line 2236:

 You are not using the predefined 5D/6D in this basis set.


--------------------------------------------------------------
User input:
--------------------------------------------------------------
$molecule
0 1
C	0.270358	-8.517702	-0.172904
C	-0.548363	-7.641575	0.524688
S	1.445750	-7.638634	-1.180599
C	-0.259951	-6.264785	0.282727
H	-1.347559	-7.966081	1.203014
C	0.833868	-6.072714	-0.632972
C	1.248701	-4.787049	-1.013580
C	-0.965673	-5.162801	0.845068
C	-0.553357	-3.874817	0.460946
C	0.543470	-3.683952	-0.453541
O	-1.958276	-5.499772	1.714812
O	2.245053	-4.459055	-1.888193
C	3.360989	-5.329063	-2.033848
H	4.130667	-4.755694	-2.584788
H	3.112380	-6.238095	-2.624118
H	3.770895	-5.637262	-1.047748
C	-2.994272	-4.572261	2.013896
H	-3.763700	-5.139743	2.570853
H	-3.448815	-4.153131	1.090625
H	-2.636780	-3.739531	2.657717
C	0.827659	-2.306654	-0.694943
S	-1.174750	-2.306501	0.999993
C	0.000000	-1.435185	0.000000
H	1.627541	-1.978138	-1.370385
C	0.000000	0.000000	0.000000
S	0.000474	0.904764	1.507541
C	-0.000295	2.477305	0.718873
C	0.000752	0.904447	-1.067872
C	-0.001560	2.294593	-0.686410
S	0.003602	0.660872	-2.805516
C	-0.001928	2.412546	-3.054530
C	-0.004381	3.120854	-1.862551
F	-0.009185	4.457503	-1.819088
C	-0.000038	2.860570	-4.456084
O	0.007944	2.090724	-5.406510
O	-0.007501	4.211092	-4.569225
C	-0.002278	4.706177	-5.916207
H	-0.009265	5.807207	-5.833064
H	-0.895381	4.352875	-6.470168
H	0.901521	4.363301	-6.459293
H	-0.001708	3.401562	1.306486
H	-0.311979	-9.143623	-0.859314
H	0.852097	-9.149441	0.508666
H	-0.699874	-1.443175	-0.822504
$end

$rem
JOBTYPE		SP
EXCHANGE	HF
CORRELATION	pRIMP2
BASIS		cc-pvtz
METHOD		rimp2
AUX_BASIS	rimp2-cc-pvtz
SOLVENT_METHOD	PCM
PURECART	11111
SYMMETRY	false
MEM_TOTAL	110000
SCF_CONVERGENCE = 6
THRESH=10
GUI = 2
$end



$solvent
dielectric 4.90
$end
--------------------------------------------------------------
 ----------------------------------------------------------------
             Standard Nuclear Orientation (Angstroms)
    I     Atom           X                Y                Z
 ----------------------------------------------------------------
    1      C       0.2703580000    -8.5177020000    -0.1729040000
    2      C      -0.5483630000    -7.6415750000     0.5246880000
    3      S       1.4457500000    -7.6386340000    -1.1805990000
    4      C      -0.2599510000    -6.2647850000     0.2827270000
    5      H      -1.3475590000    -7.9660810000     1.2030140000
    6      C       0.8338680000    -6.0727140000    -0.6329720000
    7      C       1.2487010000    -4.7870490000    -1.0135800000
    8      C      -0.9656730000    -5.1628010000     0.8450680000
    9      C      -0.5533570000    -3.8748170000     0.4609460000
   10      C       0.5434700000    -3.6839520000    -0.4535410000
   11      O      -1.9582760000    -5.4997720000     1.7148120000
   12      O       2.2450530000    -4.4590550000    -1.8881930000
   13      C       3.3609890000    -5.3290630000    -2.0338480000
   14      H       4.1306670000    -4.7556940000    -2.5847880000
   15      H       3.1123800000    -6.2380950000    -2.6241180000
   16      H       3.7708950000    -5.6372620000    -1.0477480000
   17      C      -2.9942720000    -4.5722610000     2.0138960000
   18      H      -3.7637000000    -5.1397430000     2.5708530000
   19      H      -3.4488150000    -4.1531310000     1.0906250000
   20      H      -2.6367800000    -3.7395310000     2.6577170000
   21      C       0.8276590000    -2.3066540000    -0.6949430000
   22      S      -1.1747500000    -2.3065010000     0.9999930000
   23      C       0.0000000000    -1.4351850000     0.0000000000
   24      H       1.6275410000    -1.9781380000    -1.3703850000
   25      C       0.0000000000     0.0000000000     0.0000000000
   26      S       0.0004740000     0.9047640000     1.5075410000
   27      C      -0.0002950000     2.4773050000     0.7188730000
   28      C       0.0007520000     0.9044470000    -1.0678720000
   29      C      -0.0015600000     2.2945930000    -0.6864100000
   30      S       0.0036020000     0.6608720000    -2.8055160000
   31      C      -0.0019280000     2.4125460000    -3.0545300000
   32      C      -0.0043810000     3.1208540000    -1.8625510000
   33      F      -0.0091850000     4.4575030000    -1.8190880000
   34      C      -0.0000380000     2.8605700000    -4.4560840000
   35      O       0.0079440000     2.0907240000    -5.4065100000
   36      O      -0.0075010000     4.2110920000    -4.5692250000
   37      C      -0.0022780000     4.7061770000    -5.9162070000
   38      H      -0.0092650000     5.8072070000    -5.8330640000
   39      H      -0.8953810000     4.3528750000    -6.4701680000
   40      H       0.9015210000     4.3633010000    -6.4592930000
   41      H      -0.0017080000     3.4015620000     1.3064860000
   42      H      -0.3119790000    -9.1436230000    -0.8593140000
   43      H       0.8520970000    -9.1494410000     0.5086660000
   44      H      -0.6998740000    -1.4431750000    -0.8225040000
 ----------------------------------------------------------------
 Nuclear Repulsion Energy =        3332.25957741 hartrees
 There are      120 alpha and      120 beta electrons
 Requested basis set is cc-pVTZ
 There are 388 shells and 1096 basis functions

 Total QAlloc Memory Limit 110000 MB
 Mega-Array Size       188 MB
 MEM_STATIC part       192 MB
 Discretize the solute cavity surface with Lebedev spheres
	Using 110 Lebedev grid points for each H atom
	Using 194 Lebedev grid points for other atoms
	Atomic van der Waals radii will be scaled by 1.20
 Remove points where switching function is < 1.0e-08
 Keep 2961 surface tesserae and discard 4315 interior tesserae
 Molecular Surface Area = 443.647 Angst**2
 Requested basis set is rimp2-cc-pVTZ
 There are 853 shells and 2963 basis functions
 A cutoff of  1.0D-10 yielded  32925 shell pairs
 There are    248937 function pairs (    322129 Cartesian)
 Smallest overlap matrix eigenvalue = 2.18E-05

 Scale SEOQF with 1.000000e-01/1.000000e-02/1.000000e-02

 Standard Electronic Orientation quadrupole field applied
 Nucleus-field energy     =     0.0000000319 hartrees
 Guess from superposition of atomic densities
 Warning:  Energy on first SCF cycle will be non-variational
 SAD guess density has 240.000000 electrons

 -----------------------------------------------------------------------
  General SCF calculation program by
  Eric Jon Sundstrom, Paul Horn, Yuezhi Mao, Dmitri Zuev, Alec White,
  David Stuck, Shaama M.S., Shane Yost, Joonho Lee, David Small,
  Daniel Levine, Susi Lehtola, Hugh Burton, Evgeny Epifanovsky,
  Bang C. Huynh
 -----------------------------------------------------------------------
 Hartree-Fock
 using 64 threads for integral computing
 -------------------------------------------------------
 OpenMP Integral computing Module                
 Release: version 1.0, May 2013, Q-Chem Inc. Pittsburgh 
 -------------------------------------------------------
 A restricted SCF calculation will be
 performed using DIIS
 SCF converges when DIIS error is below 1.0e-06
 ---------------------------------------
  Cycle       Energy         DIIS error
 ---------------------------------------
    1   -2767.0165432094      1.75e-02  
    2   -2754.8967987687      1.53e-03  
    3   -2755.2446154573      8.54e-04  
    4   -2755.3312608439      2.56e-04  
    5   -2755.3447410730      7.33e-05  
    6   -2755.3462261180      2.54e-05  
    7   -2755.3466045784      1.33e-05  
    8   -2755.3467252614      5.49e-06  
    9   -2755.3467534126      2.78e-06  
   10   -2755.3467601004      1.42e-06  
   11   -2755.3467622508      7.46e-07  Convergence criterion met
 ---------------------------------------
 SCF time:   CPU 7488.98s  wall 271.00s 

************** Final PCM Free Energy Summary **************
 G_electrostatic  =      -0.02015076 hartree =     -12.64478988 kcal/mol
 G_cavitation     =       0.00000000 hartree =       0.00000000 kcal/mol
 G_dispersion     =       0.00000000 hartree =       0.00000000 kcal/mol
 G_repulsion      =       0.00000000 hartree =       0.00000000 kcal/mol
 --------------------------------------------------
 Non-electrostatic Free Energy =       0.00000000 hartree =       0.00000000 kcal/mol
 Total                         =      -0.02015076 hartree =     -12.64478988 kcal/mol
 --------------------------------------------------
 SCF Energy (H0 + V/2)                       =   -2755.34676225 
 Solute Internal Energy (H0)                 =   -2755.32661150 
 Total Free Energy (H0 + V/2 + non-elec)     =   -2755.34676225 hartree
                                             = -1729006.18920159 kcal/mol
***********************************************************

 SCF   energy in the final basis set =    -2755.3467622508
 Total energy in the final basis set =    -2755.3467622508


 --------------------------------------------------------------
  Generalized many-body perturbation theory program
  by Joonho Lee, Fazle Rob, Xintian Feng, Evgeny Epifanovsky

 No regularization used 
 (reg. param. = 0.0000e+00)
  (P|Q)^-1/2 Time:  CPU 269.53 s  wall 4.90 s

 In RI-MP2 calculation: 
 # of frozen core orbitals: 45

 Components of the RIMP2 correlation energy:
        aaaa    correlation energy =        -0.6688022890 a.u.
        abab    correlation energy =        -3.7511825016 a.u.
        bbbb    correlation energy =        -0.6688022890 a.u.
        non-Brillouin singles      =        -0.0000000000 a.u.
        total same-spin energy     =        -1.3376045780 a.u.
        total opposite-spin energy =        -3.7511825016 a.u.

 Total  RIMP2   correlation energy =        -5.0887870796 a.u.
        RIMP2         total energy =     -2760.4355493304 a.u.

 RI-MP2 Energy Time:  CPU 3054.80 s  wall 49.89 s
 
 --------------------------------------------------------------
 
                    Orbital Energies (a.u.)
 --------------------------------------------------------------
 
 Alpha MOs
 -- Occupied --
-92.0135 -91.9990 -91.9805 -91.9584 -26.3439 -20.6153 -20.5878 -20.5872
-20.5618 -11.4099 -11.3832 -11.3093 -11.3086 -11.3067 -11.3059 -11.2987
-11.2985 -11.2891 -11.2852 -11.2851 -11.2840 -11.2827 -11.2823 -11.2732
-11.2728 -11.2586 -11.2586 -11.2499 -11.2376  -9.0122  -8.9991  -8.9826
 -8.9610  -6.6930  -6.6924  -6.6919  -6.6801  -6.6794  -6.6783  -6.6637
 -6.6628  -6.6615  -6.6422  -6.6413  -6.6403  -1.6609  -1.4677  -1.4111
 -1.4090  -1.3704  -1.2298  -1.2030  -1.1740  -1.1371  -1.1012  -1.0467
 -1.0459  -1.0233  -1.0042  -0.9980  -0.9623  -0.9596  -0.9489  -0.9411
 -0.8943  -0.8712  -0.8647  -0.8105  -0.7990  -0.7899  -0.7847  -0.7682
 -0.7582  -0.7364  -0.7257  -0.7093  -0.7005  -0.6956  -0.6852  -0.6804
 -0.6743  -0.6649  -0.6562  -0.6488  -0.6366  -0.6307  -0.6203  -0.6151
 -0.6123  -0.5988  -0.5927  -0.5773  -0.5713  -0.5655  -0.5589  -0.5524
 -0.5477  -0.5341  -0.5315  -0.5268  -0.5131  -0.5086  -0.5079  -0.5023
 -0.4854  -0.4820  -0.4762  -0.4744  -0.4692  -0.4684  -0.4622  -0.4472
 -0.4280  -0.3974  -0.3860  -0.3704  -0.3505  -0.3003  -0.2896  -0.2199
 -- Virtual --
  0.0347   0.0531   0.1112   0.1318   0.1365   0.1433   0.1520   0.1553
  0.1572   0.1596   0.1691   0.1731   0.1827   0.1881   0.1885   0.1956
  0.2011   0.2025   0.2038   0.2120   0.2148   0.2207   0.2232   0.2274
  0.2298   0.2329   0.2396   0.2429   0.2480   0.2541   0.2660   0.2696
  0.2752   0.2939   0.2969   0.3224   0.3311   0.3385   0.3407   0.3434
  0.3499   0.3576   0.3583   0.3685   0.3710   0.3739   0.3839   0.3849
  0.3857   0.3925   0.4018   0.4025   0.4063   0.4177   0.4185   0.4225
  0.4255   0.4276   0.4347   0.4396   0.4412   0.4449   0.4496   0.4515
  0.4554   0.4599   0.4632   0.4670   0.4732   0.4799   0.4804   0.4862
  0.4893   0.4917   0.4949   0.4997   0.5036   0.5109   0.5142   0.5209
  0.5218   0.5265   0.5312   0.5352   0.5377   0.5411   0.5432   0.5475
  0.5521   0.5540   0.5578   0.5591   0.5611   0.5653   0.5715   0.5781
  0.5843   0.5872   0.5884   0.5921   0.5969   0.6069   0.6097   0.6111
  0.6131   0.6137   0.6165   0.6209   0.6226   0.6233   0.6258   0.6295
  0.6317   0.6364   0.6412   0.6461   0.6491   0.6508   0.6556   0.6585
  0.6620   0.6675   0.6703   0.6752   0.6801   0.6838   0.6916   0.6994
  0.7022   0.7105   0.7111   0.7164   0.7189   0.7217   0.7264   0.7382
  0.7426   0.7529   0.7561   0.7577   0.7612   0.7726   0.7769   0.7847
  0.7891   0.7962   0.8023   0.8076   0.8088   0.8114   0.8205   0.8250
  0.8306   0.8388   0.8452   0.8575   0.8597   0.8676   0.8680   0.8745
  0.8766   0.8877   0.8886   0.8904   0.8987   0.9001   0.9081   0.9124
  0.9185   0.9233   0.9337   0.9368   0.9404   0.9440   0.9525   0.9568
  0.9610   0.9662   0.9698   0.9735   0.9788   0.9814   0.9873   0.9904
  0.9930   1.0064   1.0092   1.0115   1.0138   1.0180   1.0255   1.0307
  1.0393   1.0443   1.0465   1.0485   1.0506   1.0568   1.0635   1.0701
  1.0751   1.0767   1.0809   1.0862   1.0946   1.0983   1.1059   1.1088
  1.1122   1.1140   1.1147   1.1219   1.1276   1.1307   1.1411   1.1476
  1.1545   1.1575   1.1601   1.1632   1.1725   1.1746   1.1785   1.1800
  1.1858   1.1930   1.1966   1.1982   1.2075   1.2108   1.2124   1.2209
  1.2235   1.2296   1.2326   1.2386   1.2398   1.2447   1.2535   1.2569
  1.2583   1.2617   1.2646   1.2756   1.2822   1.2860   1.2897   1.2928
  1.2979   1.3080   1.3124   1.3195   1.3253   1.3273   1.3371   1.3383
  1.3524   1.3550   1.3635   1.3751   1.3792   1.3876   1.3929   1.3952
  1.4051   1.4081   1.4196   1.4215   1.4290   1.4330   1.4512   1.4602
  1.4636   1.4702   1.4730   1.4829   1.4876   1.4998   1.5005   1.5022
  1.5042   1.5088   1.5108   1.5142   1.5198   1.5283   1.5358   1.5391
  1.5412   1.5423   1.5450   1.5511   1.5571   1.5621   1.5733   1.5751
  1.5803   1.5926   1.6006   1.6045   1.6160   1.6214   1.6318   1.6333
  1.6468   1.6558   1.6590   1.6618   1.6693   1.6737   1.6800   1.6911
  1.6940   1.6999   1.7068   1.7102   1.7170   1.7258   1.7352   1.7485
  1.7567   1.7646   1.7771   1.7855   1.7955   1.7996   1.8082   1.8094
  1.8210   1.8245   1.8249   1.8458   1.8504   1.8602   1.8681   1.8700
  1.8849   1.8879   1.8992   1.9031   1.9081   1.9219   1.9322   1.9375
  1.9477   1.9523   1.9602   1.9636   1.9765   1.9835   1.9880   2.0018
  2.0049   2.0106   2.0195   2.0269   2.0292   2.0327   2.0416   2.0514
  2.0663   2.0746   2.0817   2.0903   2.0958   2.1097   2.1108   2.1212
  2.1426   2.1549   2.1600   2.1664   2.1798   2.1809   2.1916   2.1947
  2.1993   2.2017   2.2096   2.2195   2.2260   2.2334   2.2401   2.2410
  2.2452   2.2564   2.2585   2.2656   2.2740   2.2746   2.2899   2.3012
  2.3076   2.3097   2.3228   2.3290   2.3453   2.3464   2.3555   2.3589
  2.3707   2.3746   2.3912   2.3987   2.4122   2.4145   2.4183   2.4209
  2.4340   2.4412   2.4482   2.4704   2.4735   2.4783   2.4838   2.4905
  2.5024   2.5135   2.5140   2.5316   2.5386   2.5511   2.5556   2.5614
  2.5756   2.5772   2.5953   2.6013   2.6152   2.6200   2.6247   2.6265
  2.6284   2.6339   2.6418   2.6447   2.6486   2.6547   2.6643   2.6758
  2.6786   2.6835   2.6892   2.6950   2.6985   2.7024   2.7082   2.7142
  2.7203   2.7255   2.7340   2.7440   2.7449   2.7525   2.7632   2.7710
  2.7758   2.7833   2.7901   2.8015   2.8047   2.8105   2.8208   2.8286
  2.8310   2.8431   2.8506   2.8544   2.8612   2.8631   2.8680   2.8745
  2.8780   2.8839   2.8927   2.8989   2.9146   2.9179   2.9240   2.9403
  2.9428   2.9507   2.9566   2.9596   2.9670   2.9724   2.9780   2.9871
  2.9892   2.9989   3.0110   3.0151   3.0230   3.0324   3.0360   3.0461
  3.0490   3.0611   3.0647   3.0668   3.0861   3.0897   3.0924   3.0962
  3.1026   3.1035   3.1089   3.1254   3.1269   3.1306   3.1333   3.1406
  3.1423   3.1483   3.1521   3.1572   3.1672   3.1706   3.1757   3.1774
  3.1819   3.1932   3.2021   3.2055   3.2109   3.2176   3.2188   3.2252
  3.2295   3.2378   3.2385   3.2500   3.2530   3.2570   3.2595   3.2637
  3.2679   3.2689   3.2814   3.2841   3.2858   3.2922   3.2945   3.3014
  3.3034   3.3109   3.3114   3.3207   3.3253   3.3318   3.3371   3.3407
  3.3431   3.3494   3.3527   3.3541   3.3630   3.3650   3.3659   3.3718
  3.3755   3.3784   3.3846   3.3940   3.3977   3.3999   3.4016   3.4058
  3.4109   3.4198   3.4216   3.4253   3.4301   3.4346   3.4414   3.4427
  3.4479   3.4534   3.4577   3.4603   3.4643   3.4692   3.4767   3.4798
  3.4831   3.4859   3.4874   3.4928   3.5044   3.5077   3.5229   3.5266
  3.5410   3.5478   3.5492   3.5569   3.5604   3.5606   3.5702   3.5739
  3.5799   3.5827   3.5879   3.5937   3.5989   3.6012   3.6068   3.6118
  3.6213   3.6218   3.6254   3.6274   3.6331   3.6363   3.6415   3.6461
  3.6555   3.6628   3.6707   3.6760   3.6800   3.6836   3.6839   3.6911
  3.6955   3.7048   3.7057   3.7077   3.7148   3.7161   3.7232   3.7312
  3.7367   3.7436   3.7508   3.7562   3.7630   3.7660   3.7716   3.7807
  3.7824   3.7902   3.7959   3.8004   3.8023   3.8072   3.8126   3.8166
  3.8184   3.8206   3.8251   3.8356   3.8475   3.8496   3.8540   3.8581
  3.8615   3.8663   3.8765   3.8792   3.8855   3.8927   3.9015   3.9039
  3.9127   3.9194   3.9217   3.9335   3.9377   3.9507   3.9562   3.9577
  3.9608   3.9662   3.9741   3.9836   3.9953   3.9991   4.0043   4.0120
  4.0201   4.0238   4.0367   4.0448   4.0488   4.0656   4.0663   4.0677
  4.0712   4.0761   4.0812   4.0915   4.1033   4.1126   4.1182   4.1188
  4.1271   4.1422   4.1482   4.1518   4.1645   4.1671   4.1687   4.1721
  4.1776   4.1857   4.1960   4.2052   4.2113   4.2120   4.2207   4.2365
  4.2451   4.2493   4.2579   4.2682   4.2715   4.2781   4.2884   4.3071
  4.3099   4.3222   4.3254   4.3400   4.3416   4.3493   4.3546   4.3578
  4.3651   4.3703   4.3779   4.3859   4.3974   4.4034   4.4122   4.4156
  4.4228   4.4256   4.4271   4.4304   4.4336   4.4382   4.4432   4.4553
  4.4624   4.4806   4.4835   4.4877   4.5118   4.5170   4.5202   4.5271
  4.5342   4.5406   4.5509   4.5655   4.5673   4.5714   4.5805   4.5833
  4.5848   4.6015   4.6098   4.6244   4.6358   4.6420   4.6434   4.6512
  4.6554   4.6626   4.6788   4.6811   4.7023   4.7144   4.7253   4.7375
  4.7461   4.7508   4.7677   4.7771   4.7803   4.7828   4.7978   4.8211
  4.8276   4.8351   4.8441   4.8580   4.8728   4.8760   4.8857   4.8905
  4.9008   4.9211   4.9314   4.9404   4.9493   4.9522   4.9660   4.9745
  4.9817   4.9973   5.0086   5.0109   5.0145   5.0180   5.0412   5.0471
  5.0612   5.0774   5.0933   5.1088   5.1208   5.1312   5.1386   5.1634
  5.1745   5.1934   5.2032   5.2051   5.2209   5.2376   5.2495   5.2513
  5.2550   5.2600   5.2732   5.2850   5.2934   5.3105   5.3206   5.3265
  5.3378   5.3461   5.3514   5.3652   5.3676   5.3872   5.3902   5.4002
  5.4057   5.4194   5.4259   5.4418   5.4477   5.4847   5.5001   5.5083
  5.5161   5.5217   5.5311   5.5354   5.5650   5.5663   5.5801   5.5829
  5.5878   5.6094   5.6194   5.6212   5.6373   5.6600   5.6851   5.6922
  5.6989   5.7401   5.7565   5.7647   5.7867   5.8071   5.8267   5.8440
  5.8582   5.8803   5.9036   5.9150   5.9287   5.9572   5.9953   6.0285
  6.0386   6.0421   6.1041   6.1274   6.1502   6.1531   6.1718   6.1754
  6.1828   6.1987   6.2395   6.2469   6.2610   6.2635   6.2748   6.2856
  6.2975   6.3155   6.3460   6.4018   6.4473   6.4497   6.4857   6.5389
  6.5484   6.5670   6.6047   6.6477   6.6607   6.6707   6.7171   6.7461
  6.8070   6.8297   6.8570   6.8590   6.8977   6.9780   7.1309   7.1458
  7.2035   7.2077   7.2212   7.2400   7.3094   7.3266   7.3416   7.3627
  7.3637   7.4063   7.4128   7.4851   7.4855   7.4975   7.5252   7.5518
  7.6160   7.7387   7.7725   7.7896   7.8023   7.9014   7.9269   7.9545
  7.9746   8.1339   8.3137   8.5653   8.9214   9.0279   9.3624   9.4822
  9.6750  10.2205  11.1697  11.4531  11.7571  11.9384  12.1224  12.3680
 12.4205  12.5028  12.9281  13.0025  13.0843  13.2687  13.3859  13.4799
 13.7194  13.7859  13.8789  13.9446  14.0315  14.3121  15.0450  15.2183
 --------------------------------------------------------------
 
          Ground-State Mulliken Net Atomic Charges

     Atom                 Charge (a.u.)
  ----------------------------------------
      1 C                    -0.070331
      2 C                    -0.257946
      3 S                    -0.134550
      4 C                    -0.045408
      5 H                     0.193598
      6 C                    -0.052279
      7 C                     0.223697
      8 C                     0.228077
      9 C                    -0.077214
     10 C                    -0.045891
     11 O                    -0.334638
     12 O                    -0.342889
     13 C                    -0.082940
     14 H                     0.120435
     15 H                     0.092318
     16 H                     0.092559
     17 C                    -0.087085
     18 H                     0.123738
     19 H                     0.093025
     20 H                     0.090170
     21 C                    -0.274495
     22 S                    -0.078350
     23 C                     0.077388
     24 H                     0.210361
     25 C                    -0.064050
     26 S                     0.087823
     27 C                    -0.195047
     28 C                     0.007949
     29 C                    -0.112305
     30 S                     0.000667
     31 C                    -0.154886
     32 C                     0.396296
     33 F                    -0.206367
     34 C                     0.445284
     35 O                    -0.460698
     36 O                    -0.300562
     37 C                    -0.058637
     38 H                     0.121542
     39 H                     0.095240
     40 H                     0.095159
     41 H                     0.217029
     42 H                     0.117669
     43 H                     0.115165
     44 H                     0.191379
  ----------------------------------------
  Sum of atomic charges =     0.000000

 -----------------------------------------------------------------
                    Cartesian Multipole Moments
 -----------------------------------------------------------------
    Charge (ESU x 10^10)
                 0.0000
    Dipole Moment (Debye)
         X      -0.5096      Y       2.4474      Z       2.6426
       Tot       3.6377
    Quadrupole Moments (Debye-Ang)
        XX    -185.6390     XY       3.1014     YY    -173.5450
        XZ      -6.2746     YZ     -10.3302     ZZ    -204.0753
    Octopole Moments (Debye-Ang^2)
       XXX     -40.6126    XXY     300.6732    XYY     -35.4837
       YYY     956.1621    XXZ     181.5787    XYZ      29.1065
       YYZ     141.6241    XZZ     -18.5289    YZZ     463.7516
       ZZZ     586.1746
    Hexadecapole Moments (Debye-Ang^3)
      XXXX   -1675.8970   XXXY     451.7390   XXYY   -3894.9751
      XYYY     655.8751   YYYY  -20388.8253   XXXZ     449.7805
      XXYZ     442.4128   XYYZ      72.2242   YYYZ     748.4886
      XXZZ   -1263.4681   XYZZ     167.4623   YYZZ   -4310.3867
      XZZZ     558.4197   YZZZ     715.1893   ZZZZ   -6312.5917
 -----------------------------------------------------------------
 Total job time:  325.77s(wall), 10655.32s(cpu) 
 Tue Jan  9 11:57:06 2024

        *************************************************************
        *                                                           *
        *  Thank you very much for using Q-Chem.  Have a nice day.  *
        *                                                           *
        *************************************************************


0 sent ACK to 0 
now end server 0 ... 
cleanup process ... done
remove work dirs ./qchem1988220.0 -- ./qchem1988220.0
rm -rf ./qchem1988220.0
rm -rf ./qchem1988220
