You are running Q-Chem version: 5.4.0

#
# job setting
#
local host:  exp-14-15
current dir: /home/rramji/project-csd799/aromodel/ptb7fout-qchem/hydrogenated-rotation-run
input file:  Dimethoxy_Benzodithiophene_Phi_0_Theta_260_Methylcarbonyl_3_Fluoro_Thienothiophene_Hydrogenated.qcin
output file: 
nprocs     : 1
nthreads   : 64
#
# qchem installation setting
#
QC:          /cm/shared/apps/spack/cpu/opt/spack/linux-centos8-zen2/gcc-10.2.0/qchem-5.4-akfmr7b3t57bfs6qan3padb2wnb2i7cl
QCAUX:       /cm/shared/apps/spack/cpu/opt/spack/linux-centos8-zen2/gcc-10.2.0/qchem-5.4-akfmr7b3t57bfs6qan3padb2wnb2i7cl/qcaux
QCPROG:      /cm/shared/apps/spack/cpu/opt/spack/linux-centos8-zen2/gcc-10.2.0/qchem-5.4-akfmr7b3t57bfs6qan3padb2wnb2i7cl/exe/qcprog.exe
QCPROG_S:    /cm/shared/apps/spack/cpu/opt/spack/linux-centos8-zen2/gcc-10.2.0/qchem-5.4-akfmr7b3t57bfs6qan3padb2wnb2i7cl/exe/qcprog.exe_s
PARALLEL:    -DPARALLEL
QCMPI:       mpich
#
# qchem directory setting
#
qcrun:       qchem1991768
QCSCRATCH:   .
QCLOCALSCR:  
QCTMPDIR:    .
QCFILEPREF:  ./qchem1991768
QCSAVEDIR:   
workdirs:    ./qchem1991768
workdir0:    ./qchem1991768
partmpdirs =  
#
# parallel setting
#
QCRSH:           ssh
QCMPI:           mpich
QCMPIRUN:        /cm/shared/apps/spack/cpu/opt/spack/linux-centos8-zen2/gcc-10.2.0/qchem-5.4-akfmr7b3t57bfs6qan3padb2wnb2i7cl/bin/mpi/mpirun_qchem
QCMACHINEFILE:   ./qchem1991768/hostfile
exp-14-15

#
# env setting
#
exported envs:   QC QCAUX QCSCRATCH QCRUNNAME QCFILEPREF QCPROG QCPROG_S GUIFILE

Running Job 1 of 1 Dimethoxy_Benzodithiophene_Phi_0_Theta_260_Methylcarbonyl_3_Fluoro_Thienothiophene_Hydrogenated.qcin
qchem Dimethoxy_Benzodithiophene_Phi_0_Theta_260_Methylcarbonyl_3_Fluoro_Thienothiophene_Hydrogenated.qcin_1991768.0 ./qchem1991768/ 1
/cm/shared/apps/spack/cpu/opt/spack/linux-centos8-zen2/gcc-10.2.0/qchem-5.4-akfmr7b3t57bfs6qan3padb2wnb2i7cl/bin/mpi/mpirun_qchem -machinefile ./qchem1991768/hostfile -np 1 /cm/shared/apps/spack/cpu/opt/spack/linux-centos8-zen2/gcc-10.2.0/qchem-5.4-akfmr7b3t57bfs6qan3padb2wnb2i7cl/exe/qcprog.exe Dimethoxy_Benzodithiophene_Phi_0_Theta_260_Methylcarbonyl_3_Fluoro_Thienothiophene_Hydrogenated.qcin_1991768.0 ./qchem1991768/

Process 0 of 1 is on exp-14-15 - thread support 0
initial socket setup ...start
initial socket setup ...done 
now start server 0 ... 
                  Welcome to Q-Chem
     A Quantum Leap Into The Future Of Chemistry


 Q-Chem 5.4, Q-Chem, Inc., Pleasanton, CA (2021)

 License issued to: University of California, San Diego (site)

 E. Epifanovsky,  A. T. B. Gilbert,  Xintian Feng,  Joonho Lee,  Yuezhi Mao,  
 N. Mardirossian,  P. Pokhilko,  A. White,  M. Wormit,  M. P. Coons,  
 A. L. Dempwolff,  Zhengting Gan,  D. Hait,  P. R. Horn,  L. D. Jacobson,  
 I. Kaliman,  J. Kussmann,  A. W. Lange,  Ka Un Lao,  D. S. Levine,  Jie Liu,  
 S. C. McKenzie,  A. F. Morrison,  K. Nanda,  F. Plasser,  D. R. Rehn,  
 M. L. Vidal,  Zhi-Qiang You,  Ying Zhu,  B. Alam,  B. Albrecht,  
 A. Aldossary,  E. Alguire,  J. H. Andersen,  D. Barton,  K. Begam,  A. Behn,  
 Y. A. Bernard,  E. J. Berquist,  H. Burton,  A. Carreras,  K. Carter-Fenk,  
 R. Chakraborty,  A. D. Chien,  K. D. Closser,  V. Cofer-Shabica,  
 S. Dasgupta,  Jia Deng,  M. de Wergifosse,  M. Diedenhofen,  Hainam Do,  
 S. Ehlert,  Po-Tung Fang,  S. Fatehi,  Qingguo Feng,  J. Gayvert,  
 Qinghui Ge,  G. Gidofalvi,  M. Goldey,  J. Gomes,  C. Gonzalez-Espinoza,  
 S. Gulania,  A. Gunina,  M. W. D. Hanson-Heine,  P. H. P. Harbach,  
 A. W. Hauser,  M. F. Herbst,  M. Hernandez Vera,  M. Hodecker,  
 Z. C. Holden,  S. Houck,  Xunkun Huang,  Kerwin Hui,  B. C. Huynh,  
 M. Ivanov,  Hyunjun Ji,  Hanjie Jiang,  B. Kaduk,  S. Kaehler,  
 K. Khistyaev,  Jaehoon Kim,  P. Klunzinger,  Z. Koczor-Benda,  
 Joong Hoon Koh,  D. Kosenkov,  L. Koulias,  T. Kowalczyk,  C. M. Krauter,  
 K. Kue,  A. Kunitsa,  T. Kus,  A. Landau,  K. V. Lawler,  D. Lefrancois,  
 S. Lehtola,  Rain Li,  Yi-Pei Li,  Jiashu Liang,  M. Liebenthal,  
 Hung-Hsuan Lin,  You-Sheng Lin,  Fenglai Liu,  Kuan-Yu Liu,  
 M. Loipersberger,  A. Luenser,  A. Manjanath,  P. Manohar,  E. Mansoor,  
 S. F. Manzer,  Shan-Ping Mao,  A. V. Marenich,  T. Markovich,  S. Mason,  
 S. A. Maurer,  P. F. McLaughlin,  M. F. S. J. Menger,  J.-M. Mewes,  
 S. A. Mewes,  P. Morgante,  J. W. Mullinax,  T. S. Nguyen-Beck,  
 K. J. Oosterbaan,  G. Paran,  Alexander C. Paul,  Suranjan K. Paul,  
 F. Pavosevic,  Zheng Pei,  S. Prager,  E. I. Proynov,  E. Ramos,  B. Rana,  
 A. E. Rask,  A. Rettig,  R. M. Richard,  F. Rob,  E. Rossomme,  T. Scheele,  
 M. Scheurer,  M. Schneider,  N. Sergueev,  S. M. Sharada,  W. Skomorowski,  
 D. W. Small,  C. J. Stein,  Yu-Chuan Su,  E. J. Sundstrom,  Zhen Tao,  
 J. Thirman,  T. Tsuchimochi,  N. M. Tubman,  S. P. Veccham,  O. Vydrov,  
 J. Wenzel,  J. Witte,  A. Yamada,  Kun Yao,  S. Yeganeh,  S. R. Yost,  
 A. Zech,  Igor Ying Zhang,  Xing Zhang,  Yu Zhang,  D. Zuev,  
 A. Aspuru-Guzik,  A. T. Bell,  N. A. Besley,  K. B. Bravaya,  B. R. Brooks,  
 D. Casanova,  Jeng-Da Chai,  S. Coriani,  C. J. Cramer,  
 A. E. DePrince, III,  R. A. DiStasio Jr.,  A. Dreuw,  B. D. Dunietz,  
 T. R. Furlani,  W. A. Goddard III,  S. Grimme,  S. Hammes-Schiffer,  
 T. Head-Gordon,  W. J. Hehre,  Chao-Ping Hsu,  T.-C. Jagau,  Yousung Jung,  
 A. Klamt,  Jing Kong,  D. S. Lambrecht,  WanZhen Liang,  N. J. Mayhall,  
 C. W. McCurdy,  J. B. Neaton,  C. Ochsenfeld,  J. A. Parkhill,  R. Peverati,  
 V. A. Rassolov,  Yihan Shao,  L. V. Slipchenko,  T. Stauch,  R. P. Steele,  
 J. E. Subotnik,  A. J. W. Thom,  A. Tkatchenko,  D. G. Truhlar,  
 T. Van Voorhis,  T. A. Wesolowski,  K. B. Whaley,  H. L. Woodcock III,  
 P. M. Zimmerman,  S. Faraji,  P. M. W. Gill,  M. Head-Gordon,  
 J. M. Herbert,  A. I. Krylov

 Contributors to earlier versions of Q-Chem not listed above: 
 R. D. Adamson,  B. Austin,  R. Baer,  J. Baker,  G. J. O. Beran,  
 K. Brandhorst,  S. T. Brown,  E. F. C. Byrd,  A. K. Chakraborty,  
 G. K. L. Chan,  Chun-Min Chang,  Yunqing Chen,  C.-L. Cheng,  
 Siu Hung Chien,  D. M. Chipman,  D. L. Crittenden,  H. Dachsel,  
 R. J. Doerksen,  A. D. Dutoi,  R. G. Edgar,  J. Fosso-Tande,  
 L. Fusti-Molnar,  D. Ghosh,  A. Ghysels,  A. Golubeva-Zadorozhnaya,  
 J. Gonthier,  M. S. Gordon,  S. R. Gwaltney,  G. Hawkins,  J. E. Herr,  
 A. Heyden,  S. Hirata,  E. G. Hohenstein,  G. Kedziora,  F. J. Keil,  
 C. Kelley,  Jihan Kim,  R. A. King,  R. Z. Khaliullin,  P. P. Korambath,  
 W. Kurlancheek,  A. Laurent,  A. M. Lee,  M. S. Lee,  S. V. Levchenko,  
 Ching Yeh Lin,  D. Liotard,  E. Livshits,  R. C. Lochan,  I. Lotan,  
 L. A. Martinez-Martinez,  P. E. Maslen,  N. Nair,  D. P. O'Neill,  
 D. Neuhauser,  E. Neuscamman,  C. M. Oana,  R. Olivares-Amaya,  R. Olson,  
 T. M. Perrine,  B. Peters,  P. A. Pieniazek,  A. Prociuk,  Y. M. Rhee,  
 J. Ritchie,  M. A. Rohrdanz,  E. Rosta,  N. J. Russ,  H. F. Schaefer III,  
 M. W. Schmidt,  N. E. Schultz,  S. Sharma,  N. Shenvi,  C. D. Sherrill,  
 A. C. Simmonett,  A. Sodt,  T. Stein,  D. Stuck,  K. S. Thanthiriwatte,  
 V. Vanovschi,  L. Vogt,  Tao Wang,  A. Warshel,  M. A. Watson,  
 C. F. Williams,  Q. Wu,  X. Xu,  Jun Yang,  W. Zhang,  Yan Zhao

 Please cite Q-Chem as follows:
 Y. Shao et al., Mol. Phys. 113, 184-215 (2015)
 DOI: 10.1080/00268976.2014.952696

 Q-Chem 5.4.0 for Intel X86 EM64T Linux

 Parts of Q-Chem use Armadillo 9.800.1 (Horizon Scraper).
 http://arma.sourceforge.net/

 Q-Chem begins on Tue Jan  9 12:08:09 2024  

 Host: 
0

     Scratch files written to ./qchem1991768//
 May1621 |scratch|qcdevops|jenkins|workspace|build_RNUM    
 Parallel job on  1  processors
 Processing $rem in /cm/shared/apps/spack/cpu/opt/spack/linux-centos8-zen2/gcc-10.2.0/qchem-5.4-akfmr7b3t57bfs6qan3padb2wnb2i7cl/config/preferences:
 Processing $rem in /home/rramji/.qchemrc:
 Symmetry turned off for PCM/SM12/SMD calculation
 Core orbitals will be frozen

 Checking the input file for inconsistencies... 	...done.

 Q-Chem warning in module forms1/BasisType.C, line 2236:

 You are not using the predefined 5D/6D in this basis set.


--------------------------------------------------------------
User input:
--------------------------------------------------------------
$molecule
0 1
C	0.320589	-8.517702	-0.014560
C	-0.737240	-7.641575	0.180211
S	1.842356	-7.638634	-0.299553
C	-0.366488	-6.264785	0.114873
H	-1.768528	-7.966081	0.368061
C	1.038637	-6.072714	-0.131236
C	1.588197	-4.787049	-0.253435
C	-1.258831	-5.162801	0.249014
C	-0.709695	-3.874817	0.122513
C	0.697430	-3.683952	-0.121043
O	-2.553323	-5.499772	0.505933
O	2.888369	-4.459055	-0.512697
C	3.927625	-5.329063	-0.080869
H	4.869656	-4.755694	-0.173159
H	4.007459	-6.238095	-0.716363
H	3.789565	-5.637262	0.978072
C	-3.600064	-4.572261	0.246949
H	-4.544887	-5.139743	0.344574
H	-3.532074	-4.153131	-0.779898
H	-3.612378	-3.739531	0.983261
C	1.064246	-2.306654	-0.188009
S	-1.517360	-2.306501	0.278644
C	0.000000	-1.435185	0.000000
H	2.094685	-1.978138	-0.373017
C	0.000000	0.000000	0.000000
S	0.000474	0.904764	1.507541
C	-0.000295	2.477305	0.718873
C	0.000752	0.904447	-1.067872
C	-0.001560	2.294593	-0.686410
S	0.003602	0.660872	-2.805516
C	-0.001928	2.412546	-3.054530
C	-0.004381	3.120854	-1.862551
F	-0.009185	4.457503	-1.819088
C	-0.000038	2.860570	-4.456084
O	0.007944	2.090724	-5.406510
O	-0.007501	4.211092	-4.569225
C	-0.002278	4.706177	-5.916207
H	-0.009265	5.807207	-5.833064
H	-0.895381	4.352875	-6.470168
H	0.901521	4.363301	-6.459293
H	-0.001708	3.401562	1.306486
H	0.159475	-9.143623	-0.900177
H	0.483604	-9.149441	0.866566
H	-0.194856	-1.443175	-1.062246
$end

$rem
JOBTYPE		SP
EXCHANGE	HF
CORRELATION	pRIMP2
BASIS		cc-pvtz
METHOD		rimp2
AUX_BASIS	rimp2-cc-pvtz
SOLVENT_METHOD	PCM
PURECART	11111
SYMMETRY	false
MEM_TOTAL	110000
SCF_CONVERGENCE = 6
THRESH=10
GUI = 2
$end



$solvent
dielectric 4.90
$end
--------------------------------------------------------------
 ----------------------------------------------------------------
             Standard Nuclear Orientation (Angstroms)
    I     Atom           X                Y                Z
 ----------------------------------------------------------------
    1      C       0.3205890000    -8.5177020000    -0.0145600000
    2      C      -0.7372400000    -7.6415750000     0.1802110000
    3      S       1.8423560000    -7.6386340000    -0.2995530000
    4      C      -0.3664880000    -6.2647850000     0.1148730000
    5      H      -1.7685280000    -7.9660810000     0.3680610000
    6      C       1.0386370000    -6.0727140000    -0.1312360000
    7      C       1.5881970000    -4.7870490000    -0.2534350000
    8      C      -1.2588310000    -5.1628010000     0.2490140000
    9      C      -0.7096950000    -3.8748170000     0.1225130000
   10      C       0.6974300000    -3.6839520000    -0.1210430000
   11      O      -2.5533230000    -5.4997720000     0.5059330000
   12      O       2.8883690000    -4.4590550000    -0.5126970000
   13      C       3.9276250000    -5.3290630000    -0.0808690000
   14      H       4.8696560000    -4.7556940000    -0.1731590000
   15      H       4.0074590000    -6.2380950000    -0.7163630000
   16      H       3.7895650000    -5.6372620000     0.9780720000
   17      C      -3.6000640000    -4.5722610000     0.2469490000
   18      H      -4.5448870000    -5.1397430000     0.3445740000
   19      H      -3.5320740000    -4.1531310000    -0.7798980000
   20      H      -3.6123780000    -3.7395310000     0.9832610000
   21      C       1.0642460000    -2.3066540000    -0.1880090000
   22      S      -1.5173600000    -2.3065010000     0.2786440000
   23      C       0.0000000000    -1.4351850000     0.0000000000
   24      H       2.0946850000    -1.9781380000    -0.3730170000
   25      C       0.0000000000     0.0000000000     0.0000000000
   26      S       0.0004740000     0.9047640000     1.5075410000
   27      C      -0.0002950000     2.4773050000     0.7188730000
   28      C       0.0007520000     0.9044470000    -1.0678720000
   29      C      -0.0015600000     2.2945930000    -0.6864100000
   30      S       0.0036020000     0.6608720000    -2.8055160000
   31      C      -0.0019280000     2.4125460000    -3.0545300000
   32      C      -0.0043810000     3.1208540000    -1.8625510000
   33      F      -0.0091850000     4.4575030000    -1.8190880000
   34      C      -0.0000380000     2.8605700000    -4.4560840000
   35      O       0.0079440000     2.0907240000    -5.4065100000
   36      O      -0.0075010000     4.2110920000    -4.5692250000
   37      C      -0.0022780000     4.7061770000    -5.9162070000
   38      H      -0.0092650000     5.8072070000    -5.8330640000
   39      H      -0.8953810000     4.3528750000    -6.4701680000
   40      H       0.9015210000     4.3633010000    -6.4592930000
   41      H      -0.0017080000     3.4015620000     1.3064860000
   42      H       0.1594750000    -9.1436230000    -0.9001770000
   43      H       0.4836040000    -9.1494410000     0.8665660000
   44      H      -0.1948560000    -1.4431750000    -1.0622460000
 ----------------------------------------------------------------
 Nuclear Repulsion Energy =        3328.75872304 hartrees
 There are      120 alpha and      120 beta electrons
 Requested basis set is cc-pVTZ
 There are 388 shells and 1096 basis functions

 Total QAlloc Memory Limit 110000 MB
 Mega-Array Size       188 MB
 MEM_STATIC part       192 MB
 Discretize the solute cavity surface with Lebedev spheres
	Using 110 Lebedev grid points for each H atom
	Using 194 Lebedev grid points for other atoms
	Atomic van der Waals radii will be scaled by 1.20
 Remove points where switching function is < 1.0e-08
 Keep 2967 surface tesserae and discard 4309 interior tesserae
 Molecular Surface Area = 446.194 Angst**2
 Requested basis set is rimp2-cc-pVTZ
 There are 853 shells and 2963 basis functions
 A cutoff of  1.0D-10 yielded  32873 shell pairs
 There are    248469 function pairs (    321583 Cartesian)
 Smallest overlap matrix eigenvalue = 2.21E-05

 Scale SEOQF with 1.000000e-01/1.000000e-02/1.000000e-02

 Standard Electronic Orientation quadrupole field applied
 Nucleus-field energy     =     0.0000000403 hartrees
 Guess from superposition of atomic densities
 Warning:  Energy on first SCF cycle will be non-variational
 SAD guess density has 240.000000 electrons

 -----------------------------------------------------------------------
  General SCF calculation program by
  Eric Jon Sundstrom, Paul Horn, Yuezhi Mao, Dmitri Zuev, Alec White,
  David Stuck, Shaama M.S., Shane Yost, Joonho Lee, David Small,
  Daniel Levine, Susi Lehtola, Hugh Burton, Evgeny Epifanovsky,
  Bang C. Huynh
 -----------------------------------------------------------------------
 Hartree-Fock
 using 64 threads for integral computing
 -------------------------------------------------------
 OpenMP Integral computing Module                
 Release: version 1.0, May 2013, Q-Chem Inc. Pittsburgh 
 -------------------------------------------------------
 A restricted SCF calculation will be
 performed using DIIS
 SCF converges when DIIS error is below 1.0e-06
 ---------------------------------------
  Cycle       Energy         DIIS error
 ---------------------------------------
    1   -2767.0163730300      1.75e-02  
    2   -2754.9002324712      1.53e-03  
    3   -2755.2476674972      8.51e-04  
    4   -2755.3333024834      2.56e-04  
    5   -2755.3466597003      7.29e-05  
    6   -2755.3481002765      2.52e-05  
    7   -2755.3484606226      1.30e-05  
    8   -2755.3485747639      5.37e-06  
    9   -2755.3486011539      2.65e-06  
   10   -2755.3486071939      1.37e-06  
   11   -2755.3486090383      6.80e-07  Convergence criterion met
 ---------------------------------------
 SCF time:   CPU 7609.69s  wall 276.00s 

************** Final PCM Free Energy Summary **************
 G_electrostatic  =      -0.02058300 hartree =     -12.91602475 kcal/mol
 G_cavitation     =       0.00000000 hartree =       0.00000000 kcal/mol
 G_dispersion     =       0.00000000 hartree =       0.00000000 kcal/mol
 G_repulsion      =       0.00000000 hartree =       0.00000000 kcal/mol
 --------------------------------------------------
 Non-electrostatic Free Energy =       0.00000000 hartree =       0.00000000 kcal/mol
 Total                         =      -0.02058300 hartree =     -12.91602475 kcal/mol
 --------------------------------------------------
 SCF Energy (H0 + V/2)                       =   -2755.34860904 
 Solute Internal Energy (H0)                 =   -2755.32802604 
 Total Free Energy (H0 + V/2 + non-elec)     =   -2755.34860904 hartree
                                             = -1729007.34807819 kcal/mol
***********************************************************

 SCF   energy in the final basis set =    -2755.3486090383
 Total energy in the final basis set =    -2755.3486090383


 --------------------------------------------------------------
  Generalized many-body perturbation theory program
  by Joonho Lee, Fazle Rob, Xintian Feng, Evgeny Epifanovsky

 No regularization used 
 (reg. param. = 0.0000e+00)
  (P|Q)^-1/2 Time:  CPU 136.16 s  wall 2.55 s

 In RI-MP2 calculation: 
 # of frozen core orbitals: 45

 Components of the RIMP2 correlation energy:
        aaaa    correlation energy =        -0.6684527922 a.u.
        abab    correlation energy =        -3.7504998872 a.u.
        bbbb    correlation energy =        -0.6684527922 a.u.
        non-Brillouin singles      =        -0.0000000000 a.u.
        total same-spin energy     =        -1.3369055843 a.u.
        total opposite-spin energy =        -3.7504998872 a.u.

 Total  RIMP2   correlation energy =        -5.0874054715 a.u.
        RIMP2         total energy =     -2760.4360145098 a.u.

 RI-MP2 Energy Time:  CPU 2928.50 s  wall 47.65 s
 
 --------------------------------------------------------------
 
                    Orbital Energies (a.u.)
 --------------------------------------------------------------
 
 Alpha MOs
 -- Occupied --
-92.0115 -92.0000 -91.9774 -91.9581 -26.3445 -20.6153 -20.5871 -20.5868
-20.5618 -11.4101 -11.3841 -11.3111 -11.3089 -11.3071 -11.3040 -11.3017
-11.2986 -11.2892 -11.2851 -11.2843 -11.2827 -11.2827 -11.2804 -11.2727
-11.2716 -11.2581 -11.2574 -11.2496 -11.2368  -9.0104  -9.0002  -8.9796
 -8.9607  -6.6912  -6.6906  -6.6901  -6.6812  -6.6805  -6.6794  -6.6607
 -6.6598  -6.6585  -6.6419  -6.6410  -6.6399  -1.6614  -1.4678  -1.4103
 -1.4088  -1.3705  -1.2295  -1.2025  -1.1733  -1.1369  -1.1008  -1.0465
 -1.0455  -1.0234  -1.0035  -0.9970  -0.9625  -0.9589  -0.9484  -0.9412
 -0.8932  -0.8711  -0.8649  -0.8129  -0.7961  -0.7900  -0.7846  -0.7680
 -0.7588  -0.7354  -0.7262  -0.7101  -0.7010  -0.6949  -0.6853  -0.6797
 -0.6744  -0.6650  -0.6555  -0.6485  -0.6350  -0.6305  -0.6199  -0.6148
 -0.6115  -0.5990  -0.5921  -0.5776  -0.5704  -0.5651  -0.5577  -0.5538
 -0.5480  -0.5316  -0.5313  -0.5260  -0.5129  -0.5086  -0.5071  -0.5016
 -0.4854  -0.4811  -0.4763  -0.4746  -0.4707  -0.4679  -0.4607  -0.4462
 -0.4223  -0.4010  -0.3852  -0.3700  -0.3505  -0.3021  -0.2893  -0.2209
 -- Virtual --
  0.0348   0.0525   0.1080   0.1260   0.1390   0.1463   0.1504   0.1548
  0.1568   0.1599   0.1690   0.1783   0.1833   0.1857   0.1902   0.1927
  0.2010   0.2045   0.2065   0.2121   0.2147   0.2207   0.2242   0.2275
  0.2293   0.2341   0.2384   0.2434   0.2502   0.2545   0.2625   0.2679
  0.2728   0.2961   0.3036   0.3246   0.3312   0.3322   0.3377   0.3429
  0.3464   0.3570   0.3594   0.3645   0.3677   0.3774   0.3836   0.3842
  0.3868   0.3922   0.3981   0.3990   0.4021   0.4107   0.4181   0.4209
  0.4251   0.4279   0.4322   0.4342   0.4394   0.4428   0.4452   0.4482
  0.4542   0.4587   0.4620   0.4663   0.4695   0.4750   0.4781   0.4798
  0.4887   0.4962   0.4989   0.5003   0.5045   0.5095   0.5128   0.5172
  0.5224   0.5277   0.5315   0.5344   0.5415   0.5441   0.5461   0.5465
  0.5514   0.5538   0.5558   0.5581   0.5626   0.5705   0.5733   0.5797
  0.5817   0.5832   0.5854   0.5943   0.6004   0.6053   0.6090   0.6109
  0.6139   0.6146   0.6192   0.6208   0.6222   0.6233   0.6272   0.6290
  0.6332   0.6384   0.6429   0.6463   0.6479   0.6501   0.6534   0.6551
  0.6606   0.6656   0.6732   0.6786   0.6841   0.6851   0.6941   0.6972
  0.6988   0.7077   0.7118   0.7132   0.7178   0.7216   0.7242   0.7410
  0.7423   0.7510   0.7577   0.7607   0.7653   0.7735   0.7748   0.7816
  0.7901   0.7961   0.8035   0.8101   0.8110   0.8171   0.8230   0.8252
  0.8295   0.8378   0.8441   0.8511   0.8596   0.8645   0.8707   0.8735
  0.8792   0.8824   0.8885   0.8906   0.8945   0.9006   0.9023   0.9142
  0.9173   0.9215   0.9334   0.9372   0.9417   0.9457   0.9506   0.9533
  0.9589   0.9645   0.9689   0.9726   0.9746   0.9820   0.9852   0.9892
  0.9938   1.0022   1.0055   1.0066   1.0126   1.0198   1.0219   1.0295
  1.0350   1.0419   1.0444   1.0482   1.0542   1.0585   1.0623   1.0659
  1.0758   1.0800   1.0840   1.0902   1.0956   1.0999   1.1022   1.1090
  1.1106   1.1118   1.1157   1.1214   1.1276   1.1350   1.1433   1.1508
  1.1534   1.1570   1.1610   1.1680   1.1689   1.1721   1.1777   1.1816
  1.1852   1.1884   1.1969   1.1994   1.2073   1.2125   1.2134   1.2169
  1.2221   1.2265   1.2312   1.2378   1.2427   1.2464   1.2494   1.2554
  1.2598   1.2650   1.2660   1.2665   1.2800   1.2821   1.2864   1.2917
  1.2937   1.3025   1.3031   1.3146   1.3252   1.3302   1.3329   1.3390
  1.3545   1.3559   1.3627   1.3743   1.3783   1.3853   1.3936   1.3992
  1.4090   1.4107   1.4188   1.4193   1.4262   1.4404   1.4479   1.4567
  1.4581   1.4652   1.4732   1.4774   1.4891   1.4926   1.4949   1.5024
  1.5066   1.5082   1.5118   1.5159   1.5206   1.5336   1.5373   1.5386
  1.5406   1.5439   1.5457   1.5533   1.5554   1.5635   1.5704   1.5779
  1.5870   1.5973   1.6002   1.6016   1.6138   1.6211   1.6318   1.6345
  1.6440   1.6520   1.6580   1.6632   1.6677   1.6766   1.6839   1.6895
  1.6926   1.6959   1.7060   1.7118   1.7140   1.7222   1.7378   1.7487
  1.7561   1.7617   1.7798   1.7808   1.7932   1.7992   1.8069   1.8176
  1.8192   1.8236   1.8297   1.8445   1.8507   1.8621   1.8673   1.8740
  1.8779   1.8890   1.9008   1.9133   1.9187   1.9258   1.9306   1.9410
  1.9450   1.9470   1.9548   1.9697   1.9750   1.9866   1.9912   2.0002
  2.0054   2.0098   2.0195   2.0242   2.0342   2.0408   2.0463   2.0479
  2.0601   2.0737   2.0805   2.0892   2.0942   2.1006   2.1132   2.1213
  2.1372   2.1409   2.1566   2.1642   2.1736   2.1786   2.1915   2.1937
  2.1961   2.2005   2.2071   2.2185   2.2225   2.2318   2.2386   2.2464
  2.2496   2.2520   2.2578   2.2675   2.2708   2.2784   2.2914   2.2983
  2.3063   2.3091   2.3205   2.3289   2.3401   2.3506   2.3573   2.3611
  2.3667   2.3734   2.3921   2.4004   2.4006   2.4142   2.4175   2.4201
  2.4332   2.4471   2.4510   2.4619   2.4719   2.4817   2.4852   2.4923
  2.5048   2.5119   2.5152   2.5336   2.5399   2.5442   2.5504   2.5602
  2.5663   2.5748   2.6003   2.6022   2.6190   2.6224   2.6231   2.6263
  2.6272   2.6331   2.6411   2.6448   2.6495   2.6534   2.6667   2.6709
  2.6789   2.6801   2.6859   2.6928   2.6973   2.7023   2.7049   2.7146
  2.7172   2.7245   2.7336   2.7442   2.7489   2.7601   2.7621   2.7733
  2.7813   2.7866   2.7894   2.8008   2.8035   2.8118   2.8153   2.8172
  2.8310   2.8411   2.8461   2.8524   2.8621   2.8663   2.8688   2.8740
  2.8801   2.8834   2.8941   2.9041   2.9141   2.9194   2.9240   2.9351
  2.9475   2.9539   2.9603   2.9626   2.9744   2.9793   2.9846   2.9881
  2.9903   2.9972   3.0156   3.0177   3.0230   3.0292   3.0384   3.0452
  3.0499   3.0614   3.0699   3.0784   3.0865   3.0898   3.0941   3.0961
  3.1026   3.1059   3.1107   3.1217   3.1309   3.1314   3.1324   3.1416
  3.1437   3.1467   3.1548   3.1609   3.1659   3.1698   3.1763   3.1807
  3.1849   3.1889   3.1997   3.2081   3.2146   3.2160   3.2217   3.2243
  3.2332   3.2418   3.2440   3.2488   3.2554   3.2594   3.2620   3.2646
  3.2693   3.2723   3.2742   3.2817   3.2846   3.2943   3.2957   3.2983
  3.3071   3.3088   3.3125   3.3144   3.3267   3.3279   3.3403   3.3427
  3.3447   3.3496   3.3530   3.3547   3.3613   3.3637   3.3656   3.3676
  3.3727   3.3811   3.3824   3.3993   3.4002   3.4014   3.4037   3.4070
  3.4095   3.4150   3.4180   3.4267   3.4300   3.4312   3.4376   3.4482
  3.4496   3.4560   3.4578   3.4593   3.4656   3.4665   3.4772   3.4799
  3.4845   3.4867   3.4965   3.4987   3.5048   3.5120   3.5247   3.5295
  3.5386   3.5407   3.5489   3.5565   3.5602   3.5675   3.5704   3.5737
  3.5807   3.5853   3.5903   3.5922   3.5993   3.6058   3.6134   3.6161
  3.6178   3.6195   3.6253   3.6297   3.6352   3.6367   3.6421   3.6527
  3.6575   3.6672   3.6755   3.6790   3.6846   3.6858   3.6889   3.6933
  3.7005   3.7032   3.7055   3.7112   3.7153   3.7185   3.7221   3.7283
  3.7372   3.7419   3.7484   3.7557   3.7594   3.7633   3.7715   3.7746
  3.7862   3.7908   3.7938   3.7985   3.8026   3.8077   3.8136   3.8169
  3.8188   3.8212   3.8253   3.8339   3.8447   3.8480   3.8571   3.8605
  3.8631   3.8643   3.8749   3.8787   3.8798   3.8856   3.8937   3.8957
  3.9097   3.9185   3.9253   3.9340   3.9384   3.9487   3.9554   3.9601
  3.9669   3.9754   3.9769   3.9879   3.9889   3.9990   4.0036   4.0106
  4.0160   4.0248   4.0386   4.0459   4.0491   4.0595   4.0653   4.0669
  4.0678   4.0746   4.0852   4.0925   4.1062   4.1134   4.1151   4.1248
  4.1348   4.1426   4.1486   4.1543   4.1652   4.1660   4.1697   4.1722
  4.1770   4.1811   4.1919   4.2058   4.2112   4.2162   4.2190   4.2376
  4.2430   4.2469   4.2507   4.2675   4.2765   4.2821   4.2871   4.3022
  4.3136   4.3217   4.3355   4.3414   4.3456   4.3488   4.3522   4.3569
  4.3623   4.3684   4.3755   4.3831   4.3944   4.4043   4.4113   4.4159
  4.4215   4.4268   4.4281   4.4307   4.4335   4.4405   4.4474   4.4573
  4.4600   4.4736   4.4870   4.4890   4.5084   4.5184   4.5213   4.5306
  4.5350   4.5357   4.5588   4.5642   4.5698   4.5719   4.5744   4.5813
  4.5882   4.6060   4.6093   4.6232   4.6340   4.6425   4.6469   4.6545
  4.6644   4.6672   4.6753   4.7003   4.7038   4.7182   4.7238   4.7288
  4.7443   4.7464   4.7693   4.7766   4.7800   4.7911   4.8038   4.8163
  4.8230   4.8330   4.8494   4.8552   4.8640   4.8815   4.8853   4.8922
  4.9101   4.9239   4.9315   4.9363   4.9466   4.9524   4.9646   4.9709
  4.9885   4.9908   5.0084   5.0087   5.0129   5.0195   5.0413   5.0472
  5.0625   5.0790   5.0939   5.1171   5.1239   5.1252   5.1430   5.1641
  5.1768   5.1948   5.2026   5.2099   5.2205   5.2375   5.2510   5.2520
  5.2577   5.2637   5.2742   5.2848   5.2946   5.3078   5.3204   5.3270
  5.3392   5.3450   5.3502   5.3667   5.3718   5.3887   5.3925   5.4020
  5.4082   5.4257   5.4264   5.4423   5.4516   5.4846   5.4923   5.5045
  5.5118   5.5129   5.5245   5.5336   5.5645   5.5693   5.5809   5.5853
  5.5951   5.6107   5.6195   5.6211   5.6429   5.6638   5.6913   5.6994
  5.7176   5.7442   5.7584   5.7657   5.7955   5.8070   5.8410   5.8516
  5.8594   5.8816   5.9024   5.9146   5.9286   5.9565   5.9822   6.0042
  6.0395   6.0432   6.0913   6.1241   6.1501   6.1541   6.1724   6.1771
  6.1818   6.2017   6.2312   6.2463   6.2610   6.2635   6.2741   6.2854
  6.2982   6.3130   6.3404   6.3791   6.4374   6.4496   6.4875   6.5381
  6.5463   6.5692   6.6027   6.6464   6.6606   6.6706   6.7140   6.7458
  6.8073   6.8295   6.8565   6.8589   6.8989   6.9779   7.1309   7.1469
  7.2034   7.2073   7.2221   7.2396   7.3093   7.3268   7.3420   7.3622
  7.3634   7.4063   7.4128   7.4846   7.4864   7.4970   7.5238   7.5517
  7.6162   7.7394   7.7719   7.7896   7.8028   7.9008   7.9268   7.9558
  7.9755   8.1336   8.3142   8.5317   8.9208   9.0247   9.3618   9.4797
  9.6756  10.2050  11.1733  11.4416  11.7522  11.9361  12.1211  12.3596
 12.4165  12.4907  12.9198  12.9976  13.0570  13.3089  13.3848  13.4815
 13.7210  13.7943  13.8770  13.9459  14.0329  14.3120  14.9079  15.2024
 --------------------------------------------------------------
 
          Ground-State Mulliken Net Atomic Charges

     Atom                 Charge (a.u.)
  ----------------------------------------
      1 C                    -0.070328
      2 C                    -0.259494
      3 S                    -0.135523
      4 C                    -0.043716
      5 H                     0.193407
      6 C                    -0.052739
      7 C                     0.227645
      8 C                     0.226310
      9 C                    -0.079398
     10 C                    -0.064079
     11 O                    -0.335142
     12 O                    -0.343192
     13 C                    -0.082706
     14 H                     0.120064
     15 H                     0.092178
     16 H                     0.092577
     17 C                    -0.086601
     18 H                     0.122931
     19 H                     0.092849
     20 H                     0.090281
     21 C                    -0.233386
     22 S                    -0.070235
     23 C                     0.060948
     24 H                     0.205834
     25 C                    -0.091400
     26 S                     0.088712
     27 C                    -0.179202
     28 C                     0.020736
     29 C                    -0.112945
     30 S                     0.000350
     31 C                    -0.159568
     32 C                     0.399563
     33 F                    -0.205846
     34 C                     0.444132
     35 O                    -0.461287
     36 O                    -0.300748
     37 C                    -0.058655
     38 H                     0.121526
     39 H                     0.095261
     40 H                     0.095185
     41 H                     0.217484
     42 H                     0.117420
     43 H                     0.114949
     44 H                     0.185848
  ----------------------------------------
  Sum of atomic charges =     0.000000

 -----------------------------------------------------------------
                    Cartesian Multipole Moments
 -----------------------------------------------------------------
    Charge (ESU x 10^10)
                -0.0000
    Dipole Moment (Debye)
         X      -0.2227      Y       2.9420      Z       2.4104
       Tot       3.8098
    Quadrupole Moments (Debye-Ang)
        XX    -183.8302     XY       3.7616     YY    -174.5884
        XZ       2.9410     YZ      -8.3620     ZZ    -206.0429
    Octopole Moments (Debye-Ang^2)
       XXX     -49.9563    XXY     294.3014    XYY     -46.8730
       YYY     968.8047    XXZ     178.1829    XYZ     -14.9981
       YYZ     119.5797    XZZ     -19.7197    YZZ     472.0816
       ZZZ     554.1990
    Hexadecapole Moments (Debye-Ang^3)
      XXXX   -2314.8499   XXXY     547.8714   XXYY   -4014.8494
      XYYY     820.8709   YYYY  -20462.4266   XXXZ     129.4845
      XXYZ     507.9516   XYYZ     123.0860   YYYZ    1146.2632
      XXZZ   -1366.3977   XYZZ     199.3433   YYZZ   -4199.7846
      XZZZ     146.2177   YZZZ    1016.2350   ZZZZ   -5471.6421
 -----------------------------------------------------------------
 Total job time:  332.33s(wall), 10636.71s(cpu) 
 Tue Jan  9 12:13:41 2024

        *************************************************************
        *                                                           *
        *  Thank you very much for using Q-Chem.  Have a nice day.  *
        *                                                           *
        *************************************************************


0 sent ACK to 0 
now end server 0 ... 
cleanup process ... done
remove work dirs ./qchem1991768.0 -- ./qchem1991768.0
rm -rf ./qchem1991768.0
rm -rf ./qchem1991768
