You are running Q-Chem version: 5.4.0

#
# job setting
#
local host:  exp-14-17
current dir: /home/rramji/project-csd799/aromodel/ptb7fout-qchem/hydrogenated-rotation-run
input file:  Dimethoxy_Benzodithiophene_Phi_40_Theta_350_Methylcarbonyl_3_Fluoro_Thienothiophene_Hydrogenated.qcin
output file: 
nprocs     : 1
nthreads   : 64
#
# qchem installation setting
#
QC:          /cm/shared/apps/spack/cpu/opt/spack/linux-centos8-zen2/gcc-10.2.0/qchem-5.4-akfmr7b3t57bfs6qan3padb2wnb2i7cl
QCAUX:       /cm/shared/apps/spack/cpu/opt/spack/linux-centos8-zen2/gcc-10.2.0/qchem-5.4-akfmr7b3t57bfs6qan3padb2wnb2i7cl/qcaux
QCPROG:      /cm/shared/apps/spack/cpu/opt/spack/linux-centos8-zen2/gcc-10.2.0/qchem-5.4-akfmr7b3t57bfs6qan3padb2wnb2i7cl/exe/qcprog.exe
QCPROG_S:    /cm/shared/apps/spack/cpu/opt/spack/linux-centos8-zen2/gcc-10.2.0/qchem-5.4-akfmr7b3t57bfs6qan3padb2wnb2i7cl/exe/qcprog.exe_s
PARALLEL:    -DPARALLEL
QCMPI:       mpich
#
# qchem directory setting
#
qcrun:       qchem1976805
QCSCRATCH:   .
QCLOCALSCR:  
QCTMPDIR:    .
QCFILEPREF:  ./qchem1976805
QCSAVEDIR:   
workdirs:    ./qchem1976805
workdir0:    ./qchem1976805
partmpdirs =  
#
# parallel setting
#
QCRSH:           ssh
QCMPI:           mpich
QCMPIRUN:        /cm/shared/apps/spack/cpu/opt/spack/linux-centos8-zen2/gcc-10.2.0/qchem-5.4-akfmr7b3t57bfs6qan3padb2wnb2i7cl/bin/mpi/mpirun_qchem
QCMACHINEFILE:   ./qchem1976805/hostfile
exp-14-17

#
# env setting
#
exported envs:   QC QCAUX QCSCRATCH QCRUNNAME QCFILEPREF QCPROG QCPROG_S GUIFILE

Running Job 1 of 1 Dimethoxy_Benzodithiophene_Phi_40_Theta_350_Methylcarbonyl_3_Fluoro_Thienothiophene_Hydrogenated.qcin
qchem Dimethoxy_Benzodithiophene_Phi_40_Theta_350_Methylcarbonyl_3_Fluoro_Thienothiophene_Hydrogenated.qcin_1976805.0 ./qchem1976805/ 1
/cm/shared/apps/spack/cpu/opt/spack/linux-centos8-zen2/gcc-10.2.0/qchem-5.4-akfmr7b3t57bfs6qan3padb2wnb2i7cl/bin/mpi/mpirun_qchem -machinefile ./qchem1976805/hostfile -np 1 /cm/shared/apps/spack/cpu/opt/spack/linux-centos8-zen2/gcc-10.2.0/qchem-5.4-akfmr7b3t57bfs6qan3padb2wnb2i7cl/exe/qcprog.exe Dimethoxy_Benzodithiophene_Phi_40_Theta_350_Methylcarbonyl_3_Fluoro_Thienothiophene_Hydrogenated.qcin_1976805.0 ./qchem1976805/

Process 0 of 1 is on exp-14-17 - thread support 0
initial socket setup ...start
initial socket setup ...done 
now start server 0 ... 
                  Welcome to Q-Chem
     A Quantum Leap Into The Future Of Chemistry


 Q-Chem 5.4, Q-Chem, Inc., Pleasanton, CA (2021)

 License issued to: University of California, San Diego (site)

 E. Epifanovsky,  A. T. B. Gilbert,  Xintian Feng,  Joonho Lee,  Yuezhi Mao,  
 N. Mardirossian,  P. Pokhilko,  A. White,  M. Wormit,  M. P. Coons,  
 A. L. Dempwolff,  Zhengting Gan,  D. Hait,  P. R. Horn,  L. D. Jacobson,  
 I. Kaliman,  J. Kussmann,  A. W. Lange,  Ka Un Lao,  D. S. Levine,  Jie Liu,  
 S. C. McKenzie,  A. F. Morrison,  K. Nanda,  F. Plasser,  D. R. Rehn,  
 M. L. Vidal,  Zhi-Qiang You,  Ying Zhu,  B. Alam,  B. Albrecht,  
 A. Aldossary,  E. Alguire,  J. H. Andersen,  D. Barton,  K. Begam,  A. Behn,  
 Y. A. Bernard,  E. J. Berquist,  H. Burton,  A. Carreras,  K. Carter-Fenk,  
 R. Chakraborty,  A. D. Chien,  K. D. Closser,  V. Cofer-Shabica,  
 S. Dasgupta,  Jia Deng,  M. de Wergifosse,  M. Diedenhofen,  Hainam Do,  
 S. Ehlert,  Po-Tung Fang,  S. Fatehi,  Qingguo Feng,  J. Gayvert,  
 Qinghui Ge,  G. Gidofalvi,  M. Goldey,  J. Gomes,  C. Gonzalez-Espinoza,  
 S. Gulania,  A. Gunina,  M. W. D. Hanson-Heine,  P. H. P. Harbach,  
 A. W. Hauser,  M. F. Herbst,  M. Hernandez Vera,  M. Hodecker,  
 Z. C. Holden,  S. Houck,  Xunkun Huang,  Kerwin Hui,  B. C. Huynh,  
 M. Ivanov,  Hyunjun Ji,  Hanjie Jiang,  B. Kaduk,  S. Kaehler,  
 K. Khistyaev,  Jaehoon Kim,  P. Klunzinger,  Z. Koczor-Benda,  
 Joong Hoon Koh,  D. Kosenkov,  L. Koulias,  T. Kowalczyk,  C. M. Krauter,  
 K. Kue,  A. Kunitsa,  T. Kus,  A. Landau,  K. V. Lawler,  D. Lefrancois,  
 S. Lehtola,  Rain Li,  Yi-Pei Li,  Jiashu Liang,  M. Liebenthal,  
 Hung-Hsuan Lin,  You-Sheng Lin,  Fenglai Liu,  Kuan-Yu Liu,  
 M. Loipersberger,  A. Luenser,  A. Manjanath,  P. Manohar,  E. Mansoor,  
 S. F. Manzer,  Shan-Ping Mao,  A. V. Marenich,  T. Markovich,  S. Mason,  
 S. A. Maurer,  P. F. McLaughlin,  M. F. S. J. Menger,  J.-M. Mewes,  
 S. A. Mewes,  P. Morgante,  J. W. Mullinax,  T. S. Nguyen-Beck,  
 K. J. Oosterbaan,  G. Paran,  Alexander C. Paul,  Suranjan K. Paul,  
 F. Pavosevic,  Zheng Pei,  S. Prager,  E. I. Proynov,  E. Ramos,  B. Rana,  
 A. E. Rask,  A. Rettig,  R. M. Richard,  F. Rob,  E. Rossomme,  T. Scheele,  
 M. Scheurer,  M. Schneider,  N. Sergueev,  S. M. Sharada,  W. Skomorowski,  
 D. W. Small,  C. J. Stein,  Yu-Chuan Su,  E. J. Sundstrom,  Zhen Tao,  
 J. Thirman,  T. Tsuchimochi,  N. M. Tubman,  S. P. Veccham,  O. Vydrov,  
 J. Wenzel,  J. Witte,  A. Yamada,  Kun Yao,  S. Yeganeh,  S. R. Yost,  
 A. Zech,  Igor Ying Zhang,  Xing Zhang,  Yu Zhang,  D. Zuev,  
 A. Aspuru-Guzik,  A. T. Bell,  N. A. Besley,  K. B. Bravaya,  B. R. Brooks,  
 D. Casanova,  Jeng-Da Chai,  S. Coriani,  C. J. Cramer,  
 A. E. DePrince, III,  R. A. DiStasio Jr.,  A. Dreuw,  B. D. Dunietz,  
 T. R. Furlani,  W. A. Goddard III,  S. Grimme,  S. Hammes-Schiffer,  
 T. Head-Gordon,  W. J. Hehre,  Chao-Ping Hsu,  T.-C. Jagau,  Yousung Jung,  
 A. Klamt,  Jing Kong,  D. S. Lambrecht,  WanZhen Liang,  N. J. Mayhall,  
 C. W. McCurdy,  J. B. Neaton,  C. Ochsenfeld,  J. A. Parkhill,  R. Peverati,  
 V. A. Rassolov,  Yihan Shao,  L. V. Slipchenko,  T. Stauch,  R. P. Steele,  
 J. E. Subotnik,  A. J. W. Thom,  A. Tkatchenko,  D. G. Truhlar,  
 T. Van Voorhis,  T. A. Wesolowski,  K. B. Whaley,  H. L. Woodcock III,  
 P. M. Zimmerman,  S. Faraji,  P. M. W. Gill,  M. Head-Gordon,  
 J. M. Herbert,  A. I. Krylov

 Contributors to earlier versions of Q-Chem not listed above: 
 R. D. Adamson,  B. Austin,  R. Baer,  J. Baker,  G. J. O. Beran,  
 K. Brandhorst,  S. T. Brown,  E. F. C. Byrd,  A. K. Chakraborty,  
 G. K. L. Chan,  Chun-Min Chang,  Yunqing Chen,  C.-L. Cheng,  
 Siu Hung Chien,  D. M. Chipman,  D. L. Crittenden,  H. Dachsel,  
 R. J. Doerksen,  A. D. Dutoi,  R. G. Edgar,  J. Fosso-Tande,  
 L. Fusti-Molnar,  D. Ghosh,  A. Ghysels,  A. Golubeva-Zadorozhnaya,  
 J. Gonthier,  M. S. Gordon,  S. R. Gwaltney,  G. Hawkins,  J. E. Herr,  
 A. Heyden,  S. Hirata,  E. G. Hohenstein,  G. Kedziora,  F. J. Keil,  
 C. Kelley,  Jihan Kim,  R. A. King,  R. Z. Khaliullin,  P. P. Korambath,  
 W. Kurlancheek,  A. Laurent,  A. M. Lee,  M. S. Lee,  S. V. Levchenko,  
 Ching Yeh Lin,  D. Liotard,  E. Livshits,  R. C. Lochan,  I. Lotan,  
 L. A. Martinez-Martinez,  P. E. Maslen,  N. Nair,  D. P. O'Neill,  
 D. Neuhauser,  E. Neuscamman,  C. M. Oana,  R. Olivares-Amaya,  R. Olson,  
 T. M. Perrine,  B. Peters,  P. A. Pieniazek,  A. Prociuk,  Y. M. Rhee,  
 J. Ritchie,  M. A. Rohrdanz,  E. Rosta,  N. J. Russ,  H. F. Schaefer III,  
 M. W. Schmidt,  N. E. Schultz,  S. Sharma,  N. Shenvi,  C. D. Sherrill,  
 A. C. Simmonett,  A. Sodt,  T. Stein,  D. Stuck,  K. S. Thanthiriwatte,  
 V. Vanovschi,  L. Vogt,  Tao Wang,  A. Warshel,  M. A. Watson,  
 C. F. Williams,  Q. Wu,  X. Xu,  Jun Yang,  W. Zhang,  Yan Zhao

 Please cite Q-Chem as follows:
 Y. Shao et al., Mol. Phys. 113, 184-215 (2015)
 DOI: 10.1080/00268976.2014.952696

 Q-Chem 5.4.0 for Intel X86 EM64T Linux

 Parts of Q-Chem use Armadillo 9.800.1 (Horizon Scraper).
 http://arma.sourceforge.net/

 Q-Chem begins on Tue Jan  9 13:05:19 2024  

 Host: 
0

     Scratch files written to ./qchem1976805//
 May1621 |scratch|qcdevops|jenkins|workspace|build_RNUM    
 Parallel job on  1  processors
 Processing $rem in /cm/shared/apps/spack/cpu/opt/spack/linux-centos8-zen2/gcc-10.2.0/qchem-5.4-akfmr7b3t57bfs6qan3padb2wnb2i7cl/config/preferences:
 Processing $rem in /home/rramji/.qchemrc:
 Symmetry turned off for PCM/SM12/SMD calculation
 Core orbitals will be frozen

 Checking the input file for inconsistencies... 	...done.

 Q-Chem warning in module forms1/BasisType.C, line 2236:

 You are not using the predefined 5D/6D in this basis set.


--------------------------------------------------------------
User input:
--------------------------------------------------------------
$molecule
0 1
C	0.014560	-8.517702	0.320589
C	-0.180211	-7.641575	-0.737240
S	0.299553	-7.638634	1.842356
C	-0.114873	-6.264785	-0.366488
H	-0.368061	-7.966081	-1.768528
C	0.131236	-6.072714	1.038637
C	0.253435	-4.787049	1.588197
C	-0.249014	-5.162801	-1.258831
C	-0.122513	-3.874817	-0.709695
C	0.121043	-3.683952	0.697430
O	-0.505933	-5.499772	-2.553323
O	0.512697	-4.459055	2.888369
C	0.080869	-5.329063	3.927625
H	0.173159	-4.755694	4.869656
H	0.716363	-6.238095	4.007459
H	-0.978072	-5.637262	3.789565
C	-0.246949	-4.572261	-3.600064
H	-0.344574	-5.139743	-4.544887
H	0.779898	-4.153131	-3.532074
H	-0.983261	-3.739531	-3.612378
C	0.188009	-2.306654	1.064246
S	-0.278644	-2.306501	-1.517360
C	-0.000000	-1.435185	-0.000000
H	0.373017	-1.978138	2.094685
C	0.000000	0.000000	0.000000
S	0.581934	0.692785	1.507541
C	1.592155	1.897915	0.718873
C	0.581944	0.692363	-1.067872
C	1.473741	1.758764	-0.686410
S	0.427560	0.503942	-2.805516
C	1.549278	1.849357	-3.054530
C	2.002690	2.393529	-1.862551
F	2.858191	3.420549	-1.819088
C	1.838710	2.191348	-4.456084
O	1.349977	1.596481	-5.406510
O	2.701091	3.230705	-4.569225
C	3.023327	3.606605	-5.916207
H	3.725703	4.454534	-5.833064
H	2.112072	3.910035	-6.470168
H	3.495281	2.762996	-6.459293
H	2.185174	2.606846	1.306486
H	0.900177	-9.143623	0.159475
H	-0.866566	-9.149441	0.483604
H	1.062246	-1.443175	-0.194856
$end

$rem
JOBTYPE		SP
EXCHANGE	HF
CORRELATION	pRIMP2
BASIS		cc-pvtz
METHOD		rimp2
AUX_BASIS	rimp2-cc-pvtz
SOLVENT_METHOD	PCM
PURECART	11111
SYMMETRY	false
MEM_TOTAL	110000
SCF_CONVERGENCE = 6
THRESH=10
GUI = 2
$end



$solvent
dielectric 4.90
$end
--------------------------------------------------------------
 ----------------------------------------------------------------
             Standard Nuclear Orientation (Angstroms)
    I     Atom           X                Y                Z
 ----------------------------------------------------------------
    1      C       0.0145600000    -8.5177020000     0.3205890000
    2      C      -0.1802110000    -7.6415750000    -0.7372400000
    3      S       0.2995530000    -7.6386340000     1.8423560000
    4      C      -0.1148730000    -6.2647850000    -0.3664880000
    5      H      -0.3680610000    -7.9660810000    -1.7685280000
    6      C       0.1312360000    -6.0727140000     1.0386370000
    7      C       0.2534350000    -4.7870490000     1.5881970000
    8      C      -0.2490140000    -5.1628010000    -1.2588310000
    9      C      -0.1225130000    -3.8748170000    -0.7096950000
   10      C       0.1210430000    -3.6839520000     0.6974300000
   11      O      -0.5059330000    -5.4997720000    -2.5533230000
   12      O       0.5126970000    -4.4590550000     2.8883690000
   13      C       0.0808690000    -5.3290630000     3.9276250000
   14      H       0.1731590000    -4.7556940000     4.8696560000
   15      H       0.7163630000    -6.2380950000     4.0074590000
   16      H      -0.9780720000    -5.6372620000     3.7895650000
   17      C      -0.2469490000    -4.5722610000    -3.6000640000
   18      H      -0.3445740000    -5.1397430000    -4.5448870000
   19      H       0.7798980000    -4.1531310000    -3.5320740000
   20      H      -0.9832610000    -3.7395310000    -3.6123780000
   21      C       0.1880090000    -2.3066540000     1.0642460000
   22      S      -0.2786440000    -2.3065010000    -1.5173600000
   23      C       0.0000000000    -1.4351850000     0.0000000000
   24      H       0.3730170000    -1.9781380000     2.0946850000
   25      C       0.0000000000     0.0000000000     0.0000000000
   26      S       0.5819340000     0.6927850000     1.5075410000
   27      C       1.5921550000     1.8979150000     0.7188730000
   28      C       0.5819440000     0.6923630000    -1.0678720000
   29      C       1.4737410000     1.7587640000    -0.6864100000
   30      S       0.4275600000     0.5039420000    -2.8055160000
   31      C       1.5492780000     1.8493570000    -3.0545300000
   32      C       2.0026900000     2.3935290000    -1.8625510000
   33      F       2.8581910000     3.4205490000    -1.8190880000
   34      C       1.8387100000     2.1913480000    -4.4560840000
   35      O       1.3499770000     1.5964810000    -5.4065100000
   36      O       2.7010910000     3.2307050000    -4.5692250000
   37      C       3.0233270000     3.6066050000    -5.9162070000
   38      H       3.7257030000     4.4545340000    -5.8330640000
   39      H       2.1120720000     3.9100350000    -6.4701680000
   40      H       3.4952810000     2.7629960000    -6.4592930000
   41      H       2.1851740000     2.6068460000     1.3064860000
   42      H       0.9001770000    -9.1436230000     0.1594750000
   43      H      -0.8665660000    -9.1494410000     0.4836040000
   44      H       1.0622460000    -1.4431750000    -0.1948560000
 ----------------------------------------------------------------
 Nuclear Repulsion Energy =        3382.46152972 hartrees
 There are      120 alpha and      120 beta electrons
 Requested basis set is cc-pVTZ
 There are 388 shells and 1096 basis functions

 Total QAlloc Memory Limit 110000 MB
 Mega-Array Size       188 MB
 MEM_STATIC part       192 MB
 Discretize the solute cavity surface with Lebedev spheres
	Using 110 Lebedev grid points for each H atom
	Using 194 Lebedev grid points for other atoms
	Atomic van der Waals radii will be scaled by 1.20
 Remove points where switching function is < 1.0e-08
 Keep 2913 surface tesserae and discard 4363 interior tesserae
 Molecular Surface Area = 435.222 Angst**2
 Requested basis set is rimp2-cc-pVTZ
 There are 853 shells and 2963 basis functions
 A cutoff of  1.0D-10 yielded  33702 shell pairs
 There are    253900 function pairs (    328213 Cartesian)
 Smallest overlap matrix eigenvalue = 2.17E-05

 Scale SEOQF with 1.000000e-01/1.000000e-02/1.000000e-02

 Standard Electronic Orientation quadrupole field applied
 Nucleus-field energy     =     0.0000000255 hartrees
 Guess from superposition of atomic densities
 Warning:  Energy on first SCF cycle will be non-variational
 SAD guess density has 240.000000 electrons

 -----------------------------------------------------------------------
  General SCF calculation program by
  Eric Jon Sundstrom, Paul Horn, Yuezhi Mao, Dmitri Zuev, Alec White,
  David Stuck, Shaama M.S., Shane Yost, Joonho Lee, David Small,
  Daniel Levine, Susi Lehtola, Hugh Burton, Evgeny Epifanovsky,
  Bang C. Huynh
 -----------------------------------------------------------------------
 Hartree-Fock
 using 64 threads for integral computing
 -------------------------------------------------------
 OpenMP Integral computing Module                
 Release: version 1.0, May 2013, Q-Chem Inc. Pittsburgh 
 -------------------------------------------------------
 A restricted SCF calculation will be
 performed using DIIS
 SCF converges when DIIS error is below 1.0e-06
 ---------------------------------------
  Cycle       Energy         DIIS error
 ---------------------------------------
    1   -2767.1110921293      1.75e-02  
    2   -2754.8584271077      1.53e-03  
    3   -2755.2075303277      8.54e-04  
    4   -2755.2946578682      2.56e-04  
    5   -2755.3086097049      7.41e-05  
    6   -2755.3102363173      2.67e-05  
    7   -2755.3106809839      1.39e-05  
    8   -2755.3108205858      5.62e-06  
    9   -2755.3108501324      2.83e-06  
   10   -2755.3108568519      1.45e-06  
   11   -2755.3108590747      7.72e-07  Convergence criterion met
 ---------------------------------------
 SCF time:   CPU 7317.05s  wall 279.00s 

************** Final PCM Free Energy Summary **************
 G_electrostatic  =      -0.02056872 hartree =     -12.90706755 kcal/mol
 G_cavitation     =       0.00000000 hartree =       0.00000000 kcal/mol
 G_dispersion     =       0.00000000 hartree =       0.00000000 kcal/mol
 G_repulsion      =       0.00000000 hartree =       0.00000000 kcal/mol
 --------------------------------------------------
 Non-electrostatic Free Energy =       0.00000000 hartree =       0.00000000 kcal/mol
 Total                         =      -0.02056872 hartree =     -12.90706755 kcal/mol
 --------------------------------------------------
 SCF Energy (H0 + V/2)                       =   -2755.31085907 
 Solute Internal Energy (H0)                 =   -2755.29029035 
 Total Free Energy (H0 + V/2 + non-elec)     =   -2755.31085907 hartree
                                             = -1728983.65961849 kcal/mol
***********************************************************

 SCF   energy in the final basis set =    -2755.3108590747
 Total energy in the final basis set =    -2755.3108590747


 --------------------------------------------------------------
  Generalized many-body perturbation theory program
  by Joonho Lee, Fazle Rob, Xintian Feng, Evgeny Epifanovsky

 No regularization used 
 (reg. param. = 0.0000e+00)
  (P|Q)^-1/2 Time:  CPU 164.83 s  wall 2.89 s

 In RI-MP2 calculation: 
 # of frozen core orbitals: 45

 Components of the RIMP2 correlation energy:
        aaaa    correlation energy =        -0.6714567444 a.u.
        abab    correlation energy =        -3.7583298912 a.u.
        bbbb    correlation energy =        -0.6714567444 a.u.
        non-Brillouin singles      =        -0.0000000000 a.u.
        total same-spin energy     =        -1.3429134888 a.u.
        total opposite-spin energy =        -3.7583298912 a.u.

 Total  RIMP2   correlation energy =        -5.1012433800 a.u.
        RIMP2         total energy =     -2760.4121024547 a.u.

 RI-MP2 Energy Time:  CPU 2768.01 s  wall 45.04 s
 
 --------------------------------------------------------------
 
                    Orbital Energies (a.u.)
 --------------------------------------------------------------
 
 Alpha MOs
 -- Occupied --
-92.0136 -91.9989 -91.9764 -91.9586 -26.3431 -20.6153 -20.5876 -20.5869
-20.5618 -11.4099 -11.3818 -11.3097 -11.3092 -11.3079 -11.3013 -11.2980
-11.2975 -11.2892 -11.2865 -11.2838 -11.2834 -11.2832 -11.2822 -11.2733
-11.2715 -11.2584 -11.2584 -11.2500 -11.2375  -9.0128  -8.9991  -8.9791
 -8.9612  -6.6935  -6.6929  -6.6924  -6.6800  -6.6793  -6.6782  -6.6602
 -6.6593  -6.6580  -6.6424  -6.6415  -6.6404  -1.6603  -1.4677  -1.4104
 -1.4092  -1.3704  -1.2360  -1.2011  -1.1742  -1.1392  -1.0998  -1.0485
 -1.0449  -1.0259  -1.0029  -0.9964  -0.9652  -0.9560  -0.9493  -0.9423
 -0.8936  -0.8705  -0.8615  -0.8174  -0.7926  -0.7890  -0.7832  -0.7686
 -0.7571  -0.7367  -0.7253  -0.7108  -0.6971  -0.6953  -0.6851  -0.6818
 -0.6743  -0.6663  -0.6556  -0.6487  -0.6372  -0.6310  -0.6203  -0.6154
 -0.6108  -0.6008  -0.5938  -0.5778  -0.5703  -0.5659  -0.5594  -0.5558
 -0.5478  -0.5330  -0.5300  -0.5258  -0.5162  -0.5114  -0.5078  -0.4998
 -0.4843  -0.4801  -0.4778  -0.4733  -0.4704  -0.4640  -0.4580  -0.4467
 -0.4312  -0.3978  -0.3793  -0.3716  -0.3511  -0.3029  -0.2853  -0.2154
 -- Virtual --
  0.0264   0.0580   0.0909   0.1320   0.1386   0.1452   0.1510   0.1544
  0.1566   0.1595   0.1666   0.1772   0.1817   0.1836   0.1872   0.1944
  0.1996   0.2034   0.2044   0.2131   0.2148   0.2206   0.2245   0.2269
  0.2285   0.2378   0.2431   0.2497   0.2538   0.2589   0.2619   0.2739
  0.2931   0.3011   0.3166   0.3208   0.3285   0.3340   0.3428   0.3476
  0.3505   0.3579   0.3587   0.3726   0.3736   0.3782   0.3835   0.3846
  0.3885   0.3939   0.4000   0.4040   0.4088   0.4127   0.4142   0.4214
  0.4254   0.4278   0.4346   0.4376   0.4401   0.4438   0.4528   0.4570
  0.4591   0.4607   0.4684   0.4689   0.4714   0.4782   0.4786   0.4823
  0.4905   0.4941   0.4978   0.5031   0.5074   0.5090   0.5133   0.5171
  0.5229   0.5262   0.5290   0.5315   0.5352   0.5414   0.5436   0.5477
  0.5494   0.5515   0.5574   0.5599   0.5664   0.5711   0.5750   0.5834
  0.5861   0.5893   0.5908   0.5984   0.6013   0.6066   0.6109   0.6128
  0.6165   0.6168   0.6197   0.6222   0.6234   0.6268   0.6289   0.6347
  0.6367   0.6395   0.6453   0.6475   0.6509   0.6554   0.6586   0.6615
  0.6673   0.6732   0.6752   0.6780   0.6840   0.6891   0.6915   0.6961
  0.7043   0.7118   0.7132   0.7171   0.7194   0.7209   0.7305   0.7330
  0.7450   0.7502   0.7560   0.7591   0.7687   0.7729   0.7824   0.7873
  0.7928   0.7995   0.8033   0.8096   0.8158   0.8198   0.8213   0.8280
  0.8285   0.8415   0.8464   0.8509   0.8542   0.8686   0.8704   0.8770
  0.8813   0.8872   0.8896   0.8909   0.8960   0.9016   0.9060   0.9122
  0.9179   0.9284   0.9289   0.9384   0.9445   0.9472   0.9526   0.9534
  0.9564   0.9652   0.9725   0.9736   0.9821   0.9855   0.9866   0.9921
  0.9965   1.0022   1.0054   1.0093   1.0158   1.0231   1.0282   1.0330
  1.0336   1.0418   1.0468   1.0503   1.0520   1.0573   1.0669   1.0689
  1.0764   1.0791   1.0814   1.0861   1.0963   1.1019   1.1043   1.1060
  1.1117   1.1131   1.1166   1.1232   1.1323   1.1344   1.1423   1.1518
  1.1545   1.1585   1.1656   1.1693   1.1730   1.1769   1.1804   1.1846
  1.1876   1.1917   1.1975   1.2050   1.2094   1.2115   1.2168   1.2221
  1.2241   1.2334   1.2340   1.2421   1.2448   1.2488   1.2524   1.2569
  1.2594   1.2659   1.2688   1.2775   1.2792   1.2861   1.2894   1.2976
  1.3032   1.3067   1.3105   1.3144   1.3252   1.3314   1.3353   1.3356
  1.3437   1.3625   1.3647   1.3659   1.3744   1.3845   1.3952   1.3980
  1.4025   1.4119   1.4126   1.4176   1.4291   1.4348   1.4439   1.4536
  1.4608   1.4678   1.4696   1.4820   1.4872   1.4953   1.4984   1.5019
  1.5028   1.5078   1.5127   1.5177   1.5236   1.5330   1.5370   1.5407
  1.5420   1.5445   1.5484   1.5647   1.5695   1.5709   1.5754   1.5770
  1.5822   1.5899   1.5979   1.6012   1.6097   1.6283   1.6340   1.6359
  1.6395   1.6477   1.6522   1.6556   1.6660   1.6681   1.6835   1.6839
  1.6943   1.6983   1.7082   1.7121   1.7165   1.7231   1.7297   1.7502
  1.7552   1.7619   1.7679   1.7753   1.7843   1.7887   1.8107   1.8134
  1.8181   1.8257   1.8285   1.8427   1.8510   1.8628   1.8703   1.8761
  1.8821   1.8898   1.8960   1.9095   1.9202   1.9259   1.9345   1.9414
  1.9445   1.9498   1.9521   1.9703   1.9783   1.9885   1.9977   2.0044
  2.0157   2.0216   2.0298   2.0319   2.0327   2.0406   2.0439   2.0573
  2.0679   2.0758   2.0850   2.0868   2.0966   2.1096   2.1229   2.1349
  2.1481   2.1563   2.1624   2.1670   2.1828   2.1845   2.1882   2.1914
  2.2011   2.2119   2.2163   2.2190   2.2261   2.2307   2.2359   2.2389
  2.2452   2.2589   2.2623   2.2698   2.2722   2.2767   2.2922   2.2974
  2.3029   2.3102   2.3289   2.3307   2.3389   2.3523   2.3570   2.3643
  2.3707   2.3748   2.3847   2.3983   2.4030   2.4137   2.4155   2.4200
  2.4249   2.4407   2.4454   2.4574   2.4620   2.4818   2.4876   2.4957
  2.5032   2.5120   2.5229   2.5339   2.5367   2.5445   2.5528   2.5602
  2.5651   2.5783   2.5828   2.5979   2.6041   2.6111   2.6177   2.6236
  2.6289   2.6351   2.6435   2.6438   2.6483   2.6521   2.6659   2.6734
  2.6800   2.6843   2.6896   2.6932   2.7010   2.7052   2.7091   2.7192
  2.7203   2.7342   2.7359   2.7468   2.7545   2.7599   2.7657   2.7710
  2.7799   2.7897   2.7991   2.8044   2.8086   2.8180   2.8232   2.8252
  2.8352   2.8450   2.8505   2.8526   2.8577   2.8652   2.8749   2.8763
  2.8803   2.8867   2.8947   2.9106   2.9144   2.9244   2.9341   2.9439
  2.9530   2.9561   2.9592   2.9631   2.9733   2.9773   2.9822   2.9881
  2.9996   3.0019   3.0159   3.0232   3.0309   3.0389   3.0409   3.0462
  3.0569   3.0599   3.0675   3.0754   3.0880   3.0905   3.0967   3.1013
  3.1108   3.1117   3.1148   3.1250   3.1274   3.1347   3.1394   3.1455
  3.1476   3.1529   3.1561   3.1609   3.1649   3.1720   3.1798   3.1833
  3.1871   3.1913   3.1953   3.2054   3.2142   3.2151   3.2204   3.2267
  3.2281   3.2336   3.2436   3.2497   3.2545   3.2582   3.2616   3.2652
  3.2675   3.2717   3.2768   3.2852   3.2908   3.2928   3.2967   3.3014
  3.3065   3.3124   3.3189   3.3206   3.3238   3.3299   3.3385   3.3437
  3.3486   3.3502   3.3515   3.3574   3.3648   3.3678   3.3690   3.3733
  3.3778   3.3825   3.3891   3.3947   3.3997   3.4010   3.4016   3.4077
  3.4124   3.4154   3.4251   3.4284   3.4311   3.4386   3.4397   3.4431
  3.4509   3.4529   3.4578   3.4661   3.4709   3.4711   3.4747   3.4841
  3.4864   3.4902   3.4960   3.5029   3.5036   3.5139   3.5252   3.5333
  3.5415   3.5443   3.5519   3.5542   3.5584   3.5664   3.5695   3.5740
  3.5836   3.5917   3.5936   3.5951   3.5998   3.6021   3.6117   3.6157
  3.6173   3.6220   3.6255   3.6300   3.6355   3.6378   3.6471   3.6563
  3.6619   3.6649   3.6728   3.6740   3.6816   3.6818   3.6942   3.6986
  3.7017   3.7056   3.7066   3.7175   3.7226   3.7286   3.7303   3.7313
  3.7384   3.7442   3.7539   3.7582   3.7599   3.7643   3.7747   3.7854
  3.7862   3.7887   3.7985   3.8051   3.8059   3.8088   3.8122   3.8150
  3.8234   3.8273   3.8321   3.8415   3.8478   3.8500   3.8522   3.8610
  3.8689   3.8705   3.8799   3.8821   3.8928   3.8976   3.9004   3.9105
  3.9129   3.9232   3.9237   3.9382   3.9486   3.9497   3.9533   3.9610
  3.9667   3.9702   3.9849   3.9859   4.0016   4.0061   4.0110   4.0200
  4.0286   4.0378   4.0418   4.0515   4.0527   4.0621   4.0673   4.0684
  4.0762   4.0854   4.0914   4.1015   4.1063   4.1141   4.1209   4.1307
  4.1413   4.1468   4.1522   4.1579   4.1646   4.1664   4.1700   4.1735
  4.1777   4.1914   4.1972   4.2078   4.2141   4.2174   4.2333   4.2406
  4.2450   4.2480   4.2533   4.2631   4.2791   4.2843   4.2901   4.3048
  4.3107   4.3289   4.3376   4.3413   4.3419   4.3455   4.3550   4.3595
  4.3647   4.3716   4.3834   4.3909   4.3943   4.4073   4.4104   4.4157
  4.4229   4.4261   4.4310   4.4354   4.4414   4.4501   4.4535   4.4615
  4.4661   4.4765   4.4791   4.4969   4.5136   4.5221   4.5221   4.5312
  4.5394   4.5449   4.5513   4.5636   4.5697   4.5721   4.5786   4.5885
  4.5962   4.6043   4.6108   4.6228   4.6320   4.6438   4.6472   4.6534
  4.6613   4.6656   4.6835   4.6884   4.7078   4.7155   4.7327   4.7416
  4.7475   4.7669   4.7693   4.7840   4.7901   4.7922   4.8064   4.8158
  4.8327   4.8363   4.8396   4.8519   4.8620   4.8658   4.8867   4.8897
  4.8981   4.9110   4.9204   4.9423   4.9554   4.9593   4.9677   4.9724
  4.9795   5.0014   5.0086   5.0144   5.0198   5.0376   5.0489   5.0577
  5.0621   5.0750   5.0965   5.1005   5.1263   5.1348   5.1475   5.1645
  5.1766   5.1894   5.1958   5.2067   5.2215   5.2290   5.2394   5.2497
  5.2529   5.2573   5.2743   5.2908   5.2947   5.3076   5.3183   5.3273
  5.3404   5.3520   5.3565   5.3639   5.3789   5.3864   5.4018   5.4038
  5.4068   5.4259   5.4345   5.4430   5.4488   5.4576   5.4847   5.5024
  5.5127   5.5197   5.5214   5.5373   5.5648   5.5690   5.5788   5.5849
  5.6012   5.6112   5.6142   5.6213   5.6431   5.6604   5.6734   5.6908
  5.7103   5.7366   5.7549   5.7559   5.7667   5.8071   5.8151   5.8275
  5.8593   5.8788   5.9008   5.9154   5.9287   5.9350   5.9676   5.9945
  6.0391   6.0416   6.0573   6.1263   6.1501   6.1552   6.1695   6.1757
  6.1808   6.1907   6.2302   6.2452   6.2506   6.2611   6.2665   6.2702
  6.2855   6.2977   6.3521   6.3737   6.4443   6.4497   6.5071   6.5389
  6.5489   6.5721   6.6023   6.6460   6.6617   6.6709   6.7153   6.7463
  6.8088   6.8299   6.8582   6.8595   6.9010   6.9778   7.1320   7.1458
  7.2035   7.2056   7.2226   7.2398   7.3095   7.3277   7.3419   7.3633
  7.3642   7.4053   7.4130   7.4858   7.4881   7.4968   7.5214   7.5506
  7.6172   7.7415   7.7732   7.7892   7.8030   7.8997   7.9266   7.9549
  7.9731   8.1356   8.2871   8.4613   8.9223   9.0271   9.3633   9.4872
  9.6734  10.2434  11.2044  11.4307  11.7630  11.9620  12.1237  12.3609
 12.4292  12.4960  12.9462  12.9632  13.0218  13.2737  13.3889  13.4895
 13.7778  13.8452  13.9171  13.9591  14.0487  14.3130  14.8989  15.2180
 --------------------------------------------------------------
 
          Ground-State Mulliken Net Atomic Charges

     Atom                 Charge (a.u.)
  ----------------------------------------
      1 C                    -0.070284
      2 C                    -0.257666
      3 S                    -0.135464
      4 C                    -0.045953
      5 H                     0.193915
      6 C                    -0.049224
      7 C                     0.219417
      8 C                     0.226264
      9 C                    -0.064754
     10 C                    -0.039785
     11 O                    -0.334768
     12 O                    -0.344247
     13 C                    -0.082791
     14 H                     0.119813
     15 H                     0.092231
     16 H                     0.093078
     17 C                    -0.088167
     18 H                     0.123891
     19 H                     0.092858
     20 H                     0.090870
     21 C                    -0.293210
     22 S                    -0.103341
     23 C                     0.088058
     24 H                     0.199393
     25 C                    -0.035528
     26 S                     0.081816
     27 C                    -0.196697
     28 C                    -0.016435
     29 C                    -0.106389
     30 S                     0.016937
     31 C                    -0.160819
     32 C                     0.403545
     33 F                    -0.207192
     34 C                     0.446475
     35 O                    -0.460703
     36 O                    -0.300763
     37 C                    -0.058572
     38 H                     0.121496
     39 H                     0.095272
     40 H                     0.095082
     41 H                     0.218158
     42 H                     0.117703
     43 H                     0.115338
     44 H                     0.201141
  ----------------------------------------
  Sum of atomic charges =     0.000000

 -----------------------------------------------------------------
                    Cartesian Multipole Moments
 -----------------------------------------------------------------
    Charge (ESU x 10^10)
                 0.0000
    Dipole Moment (Debye)
         X       2.3900      Y       1.8716      Z       2.4980
       Tot       3.9313
    Quadrupole Moments (Debye-Ang)
        XX    -195.0219     XY       8.4366     YY    -180.2195
        XZ      -7.8076     YZ      -1.6476     ZZ    -187.4473
    Octopole Moments (Debye-Ang^2)
       XXX    -343.2445    XXY     439.3999    XYY    -108.7237
       YYY    1055.1816    XXZ     127.8327    XYZ     -16.5789
       YYZ      87.6039    XZZ     -64.1646    YZZ     409.5481
       ZZZ     502.8385
    Hexadecapole Moments (Debye-Ang^3)
      XXXX   -1709.4120   XXXY    -781.1339   XXYY   -3915.4655
      XYYY    -673.4655   YYYY  -19118.3167   XXXZ     796.6069
      XXYZ     500.5106   XYYZ      89.8697   YYYZ    1899.2818
      XXZZ   -1349.6331   XYZZ      47.1659   YYZZ   -4242.6429
      XZZZ     546.6863   YZZZ    1350.8000   ZZZZ   -7471.1846
 -----------------------------------------------------------------
 Total job time:  329.07s(wall), 10191.65s(cpu) 
 Tue Jan  9 13:10:48 2024

        *************************************************************
        *                                                           *
        *  Thank you very much for using Q-Chem.  Have a nice day.  *
        *                                                           *
        *************************************************************


0 sent ACK to 0 
now end server 0 ... 
cleanup process ... done
remove work dirs ./qchem1976805.0 -- ./qchem1976805.0
rm -rf ./qchem1976805.0
rm -rf ./qchem1976805
