You are running Q-Chem version: 5.4.0

#
# job setting
#
local host:  exp-14-17
current dir: /home/rramji/project-csd799/aromodel/ptb7fout-qchem/hydrogenated-rotation-run
input file:  Dimethoxy_Benzodithiophene_Phi_40_Theta_270_Methylcarbonyl_3_Fluoro_Thienothiophene_Hydrogenated.qcin
output file: 
nprocs     : 1
nthreads   : 64
#
# qchem installation setting
#
QC:          /cm/shared/apps/spack/cpu/opt/spack/linux-centos8-zen2/gcc-10.2.0/qchem-5.4-akfmr7b3t57bfs6qan3padb2wnb2i7cl
QCAUX:       /cm/shared/apps/spack/cpu/opt/spack/linux-centos8-zen2/gcc-10.2.0/qchem-5.4-akfmr7b3t57bfs6qan3padb2wnb2i7cl/qcaux
QCPROG:      /cm/shared/apps/spack/cpu/opt/spack/linux-centos8-zen2/gcc-10.2.0/qchem-5.4-akfmr7b3t57bfs6qan3padb2wnb2i7cl/exe/qcprog.exe
QCPROG_S:    /cm/shared/apps/spack/cpu/opt/spack/linux-centos8-zen2/gcc-10.2.0/qchem-5.4-akfmr7b3t57bfs6qan3padb2wnb2i7cl/exe/qcprog.exe_s
PARALLEL:    -DPARALLEL
QCMPI:       mpich
#
# qchem directory setting
#
qcrun:       qchem1968068
QCSCRATCH:   .
QCLOCALSCR:  
QCTMPDIR:    .
QCFILEPREF:  ./qchem1968068
QCSAVEDIR:   
workdirs:    ./qchem1968068
workdir0:    ./qchem1968068
partmpdirs =  
#
# parallel setting
#
QCRSH:           ssh
QCMPI:           mpich
QCMPIRUN:        /cm/shared/apps/spack/cpu/opt/spack/linux-centos8-zen2/gcc-10.2.0/qchem-5.4-akfmr7b3t57bfs6qan3padb2wnb2i7cl/bin/mpi/mpirun_qchem
QCMACHINEFILE:   ./qchem1968068/hostfile
exp-14-17

#
# env setting
#
exported envs:   QC QCAUX QCSCRATCH QCRUNNAME QCFILEPREF QCPROG QCPROG_S GUIFILE

Running Job 1 of 1 Dimethoxy_Benzodithiophene_Phi_40_Theta_270_Methylcarbonyl_3_Fluoro_Thienothiophene_Hydrogenated.qcin
qchem Dimethoxy_Benzodithiophene_Phi_40_Theta_270_Methylcarbonyl_3_Fluoro_Thienothiophene_Hydrogenated.qcin_1968068.0 ./qchem1968068/ 1
/cm/shared/apps/spack/cpu/opt/spack/linux-centos8-zen2/gcc-10.2.0/qchem-5.4-akfmr7b3t57bfs6qan3padb2wnb2i7cl/bin/mpi/mpirun_qchem -machinefile ./qchem1968068/hostfile -np 1 /cm/shared/apps/spack/cpu/opt/spack/linux-centos8-zen2/gcc-10.2.0/qchem-5.4-akfmr7b3t57bfs6qan3padb2wnb2i7cl/exe/qcprog.exe Dimethoxy_Benzodithiophene_Phi_40_Theta_270_Methylcarbonyl_3_Fluoro_Thienothiophene_Hydrogenated.qcin_1968068.0 ./qchem1968068/

Process 0 of 1 is on exp-14-17 - thread support 0
initial socket setup ...start
initial socket setup ...done 
now start server 0 ... 
                  Welcome to Q-Chem
     A Quantum Leap Into The Future Of Chemistry


 Q-Chem 5.4, Q-Chem, Inc., Pleasanton, CA (2021)

 License issued to: University of California, San Diego (site)

 E. Epifanovsky,  A. T. B. Gilbert,  Xintian Feng,  Joonho Lee,  Yuezhi Mao,  
 N. Mardirossian,  P. Pokhilko,  A. White,  M. Wormit,  M. P. Coons,  
 A. L. Dempwolff,  Zhengting Gan,  D. Hait,  P. R. Horn,  L. D. Jacobson,  
 I. Kaliman,  J. Kussmann,  A. W. Lange,  Ka Un Lao,  D. S. Levine,  Jie Liu,  
 S. C. McKenzie,  A. F. Morrison,  K. Nanda,  F. Plasser,  D. R. Rehn,  
 M. L. Vidal,  Zhi-Qiang You,  Ying Zhu,  B. Alam,  B. Albrecht,  
 A. Aldossary,  E. Alguire,  J. H. Andersen,  D. Barton,  K. Begam,  A. Behn,  
 Y. A. Bernard,  E. J. Berquist,  H. Burton,  A. Carreras,  K. Carter-Fenk,  
 R. Chakraborty,  A. D. Chien,  K. D. Closser,  V. Cofer-Shabica,  
 S. Dasgupta,  Jia Deng,  M. de Wergifosse,  M. Diedenhofen,  Hainam Do,  
 S. Ehlert,  Po-Tung Fang,  S. Fatehi,  Qingguo Feng,  J. Gayvert,  
 Qinghui Ge,  G. Gidofalvi,  M. Goldey,  J. Gomes,  C. Gonzalez-Espinoza,  
 S. Gulania,  A. Gunina,  M. W. D. Hanson-Heine,  P. H. P. Harbach,  
 A. W. Hauser,  M. F. Herbst,  M. Hernandez Vera,  M. Hodecker,  
 Z. C. Holden,  S. Houck,  Xunkun Huang,  Kerwin Hui,  B. C. Huynh,  
 M. Ivanov,  Hyunjun Ji,  Hanjie Jiang,  B. Kaduk,  S. Kaehler,  
 K. Khistyaev,  Jaehoon Kim,  P. Klunzinger,  Z. Koczor-Benda,  
 Joong Hoon Koh,  D. Kosenkov,  L. Koulias,  T. Kowalczyk,  C. M. Krauter,  
 K. Kue,  A. Kunitsa,  T. Kus,  A. Landau,  K. V. Lawler,  D. Lefrancois,  
 S. Lehtola,  Rain Li,  Yi-Pei Li,  Jiashu Liang,  M. Liebenthal,  
 Hung-Hsuan Lin,  You-Sheng Lin,  Fenglai Liu,  Kuan-Yu Liu,  
 M. Loipersberger,  A. Luenser,  A. Manjanath,  P. Manohar,  E. Mansoor,  
 S. F. Manzer,  Shan-Ping Mao,  A. V. Marenich,  T. Markovich,  S. Mason,  
 S. A. Maurer,  P. F. McLaughlin,  M. F. S. J. Menger,  J.-M. Mewes,  
 S. A. Mewes,  P. Morgante,  J. W. Mullinax,  T. S. Nguyen-Beck,  
 K. J. Oosterbaan,  G. Paran,  Alexander C. Paul,  Suranjan K. Paul,  
 F. Pavosevic,  Zheng Pei,  S. Prager,  E. I. Proynov,  E. Ramos,  B. Rana,  
 A. E. Rask,  A. Rettig,  R. M. Richard,  F. Rob,  E. Rossomme,  T. Scheele,  
 M. Scheurer,  M. Schneider,  N. Sergueev,  S. M. Sharada,  W. Skomorowski,  
 D. W. Small,  C. J. Stein,  Yu-Chuan Su,  E. J. Sundstrom,  Zhen Tao,  
 J. Thirman,  T. Tsuchimochi,  N. M. Tubman,  S. P. Veccham,  O. Vydrov,  
 J. Wenzel,  J. Witte,  A. Yamada,  Kun Yao,  S. Yeganeh,  S. R. Yost,  
 A. Zech,  Igor Ying Zhang,  Xing Zhang,  Yu Zhang,  D. Zuev,  
 A. Aspuru-Guzik,  A. T. Bell,  N. A. Besley,  K. B. Bravaya,  B. R. Brooks,  
 D. Casanova,  Jeng-Da Chai,  S. Coriani,  C. J. Cramer,  
 A. E. DePrince, III,  R. A. DiStasio Jr.,  A. Dreuw,  B. D. Dunietz,  
 T. R. Furlani,  W. A. Goddard III,  S. Grimme,  S. Hammes-Schiffer,  
 T. Head-Gordon,  W. J. Hehre,  Chao-Ping Hsu,  T.-C. Jagau,  Yousung Jung,  
 A. Klamt,  Jing Kong,  D. S. Lambrecht,  WanZhen Liang,  N. J. Mayhall,  
 C. W. McCurdy,  J. B. Neaton,  C. Ochsenfeld,  J. A. Parkhill,  R. Peverati,  
 V. A. Rassolov,  Yihan Shao,  L. V. Slipchenko,  T. Stauch,  R. P. Steele,  
 J. E. Subotnik,  A. J. W. Thom,  A. Tkatchenko,  D. G. Truhlar,  
 T. Van Voorhis,  T. A. Wesolowski,  K. B. Whaley,  H. L. Woodcock III,  
 P. M. Zimmerman,  S. Faraji,  P. M. W. Gill,  M. Head-Gordon,  
 J. M. Herbert,  A. I. Krylov

 Contributors to earlier versions of Q-Chem not listed above: 
 R. D. Adamson,  B. Austin,  R. Baer,  J. Baker,  G. J. O. Beran,  
 K. Brandhorst,  S. T. Brown,  E. F. C. Byrd,  A. K. Chakraborty,  
 G. K. L. Chan,  Chun-Min Chang,  Yunqing Chen,  C.-L. Cheng,  
 Siu Hung Chien,  D. M. Chipman,  D. L. Crittenden,  H. Dachsel,  
 R. J. Doerksen,  A. D. Dutoi,  R. G. Edgar,  J. Fosso-Tande,  
 L. Fusti-Molnar,  D. Ghosh,  A. Ghysels,  A. Golubeva-Zadorozhnaya,  
 J. Gonthier,  M. S. Gordon,  S. R. Gwaltney,  G. Hawkins,  J. E. Herr,  
 A. Heyden,  S. Hirata,  E. G. Hohenstein,  G. Kedziora,  F. J. Keil,  
 C. Kelley,  Jihan Kim,  R. A. King,  R. Z. Khaliullin,  P. P. Korambath,  
 W. Kurlancheek,  A. Laurent,  A. M. Lee,  M. S. Lee,  S. V. Levchenko,  
 Ching Yeh Lin,  D. Liotard,  E. Livshits,  R. C. Lochan,  I. Lotan,  
 L. A. Martinez-Martinez,  P. E. Maslen,  N. Nair,  D. P. O'Neill,  
 D. Neuhauser,  E. Neuscamman,  C. M. Oana,  R. Olivares-Amaya,  R. Olson,  
 T. M. Perrine,  B. Peters,  P. A. Pieniazek,  A. Prociuk,  Y. M. Rhee,  
 J. Ritchie,  M. A. Rohrdanz,  E. Rosta,  N. J. Russ,  H. F. Schaefer III,  
 M. W. Schmidt,  N. E. Schultz,  S. Sharma,  N. Shenvi,  C. D. Sherrill,  
 A. C. Simmonett,  A. Sodt,  T. Stein,  D. Stuck,  K. S. Thanthiriwatte,  
 V. Vanovschi,  L. Vogt,  Tao Wang,  A. Warshel,  M. A. Watson,  
 C. F. Williams,  Q. Wu,  X. Xu,  Jun Yang,  W. Zhang,  Yan Zhao

 Please cite Q-Chem as follows:
 Y. Shao et al., Mol. Phys. 113, 184-215 (2015)
 DOI: 10.1080/00268976.2014.952696

 Q-Chem 5.4.0 for Intel X86 EM64T Linux

 Parts of Q-Chem use Armadillo 9.800.1 (Horizon Scraper).
 http://arma.sourceforge.net/

 Q-Chem begins on Tue Jan  9 12:18:39 2024  

 Host: 
0

     Scratch files written to ./qchem1968068//
 May1621 |scratch|qcdevops|jenkins|workspace|build_RNUM    
 Parallel job on  1  processors
 Processing $rem in /cm/shared/apps/spack/cpu/opt/spack/linux-centos8-zen2/gcc-10.2.0/qchem-5.4-akfmr7b3t57bfs6qan3padb2wnb2i7cl/config/preferences:
 Processing $rem in /home/rramji/.qchemrc:
 Symmetry turned off for PCM/SM12/SMD calculation
 Core orbitals will be frozen

 Checking the input file for inconsistencies... 	...done.

 Q-Chem warning in module forms1/BasisType.C, line 2236:

 You are not using the predefined 5D/6D in this basis set.


--------------------------------------------------------------
User input:
--------------------------------------------------------------
$molecule
0 1
C	0.318247	-8.517702	0.041330
C	-0.757333	-7.641575	0.049453
S	1.866383	-7.638634	0.024919
C	-0.380867	-6.264785	0.049488
H	-1.805573	-7.966081	0.055368
C	1.045647	-6.072714	0.051115
C	1.608077	-4.787049	0.026203
C	-1.282948	-5.162801	0.026637
C	-0.720187	-3.874817	-0.002586
C	0.707853	-3.683952	0.001903
O	-2.602386	-5.499772	0.054867
O	2.933517	-4.459055	-0.003348
C	3.881999	-5.329063	0.602384
H	4.825744	-4.755694	0.675079
H	4.070972	-6.238095	-0.009592
H	3.562152	-5.637262	1.621263
C	-3.588253	-4.572261	-0.381947
H	-4.535674	-5.139743	-0.449872
H	-3.342986	-4.153131	-1.381388
H	-3.728239	-3.739531	0.341040
C	1.080725	-2.306654	-0.000348
S	-1.542694	-2.306501	0.010924
C	-0.000000	-1.435185	-0.000000
H	2.127635	-1.978138	-0.003612
C	0.000000	0.000000	0.000000
S	0.581934	0.692785	1.507541
C	1.592155	1.897915	0.718873
C	0.581944	0.692363	-1.067872
C	1.473741	1.758764	-0.686410
S	0.427560	0.503942	-2.805516
C	1.549278	1.849357	-3.054530
C	2.002690	2.393529	-1.862551
F	2.858191	3.420549	-1.819088
C	1.838710	2.191348	-4.456084
O	1.349977	1.596481	-5.406510
O	2.701091	3.230705	-4.569225
C	3.023327	3.606605	-5.916207
H	3.725703	4.454534	-5.833064
H	2.112072	3.910035	-6.470168
H	3.495281	2.762996	-6.459293
H	2.185174	2.606846	1.306486
H	0.313367	-9.143623	-0.858809
H	0.325780	-9.149441	0.937378
H	-0.007439	-1.443175	-1.079945
$end

$rem
JOBTYPE		SP
EXCHANGE	HF
CORRELATION	pRIMP2
BASIS		cc-pvtz
METHOD		rimp2
AUX_BASIS	rimp2-cc-pvtz
SOLVENT_METHOD	PCM
PURECART	11111
SYMMETRY	false
MEM_TOTAL	110000
SCF_CONVERGENCE = 6
THRESH=10
GUI = 2
$end



$solvent
dielectric 4.90
$end
--------------------------------------------------------------
 ----------------------------------------------------------------
             Standard Nuclear Orientation (Angstroms)
    I     Atom           X                Y                Z
 ----------------------------------------------------------------
    1      C       0.3182470000    -8.5177020000     0.0413300000
    2      C      -0.7573330000    -7.6415750000     0.0494530000
    3      S       1.8663830000    -7.6386340000     0.0249190000
    4      C      -0.3808670000    -6.2647850000     0.0494880000
    5      H      -1.8055730000    -7.9660810000     0.0553680000
    6      C       1.0456470000    -6.0727140000     0.0511150000
    7      C       1.6080770000    -4.7870490000     0.0262030000
    8      C      -1.2829480000    -5.1628010000     0.0266370000
    9      C      -0.7201870000    -3.8748170000    -0.0025860000
   10      C       0.7078530000    -3.6839520000     0.0019030000
   11      O      -2.6023860000    -5.4997720000     0.0548670000
   12      O       2.9335170000    -4.4590550000    -0.0033480000
   13      C       3.8819990000    -5.3290630000     0.6023840000
   14      H       4.8257440000    -4.7556940000     0.6750790000
   15      H       4.0709720000    -6.2380950000    -0.0095920000
   16      H       3.5621520000    -5.6372620000     1.6212630000
   17      C      -3.5882530000    -4.5722610000    -0.3819470000
   18      H      -4.5356740000    -5.1397430000    -0.4498720000
   19      H      -3.3429860000    -4.1531310000    -1.3813880000
   20      H      -3.7282390000    -3.7395310000     0.3410400000
   21      C       1.0807250000    -2.3066540000    -0.0003480000
   22      S      -1.5426940000    -2.3065010000     0.0109240000
   23      C       0.0000000000    -1.4351850000     0.0000000000
   24      H       2.1276350000    -1.9781380000    -0.0036120000
   25      C       0.0000000000     0.0000000000     0.0000000000
   26      S       0.5819340000     0.6927850000     1.5075410000
   27      C       1.5921550000     1.8979150000     0.7188730000
   28      C       0.5819440000     0.6923630000    -1.0678720000
   29      C       1.4737410000     1.7587640000    -0.6864100000
   30      S       0.4275600000     0.5039420000    -2.8055160000
   31      C       1.5492780000     1.8493570000    -3.0545300000
   32      C       2.0026900000     2.3935290000    -1.8625510000
   33      F       2.8581910000     3.4205490000    -1.8190880000
   34      C       1.8387100000     2.1913480000    -4.4560840000
   35      O       1.3499770000     1.5964810000    -5.4065100000
   36      O       2.7010910000     3.2307050000    -4.5692250000
   37      C       3.0233270000     3.6066050000    -5.9162070000
   38      H       3.7257030000     4.4545340000    -5.8330640000
   39      H       2.1120720000     3.9100350000    -6.4701680000
   40      H       3.4952810000     2.7629960000    -6.4592930000
   41      H       2.1851740000     2.6068460000     1.3064860000
   42      H       0.3133670000    -9.1436230000    -0.8588090000
   43      H       0.3257800000    -9.1494410000     0.9373780000
   44      H      -0.0074390000    -1.4431750000    -1.0799450000
 ----------------------------------------------------------------
 Nuclear Repulsion Energy =        3362.29318443 hartrees
 There are      120 alpha and      120 beta electrons
 Requested basis set is cc-pVTZ
 There are 388 shells and 1096 basis functions

 Total QAlloc Memory Limit 110000 MB
 Mega-Array Size       188 MB
 MEM_STATIC part       192 MB
 Discretize the solute cavity surface with Lebedev spheres
	Using 110 Lebedev grid points for each H atom
	Using 194 Lebedev grid points for other atoms
	Atomic van der Waals radii will be scaled by 1.20
 Remove points where switching function is < 1.0e-08
 Keep 2949 surface tesserae and discard 4327 interior tesserae
 Molecular Surface Area = 443.596 Angst**2
 Requested basis set is rimp2-cc-pVTZ
 There are 853 shells and 2963 basis functions
 A cutoff of  1.0D-10 yielded  33492 shell pairs
 There are    252414 function pairs (    326435 Cartesian)
 Smallest overlap matrix eigenvalue = 2.15E-05

 Scale SEOQF with 1.000000e-01/1.000000e-02/1.000000e-02

 Standard Electronic Orientation quadrupole field applied
 Nucleus-field energy     =     0.0000000500 hartrees
 Guess from superposition of atomic densities
 Warning:  Energy on first SCF cycle will be non-variational
 SAD guess density has 240.000000 electrons

 -----------------------------------------------------------------------
  General SCF calculation program by
  Eric Jon Sundstrom, Paul Horn, Yuezhi Mao, Dmitri Zuev, Alec White,
  David Stuck, Shaama M.S., Shane Yost, Joonho Lee, David Small,
  Daniel Levine, Susi Lehtola, Hugh Burton, Evgeny Epifanovsky,
  Bang C. Huynh
 -----------------------------------------------------------------------
 Hartree-Fock
 using 64 threads for integral computing
 -------------------------------------------------------
 OpenMP Integral computing Module                
 Release: version 1.0, May 2013, Q-Chem Inc. Pittsburgh 
 -------------------------------------------------------
 A restricted SCF calculation will be
 performed using DIIS
 SCF converges when DIIS error is below 1.0e-06
 ---------------------------------------
  Cycle       Energy         DIIS error
 ---------------------------------------
    1   -2767.0687435084      1.75e-02  
    2   -2754.8713260074      1.53e-03  
    3   -2755.2188114618      8.50e-04  
    4   -2755.3041742391      2.57e-04  
    5   -2755.3176427595      7.27e-05  
    6   -2755.3191003620      2.56e-05  
    7   -2755.3194692462      1.31e-05  
    8   -2755.3195877550      5.54e-06  
    9   -2755.3196147274      2.69e-06  
   10   -2755.3196209623      1.46e-06  
   11   -2755.3196228526      6.68e-07  Convergence criterion met
 ---------------------------------------
 SCF time:   CPU 7514.63s  wall 290.00s 

************** Final PCM Free Energy Summary **************
 G_electrostatic  =      -0.02107032 hartree =     -13.22182357 kcal/mol
 G_cavitation     =       0.00000000 hartree =       0.00000000 kcal/mol
 G_dispersion     =       0.00000000 hartree =       0.00000000 kcal/mol
 G_repulsion      =       0.00000000 hartree =       0.00000000 kcal/mol
 --------------------------------------------------
 Non-electrostatic Free Energy =       0.00000000 hartree =       0.00000000 kcal/mol
 Total                         =      -0.02107032 hartree =     -13.22182357 kcal/mol
 --------------------------------------------------
 SCF Energy (H0 + V/2)                       =   -2755.31962285 
 Solute Internal Energy (H0)                 =   -2755.29855254 
 Total Free Energy (H0 + V/2 + non-elec)     =   -2755.31962285 hartree
                                             = -1728989.15897216 kcal/mol
***********************************************************

 SCF   energy in the final basis set =    -2755.3196228526
 Total energy in the final basis set =    -2755.3196228526


 --------------------------------------------------------------
  Generalized many-body perturbation theory program
  by Joonho Lee, Fazle Rob, Xintian Feng, Evgeny Epifanovsky

 No regularization used 
 (reg. param. = 0.0000e+00)
  (P|Q)^-1/2 Time:  CPU 173.39 s  wall 2.92 s

 In RI-MP2 calculation: 
 # of frozen core orbitals: 45

 Components of the RIMP2 correlation energy:
        aaaa    correlation energy =        -0.6698665197 a.u.
        abab    correlation energy =        -3.7546470606 a.u.
        bbbb    correlation energy =        -0.6698665197 a.u.
        non-Brillouin singles      =        -0.0000000000 a.u.
        total same-spin energy     =        -1.3397330394 a.u.
        total opposite-spin energy =        -3.7546470606 a.u.

 Total  RIMP2   correlation energy =        -5.0943800999 a.u.
        RIMP2         total energy =     -2760.4140029525 a.u.

 RI-MP2 Energy Time:  CPU 2874.21 s  wall 47.17 s
 
 --------------------------------------------------------------
 
                    Orbital Energies (a.u.)
 --------------------------------------------------------------
 
 Alpha MOs
 -- Occupied --
-92.0107 -92.0061 -91.9704 -91.9574 -26.3463 -20.6160 -20.5866 -20.5849
-20.5625 -11.4110 -11.3868 -11.3232 -11.3127 -11.3081 -11.3039 -11.2997
-11.2897 -11.2873 -11.2871 -11.2828 -11.2826 -11.2801 -11.2755 -11.2718
-11.2702 -11.2568 -11.2561 -11.2487 -11.2347  -9.0100  -9.0060  -8.9728
 -8.9600  -6.6907  -6.6899  -6.6896  -6.6870  -6.6863  -6.6852  -6.6539
 -6.6531  -6.6518  -6.6412  -6.6403  -6.6393  -1.6633  -1.4685  -1.4090
 -1.4077  -1.3712  -1.2348  -1.2005  -1.1722  -1.1392  -1.0998  -1.0489
 -1.0439  -1.0255  -1.0013  -0.9952  -0.9642  -0.9579  -0.9482  -0.9417
 -0.8913  -0.8722  -0.8620  -0.8157  -0.7963  -0.7900  -0.7827  -0.7668
 -0.7598  -0.7341  -0.7279  -0.7122  -0.7011  -0.6936  -0.6860  -0.6790
 -0.6751  -0.6660  -0.6544  -0.6476  -0.6356  -0.6290  -0.6191  -0.6145
 -0.6104  -0.6007  -0.5930  -0.5748  -0.5724  -0.5647  -0.5561  -0.5549
 -0.5492  -0.5321  -0.5260  -0.5223  -0.5123  -0.5101  -0.5061  -0.5001
 -0.4851  -0.4829  -0.4759  -0.4747  -0.4688  -0.4675  -0.4578  -0.4445
 -0.4189  -0.3998  -0.3828  -0.3688  -0.3511  -0.3082  -0.2873  -0.2190
 -- Virtual --
  0.0290   0.0528   0.0863   0.1290   0.1405   0.1456   0.1500   0.1549
  0.1565   0.1604   0.1719   0.1759   0.1831   0.1843   0.1909   0.1911
  0.2021   0.2044   0.2075   0.2104   0.2142   0.2209   0.2241   0.2274
  0.2291   0.2344   0.2411   0.2435   0.2491   0.2545   0.2628   0.2641
  0.2753   0.2955   0.3015   0.3106   0.3269   0.3303   0.3380   0.3449
  0.3456   0.3540   0.3586   0.3621   0.3671   0.3747   0.3831   0.3844
  0.3874   0.3887   0.3948   0.3974   0.4064   0.4117   0.4166   0.4179
  0.4261   0.4272   0.4298   0.4366   0.4407   0.4432   0.4470   0.4475
  0.4506   0.4558   0.4661   0.4678   0.4707   0.4772   0.4790   0.4818
  0.4862   0.4943   0.4977   0.5017   0.5037   0.5073   0.5113   0.5184
  0.5259   0.5280   0.5298   0.5328   0.5357   0.5416   0.5419   0.5452
  0.5464   0.5533   0.5557   0.5597   0.5622   0.5668   0.5743   0.5754
  0.5788   0.5870   0.5924   0.5950   0.5986   0.6035   0.6103   0.6124
  0.6136   0.6169   0.6191   0.6197   0.6211   0.6230   0.6259   0.6332
  0.6360   0.6392   0.6435   0.6476   0.6486   0.6529   0.6555   0.6589
  0.6630   0.6672   0.6747   0.6813   0.6835   0.6898   0.6924   0.6981
  0.7039   0.7100   0.7111   0.7159   0.7176   0.7252   0.7318   0.7345
  0.7444   0.7495   0.7561   0.7589   0.7647   0.7696   0.7757   0.7861
  0.7886   0.7933   0.7969   0.8064   0.8115   0.8174   0.8220   0.8245
  0.8303   0.8346   0.8423   0.8494   0.8577   0.8640   0.8694   0.8729
  0.8753   0.8855   0.8887   0.8940   0.8993   0.9026   0.9068   0.9124
  0.9156   0.9244   0.9319   0.9350   0.9396   0.9409   0.9470   0.9498
  0.9550   0.9613   0.9661   0.9720   0.9803   0.9832   0.9864   0.9893
  0.9916   0.9994   1.0068   1.0097   1.0132   1.0155   1.0241   1.0269
  1.0327   1.0350   1.0410   1.0506   1.0525   1.0563   1.0636   1.0702
  1.0735   1.0794   1.0795   1.0858   1.0872   1.0976   1.1054   1.1077
  1.1085   1.1152   1.1177   1.1216   1.1222   1.1301   1.1420   1.1449
  1.1546   1.1583   1.1636   1.1652   1.1726   1.1773   1.1819   1.1831
  1.1853   1.1893   1.1911   1.1984   1.2032   1.2063   1.2120   1.2152
  1.2210   1.2253   1.2330   1.2340   1.2419   1.2469   1.2498   1.2549
  1.2573   1.2643   1.2664   1.2716   1.2815   1.2843   1.2862   1.2887
  1.2985   1.3036   1.3078   1.3126   1.3216   1.3298   1.3317   1.3426
  1.3515   1.3558   1.3631   1.3651   1.3820   1.3888   1.3919   1.3971
  1.4002   1.4051   1.4118   1.4176   1.4245   1.4328   1.4482   1.4584
  1.4649   1.4707   1.4745   1.4767   1.4875   1.4928   1.5015   1.5040
  1.5063   1.5089   1.5111   1.5167   1.5206   1.5273   1.5373   1.5396
  1.5412   1.5447   1.5480   1.5517   1.5581   1.5610   1.5718   1.5791
  1.5861   1.5917   1.5968   1.6013   1.6160   1.6237   1.6257   1.6324
  1.6387   1.6446   1.6535   1.6584   1.6669   1.6740   1.6794   1.6838
  1.6897   1.6928   1.6948   1.7093   1.7214   1.7280   1.7319   1.7519
  1.7546   1.7708   1.7753   1.7869   1.7878   1.7994   1.8086   1.8171
  1.8195   1.8233   1.8368   1.8407   1.8513   1.8608   1.8633   1.8799
  1.8862   1.8926   1.9087   1.9102   1.9178   1.9230   1.9356   1.9432
  1.9471   1.9487   1.9560   1.9650   1.9736   1.9760   1.9920   1.9954
  2.0004   2.0049   2.0236   2.0247   2.0324   2.0428   2.0499   2.0523
  2.0673   2.0736   2.0780   2.0850   2.0942   2.0967   2.1109   2.1206
  2.1408   2.1455   2.1574   2.1645   2.1768   2.1822   2.1883   2.1938
  2.1959   2.1992   2.2144   2.2193   2.2263   2.2322   2.2359   2.2393
  2.2424   2.2506   2.2574   2.2698   2.2753   2.2798   2.2888   2.2951
  2.3036   2.3112   2.3191   2.3312   2.3384   2.3569   2.3593   2.3633
  2.3653   2.3732   2.3852   2.3932   2.4039   2.4141   2.4165   2.4207
  2.4287   2.4339   2.4524   2.4622   2.4775   2.4833   2.4847   2.4891
  2.5016   2.5088   2.5133   2.5262   2.5375   2.5487   2.5520   2.5563
  2.5656   2.5793   2.5899   2.6018   2.6039   2.6140   2.6210   2.6259
  2.6296   2.6370   2.6415   2.6445   2.6489   2.6528   2.6632   2.6744
  2.6760   2.6856   2.6873   2.6976   2.7020   2.7057   2.7103   2.7140
  2.7182   2.7235   2.7316   2.7421   2.7485   2.7626   2.7663   2.7752
  2.7833   2.7934   2.7983   2.8056   2.8064   2.8160   2.8209   2.8249
  2.8305   2.8484   2.8514   2.8553   2.8604   2.8686   2.8741   2.8781
  2.8847   2.8887   2.8914   2.8971   2.9057   2.9155   2.9404   2.9419
  2.9507   2.9556   2.9588   2.9595   2.9696   2.9741   2.9806   2.9859
  2.9956   2.9995   3.0155   3.0193   3.0230   3.0331   3.0426   3.0447
  3.0478   3.0569   3.0648   3.0719   3.0796   3.0894   3.0926   3.0977
  3.1015   3.1036   3.1121   3.1191   3.1213   3.1344   3.1375   3.1435
  3.1473   3.1523   3.1540   3.1577   3.1615   3.1671   3.1749   3.1795
  3.1890   3.1906   3.2026   3.2115   3.2131   3.2159   3.2189   3.2251
  3.2312   3.2338   3.2409   3.2439   3.2520   3.2575   3.2622   3.2670
  3.2712   3.2722   3.2790   3.2868   3.2899   3.2962   3.3000   3.3079
  3.3104   3.3134   3.3158   3.3271   3.3306   3.3350   3.3401   3.3453
  3.3479   3.3527   3.3541   3.3560   3.3603   3.3651   3.3670   3.3690
  3.3758   3.3817   3.3907   3.3945   3.3971   3.4020   3.4040   3.4069
  3.4105   3.4182   3.4226   3.4233   3.4325   3.4375   3.4439   3.4507
  3.4518   3.4556   3.4591   3.4604   3.4655   3.4695   3.4802   3.4831
  3.4835   3.4913   3.4972   3.5053   3.5105   3.5190   3.5268   3.5325
  3.5376   3.5452   3.5481   3.5517   3.5562   3.5613   3.5692   3.5767
  3.5812   3.5861   3.5901   3.5964   3.5984   3.6081   3.6124   3.6144
  3.6188   3.6216   3.6276   3.6363   3.6406   3.6435   3.6530   3.6592
  3.6602   3.6678   3.6721   3.6752   3.6791   3.6861   3.6902   3.6995
  3.7032   3.7059   3.7107   3.7127   3.7208   3.7215   3.7295   3.7353
  3.7412   3.7463   3.7568   3.7603   3.7672   3.7709   3.7720   3.7798
  3.7877   3.7947   3.7972   3.8035   3.8054   3.8072   3.8115   3.8130
  3.8206   3.8278   3.8365   3.8383   3.8455   3.8492   3.8538   3.8592
  3.8684   3.8726   3.8755   3.8809   3.8840   3.8914   3.8932   3.9027
  3.9108   3.9170   3.9280   3.9408   3.9449   3.9475   3.9545   3.9601
  3.9621   3.9721   3.9793   3.9871   3.9961   3.9976   4.0057   4.0164
  4.0204   4.0264   4.0330   4.0375   4.0456   4.0580   4.0675   4.0681
  4.0709   4.0806   4.0953   4.1027   4.1060   4.1141   4.1178   4.1297
  4.1383   4.1442   4.1508   4.1552   4.1639   4.1661   4.1689   4.1744
  4.1802   4.1861   4.1935   4.2065   4.2141   4.2174   4.2213   4.2381
  4.2419   4.2468   4.2529   4.2628   4.2709   4.2858   4.2902   4.3151
  4.3223   4.3265   4.3386   4.3413   4.3452   4.3502   4.3583   4.3618
  4.3688   4.3740   4.3780   4.3873   4.4035   4.4046   4.4126   4.4157
  4.4223   4.4251   4.4257   4.4311   4.4317   4.4425   4.4488   4.4522
  4.4627   4.4770   4.4779   4.4965   4.5055   4.5167   4.5229   4.5300
  4.5391   4.5487   4.5534   4.5643   4.5695   4.5738   4.5824   4.5849
  4.5965   4.6089   4.6249   4.6344   4.6347   4.6447   4.6460   4.6549
  4.6696   4.6708   4.6804   4.6905   4.7050   4.7109   4.7270   4.7346
  4.7474   4.7538   4.7695   4.7753   4.7827   4.7932   4.8068   4.8205
  4.8269   4.8333   4.8430   4.8532   4.8625   4.8680   4.8804   4.8941
  4.9025   4.9103   4.9368   4.9438   4.9529   4.9619   4.9695   4.9794
  4.9844   4.9960   5.0081   5.0119   5.0136   5.0191   5.0418   5.0504
  5.0685   5.0796   5.0892   5.1001   5.1148   5.1234   5.1375   5.1629
  5.1758   5.1953   5.1985   5.2077   5.2168   5.2293   5.2474   5.2506
  5.2562   5.2567   5.2743   5.2866   5.2953   5.3053   5.3216   5.3279
  5.3389   5.3472   5.3508   5.3638   5.3791   5.3873   5.3954   5.4036
  5.4116   5.4253   5.4265   5.4374   5.4457   5.4659   5.4842   5.5030
  5.5092   5.5152   5.5220   5.5330   5.5610   5.5712   5.5798   5.5871
  5.5917   5.6111   5.6156   5.6205   5.6409   5.6581   5.6912   5.6926
  5.7223   5.7282   5.7458   5.7659   5.7827   5.8064   5.8275   5.8433
  5.8609   5.8820   5.9027   5.9138   5.9280   5.9357   5.9626   5.9976
  6.0361   6.0409   6.0614   6.1266   6.1395   6.1496   6.1672   6.1762
  6.1803   6.1853   6.2286   6.2478   6.2517   6.2604   6.2612   6.2701
  6.2865   6.2930   6.3390   6.3780   6.4346   6.4489   6.4808   6.5376
  6.5471   6.5685   6.5999   6.6474   6.6598   6.6700   6.7154   6.7436
  6.8086   6.8284   6.8565   6.8584   6.9010   6.9768   7.1333   7.1476
  7.2028   7.2049   7.2240   7.2398   7.3088   7.3277   7.3424   7.3605
  7.3615   7.4041   7.4122   7.4829   7.4883   7.4971   7.5193   7.5492
  7.6142   7.7400   7.7701   7.7888   7.8040   7.8979   7.9281   7.9557
  7.9681   8.1313   8.2477   8.4731   8.9193   9.0241   9.3603   9.4800
  9.6703  10.2275  11.1901  11.4236  11.7577  12.0020  12.1249  12.3523
 12.4230  12.4858  12.9364  12.9708  13.0111  13.3324  13.3857  13.4818
 13.7121  13.7846  13.8796  13.9405  14.0367  14.3122  14.9568  15.2104
 --------------------------------------------------------------
 
          Ground-State Mulliken Net Atomic Charges

     Atom                 Charge (a.u.)
  ----------------------------------------
      1 C                    -0.069840
      2 C                    -0.265490
      3 S                    -0.137073
      4 C                    -0.042536
      5 H                     0.192842
      6 C                    -0.052464
      7 C                     0.223935
      8 C                     0.222622
      9 C                    -0.077415
     10 C                    -0.045768
     11 O                    -0.335963
     12 O                    -0.343638
     13 C                    -0.082521
     14 H                     0.119483
     15 H                     0.092036
     16 H                     0.092539
     17 C                    -0.086072
     18 H                     0.122277
     19 H                     0.091719
     20 H                     0.090134
     21 C                    -0.259475
     22 S                    -0.088887
     23 C                     0.049712
     24 H                     0.207396
     25 C                    -0.097923
     26 S                     0.090582
     27 C                    -0.155547
     28 C                    -0.003160
     29 C                    -0.087668
     30 S                     0.025884
     31 C                    -0.156758
     32 C                     0.396555
     33 F                    -0.204088
     34 C                     0.447133
     35 O                    -0.461280
     36 O                    -0.301215
     37 C                    -0.058262
     38 H                     0.121602
     39 H                     0.095382
     40 H                     0.095390
     41 H                     0.218844
     42 H                     0.116650
     43 H                     0.114135
     44 H                     0.186187
  ----------------------------------------
  Sum of atomic charges =     0.000000

 -----------------------------------------------------------------
                    Cartesian Multipole Moments
 -----------------------------------------------------------------
    Charge (ESU x 10^10)
                 0.0000
    Dipole Moment (Debye)
         X       2.3022      Y       3.3845      Z       2.1281
       Tot       4.6134
    Quadrupole Moments (Debye-Ang)
        XX    -178.7555     XY      11.7771     YY    -183.9715
        XZ       0.8647     YZ      -5.9795     ZZ    -203.3967
    Octopole Moments (Debye-Ang^2)
       XXX    -392.1372    XXY     369.9067    XYY    -141.3746
       YYY    1094.2824    XXZ     148.9309    XYZ     -59.8083
       YYZ     138.1160    XZZ     -76.4436    YZZ     488.0595
       ZZZ     540.2362
    Hexadecapole Moments (Debye-Ang^3)
      XXXX   -3765.9744   XXXY    -255.8692   XXYY   -4002.0191
      XYYY      32.9035   YYYY  -19379.3600   XXXZ     931.7348
      XXYZ     300.2856   XYYZ     322.9626   YYYZ    1106.9973
      XXZZ   -1337.3579   XYZZ     211.4045   YYZZ   -4176.4197
      XZZZ     593.2264   YZZZ     867.6698   ZZZZ   -5431.6315
 -----------------------------------------------------------------
 Total job time:  343.78s(wall), 10568.99s(cpu) 
 Tue Jan  9 12:24:23 2024

        *************************************************************
        *                                                           *
        *  Thank you very much for using Q-Chem.  Have a nice day.  *
        *                                                           *
        *************************************************************


0 sent ACK to 0 
now end server 0 ... 
cleanup process ... done
remove work dirs ./qchem1968068.0 -- ./qchem1968068.0
rm -rf ./qchem1968068.0
rm -rf ./qchem1968068
