You are running Q-Chem version: 5.4.0

#
# job setting
#
local host:  exp-3-50
current dir: /home/rramji/project-csd799/aromodel/ptb7fout-qchem/hydrogenated-rotation-run
input file:  Dimethoxy_Benzodithiophene_Phi_10_Theta_40_Methylcarbonyl_3_Fluoro_Thienothiophene_Hydrogenated.qcin
output file: 
nprocs     : 1
nthreads   : 64
#
# qchem installation setting
#
QC:          /cm/shared/apps/spack/cpu/opt/spack/linux-centos8-zen2/gcc-10.2.0/qchem-5.4-akfmr7b3t57bfs6qan3padb2wnb2i7cl
QCAUX:       /cm/shared/apps/spack/cpu/opt/spack/linux-centos8-zen2/gcc-10.2.0/qchem-5.4-akfmr7b3t57bfs6qan3padb2wnb2i7cl/qcaux
QCPROG:      /cm/shared/apps/spack/cpu/opt/spack/linux-centos8-zen2/gcc-10.2.0/qchem-5.4-akfmr7b3t57bfs6qan3padb2wnb2i7cl/exe/qcprog.exe
QCPROG_S:    /cm/shared/apps/spack/cpu/opt/spack/linux-centos8-zen2/gcc-10.2.0/qchem-5.4-akfmr7b3t57bfs6qan3padb2wnb2i7cl/exe/qcprog.exe_s
PARALLEL:    -DPARALLEL
QCMPI:       mpich
#
# qchem directory setting
#
qcrun:       qchem1283129
QCSCRATCH:   .
QCLOCALSCR:  
QCTMPDIR:    .
QCFILEPREF:  ./qchem1283129
QCSAVEDIR:   
workdirs:    ./qchem1283129
workdir0:    ./qchem1283129
partmpdirs =  
#
# parallel setting
#
QCRSH:           ssh
QCMPI:           mpich
QCMPIRUN:        /cm/shared/apps/spack/cpu/opt/spack/linux-centos8-zen2/gcc-10.2.0/qchem-5.4-akfmr7b3t57bfs6qan3padb2wnb2i7cl/bin/mpi/mpirun_qchem
QCMACHINEFILE:   ./qchem1283129/hostfile
exp-3-50

#
# env setting
#
exported envs:   QC QCAUX QCSCRATCH QCRUNNAME QCFILEPREF QCPROG QCPROG_S GUIFILE

Running Job 1 of 1 Dimethoxy_Benzodithiophene_Phi_10_Theta_40_Methylcarbonyl_3_Fluoro_Thienothiophene_Hydrogenated.qcin
qchem Dimethoxy_Benzodithiophene_Phi_10_Theta_40_Methylcarbonyl_3_Fluoro_Thienothiophene_Hydrogenated.qcin_1283129.0 ./qchem1283129/ 1
/cm/shared/apps/spack/cpu/opt/spack/linux-centos8-zen2/gcc-10.2.0/qchem-5.4-akfmr7b3t57bfs6qan3padb2wnb2i7cl/bin/mpi/mpirun_qchem -machinefile ./qchem1283129/hostfile -np 1 /cm/shared/apps/spack/cpu/opt/spack/linux-centos8-zen2/gcc-10.2.0/qchem-5.4-akfmr7b3t57bfs6qan3padb2wnb2i7cl/exe/qcprog.exe Dimethoxy_Benzodithiophene_Phi_10_Theta_40_Methylcarbonyl_3_Fluoro_Thienothiophene_Hydrogenated.qcin_1283129.0 ./qchem1283129/

Process 0 of 1 is on exp-3-50 - thread support 0
initial socket setup ...start
initial socket setup ...done 
now start server 0 ... 
                  Welcome to Q-Chem
     A Quantum Leap Into The Future Of Chemistry


 Q-Chem 5.4, Q-Chem, Inc., Pleasanton, CA (2021)

 License issued to: University of California, San Diego (site)

 E. Epifanovsky,  A. T. B. Gilbert,  Xintian Feng,  Joonho Lee,  Yuezhi Mao,  
 N. Mardirossian,  P. Pokhilko,  A. White,  M. Wormit,  M. P. Coons,  
 A. L. Dempwolff,  Zhengting Gan,  D. Hait,  P. R. Horn,  L. D. Jacobson,  
 I. Kaliman,  J. Kussmann,  A. W. Lange,  Ka Un Lao,  D. S. Levine,  Jie Liu,  
 S. C. McKenzie,  A. F. Morrison,  K. Nanda,  F. Plasser,  D. R. Rehn,  
 M. L. Vidal,  Zhi-Qiang You,  Ying Zhu,  B. Alam,  B. Albrecht,  
 A. Aldossary,  E. Alguire,  J. H. Andersen,  D. Barton,  K. Begam,  A. Behn,  
 Y. A. Bernard,  E. J. Berquist,  H. Burton,  A. Carreras,  K. Carter-Fenk,  
 R. Chakraborty,  A. D. Chien,  K. D. Closser,  V. Cofer-Shabica,  
 S. Dasgupta,  Jia Deng,  M. de Wergifosse,  M. Diedenhofen,  Hainam Do,  
 S. Ehlert,  Po-Tung Fang,  S. Fatehi,  Qingguo Feng,  J. Gayvert,  
 Qinghui Ge,  G. Gidofalvi,  M. Goldey,  J. Gomes,  C. Gonzalez-Espinoza,  
 S. Gulania,  A. Gunina,  M. W. D. Hanson-Heine,  P. H. P. Harbach,  
 A. W. Hauser,  M. F. Herbst,  M. Hernandez Vera,  M. Hodecker,  
 Z. C. Holden,  S. Houck,  Xunkun Huang,  Kerwin Hui,  B. C. Huynh,  
 M. Ivanov,  Hyunjun Ji,  Hanjie Jiang,  B. Kaduk,  S. Kaehler,  
 K. Khistyaev,  Jaehoon Kim,  P. Klunzinger,  Z. Koczor-Benda,  
 Joong Hoon Koh,  D. Kosenkov,  L. Koulias,  T. Kowalczyk,  C. M. Krauter,  
 K. Kue,  A. Kunitsa,  T. Kus,  A. Landau,  K. V. Lawler,  D. Lefrancois,  
 S. Lehtola,  Rain Li,  Yi-Pei Li,  Jiashu Liang,  M. Liebenthal,  
 Hung-Hsuan Lin,  You-Sheng Lin,  Fenglai Liu,  Kuan-Yu Liu,  
 M. Loipersberger,  A. Luenser,  A. Manjanath,  P. Manohar,  E. Mansoor,  
 S. F. Manzer,  Shan-Ping Mao,  A. V. Marenich,  T. Markovich,  S. Mason,  
 S. A. Maurer,  P. F. McLaughlin,  M. F. S. J. Menger,  J.-M. Mewes,  
 S. A. Mewes,  P. Morgante,  J. W. Mullinax,  T. S. Nguyen-Beck,  
 K. J. Oosterbaan,  G. Paran,  Alexander C. Paul,  Suranjan K. Paul,  
 F. Pavosevic,  Zheng Pei,  S. Prager,  E. I. Proynov,  E. Ramos,  B. Rana,  
 A. E. Rask,  A. Rettig,  R. M. Richard,  F. Rob,  E. Rossomme,  T. Scheele,  
 M. Scheurer,  M. Schneider,  N. Sergueev,  S. M. Sharada,  W. Skomorowski,  
 D. W. Small,  C. J. Stein,  Yu-Chuan Su,  E. J. Sundstrom,  Zhen Tao,  
 J. Thirman,  T. Tsuchimochi,  N. M. Tubman,  S. P. Veccham,  O. Vydrov,  
 J. Wenzel,  J. Witte,  A. Yamada,  Kun Yao,  S. Yeganeh,  S. R. Yost,  
 A. Zech,  Igor Ying Zhang,  Xing Zhang,  Yu Zhang,  D. Zuev,  
 A. Aspuru-Guzik,  A. T. Bell,  N. A. Besley,  K. B. Bravaya,  B. R. Brooks,  
 D. Casanova,  Jeng-Da Chai,  S. Coriani,  C. J. Cramer,  
 A. E. DePrince, III,  R. A. DiStasio Jr.,  A. Dreuw,  B. D. Dunietz,  
 T. R. Furlani,  W. A. Goddard III,  S. Grimme,  S. Hammes-Schiffer,  
 T. Head-Gordon,  W. J. Hehre,  Chao-Ping Hsu,  T.-C. Jagau,  Yousung Jung,  
 A. Klamt,  Jing Kong,  D. S. Lambrecht,  WanZhen Liang,  N. J. Mayhall,  
 C. W. McCurdy,  J. B. Neaton,  C. Ochsenfeld,  J. A. Parkhill,  R. Peverati,  
 V. A. Rassolov,  Yihan Shao,  L. V. Slipchenko,  T. Stauch,  R. P. Steele,  
 J. E. Subotnik,  A. J. W. Thom,  A. Tkatchenko,  D. G. Truhlar,  
 T. Van Voorhis,  T. A. Wesolowski,  K. B. Whaley,  H. L. Woodcock III,  
 P. M. Zimmerman,  S. Faraji,  P. M. W. Gill,  M. Head-Gordon,  
 J. M. Herbert,  A. I. Krylov

 Contributors to earlier versions of Q-Chem not listed above: 
 R. D. Adamson,  B. Austin,  R. Baer,  J. Baker,  G. J. O. Beran,  
 K. Brandhorst,  S. T. Brown,  E. F. C. Byrd,  A. K. Chakraborty,  
 G. K. L. Chan,  Chun-Min Chang,  Yunqing Chen,  C.-L. Cheng,  
 Siu Hung Chien,  D. M. Chipman,  D. L. Crittenden,  H. Dachsel,  
 R. J. Doerksen,  A. D. Dutoi,  R. G. Edgar,  J. Fosso-Tande,  
 L. Fusti-Molnar,  D. Ghosh,  A. Ghysels,  A. Golubeva-Zadorozhnaya,  
 J. Gonthier,  M. S. Gordon,  S. R. Gwaltney,  G. Hawkins,  J. E. Herr,  
 A. Heyden,  S. Hirata,  E. G. Hohenstein,  G. Kedziora,  F. J. Keil,  
 C. Kelley,  Jihan Kim,  R. A. King,  R. Z. Khaliullin,  P. P. Korambath,  
 W. Kurlancheek,  A. Laurent,  A. M. Lee,  M. S. Lee,  S. V. Levchenko,  
 Ching Yeh Lin,  D. Liotard,  E. Livshits,  R. C. Lochan,  I. Lotan,  
 L. A. Martinez-Martinez,  P. E. Maslen,  N. Nair,  D. P. O'Neill,  
 D. Neuhauser,  E. Neuscamman,  C. M. Oana,  R. Olivares-Amaya,  R. Olson,  
 T. M. Perrine,  B. Peters,  P. A. Pieniazek,  A. Prociuk,  Y. M. Rhee,  
 J. Ritchie,  M. A. Rohrdanz,  E. Rosta,  N. J. Russ,  H. F. Schaefer III,  
 M. W. Schmidt,  N. E. Schultz,  S. Sharma,  N. Shenvi,  C. D. Sherrill,  
 A. C. Simmonett,  A. Sodt,  T. Stein,  D. Stuck,  K. S. Thanthiriwatte,  
 V. Vanovschi,  L. Vogt,  Tao Wang,  A. Warshel,  M. A. Watson,  
 C. F. Williams,  Q. Wu,  X. Xu,  Jun Yang,  W. Zhang,  Yan Zhao

 Please cite Q-Chem as follows:
 Y. Shao et al., Mol. Phys. 113, 184-215 (2015)
 DOI: 10.1080/00268976.2014.952696

 Q-Chem 5.4.0 for Intel X86 EM64T Linux

 Parts of Q-Chem use Armadillo 9.800.1 (Horizon Scraper).
 http://arma.sourceforge.net/

 Q-Chem begins on Tue Jan  9 10:07:42 2024  

 Host: 
0

     Scratch files written to ./qchem1283129//
 May1621 |scratch|qcdevops|jenkins|workspace|build_RNUM    
 Parallel job on  1  processors
 Processing $rem in /cm/shared/apps/spack/cpu/opt/spack/linux-centos8-zen2/gcc-10.2.0/qchem-5.4-akfmr7b3t57bfs6qan3padb2wnb2i7cl/config/preferences:
 Processing $rem in /home/rramji/.qchemrc:
 Symmetry turned off for PCM/SM12/SMD calculation
 Core orbitals will be frozen

 Checking the input file for inconsistencies... 	...done.

 Q-Chem warning in module forms1/BasisType.C, line 2236:

 You are not using the predefined 5D/6D in this basis set.


--------------------------------------------------------------
User input:
--------------------------------------------------------------
$molecule
0 1
C	-0.236226	-8.517702	0.217225
C	0.448921	-7.641575	-0.611939
S	-1.218777	-7.638634	1.413715
C	0.206907	-6.264785	-0.323572
H	1.118185	-7.966081	-1.418739
C	-0.711285	-6.072714	0.768156
C	-1.053725	-4.787049	1.215016
C	0.804258	-5.162801	-0.999917
C	0.464908	-3.874817	-0.550033
C	-0.456457	-3.683952	0.541024
O	1.630752	-5.499772	-2.028811
O	-1.883064	-4.459055	2.249357
C	-2.956754	-5.329063	2.586579
H	-3.619069	-4.755694	3.262802
H	-2.609423	-6.238095	3.124711
H	-3.531667	-5.637262	1.686639
C	2.599073	-4.572261	-2.503251
H	3.260097	-5.139743	-3.185356
H	3.207034	-4.153131	-1.672937
H	2.135214	-3.739531	-3.075213
C	-0.694410	-2.306654	0.828107
S	0.983256	-2.306501	-1.188794
C	-0.000000	-1.435185	-0.000000
H	-1.364851	-1.978138	1.632185
C	0.000000	0.000000	0.000000
S	0.157577	0.890937	1.507541
C	0.429889	2.439720	0.718873
C	0.157797	0.890576	-1.067872
C	0.396915	2.260004	-0.686410
S	0.118307	0.650207	-2.805516
C	0.417036	2.376229	-3.054530
C	0.537616	3.074202	-1.862551
F	0.764992	4.391378	-1.819088
C	0.496696	2.817118	-4.456084
O	0.370874	2.057582	-5.406510
O	0.723861	4.148418	-4.569225
C	0.814976	4.635075	-5.916207
H	0.999286	5.720591	-5.833064
H	-0.125909	4.442226	-6.470168
H	1.645504	4.140465	-6.459293
H	0.588993	3.350182	1.306486
H	0.456457	-9.143623	0.792084
H	-0.927480	-9.149441	-0.352973
H	0.832067	-1.443175	0.688477
$end

$rem
JOBTYPE		SP
EXCHANGE	HF
CORRELATION	pRIMP2
BASIS		cc-pvtz
METHOD		rimp2
AUX_BASIS	rimp2-cc-pvtz
SOLVENT_METHOD	PCM
PURECART	11111
SYMMETRY	false
MEM_TOTAL	110000
SCF_CONVERGENCE = 6
THRESH=10
GUI = 2
$end



$solvent
dielectric 4.90
$end
--------------------------------------------------------------
 ----------------------------------------------------------------
             Standard Nuclear Orientation (Angstroms)
    I     Atom           X                Y                Z
 ----------------------------------------------------------------
    1      C      -0.2362260000    -8.5177020000     0.2172250000
    2      C       0.4489210000    -7.6415750000    -0.6119390000
    3      S      -1.2187770000    -7.6386340000     1.4137150000
    4      C       0.2069070000    -6.2647850000    -0.3235720000
    5      H       1.1181850000    -7.9660810000    -1.4187390000
    6      C      -0.7112850000    -6.0727140000     0.7681560000
    7      C      -1.0537250000    -4.7870490000     1.2150160000
    8      C       0.8042580000    -5.1628010000    -0.9999170000
    9      C       0.4649080000    -3.8748170000    -0.5500330000
   10      C      -0.4564570000    -3.6839520000     0.5410240000
   11      O       1.6307520000    -5.4997720000    -2.0288110000
   12      O      -1.8830640000    -4.4590550000     2.2493570000
   13      C      -2.9567540000    -5.3290630000     2.5865790000
   14      H      -3.6190690000    -4.7556940000     3.2628020000
   15      H      -2.6094230000    -6.2380950000     3.1247110000
   16      H      -3.5316670000    -5.6372620000     1.6866390000
   17      C       2.5990730000    -4.5722610000    -2.5032510000
   18      H       3.2600970000    -5.1397430000    -3.1853560000
   19      H       3.2070340000    -4.1531310000    -1.6729370000
   20      H       2.1352140000    -3.7395310000    -3.0752130000
   21      C      -0.6944100000    -2.3066540000     0.8281070000
   22      S       0.9832560000    -2.3065010000    -1.1887940000
   23      C       0.0000000000    -1.4351850000     0.0000000000
   24      H      -1.3648510000    -1.9781380000     1.6321850000
   25      C       0.0000000000     0.0000000000     0.0000000000
   26      S       0.1575770000     0.8909370000     1.5075410000
   27      C       0.4298890000     2.4397200000     0.7188730000
   28      C       0.1577970000     0.8905760000    -1.0678720000
   29      C       0.3969150000     2.2600040000    -0.6864100000
   30      S       0.1183070000     0.6502070000    -2.8055160000
   31      C       0.4170360000     2.3762290000    -3.0545300000
   32      C       0.5376160000     3.0742020000    -1.8625510000
   33      F       0.7649920000     4.3913780000    -1.8190880000
   34      C       0.4966960000     2.8171180000    -4.4560840000
   35      O       0.3708740000     2.0575820000    -5.4065100000
   36      O       0.7238610000     4.1484180000    -4.5692250000
   37      C       0.8149760000     4.6350750000    -5.9162070000
   38      H       0.9992860000     5.7205910000    -5.8330640000
   39      H      -0.1259090000     4.4422260000    -6.4701680000
   40      H       1.6455040000     4.1404650000    -6.4592930000
   41      H       0.5889930000     3.3501820000     1.3064860000
   42      H       0.4564570000    -9.1436230000     0.7920840000
   43      H      -0.9274800000    -9.1494410000    -0.3529730000
   44      H       0.8320670000    -1.4431750000     0.6884770000
 ----------------------------------------------------------------
 Nuclear Repulsion Energy =        3343.02100553 hartrees
 There are      120 alpha and      120 beta electrons
 Requested basis set is cc-pVTZ
 There are 388 shells and 1096 basis functions

 Total QAlloc Memory Limit 110000 MB
 Mega-Array Size       188 MB
 MEM_STATIC part       192 MB
 Discretize the solute cavity surface with Lebedev spheres
	Using 110 Lebedev grid points for each H atom
	Using 194 Lebedev grid points for other atoms
	Atomic van der Waals radii will be scaled by 1.20
 Remove points where switching function is < 1.0e-08
 Keep 2971 surface tesserae and discard 4305 interior tesserae
 Molecular Surface Area = 440.235 Angst**2
 Requested basis set is rimp2-cc-pVTZ
 There are 853 shells and 2963 basis functions
 A cutoff of  1.0D-10 yielded  32907 shell pairs
 There are    248811 function pairs (    322015 Cartesian)
 Smallest overlap matrix eigenvalue = 2.13E-05

 Scale SEOQF with 1.000000e-01/1.000000e-02/1.000000e-02

 Standard Electronic Orientation quadrupole field applied
 Nucleus-field energy     =     0.0000000284 hartrees
 Guess from superposition of atomic densities
 Warning:  Energy on first SCF cycle will be non-variational
 SAD guess density has 240.000000 electrons

 -----------------------------------------------------------------------
  General SCF calculation program by
  Eric Jon Sundstrom, Paul Horn, Yuezhi Mao, Dmitri Zuev, Alec White,
  David Stuck, Shaama M.S., Shane Yost, Joonho Lee, David Small,
  Daniel Levine, Susi Lehtola, Hugh Burton, Evgeny Epifanovsky,
  Bang C. Huynh
 -----------------------------------------------------------------------
 Hartree-Fock
 using 64 threads for integral computing
 -------------------------------------------------------
 OpenMP Integral computing Module                
 Release: version 1.0, May 2013, Q-Chem Inc. Pittsburgh 
 -------------------------------------------------------
 A restricted SCF calculation will be
 performed using DIIS
 SCF converges when DIIS error is below 1.0e-06
 ---------------------------------------
  Cycle       Energy         DIIS error
 ---------------------------------------
    1   -2767.0290537032      1.75e-02  
    2   -2754.8920128740      1.53e-03  
    3   -2755.2408881068      8.54e-04  
    4   -2755.3274890995      2.56e-04  
    5   -2755.3410923262      7.41e-05  
    6   -2755.3426395614      2.62e-05  
    7   -2755.3430491883      1.37e-05  
    8   -2755.3431838536      5.74e-06  
    9   -2755.3432159271      2.98e-06  
   10   -2755.3432237588      1.54e-06  
   11   -2755.3432264401      8.30e-07  Convergence criterion met
 ---------------------------------------
 SCF time:   CPU 7905.56s  wall 301.00s 

************** Final PCM Free Energy Summary **************
 G_electrostatic  =      -0.02104437 hartree =     -13.20554118 kcal/mol
 G_cavitation     =       0.00000000 hartree =       0.00000000 kcal/mol
 G_dispersion     =       0.00000000 hartree =       0.00000000 kcal/mol
 G_repulsion      =       0.00000000 hartree =       0.00000000 kcal/mol
 --------------------------------------------------
 Non-electrostatic Free Energy =       0.00000000 hartree =       0.00000000 kcal/mol
 Total                         =      -0.02104437 hartree =     -13.20554118 kcal/mol
 --------------------------------------------------
 SCF Energy (H0 + V/2)                       =   -2755.34322644 
 Solute Internal Energy (H0)                 =   -2755.32218207 
 Total Free Energy (H0 + V/2 + non-elec)     =   -2755.34322644 hartree
                                             = -1729003.97044689 kcal/mol
***********************************************************

 SCF   energy in the final basis set =    -2755.3432264401
 Total energy in the final basis set =    -2755.3432264401


 --------------------------------------------------------------
  Generalized many-body perturbation theory program
  by Joonho Lee, Fazle Rob, Xintian Feng, Evgeny Epifanovsky

 No regularization used 
 (reg. param. = 0.0000e+00)
  (P|Q)^-1/2 Time:  CPU 235.26 s  wall 4.35 s

 In RI-MP2 calculation: 
 # of frozen core orbitals: 45

 Components of the RIMP2 correlation energy:
        aaaa    correlation energy =        -0.6686877836 a.u.
        abab    correlation energy =        -3.7513259285 a.u.
        bbbb    correlation energy =        -0.6686877836 a.u.
        non-Brillouin singles      =        -0.0000000000 a.u.
        total same-spin energy     =        -1.3373755673 a.u.
        total opposite-spin energy =        -3.7513259285 a.u.

 Total  RIMP2   correlation energy =        -5.0887014957 a.u.
        RIMP2         total energy =     -2760.4319279359 a.u.

 RI-MP2 Energy Time:  CPU 3124.22 s  wall 51.22 s
 
 --------------------------------------------------------------
 
                    Orbital Energies (a.u.)
 --------------------------------------------------------------
 
 Alpha MOs
 -- Occupied --
-92.0143 -91.9950 -91.9799 -91.9590 -26.3424 -20.6146 -20.5878 -20.5876
-20.5611 -11.4090 -11.3811 -11.3096 -11.3090 -11.3071 -11.3060 -11.2972
-11.2946 -11.2887 -11.2845 -11.2844 -11.2838 -11.2833 -11.2821 -11.2739
-11.2724 -11.2593 -11.2589 -11.2504 -11.2385  -9.0132  -8.9952  -8.9820
 -8.9616  -6.6940  -6.6934  -6.6928  -6.6762  -6.6755  -6.6743  -6.6631
 -6.6622  -6.6609  -6.6428  -6.6419  -6.6408  -1.6596  -1.4670  -1.4110
 -1.4095  -1.3697  -1.2296  -1.2027  -1.1746  -1.1373  -1.1004  -1.0475
 -1.0438  -1.0242  -1.0043  -0.9975  -0.9632  -0.9575  -0.9490  -0.9413
 -0.8942  -0.8681  -0.8664  -0.8148  -0.7942  -0.7898  -0.7848  -0.7691
 -0.7563  -0.7378  -0.7245  -0.7147  -0.6971  -0.6886  -0.6844  -0.6805
 -0.6736  -0.6622  -0.6564  -0.6491  -0.6375  -0.6304  -0.6207  -0.6156
 -0.6109  -0.5991  -0.5927  -0.5768  -0.5712  -0.5644  -0.5590  -0.5585
 -0.5494  -0.5331  -0.5311  -0.5254  -0.5134  -0.5102  -0.5078  -0.5018
 -0.4849  -0.4792  -0.4764  -0.4735  -0.4693  -0.4678  -0.4608  -0.4476
 -0.4295  -0.3956  -0.3864  -0.3707  -0.3516  -0.2977  -0.2894  -0.2194
 -- Virtual --
  0.0344   0.0506   0.1141   0.1323   0.1371   0.1473   0.1524   0.1544
  0.1573   0.1579   0.1670   0.1781   0.1814   0.1838   0.1885   0.1946
  0.1999   0.2020   0.2050   0.2142   0.2152   0.2201   0.2241   0.2282
  0.2295   0.2345   0.2363   0.2447   0.2515   0.2552   0.2637   0.2726
  0.2767   0.2910   0.3058   0.3253   0.3289   0.3387   0.3428   0.3451
  0.3507   0.3576   0.3602   0.3683   0.3761   0.3842   0.3852   0.3856
  0.3885   0.3948   0.4010   0.4060   0.4075   0.4117   0.4169   0.4231
  0.4247   0.4279   0.4331   0.4364   0.4390   0.4452   0.4498   0.4547
  0.4596   0.4644   0.4652   0.4679   0.4724   0.4788   0.4803   0.4857
  0.4916   0.4938   0.5012   0.5054   0.5057   0.5100   0.5152   0.5190
  0.5217   0.5257   0.5334   0.5337   0.5373   0.5421   0.5435   0.5506
  0.5512   0.5538   0.5564   0.5595   0.5627   0.5675   0.5757   0.5786
  0.5834   0.5864   0.5877   0.5958   0.5988   0.6013   0.6061   0.6116
  0.6119   0.6149   0.6168   0.6215   0.6220   0.6245   0.6281   0.6298
  0.6313   0.6371   0.6399   0.6450   0.6475   0.6515   0.6552   0.6571
  0.6614   0.6686   0.6715   0.6776   0.6851   0.6879   0.6916   0.7006
  0.7059   0.7082   0.7141   0.7177   0.7190   0.7242   0.7294   0.7362
  0.7401   0.7496   0.7561   0.7579   0.7660   0.7740   0.7819   0.7898
  0.7972   0.8026   0.8036   0.8084   0.8121   0.8186   0.8250   0.8263
  0.8301   0.8354   0.8498   0.8517   0.8584   0.8632   0.8708   0.8738
  0.8755   0.8816   0.8915   0.8959   0.8991   0.9053   0.9077   0.9153
  0.9187   0.9252   0.9292   0.9324   0.9438   0.9460   0.9505   0.9578
  0.9589   0.9638   0.9654   0.9769   0.9801   0.9859   0.9903   0.9943
  0.9982   1.0037   1.0055   1.0109   1.0166   1.0194   1.0245   1.0318
  1.0389   1.0406   1.0465   1.0545   1.0567   1.0605   1.0649   1.0712
  1.0721   1.0773   1.0829   1.0850   1.0976   1.1017   1.1051   1.1079
  1.1148   1.1153   1.1203   1.1254   1.1277   1.1349   1.1373   1.1521
  1.1536   1.1556   1.1653   1.1691   1.1704   1.1733   1.1783   1.1850
  1.1863   1.1941   1.1989   1.2024   1.2064   1.2107   1.2138   1.2216
  1.2273   1.2308   1.2335   1.2393   1.2429   1.2437   1.2546   1.2567
  1.2622   1.2637   1.2696   1.2755   1.2770   1.2849   1.2904   1.2926
  1.3039   1.3100   1.3119   1.3166   1.3226   1.3292   1.3356   1.3427
  1.3479   1.3501   1.3648   1.3677   1.3840   1.3897   1.3957   1.3988
  1.4068   1.4173   1.4191   1.4204   1.4273   1.4331   1.4450   1.4481
  1.4576   1.4654   1.4752   1.4790   1.4877   1.4928   1.4998   1.5023
  1.5049   1.5090   1.5115   1.5166   1.5246   1.5336   1.5371   1.5401
  1.5421   1.5461   1.5498   1.5541   1.5555   1.5650   1.5715   1.5760
  1.5890   1.5966   1.6029   1.6037   1.6127   1.6261   1.6267   1.6389
  1.6420   1.6448   1.6566   1.6592   1.6674   1.6726   1.6841   1.6873
  1.6948   1.7029   1.7077   1.7080   1.7182   1.7267   1.7346   1.7515
  1.7555   1.7642   1.7742   1.7787   1.7894   1.7972   1.8117   1.8155
  1.8197   1.8269   1.8312   1.8468   1.8523   1.8599   1.8663   1.8742
  1.8793   1.8832   1.8947   1.9000   1.9186   1.9226   1.9301   1.9381
  1.9511   1.9580   1.9630   1.9679   1.9787   1.9899   1.9956   1.9985
  2.0030   2.0161   2.0200   2.0226   2.0343   2.0370   2.0438   2.0531
  2.0585   2.0719   2.0800   2.0925   2.0960   2.1072   2.1133   2.1239
  2.1378   2.1565   2.1596   2.1631   2.1749   2.1869   2.1901   2.1954
  2.1994   2.2038   2.2079   2.2112   2.2245   2.2256   2.2406   2.2438
  2.2477   2.2563   2.2623   2.2717   2.2756   2.2895   2.2910   2.3039
  2.3104   2.3143   2.3249   2.3358   2.3386   2.3491   2.3502   2.3565
  2.3709   2.3763   2.3905   2.4007   2.4022   2.4137   2.4158   2.4231
  2.4299   2.4410   2.4462   2.4621   2.4761   2.4785   2.4890   2.4950
  2.5024   2.5129   2.5173   2.5321   2.5415   2.5460   2.5591   2.5671
  2.5710   2.5791   2.5945   2.5999   2.6135   2.6171   2.6213   2.6270
  2.6296   2.6320   2.6402   2.6418   2.6460   2.6491   2.6681   2.6731
  2.6836   2.6857   2.6862   2.6960   2.6989   2.7076   2.7109   2.7133
  2.7217   2.7249   2.7335   2.7436   2.7545   2.7580   2.7620   2.7721
  2.7783   2.7798   2.7847   2.7933   2.8022   2.8128   2.8153   2.8246
  2.8415   2.8423   2.8508   2.8518   2.8540   2.8628   2.8632   2.8692
  2.8804   2.8828   2.8875   2.9022   2.9094   2.9135   2.9222   2.9386
  2.9464   2.9533   2.9575   2.9603   2.9726   2.9781   2.9807   2.9887
  2.9918   2.9968   3.0131   3.0225   3.0236   3.0311   3.0366   3.0469
  3.0492   3.0628   3.0644   3.0751   3.0797   3.0908   3.0974   3.1006
  3.1044   3.1117   3.1153   3.1182   3.1308   3.1350   3.1369   3.1446
  3.1470   3.1517   3.1539   3.1576   3.1667   3.1676   3.1735   3.1776
  3.1828   3.1940   3.1980   3.2047   3.2117   3.2167   3.2177   3.2244
  3.2247   3.2319   3.2392   3.2469   3.2532   3.2580   3.2627   3.2650
  3.2693   3.2709   3.2748   3.2819   3.2864   3.2900   3.2983   3.3029
  3.3033   3.3094   3.3154   3.3183   3.3289   3.3336   3.3372   3.3410
  3.3421   3.3499   3.3530   3.3572   3.3628   3.3671   3.3678   3.3690
  3.3783   3.3861   3.3896   3.3899   3.3942   3.3957   3.3997   3.4088
  3.4098   3.4117   3.4202   3.4267   3.4329   3.4344   3.4375   3.4458
  3.4461   3.4510   3.4557   3.4573   3.4658   3.4695   3.4763   3.4802
  3.4862   3.4879   3.4933   3.4978   3.5041   3.5081   3.5151   3.5271
  3.5313   3.5407   3.5469   3.5529   3.5623   3.5641   3.5677   3.5761
  3.5767   3.5887   3.5914   3.5943   3.6001   3.6046   3.6079   3.6091
  3.6162   3.6217   3.6245   3.6294   3.6333   3.6362   3.6416   3.6581
  3.6647   3.6664   3.6733   3.6748   3.6813   3.6850   3.6893   3.6926
  3.6994   3.7055   3.7079   3.7143   3.7189   3.7214   3.7274   3.7367
  3.7421   3.7436   3.7505   3.7569   3.7580   3.7648   3.7679   3.7724
  3.7852   3.7880   3.7941   3.7999   3.8021   3.8089   3.8104   3.8148
  3.8164   3.8226   3.8311   3.8351   3.8462   3.8512   3.8542   3.8591
  3.8648   3.8675   3.8745   3.8818   3.8852   3.8923   3.9013   3.9063
  3.9114   3.9195   3.9274   3.9300   3.9385   3.9417   3.9485   3.9568
  3.9609   3.9692   3.9764   3.9838   3.9927   4.0005   4.0047   4.0094
  4.0141   4.0188   4.0346   4.0396   4.0471   4.0572   4.0632   4.0666
  4.0683   4.0767   4.0790   4.0954   4.0971   4.1116   4.1130   4.1310
  4.1431   4.1454   4.1558   4.1601   4.1663   4.1665   4.1724   4.1747
  4.1761   4.1852   4.1916   4.2019   4.2100   4.2111   4.2224   4.2342
  4.2425   4.2456   4.2587   4.2651   4.2784   4.2851   4.2917   4.3030
  4.3145   4.3213   4.3285   4.3397   4.3421   4.3497   4.3525   4.3579
  4.3639   4.3664   4.3734   4.3797   4.3903   4.4050   4.4143   4.4168
  4.4191   4.4226   4.4300   4.4309   4.4350   4.4371   4.4493   4.4629
  4.4638   4.4735   4.4782   4.4964   4.5027   4.5168   4.5224   4.5277
  4.5367   4.5449   4.5534   4.5582   4.5704   4.5761   4.5788   4.5824
  4.5874   4.6031   4.6098   4.6148   4.6214   4.6300   4.6512   4.6516
  4.6553   4.6600   4.6698   4.6782   4.6906   4.7075   4.7228   4.7259
  4.7360   4.7595   4.7640   4.7806   4.7842   4.7859   4.8040   4.8200
  4.8253   4.8353   4.8428   4.8465   4.8649   4.8718   4.8789   4.8893
  4.9034   4.9168   4.9261   4.9398   4.9490   4.9559   4.9651   4.9673
  4.9753   5.0019   5.0091   5.0130   5.0142   5.0182   5.0427   5.0543
  5.0798   5.0914   5.0945   5.1110   5.1211   5.1248   5.1607   5.1629
  5.1749   5.1928   5.2018   5.2041   5.2268   5.2378   5.2488   5.2530
  5.2582   5.2668   5.2803   5.2907   5.2929   5.3139   5.3153   5.3253
  5.3366   5.3523   5.3610   5.3641   5.3703   5.3780   5.3896   5.4017
  5.4056   5.4184   5.4264   5.4422   5.4500   5.4851   5.4982   5.5033
  5.5100   5.5207   5.5254   5.5392   5.5505   5.5681   5.5753   5.5821
  5.5899   5.6088   5.6095   5.6219   5.6334   5.6627   5.6764   5.6895
  5.6960   5.7302   5.7592   5.7617   5.7842   5.8077   5.8239   5.8564
  5.8605   5.8800   5.8985   5.9226   5.9294   5.9458   5.9812   6.0060
  6.0396   6.0450   6.0924   6.1301   6.1507   6.1579   6.1727   6.1773
  6.1810   6.2031   6.2280   6.2466   6.2616   6.2632   6.2751   6.2822
  6.3137   6.3316   6.3529   6.3783   6.4503   6.4581   6.4904   6.5401
  6.5481   6.5685   6.6083   6.6446   6.6616   6.6714   6.7169   6.7469
  6.8068   6.8304   6.8581   6.8597   6.8978   6.9789   7.1308   7.1458
  7.2042   7.2079   7.2216   7.2392   7.3101   7.3266   7.3420   7.3639
  7.3648   7.4068   7.4135   7.4857   7.4864   7.4961   7.5270   7.5520
  7.6164   7.7414   7.7738   7.7904   7.8020   7.9042   7.9258   7.9543
  7.9750   8.1351   8.3430   8.6023   8.9228   9.0301   9.3638   9.4851
  9.6771  10.2380  11.1690  11.4744  11.7286  11.8806  12.1232  12.3697
 12.4177  12.5006  12.9616  12.9973  13.0526  13.2884  13.3860  13.4811
 13.7626  13.7971  13.9003  13.9512  14.0331  14.3104  14.8873  15.2059
 --------------------------------------------------------------
 
          Ground-State Mulliken Net Atomic Charges

     Atom                 Charge (a.u.)
  ----------------------------------------
      1 C                    -0.070291
      2 C                    -0.255272
      3 S                    -0.134521
      4 C                    -0.048106
      5 H                     0.194167
      6 C                    -0.049082
      7 C                     0.219264
      8 C                     0.228578
      9 C                    -0.072924
     10 C                    -0.019146
     11 O                    -0.334479
     12 O                    -0.343635
     13 C                    -0.082808
     14 H                     0.119999
     15 H                     0.092145
     16 H                     0.093253
     17 C                    -0.088312
     18 H                     0.124050
     19 H                     0.092472
     20 H                     0.091900
     21 C                    -0.319559
     22 S                    -0.088806
     23 C                     0.139865
     24 H                     0.201644
     25 C                    -0.049185
     26 S                     0.085221
     27 C                    -0.199887
     28 C                    -0.050034
     29 C                    -0.101395
     30 S                     0.004317
     31 C                    -0.157956
     32 C                     0.402225
     33 F                    -0.208063
     34 C                     0.443061
     35 O                    -0.460113
     36 O                    -0.300556
     37 C                    -0.058720
     38 H                     0.121307
     39 H                     0.095209
     40 H                     0.095023
     41 H                     0.217222
     42 H                     0.117899
     43 H                     0.115788
     44 H                     0.198242
  ----------------------------------------
  Sum of atomic charges =     0.000000

 -----------------------------------------------------------------
                    Cartesian Multipole Moments
 -----------------------------------------------------------------
    Charge (ESU x 10^10)
                -0.0000
    Dipole Moment (Debye)
         X       1.0639      Y       2.1015      Z       3.2333
       Tot       4.0003
    Quadrupole Moments (Debye-Ang)
        XX    -187.7471     XY      -0.0332     YY    -172.8451
        XZ      -9.5971     YZ      -4.1377     ZZ    -201.5600
    Octopole Moments (Debye-Ang^2)
       XXX     -60.3264    XXY     316.7204    XYY       7.3054
       YYY     948.4327    XXZ     163.7239    XYZ      28.0019
       YYZ      71.1406    XZZ      -1.3196    YZZ     452.1307
       ZZZ     517.4687
    Hexadecapole Moments (Debye-Ang^3)
      XXXX   -1445.6101   XXXY    -695.1395   XXYY   -3865.4181
      XYYY    -810.3412   YYYY  -20207.8499   XXXZ     778.7529
      XXYZ     630.8105   XYYZ      68.4388   YYYZ    1875.5798
      XXZZ   -1237.6948   XYZZ    -133.9907   YYZZ   -4331.2263
      XZZZ     718.8405   YZZZ    1447.8612   ZZZZ   -6700.7087
 -----------------------------------------------------------------
 Total job time:  373.45s(wall), 11165.73s(cpu) 
 Tue Jan  9 10:13:55 2024

        *************************************************************
        *                                                           *
        *  Thank you very much for using Q-Chem.  Have a nice day.  *
        *                                                           *
        *************************************************************


0 sent ACK to 0 
now end server 0 ... 
cleanup process ... done
remove work dirs ./qchem1283129.0 -- ./qchem1283129.0
rm -rf ./qchem1283129.0
rm -rf ./qchem1283129
