You are running Q-Chem version: 5.4.0

#
# job setting
#
local host:  exp-4-18
current dir: /home/rramji/project-csd799/aromodel/ptb7fout-qchem/hydrogenated-rotation-run
input file:  Dimethoxy_Benzodithiophene_Phi_20_Theta_120_Methylcarbonyl_3_Fluoro_Thienothiophene_Hydrogenated.qcin
output file: 
nprocs     : 1
nthreads   : 64
#
# qchem installation setting
#
QC:          /cm/shared/apps/spack/cpu/opt/spack/linux-centos8-zen2/gcc-10.2.0/qchem-5.4-akfmr7b3t57bfs6qan3padb2wnb2i7cl
QCAUX:       /cm/shared/apps/spack/cpu/opt/spack/linux-centos8-zen2/gcc-10.2.0/qchem-5.4-akfmr7b3t57bfs6qan3padb2wnb2i7cl/qcaux
QCPROG:      /cm/shared/apps/spack/cpu/opt/spack/linux-centos8-zen2/gcc-10.2.0/qchem-5.4-akfmr7b3t57bfs6qan3padb2wnb2i7cl/exe/qcprog.exe
QCPROG_S:    /cm/shared/apps/spack/cpu/opt/spack/linux-centos8-zen2/gcc-10.2.0/qchem-5.4-akfmr7b3t57bfs6qan3padb2wnb2i7cl/exe/qcprog.exe_s
PARALLEL:    -DPARALLEL
QCMPI:       mpich
#
# qchem directory setting
#
qcrun:       qchem1292640
QCSCRATCH:   .
QCLOCALSCR:  
QCTMPDIR:    .
QCFILEPREF:  ./qchem1292640
QCSAVEDIR:   
workdirs:    ./qchem1292640
workdir0:    ./qchem1292640
partmpdirs =  
#
# parallel setting
#
QCRSH:           ssh
QCMPI:           mpich
QCMPIRUN:        /cm/shared/apps/spack/cpu/opt/spack/linux-centos8-zen2/gcc-10.2.0/qchem-5.4-akfmr7b3t57bfs6qan3padb2wnb2i7cl/bin/mpi/mpirun_qchem
QCMACHINEFILE:   ./qchem1292640/hostfile
exp-4-18

#
# env setting
#
exported envs:   QC QCAUX QCSCRATCH QCRUNNAME QCFILEPREF QCPROG QCPROG_S GUIFILE

Running Job 1 of 1 Dimethoxy_Benzodithiophene_Phi_20_Theta_120_Methylcarbonyl_3_Fluoro_Thienothiophene_Hydrogenated.qcin
qchem Dimethoxy_Benzodithiophene_Phi_20_Theta_120_Methylcarbonyl_3_Fluoro_Thienothiophene_Hydrogenated.qcin_1292640.0 ./qchem1292640/ 1
/cm/shared/apps/spack/cpu/opt/spack/linux-centos8-zen2/gcc-10.2.0/qchem-5.4-akfmr7b3t57bfs6qan3padb2wnb2i7cl/bin/mpi/mpirun_qchem -machinefile ./qchem1292640/hostfile -np 1 /cm/shared/apps/spack/cpu/opt/spack/linux-centos8-zen2/gcc-10.2.0/qchem-5.4-akfmr7b3t57bfs6qan3padb2wnb2i7cl/exe/qcprog.exe Dimethoxy_Benzodithiophene_Phi_20_Theta_120_Methylcarbonyl_3_Fluoro_Thienothiophene_Hydrogenated.qcin_1292640.0 ./qchem1292640/

Process 0 of 1 is on exp-4-18 - thread support 0
initial socket setup ...start
initial socket setup ...done 
now start server 0 ... 
                  Welcome to Q-Chem
     A Quantum Leap Into The Future Of Chemistry


 Q-Chem 5.4, Q-Chem, Inc., Pleasanton, CA (2021)

 License issued to: University of California, San Diego (site)

 E. Epifanovsky,  A. T. B. Gilbert,  Xintian Feng,  Joonho Lee,  Yuezhi Mao,  
 N. Mardirossian,  P. Pokhilko,  A. White,  M. Wormit,  M. P. Coons,  
 A. L. Dempwolff,  Zhengting Gan,  D. Hait,  P. R. Horn,  L. D. Jacobson,  
 I. Kaliman,  J. Kussmann,  A. W. Lange,  Ka Un Lao,  D. S. Levine,  Jie Liu,  
 S. C. McKenzie,  A. F. Morrison,  K. Nanda,  F. Plasser,  D. R. Rehn,  
 M. L. Vidal,  Zhi-Qiang You,  Ying Zhu,  B. Alam,  B. Albrecht,  
 A. Aldossary,  E. Alguire,  J. H. Andersen,  D. Barton,  K. Begam,  A. Behn,  
 Y. A. Bernard,  E. J. Berquist,  H. Burton,  A. Carreras,  K. Carter-Fenk,  
 R. Chakraborty,  A. D. Chien,  K. D. Closser,  V. Cofer-Shabica,  
 S. Dasgupta,  Jia Deng,  M. de Wergifosse,  M. Diedenhofen,  Hainam Do,  
 S. Ehlert,  Po-Tung Fang,  S. Fatehi,  Qingguo Feng,  J. Gayvert,  
 Qinghui Ge,  G. Gidofalvi,  M. Goldey,  J. Gomes,  C. Gonzalez-Espinoza,  
 S. Gulania,  A. Gunina,  M. W. D. Hanson-Heine,  P. H. P. Harbach,  
 A. W. Hauser,  M. F. Herbst,  M. Hernandez Vera,  M. Hodecker,  
 Z. C. Holden,  S. Houck,  Xunkun Huang,  Kerwin Hui,  B. C. Huynh,  
 M. Ivanov,  Hyunjun Ji,  Hanjie Jiang,  B. Kaduk,  S. Kaehler,  
 K. Khistyaev,  Jaehoon Kim,  P. Klunzinger,  Z. Koczor-Benda,  
 Joong Hoon Koh,  D. Kosenkov,  L. Koulias,  T. Kowalczyk,  C. M. Krauter,  
 K. Kue,  A. Kunitsa,  T. Kus,  A. Landau,  K. V. Lawler,  D. Lefrancois,  
 S. Lehtola,  Rain Li,  Yi-Pei Li,  Jiashu Liang,  M. Liebenthal,  
 Hung-Hsuan Lin,  You-Sheng Lin,  Fenglai Liu,  Kuan-Yu Liu,  
 M. Loipersberger,  A. Luenser,  A. Manjanath,  P. Manohar,  E. Mansoor,  
 S. F. Manzer,  Shan-Ping Mao,  A. V. Marenich,  T. Markovich,  S. Mason,  
 S. A. Maurer,  P. F. McLaughlin,  M. F. S. J. Menger,  J.-M. Mewes,  
 S. A. Mewes,  P. Morgante,  J. W. Mullinax,  T. S. Nguyen-Beck,  
 K. J. Oosterbaan,  G. Paran,  Alexander C. Paul,  Suranjan K. Paul,  
 F. Pavosevic,  Zheng Pei,  S. Prager,  E. I. Proynov,  E. Ramos,  B. Rana,  
 A. E. Rask,  A. Rettig,  R. M. Richard,  F. Rob,  E. Rossomme,  T. Scheele,  
 M. Scheurer,  M. Schneider,  N. Sergueev,  S. M. Sharada,  W. Skomorowski,  
 D. W. Small,  C. J. Stein,  Yu-Chuan Su,  E. J. Sundstrom,  Zhen Tao,  
 J. Thirman,  T. Tsuchimochi,  N. M. Tubman,  S. P. Veccham,  O. Vydrov,  
 J. Wenzel,  J. Witte,  A. Yamada,  Kun Yao,  S. Yeganeh,  S. R. Yost,  
 A. Zech,  Igor Ying Zhang,  Xing Zhang,  Yu Zhang,  D. Zuev,  
 A. Aspuru-Guzik,  A. T. Bell,  N. A. Besley,  K. B. Bravaya,  B. R. Brooks,  
 D. Casanova,  Jeng-Da Chai,  S. Coriani,  C. J. Cramer,  
 A. E. DePrince, III,  R. A. DiStasio Jr.,  A. Dreuw,  B. D. Dunietz,  
 T. R. Furlani,  W. A. Goddard III,  S. Grimme,  S. Hammes-Schiffer,  
 T. Head-Gordon,  W. J. Hehre,  Chao-Ping Hsu,  T.-C. Jagau,  Yousung Jung,  
 A. Klamt,  Jing Kong,  D. S. Lambrecht,  WanZhen Liang,  N. J. Mayhall,  
 C. W. McCurdy,  J. B. Neaton,  C. Ochsenfeld,  J. A. Parkhill,  R. Peverati,  
 V. A. Rassolov,  Yihan Shao,  L. V. Slipchenko,  T. Stauch,  R. P. Steele,  
 J. E. Subotnik,  A. J. W. Thom,  A. Tkatchenko,  D. G. Truhlar,  
 T. Van Voorhis,  T. A. Wesolowski,  K. B. Whaley,  H. L. Woodcock III,  
 P. M. Zimmerman,  S. Faraji,  P. M. W. Gill,  M. Head-Gordon,  
 J. M. Herbert,  A. I. Krylov

 Contributors to earlier versions of Q-Chem not listed above: 
 R. D. Adamson,  B. Austin,  R. Baer,  J. Baker,  G. J. O. Beran,  
 K. Brandhorst,  S. T. Brown,  E. F. C. Byrd,  A. K. Chakraborty,  
 G. K. L. Chan,  Chun-Min Chang,  Yunqing Chen,  C.-L. Cheng,  
 Siu Hung Chien,  D. M. Chipman,  D. L. Crittenden,  H. Dachsel,  
 R. J. Doerksen,  A. D. Dutoi,  R. G. Edgar,  J. Fosso-Tande,  
 L. Fusti-Molnar,  D. Ghosh,  A. Ghysels,  A. Golubeva-Zadorozhnaya,  
 J. Gonthier,  M. S. Gordon,  S. R. Gwaltney,  G. Hawkins,  J. E. Herr,  
 A. Heyden,  S. Hirata,  E. G. Hohenstein,  G. Kedziora,  F. J. Keil,  
 C. Kelley,  Jihan Kim,  R. A. King,  R. Z. Khaliullin,  P. P. Korambath,  
 W. Kurlancheek,  A. Laurent,  A. M. Lee,  M. S. Lee,  S. V. Levchenko,  
 Ching Yeh Lin,  D. Liotard,  E. Livshits,  R. C. Lochan,  I. Lotan,  
 L. A. Martinez-Martinez,  P. E. Maslen,  N. Nair,  D. P. O'Neill,  
 D. Neuhauser,  E. Neuscamman,  C. M. Oana,  R. Olivares-Amaya,  R. Olson,  
 T. M. Perrine,  B. Peters,  P. A. Pieniazek,  A. Prociuk,  Y. M. Rhee,  
 J. Ritchie,  M. A. Rohrdanz,  E. Rosta,  N. J. Russ,  H. F. Schaefer III,  
 M. W. Schmidt,  N. E. Schultz,  S. Sharma,  N. Shenvi,  C. D. Sherrill,  
 A. C. Simmonett,  A. Sodt,  T. Stein,  D. Stuck,  K. S. Thanthiriwatte,  
 V. Vanovschi,  L. Vogt,  Tao Wang,  A. Warshel,  M. A. Watson,  
 C. F. Williams,  Q. Wu,  X. Xu,  Jun Yang,  W. Zhang,  Yan Zhao

 Please cite Q-Chem as follows:
 Y. Shao et al., Mol. Phys. 113, 184-215 (2015)
 DOI: 10.1080/00268976.2014.952696

 Q-Chem 5.4.0 for Intel X86 EM64T Linux

 Parts of Q-Chem use Armadillo 9.800.1 (Horizon Scraper).
 http://arma.sourceforge.net/

 Q-Chem begins on Tue Jan  9 10:56:21 2024  

 Host: 
0

     Scratch files written to ./qchem1292640//
 May1621 |scratch|qcdevops|jenkins|workspace|build_RNUM    
 Parallel job on  1  processors
 Processing $rem in /cm/shared/apps/spack/cpu/opt/spack/linux-centos8-zen2/gcc-10.2.0/qchem-5.4-akfmr7b3t57bfs6qan3padb2wnb2i7cl/config/preferences:
 Processing $rem in /home/rramji/.qchemrc:
 Symmetry turned off for PCM/SM12/SMD calculation
 Core orbitals will be frozen

 Checking the input file for inconsistencies... 	...done.

 Q-Chem warning in module forms1/BasisType.C, line 2236:

 You are not using the predefined 5D/6D in this basis set.


--------------------------------------------------------------
User input:
--------------------------------------------------------------
$molecule
0 1
C	-0.254945	-8.517702	-0.194917
C	0.680596	-7.641575	0.335839
S	-1.603876	-7.638634	-0.954772
C	0.354585	-6.264785	0.147576
H	1.591356	-7.966081	0.854836
C	-0.879999	-6.072714	-0.567090
C	-1.379534	-4.787049	-0.826731
C	1.124384	-5.162801	0.618405
C	0.622407	-3.874817	0.362333
C	-0.612067	-3.683952	-0.355575
O	2.281166	-5.499772	1.253677
O	-2.542174	-4.459055	-1.463859
C	-3.060718	-5.329063	-2.462679
H	-3.841678	-4.755694	-2.997507
H	-3.530361	-6.238095	-2.027179
H	-2.274283	-5.637262	-3.185132
C	2.916545	-4.572261	2.124902
H	3.703073	-5.139743	2.657438
H	2.204417	-4.153131	2.867810
H	3.399269	-3.739531	1.568770
C	-0.936109	-2.306654	-0.540061
S	1.341474	-2.306501	0.761887
C	-0.000000	-1.435185	-0.000000
H	-1.844392	-1.978138	-1.060690
C	0.000000	0.000000	0.000000
S	0.309893	0.850039	1.507541
C	0.847011	2.328006	0.718873
C	0.310046	0.849645	-1.067872
C	0.783331	2.156746	-0.686410
S	0.229416	0.619785	-2.805516
C	0.823328	2.267711	-3.054530
C	1.063278	2.934142	-1.862551
F	1.515925	4.191824	-1.819088
C	0.978337	2.688069	-4.456084
O	0.722535	1.961921	-5.406510
O	1.433229	3.959697	-4.569225
C	1.607467	4.423139	-5.916207
H	1.977475	5.460158	-5.833064
H	0.647388	4.396602	-6.470168
H	2.339490	3.791823	-6.459293
H	1.161798	3.197007	1.306486
H	-0.700788	-9.143623	0.587067
H	0.186556	-9.149441	-0.974683
H	-0.533530	-1.443175	0.938979
$end

$rem
JOBTYPE		SP
EXCHANGE	HF
CORRELATION	pRIMP2
BASIS		cc-pvtz
METHOD		rimp2
AUX_BASIS	rimp2-cc-pvtz
SOLVENT_METHOD	PCM
PURECART	11111
SYMMETRY	false
MEM_TOTAL	110000
SCF_CONVERGENCE = 6
THRESH=10
GUI = 2
$end



$solvent
dielectric 4.90
$end
--------------------------------------------------------------
 ----------------------------------------------------------------
             Standard Nuclear Orientation (Angstroms)
    I     Atom           X                Y                Z
 ----------------------------------------------------------------
    1      C      -0.2549450000    -8.5177020000    -0.1949170000
    2      C       0.6805960000    -7.6415750000     0.3358390000
    3      S      -1.6038760000    -7.6386340000    -0.9547720000
    4      C       0.3545850000    -6.2647850000     0.1475760000
    5      H       1.5913560000    -7.9660810000     0.8548360000
    6      C      -0.8799990000    -6.0727140000    -0.5670900000
    7      C      -1.3795340000    -4.7870490000    -0.8267310000
    8      C       1.1243840000    -5.1628010000     0.6184050000
    9      C       0.6224070000    -3.8748170000     0.3623330000
   10      C      -0.6120670000    -3.6839520000    -0.3555750000
   11      O       2.2811660000    -5.4997720000     1.2536770000
   12      O      -2.5421740000    -4.4590550000    -1.4638590000
   13      C      -3.0607180000    -5.3290630000    -2.4626790000
   14      H      -3.8416780000    -4.7556940000    -2.9975070000
   15      H      -3.5303610000    -6.2380950000    -2.0271790000
   16      H      -2.2742830000    -5.6372620000    -3.1851320000
   17      C       2.9165450000    -4.5722610000     2.1249020000
   18      H       3.7030730000    -5.1397430000     2.6574380000
   19      H       2.2044170000    -4.1531310000     2.8678100000
   20      H       3.3992690000    -3.7395310000     1.5687700000
   21      C      -0.9361090000    -2.3066540000    -0.5400610000
   22      S       1.3414740000    -2.3065010000     0.7618870000
   23      C       0.0000000000    -1.4351850000     0.0000000000
   24      H      -1.8443920000    -1.9781380000    -1.0606900000
   25      C       0.0000000000     0.0000000000     0.0000000000
   26      S       0.3098930000     0.8500390000     1.5075410000
   27      C       0.8470110000     2.3280060000     0.7188730000
   28      C       0.3100460000     0.8496450000    -1.0678720000
   29      C       0.7833310000     2.1567460000    -0.6864100000
   30      S       0.2294160000     0.6197850000    -2.8055160000
   31      C       0.8233280000     2.2677110000    -3.0545300000
   32      C       1.0632780000     2.9341420000    -1.8625510000
   33      F       1.5159250000     4.1918240000    -1.8190880000
   34      C       0.9783370000     2.6880690000    -4.4560840000
   35      O       0.7225350000     1.9619210000    -5.4065100000
   36      O       1.4332290000     3.9596970000    -4.5692250000
   37      C       1.6074670000     4.4231390000    -5.9162070000
   38      H       1.9774750000     5.4601580000    -5.8330640000
   39      H       0.6473880000     4.3966020000    -6.4701680000
   40      H       2.3394900000     3.7918230000    -6.4592930000
   41      H       1.1617980000     3.1970070000     1.3064860000
   42      H      -0.7007880000    -9.1436230000     0.5870670000
   43      H       0.1865560000    -9.1494410000    -0.9746830000
   44      H      -0.5335300000    -1.4431750000     0.9389790000
 ----------------------------------------------------------------
 Nuclear Repulsion Energy =        3340.64598504 hartrees
 There are      120 alpha and      120 beta electrons
 Requested basis set is cc-pVTZ
 There are 388 shells and 1096 basis functions

 Total QAlloc Memory Limit 110000 MB
 Mega-Array Size       188 MB
 MEM_STATIC part       192 MB
 Discretize the solute cavity surface with Lebedev spheres
	Using 110 Lebedev grid points for each H atom
	Using 194 Lebedev grid points for other atoms
	Atomic van der Waals radii will be scaled by 1.20
 Remove points where switching function is < 1.0e-08
 Keep 2946 surface tesserae and discard 4330 interior tesserae
 Molecular Surface Area = 443.353 Angst**2
 Requested basis set is rimp2-cc-pVTZ
 There are 853 shells and 2963 basis functions
 A cutoff of  1.0D-10 yielded  32963 shell pairs
 There are    248995 function pairs (    322162 Cartesian)
 Smallest overlap matrix eigenvalue = 2.20E-05

 Scale SEOQF with 1.000000e-01/1.000000e-02/1.000000e-02

 Standard Electronic Orientation quadrupole field applied
 Nucleus-field energy     =     0.0000000356 hartrees
 Guess from superposition of atomic densities
 Warning:  Energy on first SCF cycle will be non-variational
 SAD guess density has 240.000000 electrons

 -----------------------------------------------------------------------
  General SCF calculation program by
  Eric Jon Sundstrom, Paul Horn, Yuezhi Mao, Dmitri Zuev, Alec White,
  David Stuck, Shaama M.S., Shane Yost, Joonho Lee, David Small,
  Daniel Levine, Susi Lehtola, Hugh Burton, Evgeny Epifanovsky,
  Bang C. Huynh
 -----------------------------------------------------------------------
 Hartree-Fock
 using 64 threads for integral computing
 -------------------------------------------------------
 OpenMP Integral computing Module                
 Release: version 1.0, May 2013, Q-Chem Inc. Pittsburgh 
 -------------------------------------------------------
 A restricted SCF calculation will be
 performed using DIIS
 SCF converges when DIIS error is below 1.0e-06
 ---------------------------------------
  Cycle       Energy         DIIS error
 ---------------------------------------
    1   -2767.0272068788      1.75e-02  
    2   -2754.8884032346      1.53e-03  
    3   -2755.2369327747      8.50e-04  
    4   -2755.3223383604      2.56e-04  
    5   -2755.3357703995      7.36e-05  
    6   -2755.3372717223      2.58e-05  
    7   -2755.3376629200      1.35e-05  
    8   -2755.3377924705      5.71e-06  
    9   -2755.3378241791      2.92e-06  
   10   -2755.3378318802      1.52e-06  
   11   -2755.3378343552      7.81e-07  Convergence criterion met
 ---------------------------------------
 SCF time:   CPU 7864.77s  wall 296.00s 

************** Final PCM Free Energy Summary **************
 G_electrostatic  =      -0.02123899 hartree =     -13.32766866 kcal/mol
 G_cavitation     =       0.00000000 hartree =       0.00000000 kcal/mol
 G_dispersion     =       0.00000000 hartree =       0.00000000 kcal/mol
 G_repulsion      =       0.00000000 hartree =       0.00000000 kcal/mol
 --------------------------------------------------
 Non-electrostatic Free Energy =       0.00000000 hartree =       0.00000000 kcal/mol
 Total                         =      -0.02123899 hartree =     -13.32766866 kcal/mol
 --------------------------------------------------
 SCF Energy (H0 + V/2)                       =   -2755.33783436 
 Solute Internal Energy (H0)                 =   -2755.31659536 
 Total Free Energy (H0 + V/2 + non-elec)     =   -2755.33783436 hartree
                                             = -1729000.58686253 kcal/mol
***********************************************************

 SCF   energy in the final basis set =    -2755.3378343552
 Total energy in the final basis set =    -2755.3378343552


 --------------------------------------------------------------
  Generalized many-body perturbation theory program
  by Joonho Lee, Fazle Rob, Xintian Feng, Evgeny Epifanovsky

 No regularization used 
 (reg. param. = 0.0000e+00)
  (P|Q)^-1/2 Time:  CPU 170.07 s  wall 2.67 s

 In RI-MP2 calculation: 
 # of frozen core orbitals: 45

 Components of the RIMP2 correlation energy:
        aaaa    correlation energy =        -0.6687239521 a.u.
        abab    correlation energy =        -3.7516967196 a.u.
        bbbb    correlation energy =        -0.6687239521 a.u.
        non-Brillouin singles      =        -0.0000000000 a.u.
        total same-spin energy     =        -1.3374479041 a.u.
        total opposite-spin energy =        -3.7516967196 a.u.

 Total  RIMP2   correlation energy =        -5.0891446238 a.u.
        RIMP2         total energy =     -2760.4269789790 a.u.

 RI-MP2 Energy Time:  CPU 2981.55 s  wall 48.60 s
 
 --------------------------------------------------------------
 
                    Orbital Energies (a.u.)
 --------------------------------------------------------------
 
 Alpha MOs
 -- Occupied --
-92.0170 -91.9991 -91.9770 -91.9574 -26.3438 -20.6151 -20.5867 -20.5863
-20.5616 -11.4097 -11.3830 -11.3135 -11.3086 -11.3061 -11.3002 -11.2982
-11.2973 -11.2890 -11.2854 -11.2843 -11.2826 -11.2822 -11.2785 -11.2723
-11.2718 -11.2575 -11.2563 -11.2489 -11.2351  -9.0157  -8.9992  -8.9793
 -8.9600  -6.6964  -6.6959  -6.6953  -6.6802  -6.6795  -6.6784  -6.6604
 -6.6595  -6.6582  -6.6412  -6.6403  -6.6393  -1.6609  -1.4676  -1.4098
 -1.4084  -1.3703  -1.2294  -1.2023  -1.1729  -1.1381  -1.0991  -1.0456
 -1.0445  -1.0248  -1.0034  -0.9964  -0.9630  -0.9590  -0.9479  -0.9402
 -0.8930  -0.8689  -0.8659  -0.8131  -0.7993  -0.7885  -0.7842  -0.7670
 -0.7568  -0.7375  -0.7257  -0.7167  -0.6973  -0.6864  -0.6847  -0.6795
 -0.6741  -0.6605  -0.6558  -0.6481  -0.6341  -0.6304  -0.6192  -0.6145
 -0.6117  -0.5995  -0.5916  -0.5754  -0.5716  -0.5641  -0.5579  -0.5527
 -0.5467  -0.5333  -0.5311  -0.5268  -0.5129  -0.5076  -0.5070  -0.5009
 -0.4850  -0.4816  -0.4758  -0.4744  -0.4728  -0.4688  -0.4599  -0.4455
 -0.4251  -0.3979  -0.3850  -0.3694  -0.3509  -0.3016  -0.2884  -0.2190
 -- Virtual --
  0.0324   0.0529   0.1001   0.1208   0.1406   0.1469   0.1528   0.1563
  0.1582   0.1605   0.1682   0.1764   0.1827   0.1836   0.1878   0.1973
  0.1984   0.2039   0.2053   0.2148   0.2186   0.2227   0.2240   0.2273
  0.2301   0.2337   0.2375   0.2439   0.2487   0.2555   0.2619   0.2703
  0.2733   0.2894   0.2983   0.3272   0.3334   0.3353   0.3379   0.3400
  0.3484   0.3547   0.3586   0.3624   0.3672   0.3815   0.3833   0.3856
  0.3879   0.3898   0.3934   0.4001   0.4085   0.4123   0.4179   0.4217
  0.4278   0.4298   0.4322   0.4340   0.4373   0.4428   0.4469   0.4521
  0.4542   0.4563   0.4585   0.4678   0.4725   0.4756   0.4802   0.4866
  0.4904   0.4930   0.4974   0.5013   0.5045   0.5092   0.5117   0.5198
  0.5232   0.5292   0.5309   0.5333   0.5389   0.5423   0.5443   0.5462
  0.5518   0.5536   0.5576   0.5592   0.5614   0.5655   0.5741   0.5791
  0.5831   0.5853   0.5929   0.5958   0.6008   0.6037   0.6066   0.6106
  0.6137   0.6156   0.6167   0.6197   0.6223   0.6248   0.6263   0.6276
  0.6320   0.6357   0.6417   0.6471   0.6496   0.6512   0.6567   0.6599
  0.6610   0.6677   0.6737   0.6753   0.6791   0.6852   0.6948   0.6980
  0.7023   0.7087   0.7127   0.7149   0.7178   0.7206   0.7230   0.7329
  0.7398   0.7453   0.7571   0.7592   0.7601   0.7696   0.7762   0.7827
  0.7889   0.7943   0.7977   0.8062   0.8141   0.8171   0.8195   0.8270
  0.8318   0.8367   0.8419   0.8499   0.8580   0.8605   0.8678   0.8739
  0.8780   0.8842   0.8894   0.8926   0.8956   0.9020   0.9052   0.9116
  0.9184   0.9228   0.9297   0.9339   0.9394   0.9479   0.9495   0.9501
  0.9586   0.9633   0.9684   0.9778   0.9813   0.9844   0.9856   0.9917
  0.9937   1.0008   1.0055   1.0127   1.0165   1.0194   1.0249   1.0302
  1.0328   1.0343   1.0459   1.0479   1.0556   1.0573   1.0615   1.0698
  1.0726   1.0787   1.0810   1.0928   1.0935   1.1001   1.1013   1.1067
  1.1115   1.1145   1.1192   1.1256   1.1313   1.1319   1.1402   1.1486
  1.1540   1.1609   1.1617   1.1656   1.1720   1.1745   1.1795   1.1841
  1.1869   1.1897   1.1982   1.2021   1.2051   1.2122   1.2153   1.2175
  1.2194   1.2273   1.2317   1.2359   1.2403   1.2473   1.2515   1.2561
  1.2601   1.2625   1.2687   1.2714   1.2806   1.2823   1.2895   1.2921
  1.2956   1.3045   1.3089   1.3189   1.3209   1.3246   1.3288   1.3414
  1.3475   1.3593   1.3636   1.3655   1.3776   1.3895   1.3967   1.4016
  1.4025   1.4088   1.4133   1.4246   1.4273   1.4339   1.4424   1.4526
  1.4582   1.4696   1.4817   1.4853   1.4910   1.4956   1.4968   1.5010
  1.5028   1.5084   1.5142   1.5165   1.5230   1.5263   1.5359   1.5379
  1.5400   1.5433   1.5463   1.5529   1.5543   1.5620   1.5705   1.5736
  1.5800   1.5934   1.5991   1.6059   1.6201   1.6240   1.6313   1.6378
  1.6418   1.6562   1.6568   1.6644   1.6658   1.6729   1.6812   1.6888
  1.6914   1.6935   1.7076   1.7148   1.7160   1.7202   1.7290   1.7482
  1.7575   1.7686   1.7763   1.7799   1.7928   1.7992   1.8083   1.8121
  1.8176   1.8243   1.8284   1.8377   1.8509   1.8607   1.8710   1.8763
  1.8779   1.8834   1.9026   1.9104   1.9159   1.9184   1.9301   1.9350
  1.9432   1.9487   1.9515   1.9672   1.9781   1.9842   1.9869   1.9976
  2.0000   2.0111   2.0138   2.0212   2.0316   2.0372   2.0439   2.0555
  2.0622   2.0714   2.0831   2.0860   2.0953   2.0994   2.1072   2.1203
  2.1368   2.1433   2.1584   2.1613   2.1766   2.1831   2.1912   2.1928
  2.1963   2.1976   2.2055   2.2183   2.2237   2.2299   2.2367   2.2453
  2.2496   2.2516   2.2590   2.2622   2.2744   2.2843   2.2901   2.2999
  2.3035   2.3076   2.3173   2.3327   2.3420   2.3475   2.3553   2.3644
  2.3700   2.3882   2.3915   2.4018   2.4097   2.4111   2.4163   2.4246
  2.4337   2.4416   2.4501   2.4651   2.4719   2.4817   2.4887   2.4955
  2.5059   2.5127   2.5132   2.5322   2.5413   2.5483   2.5526   2.5619
  2.5679   2.5789   2.5925   2.6010   2.6153   2.6205   2.6246   2.6255
  2.6305   2.6348   2.6387   2.6432   2.6483   2.6497   2.6612   2.6752
  2.6798   2.6804   2.6864   2.6926   2.7005   2.7024   2.7067   2.7179
  2.7207   2.7311   2.7350   2.7439   2.7476   2.7609   2.7673   2.7754
  2.7829   2.7853   2.7928   2.8049   2.8101   2.8134   2.8239   2.8353
  2.8420   2.8425   2.8461   2.8525   2.8554   2.8666   2.8699   2.8774
  2.8807   2.8850   2.8983   2.9021   2.9200   2.9252   2.9317   2.9404
  2.9461   2.9573   2.9595   2.9632   2.9680   2.9777   2.9873   2.9895
  2.9938   2.9988   3.0182   3.0209   3.0234   3.0318   3.0388   3.0446
  3.0472   3.0569   3.0684   3.0797   3.0836   3.0899   3.0939   3.0982
  3.1061   3.1066   3.1161   3.1214   3.1246   3.1251   3.1361   3.1401
  3.1462   3.1511   3.1549   3.1604   3.1648   3.1685   3.1730   3.1808
  3.1867   3.1947   3.2004   3.2037   3.2123   3.2166   3.2211   3.2276
  3.2287   3.2295   3.2465   3.2513   3.2548   3.2586   3.2668   3.2707
  3.2719   3.2728   3.2775   3.2804   3.2863   3.2878   3.2996   3.3043
  3.3077   3.3133   3.3137   3.3209   3.3263   3.3375   3.3381   3.3412
  3.3465   3.3494   3.3527   3.3544   3.3634   3.3666   3.3673   3.3689
  3.3759   3.3792   3.3818   3.3906   3.3982   3.4010   3.4040   3.4047
  3.4124   3.4213   3.4277   3.4301   3.4302   3.4346   3.4394   3.4456
  3.4517   3.4567   3.4573   3.4604   3.4661   3.4743   3.4757   3.4813
  3.4850   3.4894   3.4955   3.4991   3.5085   3.5135   3.5263   3.5316
  3.5398   3.5417   3.5476   3.5514   3.5609   3.5615   3.5673   3.5697
  3.5815   3.5868   3.5926   3.5936   3.6006   3.6027   3.6064   3.6109
  3.6228   3.6247   3.6313   3.6339   3.6367   3.6405   3.6487   3.6560
  3.6631   3.6673   3.6751   3.6773   3.6807   3.6851   3.6908   3.6995
  3.7048   3.7063   3.7079   3.7096   3.7182   3.7226   3.7265   3.7320
  3.7337   3.7399   3.7485   3.7508   3.7598   3.7667   3.7693   3.7745
  3.7790   3.7874   3.7960   3.7975   3.8042   3.8054   3.8087   3.8121
  3.8184   3.8215   3.8286   3.8311   3.8442   3.8478   3.8489   3.8520
  3.8564   3.8670   3.8711   3.8786   3.8839   3.8953   3.8978   3.9046
  3.9109   3.9157   3.9324   3.9345   3.9424   3.9511   3.9554   3.9577
  3.9624   3.9661   3.9718   3.9771   3.9899   3.9945   4.0079   4.0113
  4.0166   4.0214   4.0273   4.0382   4.0497   4.0608   4.0659   4.0676
  4.0685   4.0702   4.0878   4.1028   4.1122   4.1136   4.1229   4.1296
  4.1335   4.1382   4.1516   4.1572   4.1615   4.1650   4.1665   4.1726
  4.1751   4.1782   4.1860   4.1987   4.2098   4.2122   4.2210   4.2328
  4.2394   4.2471   4.2503   4.2618   4.2736   4.2846   4.2920   4.3080
  4.3150   4.3204   4.3330   4.3415   4.3428   4.3494   4.3507   4.3591
  4.3677   4.3745   4.3797   4.3893   4.3963   4.4065   4.4084   4.4158
  4.4237   4.4271   4.4294   4.4327   4.4339   4.4463   4.4487   4.4574
  4.4634   4.4719   4.4844   4.4992   4.5098   4.5122   4.5217   4.5273
  4.5320   4.5505   4.5561   4.5589   4.5646   4.5708   4.5817   4.5827
  4.5887   4.5944   4.6183   4.6210   4.6299   4.6372   4.6429   4.6546
  4.6669   4.6707   4.6725   4.6868   4.6967   4.7041   4.7225   4.7262
  4.7368   4.7549   4.7668   4.7708   4.7774   4.7829   4.7953   4.8122
  4.8232   4.8320   4.8474   4.8547   4.8645   4.8722   4.8845   4.8942
  4.9035   4.9111   4.9309   4.9409   4.9464   4.9615   4.9636   4.9708
  4.9825   4.9937   5.0087   5.0119   5.0176   5.0227   5.0386   5.0458
  5.0525   5.0855   5.0908   5.1080   5.1138   5.1242   5.1537   5.1633
  5.1784   5.1961   5.2017   5.2075   5.2168   5.2298   5.2504   5.2544
  5.2583   5.2639   5.2722   5.2871   5.2937   5.3126   5.3171   5.3278
  5.3340   5.3503   5.3512   5.3658   5.3728   5.3876   5.4010   5.4032
  5.4091   5.4182   5.4260   5.4430   5.4478   5.4848   5.5016   5.5080
  5.5131   5.5213   5.5249   5.5409   5.5672   5.5702   5.5815   5.5842
  5.5983   5.6121   5.6214   5.6261   5.6437   5.6602   5.6767   5.6930
  5.7166   5.7276   5.7588   5.7616   5.7784   5.8073   5.8166   5.8371
  5.8592   5.8781   5.9009   5.9128   5.9289   5.9568   5.9758   5.9993
  6.0392   6.0430   6.0796   6.1249   6.1503   6.1532   6.1731   6.1781
  6.1806   6.1994   6.2319   6.2387   6.2602   6.2612   6.2709   6.2817
  6.2916   6.3084   6.3388   6.3828   6.4364   6.4498   6.4785   6.5391
  6.5471   6.5660   6.6033   6.6478   6.6607   6.6709   6.7130   6.7456
  6.8070   6.8295   6.8555   6.8592   6.8988   6.9779   7.1316   7.1454
  7.2037   7.2069   7.2227   7.2397   7.3096   7.3271   7.3418   7.3627
  7.3635   7.4055   7.4130   7.4852   7.4871   7.4970   7.5233   7.5505
  7.6154   7.7388   7.7725   7.7895   7.8031   7.9003   7.9272   7.9546
  7.9703   8.1338   8.2779   8.5130   8.9215   9.0250   9.3625   9.4831
  9.6727  10.2336  11.1849  11.4271  11.7586  11.9710  12.1237  12.3781
 12.4247  12.5093  12.9254  13.0104  13.0448  13.2950  13.3860  13.4787
 13.7194  13.7744  13.8769  13.9413  14.0329  14.3083  14.8578  15.2054
 --------------------------------------------------------------
 
          Ground-State Mulliken Net Atomic Charges

     Atom                 Charge (a.u.)
  ----------------------------------------
      1 C                    -0.069917
      2 C                    -0.265255
      3 S                    -0.136869
      4 C                    -0.042408
      5 H                     0.192684
      6 C                    -0.052267
      7 C                     0.223080
      8 C                     0.221458
      9 C                    -0.075427
     10 C                    -0.050264
     11 O                    -0.335059
     12 O                    -0.343628
     13 C                    -0.082566
     14 H                     0.120102
     15 H                     0.091759
     16 H                     0.093176
     17 C                    -0.086920
     18 H                     0.123084
     19 H                     0.091524
     20 H                     0.090230
     21 C                    -0.253933
     22 S                    -0.072040
     23 C                     0.045082
     24 H                     0.208960
     25 C                    -0.100672
     26 S                     0.088263
     27 C                    -0.177673
     28 C                     0.044765
     29 C                    -0.111601
     30 S                     0.010641
     31 C                    -0.156412
     32 C                     0.399870
     33 F                    -0.206806
     34 C                     0.444290
     35 O                    -0.460576
     36 O                    -0.300815
     37 C                    -0.058405
     38 H                     0.121381
     39 H                     0.095115
     40 H                     0.095272
     41 H                     0.218863
     42 H                     0.116530
     43 H                     0.114375
     44 H                     0.189008
  ----------------------------------------
  Sum of atomic charges =     0.000000

 -----------------------------------------------------------------
                    Cartesian Multipole Moments
 -----------------------------------------------------------------
    Charge (ESU x 10^10)
                -0.0000
    Dipole Moment (Debye)
         X       0.8090      Y       3.2572      Z       3.4619
       Tot       4.8216
    Quadrupole Moments (Debye-Ang)
        XX    -192.1204     XY       2.1561     YY    -179.0351
        XZ       6.6486     YZ      -8.7466     ZZ    -195.4586
    Octopole Moments (Debye-Ang^2)
       XXX    -143.9398    XXY     362.5587    XYY      -2.7343
       YYY    1013.8239    XXZ     177.0530    XYZ     -63.8470
       YYZ     138.2929    XZZ     -22.2739    YZZ     429.6317
       ZZZ     586.6308
    Hexadecapole Moments (Debye-Ang^3)
      XXXX   -2281.9552   XXXY   -1028.2110   XXYY   -4100.6324
      XYYY   -1183.4319   YYYY  -20291.9224   XXXZ      91.4164
      XXYZ     361.3131   XYYZ      82.4065   YYYZ     790.8561
      XXZZ   -1239.1306   XYZZ    -120.3042   YYZZ   -4099.9231
      XZZZ    -138.8721   YZZZ     653.5174   ZZZZ   -6151.4596
 -----------------------------------------------------------------
 Total job time:  349.89s(wall), 10977.29s(cpu) 
 Tue Jan  9 11:02:11 2024

        *************************************************************
        *                                                           *
        *  Thank you very much for using Q-Chem.  Have a nice day.  *
        *                                                           *
        *************************************************************


0 sent ACK to 0 
now end server 0 ... 
cleanup process ... done
remove work dirs ./qchem1292640.0 -- ./qchem1292640.0
rm -rf ./qchem1292640.0
rm -rf ./qchem1292640
