You are running Q-Chem version: 5.4.0

#
# job setting
#
local host:  exp-3-50
current dir: /home/rramji/project-csd799/aromodel/ptb7fout-qchem/hydrogenated-rotation-run
input file:  Dimethoxy_Benzodithiophene_Phi_10_Theta_50_Methylcarbonyl_3_Fluoro_Thienothiophene_Hydrogenated.qcin
output file: 
nprocs     : 1
nthreads   : 64
#
# qchem installation setting
#
QC:          /cm/shared/apps/spack/cpu/opt/spack/linux-centos8-zen2/gcc-10.2.0/qchem-5.4-akfmr7b3t57bfs6qan3padb2wnb2i7cl
QCAUX:       /cm/shared/apps/spack/cpu/opt/spack/linux-centos8-zen2/gcc-10.2.0/qchem-5.4-akfmr7b3t57bfs6qan3padb2wnb2i7cl/qcaux
QCPROG:      /cm/shared/apps/spack/cpu/opt/spack/linux-centos8-zen2/gcc-10.2.0/qchem-5.4-akfmr7b3t57bfs6qan3padb2wnb2i7cl/exe/qcprog.exe
QCPROG_S:    /cm/shared/apps/spack/cpu/opt/spack/linux-centos8-zen2/gcc-10.2.0/qchem-5.4-akfmr7b3t57bfs6qan3padb2wnb2i7cl/exe/qcprog.exe_s
PARALLEL:    -DPARALLEL
QCMPI:       mpich
#
# qchem directory setting
#
qcrun:       qchem1284126
QCSCRATCH:   .
QCLOCALSCR:  
QCTMPDIR:    .
QCFILEPREF:  ./qchem1284126
QCSAVEDIR:   
workdirs:    ./qchem1284126
workdir0:    ./qchem1284126
partmpdirs =  
#
# parallel setting
#
QCRSH:           ssh
QCMPI:           mpich
QCMPIRUN:        /cm/shared/apps/spack/cpu/opt/spack/linux-centos8-zen2/gcc-10.2.0/qchem-5.4-akfmr7b3t57bfs6qan3padb2wnb2i7cl/bin/mpi/mpirun_qchem
QCMACHINEFILE:   ./qchem1284126/hostfile
exp-3-50

#
# env setting
#
exported envs:   QC QCAUX QCSCRATCH QCRUNNAME QCFILEPREF QCPROG QCPROG_S GUIFILE

Running Job 1 of 1 Dimethoxy_Benzodithiophene_Phi_10_Theta_50_Methylcarbonyl_3_Fluoro_Thienothiophene_Hydrogenated.qcin
qchem Dimethoxy_Benzodithiophene_Phi_10_Theta_50_Methylcarbonyl_3_Fluoro_Thienothiophene_Hydrogenated.qcin_1284126.0 ./qchem1284126/ 1
/cm/shared/apps/spack/cpu/opt/spack/linux-centos8-zen2/gcc-10.2.0/qchem-5.4-akfmr7b3t57bfs6qan3padb2wnb2i7cl/bin/mpi/mpirun_qchem -machinefile ./qchem1284126/hostfile -np 1 /cm/shared/apps/spack/cpu/opt/spack/linux-centos8-zen2/gcc-10.2.0/qchem-5.4-akfmr7b3t57bfs6qan3padb2wnb2i7cl/exe/qcprog.exe Dimethoxy_Benzodithiophene_Phi_10_Theta_50_Methylcarbonyl_3_Fluoro_Thienothiophene_Hydrogenated.qcin_1284126.0 ./qchem1284126/

Process 0 of 1 is on exp-3-50 - thread support 0
initial socket setup ...start
initial socket setup ...done 
now start server 0 ... 
                  Welcome to Q-Chem
     A Quantum Leap Into The Future Of Chemistry


 Q-Chem 5.4, Q-Chem, Inc., Pleasanton, CA (2021)

 License issued to: University of California, San Diego (site)

 E. Epifanovsky,  A. T. B. Gilbert,  Xintian Feng,  Joonho Lee,  Yuezhi Mao,  
 N. Mardirossian,  P. Pokhilko,  A. White,  M. Wormit,  M. P. Coons,  
 A. L. Dempwolff,  Zhengting Gan,  D. Hait,  P. R. Horn,  L. D. Jacobson,  
 I. Kaliman,  J. Kussmann,  A. W. Lange,  Ka Un Lao,  D. S. Levine,  Jie Liu,  
 S. C. McKenzie,  A. F. Morrison,  K. Nanda,  F. Plasser,  D. R. Rehn,  
 M. L. Vidal,  Zhi-Qiang You,  Ying Zhu,  B. Alam,  B. Albrecht,  
 A. Aldossary,  E. Alguire,  J. H. Andersen,  D. Barton,  K. Begam,  A. Behn,  
 Y. A. Bernard,  E. J. Berquist,  H. Burton,  A. Carreras,  K. Carter-Fenk,  
 R. Chakraborty,  A. D. Chien,  K. D. Closser,  V. Cofer-Shabica,  
 S. Dasgupta,  Jia Deng,  M. de Wergifosse,  M. Diedenhofen,  Hainam Do,  
 S. Ehlert,  Po-Tung Fang,  S. Fatehi,  Qingguo Feng,  J. Gayvert,  
 Qinghui Ge,  G. Gidofalvi,  M. Goldey,  J. Gomes,  C. Gonzalez-Espinoza,  
 S. Gulania,  A. Gunina,  M. W. D. Hanson-Heine,  P. H. P. Harbach,  
 A. W. Hauser,  M. F. Herbst,  M. Hernandez Vera,  M. Hodecker,  
 Z. C. Holden,  S. Houck,  Xunkun Huang,  Kerwin Hui,  B. C. Huynh,  
 M. Ivanov,  Hyunjun Ji,  Hanjie Jiang,  B. Kaduk,  S. Kaehler,  
 K. Khistyaev,  Jaehoon Kim,  P. Klunzinger,  Z. Koczor-Benda,  
 Joong Hoon Koh,  D. Kosenkov,  L. Koulias,  T. Kowalczyk,  C. M. Krauter,  
 K. Kue,  A. Kunitsa,  T. Kus,  A. Landau,  K. V. Lawler,  D. Lefrancois,  
 S. Lehtola,  Rain Li,  Yi-Pei Li,  Jiashu Liang,  M. Liebenthal,  
 Hung-Hsuan Lin,  You-Sheng Lin,  Fenglai Liu,  Kuan-Yu Liu,  
 M. Loipersberger,  A. Luenser,  A. Manjanath,  P. Manohar,  E. Mansoor,  
 S. F. Manzer,  Shan-Ping Mao,  A. V. Marenich,  T. Markovich,  S. Mason,  
 S. A. Maurer,  P. F. McLaughlin,  M. F. S. J. Menger,  J.-M. Mewes,  
 S. A. Mewes,  P. Morgante,  J. W. Mullinax,  T. S. Nguyen-Beck,  
 K. J. Oosterbaan,  G. Paran,  Alexander C. Paul,  Suranjan K. Paul,  
 F. Pavosevic,  Zheng Pei,  S. Prager,  E. I. Proynov,  E. Ramos,  B. Rana,  
 A. E. Rask,  A. Rettig,  R. M. Richard,  F. Rob,  E. Rossomme,  T. Scheele,  
 M. Scheurer,  M. Schneider,  N. Sergueev,  S. M. Sharada,  W. Skomorowski,  
 D. W. Small,  C. J. Stein,  Yu-Chuan Su,  E. J. Sundstrom,  Zhen Tao,  
 J. Thirman,  T. Tsuchimochi,  N. M. Tubman,  S. P. Veccham,  O. Vydrov,  
 J. Wenzel,  J. Witte,  A. Yamada,  Kun Yao,  S. Yeganeh,  S. R. Yost,  
 A. Zech,  Igor Ying Zhang,  Xing Zhang,  Yu Zhang,  D. Zuev,  
 A. Aspuru-Guzik,  A. T. Bell,  N. A. Besley,  K. B. Bravaya,  B. R. Brooks,  
 D. Casanova,  Jeng-Da Chai,  S. Coriani,  C. J. Cramer,  
 A. E. DePrince, III,  R. A. DiStasio Jr.,  A. Dreuw,  B. D. Dunietz,  
 T. R. Furlani,  W. A. Goddard III,  S. Grimme,  S. Hammes-Schiffer,  
 T. Head-Gordon,  W. J. Hehre,  Chao-Ping Hsu,  T.-C. Jagau,  Yousung Jung,  
 A. Klamt,  Jing Kong,  D. S. Lambrecht,  WanZhen Liang,  N. J. Mayhall,  
 C. W. McCurdy,  J. B. Neaton,  C. Ochsenfeld,  J. A. Parkhill,  R. Peverati,  
 V. A. Rassolov,  Yihan Shao,  L. V. Slipchenko,  T. Stauch,  R. P. Steele,  
 J. E. Subotnik,  A. J. W. Thom,  A. Tkatchenko,  D. G. Truhlar,  
 T. Van Voorhis,  T. A. Wesolowski,  K. B. Whaley,  H. L. Woodcock III,  
 P. M. Zimmerman,  S. Faraji,  P. M. W. Gill,  M. Head-Gordon,  
 J. M. Herbert,  A. I. Krylov

 Contributors to earlier versions of Q-Chem not listed above: 
 R. D. Adamson,  B. Austin,  R. Baer,  J. Baker,  G. J. O. Beran,  
 K. Brandhorst,  S. T. Brown,  E. F. C. Byrd,  A. K. Chakraborty,  
 G. K. L. Chan,  Chun-Min Chang,  Yunqing Chen,  C.-L. Cheng,  
 Siu Hung Chien,  D. M. Chipman,  D. L. Crittenden,  H. Dachsel,  
 R. J. Doerksen,  A. D. Dutoi,  R. G. Edgar,  J. Fosso-Tande,  
 L. Fusti-Molnar,  D. Ghosh,  A. Ghysels,  A. Golubeva-Zadorozhnaya,  
 J. Gonthier,  M. S. Gordon,  S. R. Gwaltney,  G. Hawkins,  J. E. Herr,  
 A. Heyden,  S. Hirata,  E. G. Hohenstein,  G. Kedziora,  F. J. Keil,  
 C. Kelley,  Jihan Kim,  R. A. King,  R. Z. Khaliullin,  P. P. Korambath,  
 W. Kurlancheek,  A. Laurent,  A. M. Lee,  M. S. Lee,  S. V. Levchenko,  
 Ching Yeh Lin,  D. Liotard,  E. Livshits,  R. C. Lochan,  I. Lotan,  
 L. A. Martinez-Martinez,  P. E. Maslen,  N. Nair,  D. P. O'Neill,  
 D. Neuhauser,  E. Neuscamman,  C. M. Oana,  R. Olivares-Amaya,  R. Olson,  
 T. M. Perrine,  B. Peters,  P. A. Pieniazek,  A. Prociuk,  Y. M. Rhee,  
 J. Ritchie,  M. A. Rohrdanz,  E. Rosta,  N. J. Russ,  H. F. Schaefer III,  
 M. W. Schmidt,  N. E. Schultz,  S. Sharma,  N. Shenvi,  C. D. Sherrill,  
 A. C. Simmonett,  A. Sodt,  T. Stein,  D. Stuck,  K. S. Thanthiriwatte,  
 V. Vanovschi,  L. Vogt,  Tao Wang,  A. Warshel,  M. A. Watson,  
 C. F. Williams,  Q. Wu,  X. Xu,  Jun Yang,  W. Zhang,  Yan Zhao

 Please cite Q-Chem as follows:
 Y. Shao et al., Mol. Phys. 113, 184-215 (2015)
 DOI: 10.1080/00268976.2014.952696

 Q-Chem 5.4.0 for Intel X86 EM64T Linux

 Parts of Q-Chem use Armadillo 9.800.1 (Horizon Scraper).
 http://arma.sourceforge.net/

 Q-Chem begins on Tue Jan  9 10:13:59 2024  

 Host: 
0

     Scratch files written to ./qchem1284126//
 May1621 |scratch|qcdevops|jenkins|workspace|build_RNUM    
 Parallel job on  1  processors
 Processing $rem in /cm/shared/apps/spack/cpu/opt/spack/linux-centos8-zen2/gcc-10.2.0/qchem-5.4-akfmr7b3t57bfs6qan3padb2wnb2i7cl/config/preferences:
 Processing $rem in /home/rramji/.qchemrc:
 Symmetry turned off for PCM/SM12/SMD calculation
 Core orbitals will be frozen

 Checking the input file for inconsistencies... 	...done.

 Q-Chem warning in module forms1/BasisType.C, line 2236:

 You are not using the predefined 5D/6D in this basis set.


--------------------------------------------------------------
User input:
--------------------------------------------------------------
$molecule
0 1
C	-0.270358	-8.517702	0.172904
C	0.548363	-7.641575	-0.524688
S	-1.445750	-7.638634	1.180599
C	0.259951	-6.264785	-0.282727
H	1.347559	-7.966081	-1.203014
C	-0.833868	-6.072714	0.632972
C	-1.248701	-4.787049	1.013580
C	0.965673	-5.162801	-0.845068
C	0.553357	-3.874817	-0.460946
C	-0.543470	-3.683952	0.453541
O	1.958276	-5.499772	-1.714812
O	-2.245053	-4.459055	1.888193
C	-3.360989	-5.329063	2.033848
H	-4.130667	-4.755694	2.584788
H	-3.112380	-6.238095	2.624118
H	-3.770895	-5.637262	1.047748
C	2.994272	-4.572261	-2.013896
H	3.763700	-5.139743	-2.570853
H	3.448815	-4.153131	-1.090625
H	2.636780	-3.739531	-2.657717
C	-0.827659	-2.306654	0.694943
S	1.174750	-2.306501	-0.999993
C	-0.000000	-1.435185	-0.000000
H	-1.627541	-1.978138	1.370385
C	0.000000	0.000000	0.000000
S	0.157577	0.890937	1.507541
C	0.429889	2.439720	0.718873
C	0.157797	0.890576	-1.067872
C	0.396915	2.260004	-0.686410
S	0.118307	0.650207	-2.805516
C	0.417036	2.376229	-3.054530
C	0.537616	3.074202	-1.862551
F	0.764992	4.391378	-1.819088
C	0.496696	2.817118	-4.456084
O	0.370874	2.057582	-5.406510
O	0.723861	4.148418	-4.569225
C	0.814976	4.635075	-5.916207
H	0.999286	5.720591	-5.833064
H	-0.125909	4.442226	-6.470168
H	1.645504	4.140465	-6.459293
H	0.588993	3.350182	1.306486
H	0.311979	-9.143623	0.859314
H	-0.852097	-9.149441	-0.508666
H	0.699874	-1.443175	0.822504
$end

$rem
JOBTYPE		SP
EXCHANGE	HF
CORRELATION	pRIMP2
BASIS		cc-pvtz
METHOD		rimp2
AUX_BASIS	rimp2-cc-pvtz
SOLVENT_METHOD	PCM
PURECART	11111
SYMMETRY	false
MEM_TOTAL	110000
SCF_CONVERGENCE = 6
THRESH=10
GUI = 2
$end



$solvent
dielectric 4.90
$end
--------------------------------------------------------------
 ----------------------------------------------------------------
             Standard Nuclear Orientation (Angstroms)
    I     Atom           X                Y                Z
 ----------------------------------------------------------------
    1      C      -0.2703580000    -8.5177020000     0.1729040000
    2      C       0.5483630000    -7.6415750000    -0.5246880000
    3      S      -1.4457500000    -7.6386340000     1.1805990000
    4      C       0.2599510000    -6.2647850000    -0.2827270000
    5      H       1.3475590000    -7.9660810000    -1.2030140000
    6      C      -0.8338680000    -6.0727140000     0.6329720000
    7      C      -1.2487010000    -4.7870490000     1.0135800000
    8      C       0.9656730000    -5.1628010000    -0.8450680000
    9      C       0.5533570000    -3.8748170000    -0.4609460000
   10      C      -0.5434700000    -3.6839520000     0.4535410000
   11      O       1.9582760000    -5.4997720000    -1.7148120000
   12      O      -2.2450530000    -4.4590550000     1.8881930000
   13      C      -3.3609890000    -5.3290630000     2.0338480000
   14      H      -4.1306670000    -4.7556940000     2.5847880000
   15      H      -3.1123800000    -6.2380950000     2.6241180000
   16      H      -3.7708950000    -5.6372620000     1.0477480000
   17      C       2.9942720000    -4.5722610000    -2.0138960000
   18      H       3.7637000000    -5.1397430000    -2.5708530000
   19      H       3.4488150000    -4.1531310000    -1.0906250000
   20      H       2.6367800000    -3.7395310000    -2.6577170000
   21      C      -0.8276590000    -2.3066540000     0.6949430000
   22      S       1.1747500000    -2.3065010000    -0.9999930000
   23      C       0.0000000000    -1.4351850000     0.0000000000
   24      H      -1.6275410000    -1.9781380000     1.3703850000
   25      C       0.0000000000     0.0000000000     0.0000000000
   26      S       0.1575770000     0.8909370000     1.5075410000
   27      C       0.4298890000     2.4397200000     0.7188730000
   28      C       0.1577970000     0.8905760000    -1.0678720000
   29      C       0.3969150000     2.2600040000    -0.6864100000
   30      S       0.1183070000     0.6502070000    -2.8055160000
   31      C       0.4170360000     2.3762290000    -3.0545300000
   32      C       0.5376160000     3.0742020000    -1.8625510000
   33      F       0.7649920000     4.3913780000    -1.8190880000
   34      C       0.4966960000     2.8171180000    -4.4560840000
   35      O       0.3708740000     2.0575820000    -5.4065100000
   36      O       0.7238610000     4.1484180000    -4.5692250000
   37      C       0.8149760000     4.6350750000    -5.9162070000
   38      H       0.9992860000     5.7205910000    -5.8330640000
   39      H      -0.1259090000     4.4422260000    -6.4701680000
   40      H       1.6455040000     4.1404650000    -6.4592930000
   41      H       0.5889930000     3.3501820000     1.3064860000
   42      H       0.3119790000    -9.1436230000     0.8593140000
   43      H      -0.8520970000    -9.1494410000    -0.5086660000
   44      H       0.6998740000    -1.4431750000     0.8225040000
 ----------------------------------------------------------------
 Nuclear Repulsion Energy =        3340.02762704 hartrees
 There are      120 alpha and      120 beta electrons
 Requested basis set is cc-pVTZ
 There are 388 shells and 1096 basis functions

 Total QAlloc Memory Limit 110000 MB
 Mega-Array Size       188 MB
 MEM_STATIC part       192 MB
 Discretize the solute cavity surface with Lebedev spheres
	Using 110 Lebedev grid points for each H atom
	Using 194 Lebedev grid points for other atoms
	Atomic van der Waals radii will be scaled by 1.20
 Remove points where switching function is < 1.0e-08
 Keep 2975 surface tesserae and discard 4301 interior tesserae
 Molecular Surface Area = 442.002 Angst**2
 Requested basis set is rimp2-cc-pVTZ
 There are 853 shells and 2963 basis functions
 A cutoff of  1.0D-10 yielded  32854 shell pairs
 There are    248296 function pairs (    321357 Cartesian)
 Smallest overlap matrix eigenvalue = 2.15E-05

 Scale SEOQF with 1.000000e-01/1.000000e-02/1.000000e-02

 Standard Electronic Orientation quadrupole field applied
 Nucleus-field energy     =     0.0000000326 hartrees
 Guess from superposition of atomic densities
 Warning:  Energy on first SCF cycle will be non-variational
 SAD guess density has 240.000000 electrons

 -----------------------------------------------------------------------
  General SCF calculation program by
  Eric Jon Sundstrom, Paul Horn, Yuezhi Mao, Dmitri Zuev, Alec White,
  David Stuck, Shaama M.S., Shane Yost, Joonho Lee, David Small,
  Daniel Levine, Susi Lehtola, Hugh Burton, Evgeny Epifanovsky,
  Bang C. Huynh
 -----------------------------------------------------------------------
 Hartree-Fock
 using 64 threads for integral computing
 -------------------------------------------------------
 OpenMP Integral computing Module                
 Release: version 1.0, May 2013, Q-Chem Inc. Pittsburgh 
 -------------------------------------------------------
 A restricted SCF calculation will be
 performed using DIIS
 SCF converges when DIIS error is below 1.0e-06
 ---------------------------------------
  Cycle       Energy         DIIS error
 ---------------------------------------
    1   -2767.0257791001      1.75e-02  
    2   -2754.8926516395      1.53e-03  
    3   -2755.2414090989      8.53e-04  
    4   -2755.3276181596      2.56e-04  
    5   -2755.3411556063      7.39e-05  
    6   -2755.3426830201      2.60e-05  
    7   -2755.3430844071      1.36e-05  
    8   -2755.3432165327      5.71e-06  
    9   -2755.3432481927      2.94e-06  
   10   -2755.3432558580      1.52e-06  
   11   -2755.3432584253      8.07e-07  Convergence criterion met
 ---------------------------------------
 SCF time:   CPU 7934.67s  wall 306.00s 

************** Final PCM Free Energy Summary **************
 G_electrostatic  =      -0.02125905 hartree =     -13.34025604 kcal/mol
 G_cavitation     =       0.00000000 hartree =       0.00000000 kcal/mol
 G_dispersion     =       0.00000000 hartree =       0.00000000 kcal/mol
 G_repulsion      =       0.00000000 hartree =       0.00000000 kcal/mol
 --------------------------------------------------
 Non-electrostatic Free Energy =       0.00000000 hartree =       0.00000000 kcal/mol
 Total                         =      -0.02125905 hartree =     -13.34025604 kcal/mol
 --------------------------------------------------
 SCF Energy (H0 + V/2)                       =   -2755.34325843 
 Solute Internal Energy (H0)                 =   -2755.32199937 
 Total Free Energy (H0 + V/2 + non-elec)     =   -2755.34325843 hartree
                                             = -1729003.99051788 kcal/mol
***********************************************************

 SCF   energy in the final basis set =    -2755.3432584253
 Total energy in the final basis set =    -2755.3432584253


 --------------------------------------------------------------
  Generalized many-body perturbation theory program
  by Joonho Lee, Fazle Rob, Xintian Feng, Evgeny Epifanovsky

 No regularization used 
 (reg. param. = 0.0000e+00)
  (P|Q)^-1/2 Time:  CPU 232.93 s  wall 3.73 s

 In RI-MP2 calculation: 
 # of frozen core orbitals: 45

 Components of the RIMP2 correlation energy:
        aaaa    correlation energy =        -0.6685245402 a.u.
        abab    correlation energy =        -3.7510120041 a.u.
        bbbb    correlation energy =        -0.6685245402 a.u.
        non-Brillouin singles      =        -0.0000000000 a.u.
        total same-spin energy     =        -1.3370490804 a.u.
        total opposite-spin energy =        -3.7510120041 a.u.

 Total  RIMP2   correlation energy =        -5.0880610845 a.u.
        RIMP2         total energy =     -2760.4313195098 a.u.

 RI-MP2 Energy Time:  CPU 3127.69 s  wall 51.03 s
 
 --------------------------------------------------------------
 
                    Orbital Energies (a.u.)
 --------------------------------------------------------------
 
 Alpha MOs
 -- Occupied --
-92.0152 -91.9960 -91.9792 -91.9584 -26.3428 -20.6147 -20.5875 -20.5870
-20.5612 -11.4092 -11.3816 -11.3092 -11.3083 -11.3079 -11.3048 -11.2974
-11.2963 -11.2887 -11.2847 -11.2843 -11.2834 -11.2830 -11.2810 -11.2731
-11.2723 -11.2584 -11.2581 -11.2498 -11.2372  -9.0141  -8.9961  -8.9813
 -8.9610  -6.6949  -6.6943  -6.6937  -6.6772  -6.6764  -6.6753  -6.6624
 -6.6615  -6.6602  -6.6422  -6.6413  -6.6402  -1.6599  -1.4671  -1.4105
 -1.4092  -1.3698  -1.2294  -1.2026  -1.1740  -1.1375  -1.1000  -1.0469
 -1.0438  -1.0244  -1.0039  -0.9971  -0.9632  -0.9577  -0.9485  -0.9411
 -0.8937  -0.8680  -0.8666  -0.8148  -0.7949  -0.7896  -0.7846  -0.7685
 -0.7564  -0.7377  -0.7248  -0.7155  -0.6969  -0.6877  -0.6845  -0.6801
 -0.6737  -0.6616  -0.6561  -0.6487  -0.6367  -0.6301  -0.6202  -0.6152
 -0.6108  -0.5991  -0.5923  -0.5768  -0.5712  -0.5638  -0.5594  -0.5576
 -0.5492  -0.5329  -0.5311  -0.5249  -0.5129  -0.5092  -0.5075  -0.5016
 -0.4850  -0.4800  -0.4763  -0.4736  -0.4693  -0.4679  -0.4608  -0.4471
 -0.4278  -0.3964  -0.3860  -0.3701  -0.3517  -0.2984  -0.2896  -0.2195
 -- Virtual --
  0.0343   0.0512   0.1113   0.1294   0.1374   0.1483   0.1527   0.1546
  0.1573   0.1585   0.1676   0.1769   0.1808   0.1825   0.1885   0.1972
  0.2004   0.2027   0.2055   0.2140   0.2152   0.2209   0.2244   0.2285
  0.2300   0.2325   0.2372   0.2439   0.2501   0.2543   0.2641   0.2706
  0.2745   0.2882   0.3030   0.3256   0.3286   0.3376   0.3417   0.3453
  0.3481   0.3578   0.3586   0.3678   0.3740   0.3842   0.3843   0.3856
  0.3888   0.3937   0.4013   0.4042   0.4065   0.4112   0.4174   0.4214
  0.4223   0.4281   0.4320   0.4348   0.4392   0.4453   0.4479   0.4536
  0.4591   0.4631   0.4646   0.4688   0.4717   0.4772   0.4788   0.4837
  0.4904   0.4934   0.5015   0.5041   0.5055   0.5121   0.5163   0.5182
  0.5205   0.5245   0.5337   0.5346   0.5390   0.5422   0.5443   0.5503
  0.5507   0.5543   0.5559   0.5597   0.5617   0.5656   0.5750   0.5778
  0.5824   0.5866   0.5887   0.5944   0.5973   0.5998   0.6060   0.6121
  0.6128   0.6140   0.6165   0.6210   0.6223   0.6252   0.6275   0.6295
  0.6333   0.6371   0.6410   0.6463   0.6484   0.6527   0.6556   0.6571
  0.6619   0.6681   0.6696   0.6755   0.6865   0.6883   0.6922   0.6997
  0.7056   0.7070   0.7135   0.7165   0.7179   0.7239   0.7263   0.7335
  0.7400   0.7495   0.7559   0.7576   0.7656   0.7732   0.7825   0.7883
  0.7913   0.7990   0.8018   0.8078   0.8104   0.8172   0.8221   0.8249
  0.8298   0.8346   0.8477   0.8503   0.8602   0.8615   0.8703   0.8724
  0.8754   0.8816   0.8899   0.8931   0.8963   0.9030   0.9054   0.9159
  0.9189   0.9241   0.9287   0.9341   0.9420   0.9449   0.9499   0.9557
  0.9613   0.9641   0.9659   0.9774   0.9807   0.9849   0.9894   0.9942
  0.9959   1.0031   1.0065   1.0108   1.0178   1.0200   1.0252   1.0315
  1.0385   1.0431   1.0453   1.0538   1.0547   1.0638   1.0644   1.0686
  1.0712   1.0751   1.0813   1.0846   1.0980   1.1008   1.1049   1.1060
  1.1137   1.1148   1.1187   1.1215   1.1285   1.1353   1.1385   1.1531
  1.1538   1.1579   1.1631   1.1672   1.1693   1.1732   1.1784   1.1816
  1.1861   1.1929   1.1992   1.2007   1.2069   1.2112   1.2132   1.2221
  1.2255   1.2284   1.2327   1.2404   1.2415   1.2441   1.2552   1.2577
  1.2620   1.2658   1.2687   1.2752   1.2764   1.2854   1.2894   1.2931
  1.3036   1.3054   1.3121   1.3163   1.3215   1.3299   1.3349   1.3404
  1.3463   1.3509   1.3632   1.3722   1.3825   1.3885   1.3947   1.3976
  1.4073   1.4146   1.4192   1.4233   1.4269   1.4370   1.4430   1.4498
  1.4613   1.4678   1.4738   1.4830   1.4884   1.4955   1.5012   1.5019
  1.5039   1.5087   1.5125   1.5186   1.5263   1.5312   1.5364   1.5393
  1.5419   1.5469   1.5488   1.5540   1.5555   1.5616   1.5703   1.5765
  1.5852   1.5974   1.6014   1.6027   1.6119   1.6244   1.6267   1.6374
  1.6415   1.6459   1.6578   1.6629   1.6650   1.6738   1.6832   1.6894
  1.6944   1.7000   1.7068   1.7102   1.7183   1.7266   1.7356   1.7453
  1.7561   1.7595   1.7747   1.7805   1.7921   1.7949   1.8101   1.8154
  1.8206   1.8244   1.8283   1.8445   1.8520   1.8582   1.8670   1.8773
  1.8784   1.8833   1.8977   1.9008   1.9168   1.9225   1.9252   1.9393
  1.9437   1.9593   1.9649   1.9712   1.9780   1.9873   1.9948   1.9972
  2.0023   2.0089   2.0187   2.0229   2.0314   2.0382   2.0447   2.0517
  2.0567   2.0726   2.0791   2.0913   2.0962   2.1029   2.1214   2.1271
  2.1396   2.1528   2.1579   2.1637   2.1762   2.1864   2.1921   2.1980
  2.1998   2.2056   2.2091   2.2109   2.2244   2.2273   2.2374   2.2428
  2.2496   2.2566   2.2618   2.2710   2.2772   2.2888   2.2927   2.3044
  2.3095   2.3141   2.3272   2.3353   2.3366   2.3486   2.3541   2.3563
  2.3697   2.3751   2.3951   2.4011   2.4013   2.4131   2.4158   2.4233
  2.4317   2.4392   2.4461   2.4607   2.4750   2.4792   2.4870   2.4944
  2.5008   2.5128   2.5186   2.5336   2.5407   2.5439   2.5581   2.5666
  2.5699   2.5812   2.5968   2.5992   2.6155   2.6183   2.6217   2.6258
  2.6305   2.6312   2.6412   2.6455   2.6472   2.6513   2.6654   2.6693
  2.6820   2.6860   2.6875   2.6940   2.6994   2.7062   2.7085   2.7134
  2.7225   2.7252   2.7334   2.7416   2.7516   2.7565   2.7621   2.7734
  2.7786   2.7814   2.7871   2.7956   2.8020   2.8130   2.8149   2.8265
  2.8410   2.8423   2.8504   2.8524   2.8584   2.8630   2.8656   2.8725
  2.8814   2.8844   2.8892   2.9012   2.9088   2.9128   2.9240   2.9396
  2.9495   2.9553   2.9574   2.9626   2.9727   2.9793   2.9823   2.9898
  2.9903   2.9941   3.0141   3.0234   3.0237   3.0307   3.0375   3.0460
  3.0527   3.0623   3.0652   3.0746   3.0816   3.0932   3.0964   3.1007
  3.1033   3.1122   3.1149   3.1179   3.1302   3.1329   3.1374   3.1444
  3.1459   3.1505   3.1534   3.1585   3.1669   3.1698   3.1724   3.1764
  3.1840   3.1915   3.1991   3.2062   3.2123   3.2149   3.2180   3.2230
  3.2267   3.2302   3.2394   3.2476   3.2540   3.2574   3.2612   3.2666
  3.2691   3.2712   3.2765   3.2811   3.2865   3.2933   3.2984   3.3027
  3.3048   3.3121   3.3141   3.3162   3.3292   3.3351   3.3364   3.3414
  3.3436   3.3487   3.3511   3.3562   3.3641   3.3670   3.3673   3.3696
  3.3811   3.3866   3.3899   3.3908   3.3957   3.3972   3.4010   3.4065
  3.4093   3.4161   3.4239   3.4258   3.4326   3.4360   3.4382   3.4429
  3.4483   3.4517   3.4556   3.4588   3.4653   3.4689   3.4769   3.4805
  3.4842   3.4915   3.4948   3.5036   3.5056   3.5115   3.5154   3.5265
  3.5311   3.5421   3.5459   3.5537   3.5619   3.5648   3.5673   3.5763
  3.5784   3.5882   3.5909   3.5942   3.5991   3.6032   3.6113   3.6117
  3.6154   3.6217   3.6262   3.6301   3.6346   3.6390   3.6414   3.6564
  3.6642   3.6679   3.6733   3.6749   3.6814   3.6838   3.6866   3.6930
  3.7007   3.7054   3.7075   3.7138   3.7183   3.7200   3.7277   3.7356
  3.7401   3.7431   3.7499   3.7559   3.7603   3.7652   3.7690   3.7729
  3.7830   3.7886   3.7937   3.7990   3.8024   3.8085   3.8089   3.8148
  3.8166   3.8221   3.8277   3.8354   3.8432   3.8486   3.8521   3.8554
  3.8632   3.8668   3.8761   3.8804   3.8851   3.8947   3.9001   3.9042
  3.9131   3.9165   3.9232   3.9331   3.9393   3.9420   3.9498   3.9603
  3.9620   3.9674   3.9763   3.9826   3.9937   3.9997   4.0049   4.0100
  4.0120   4.0186   4.0351   4.0399   4.0455   4.0588   4.0626   4.0666
  4.0682   4.0761   4.0818   4.0951   4.1000   4.1121   4.1181   4.1339
  4.1436   4.1464   4.1562   4.1612   4.1659   4.1675   4.1691   4.1728
  4.1765   4.1840   4.1900   4.2041   4.2073   4.2109   4.2237   4.2291
  4.2338   4.2461   4.2583   4.2659   4.2807   4.2847   4.2903   4.3039
  4.3141   4.3207   4.3286   4.3393   4.3420   4.3491   4.3560   4.3581
  4.3631   4.3684   4.3733   4.3808   4.3901   4.4066   4.4135   4.4185
  4.4208   4.4232   4.4285   4.4307   4.4354   4.4385   4.4492   4.4597
  4.4649   4.4720   4.4795   4.4924   4.5052   4.5163   4.5211   4.5285
  4.5385   4.5455   4.5521   4.5568   4.5696   4.5755   4.5780   4.5835
  4.5864   4.6025   4.6093   4.6152   4.6186   4.6319   4.6504   4.6537
  4.6581   4.6590   4.6696   4.6799   4.6905   4.7058   4.7268   4.7277
  4.7359   4.7561   4.7631   4.7790   4.7838   4.7866   4.8057   4.8206
  4.8267   4.8394   4.8427   4.8486   4.8668   4.8728   4.8811   4.8930
  4.8998   4.9162   4.9262   4.9430   4.9491   4.9510   4.9652   4.9699
  4.9772   5.0003   5.0090   5.0116   5.0151   5.0197   5.0430   5.0518
  5.0805   5.0916   5.1015   5.1093   5.1191   5.1230   5.1570   5.1623
  5.1756   5.1936   5.1995   5.2049   5.2254   5.2365   5.2488   5.2521
  5.2580   5.2638   5.2813   5.2919   5.2931   5.3119   5.3156   5.3260
  5.3355   5.3516   5.3582   5.3638   5.3724   5.3771   5.3901   5.4023
  5.4067   5.4185   5.4263   5.4427   5.4502   5.4851   5.5018   5.5094
  5.5111   5.5211   5.5255   5.5398   5.5541   5.5682   5.5736   5.5820
  5.5879   5.6095   5.6113   5.6218   5.6345   5.6614   5.6803   5.6905
  5.6980   5.7282   5.7591   5.7624   5.7837   5.8076   5.8231   5.8566
  5.8602   5.8799   5.8979   5.9195   5.9293   5.9432   5.9776   5.9999
  6.0399   6.0447   6.0913   6.1285   6.1506   6.1561   6.1717   6.1777
  6.1806   6.2015   6.2259   6.2467   6.2615   6.2636   6.2761   6.2826
  6.3114   6.3314   6.3527   6.3760   6.4502   6.4541   6.4851   6.5397
  6.5474   6.5681   6.6067   6.6449   6.6614   6.6713   6.7167   6.7467
  6.8069   6.8302   6.8576   6.8596   6.8980   6.9787   7.1309   7.1459
  7.2041   7.2076   7.2220   7.2394   7.3100   7.3267   7.3421   7.3636
  7.3644   7.4067   7.4134   7.4860   7.4863   7.4963   7.5262   7.5517
  7.6160   7.7406   7.7735   7.7903   7.8024   7.9035   7.9261   7.9547
  7.9731   8.1345   8.3251   8.5977   8.9224   9.0296   9.3634   9.4851
  9.6753  10.2405  11.1760  11.4694  11.7312  11.8868  12.1228  12.3703
 12.4180  12.4975  12.9621  12.9966  13.0486  13.2632  13.3862  13.4806
 13.7647  13.7862  13.8931  13.9510  14.0332  14.3108  14.8518  15.2035
 --------------------------------------------------------------
 
          Ground-State Mulliken Net Atomic Charges

     Atom                 Charge (a.u.)
  ----------------------------------------
      1 C                    -0.070114
      2 C                    -0.258862
      3 S                    -0.135599
      4 C                    -0.045991
      5 H                     0.193665
      6 C                    -0.049701
      7 C                     0.220874
      8 C                     0.226015
      9 C                    -0.072145
     10 C                    -0.029079
     11 O                    -0.334693
     12 O                    -0.343646
     13 C                    -0.082863
     14 H                     0.119884
     15 H                     0.092245
     16 H                     0.093156
     17 C                    -0.087582
     18 H                     0.123656
     19 H                     0.092126
     20 H                     0.091576
     21 C                    -0.299815
     22 S                    -0.080970
     23 C                     0.115338
     24 H                     0.203555
     25 C                    -0.063065
     26 S                     0.087820
     27 C                    -0.192818
     28 C                    -0.033895
     29 C                    -0.102867
     30 S                     0.008708
     31 C                    -0.156348
     32 C                     0.399334
     33 F                    -0.207724
     34 C                     0.443891
     35 O                    -0.460144
     36 O                    -0.300602
     37 C                    -0.058666
     38 H                     0.121300
     39 H                     0.095211
     40 H                     0.095070
     41 H                     0.217911
     42 H                     0.117394
     43 H                     0.115193
     44 H                     0.193267
  ----------------------------------------
  Sum of atomic charges =     0.000000

 -----------------------------------------------------------------
                    Cartesian Multipole Moments
 -----------------------------------------------------------------
    Charge (ESU x 10^10)
                -0.0000
    Dipole Moment (Debye)
         X       0.9961      Y       2.5406      Z       3.3284
       Tot       4.3040
    Quadrupole Moments (Debye-Ang)
        XX    -185.2455     XY      -0.3920     YY    -174.7866
        XZ      -7.5538     YZ      -4.7292     ZZ    -203.9978
    Octopole Moments (Debye-Ang^2)
       XXX     -56.2331    XXY     305.7916    XYY      13.5365
       YYY     966.5166    XXZ     164.6377    XYZ      17.7976
       YYZ      77.5561    XZZ       1.9035    YZZ     465.0358
       ZZZ     525.9822
    Hexadecapole Moments (Debye-Ang^3)
      XXXX   -1781.9892   XXXY    -748.7982   XXYY   -3889.2122
      XYYY    -907.6069   YYYY  -20342.7273   XXXZ     727.4448
      XXYZ     610.6103   XYYZ     108.9979   YYYZ    1767.3717
      XXZZ   -1262.7557   XYZZ    -162.5995   YYZZ   -4315.9446
      XZZZ     740.8827   YZZZ    1365.3879   ZZZZ   -6313.7452
 -----------------------------------------------------------------
 Total job time:  362.44s(wall), 11178.14s(cpu) 
 Tue Jan  9 10:20:02 2024

        *************************************************************
        *                                                           *
        *  Thank you very much for using Q-Chem.  Have a nice day.  *
        *                                                           *
        *************************************************************


0 sent ACK to 0 
now end server 0 ... 
cleanup process ... done
remove work dirs ./qchem1284126.0 -- ./qchem1284126.0
rm -rf ./qchem1284126.0
rm -rf ./qchem1284126
