You are running Q-Chem version: 5.4.0

#
# job setting
#
local host:  exp-14-16
current dir: /home/rramji/project-csd799/aromodel/ptb7fout-qchem/hydrogenated-rotation-run
input file:  Dimethoxy_Benzodithiophene_Phi_30_Theta_350_Methylcarbonyl_3_Fluoro_Thienothiophene_Hydrogenated.qcin
output file: 
nprocs     : 1
nthreads   : 64
#
# qchem installation setting
#
QC:          /cm/shared/apps/spack/cpu/opt/spack/linux-centos8-zen2/gcc-10.2.0/qchem-5.4-akfmr7b3t57bfs6qan3padb2wnb2i7cl
QCAUX:       /cm/shared/apps/spack/cpu/opt/spack/linux-centos8-zen2/gcc-10.2.0/qchem-5.4-akfmr7b3t57bfs6qan3padb2wnb2i7cl/qcaux
QCPROG:      /cm/shared/apps/spack/cpu/opt/spack/linux-centos8-zen2/gcc-10.2.0/qchem-5.4-akfmr7b3t57bfs6qan3padb2wnb2i7cl/exe/qcprog.exe
QCPROG_S:    /cm/shared/apps/spack/cpu/opt/spack/linux-centos8-zen2/gcc-10.2.0/qchem-5.4-akfmr7b3t57bfs6qan3padb2wnb2i7cl/exe/qcprog.exe_s
PARALLEL:    -DPARALLEL
QCMPI:       mpich
#
# qchem directory setting
#
qcrun:       qchem1519142
QCSCRATCH:   .
QCLOCALSCR:  
QCTMPDIR:    .
QCFILEPREF:  ./qchem1519142
QCSAVEDIR:   
workdirs:    ./qchem1519142
workdir0:    ./qchem1519142
partmpdirs =  
#
# parallel setting
#
QCRSH:           ssh
QCMPI:           mpich
QCMPIRUN:        /cm/shared/apps/spack/cpu/opt/spack/linux-centos8-zen2/gcc-10.2.0/qchem-5.4-akfmr7b3t57bfs6qan3padb2wnb2i7cl/bin/mpi/mpirun_qchem
QCMACHINEFILE:   ./qchem1519142/hostfile
exp-14-16

#
# env setting
#
exported envs:   QC QCAUX QCSCRATCH QCRUNNAME QCFILEPREF QCPROG QCPROG_S GUIFILE

Running Job 1 of 1 Dimethoxy_Benzodithiophene_Phi_30_Theta_350_Methylcarbonyl_3_Fluoro_Thienothiophene_Hydrogenated.qcin
qchem Dimethoxy_Benzodithiophene_Phi_30_Theta_350_Methylcarbonyl_3_Fluoro_Thienothiophene_Hydrogenated.qcin_1519142.0 ./qchem1519142/ 1
/cm/shared/apps/spack/cpu/opt/spack/linux-centos8-zen2/gcc-10.2.0/qchem-5.4-akfmr7b3t57bfs6qan3padb2wnb2i7cl/bin/mpi/mpirun_qchem -machinefile ./qchem1519142/hostfile -np 1 /cm/shared/apps/spack/cpu/opt/spack/linux-centos8-zen2/gcc-10.2.0/qchem-5.4-akfmr7b3t57bfs6qan3padb2wnb2i7cl/exe/qcprog.exe Dimethoxy_Benzodithiophene_Phi_30_Theta_350_Methylcarbonyl_3_Fluoro_Thienothiophene_Hydrogenated.qcin_1519142.0 ./qchem1519142/

Process 0 of 1 is on exp-14-16 - thread support 0
initial socket setup ...start
initial socket setup ...done 
now start server 0 ... 
                  Welcome to Q-Chem
     A Quantum Leap Into The Future Of Chemistry


 Q-Chem 5.4, Q-Chem, Inc., Pleasanton, CA (2021)

 License issued to: University of California, San Diego (site)

 E. Epifanovsky,  A. T. B. Gilbert,  Xintian Feng,  Joonho Lee,  Yuezhi Mao,  
 N. Mardirossian,  P. Pokhilko,  A. White,  M. Wormit,  M. P. Coons,  
 A. L. Dempwolff,  Zhengting Gan,  D. Hait,  P. R. Horn,  L. D. Jacobson,  
 I. Kaliman,  J. Kussmann,  A. W. Lange,  Ka Un Lao,  D. S. Levine,  Jie Liu,  
 S. C. McKenzie,  A. F. Morrison,  K. Nanda,  F. Plasser,  D. R. Rehn,  
 M. L. Vidal,  Zhi-Qiang You,  Ying Zhu,  B. Alam,  B. Albrecht,  
 A. Aldossary,  E. Alguire,  J. H. Andersen,  D. Barton,  K. Begam,  A. Behn,  
 Y. A. Bernard,  E. J. Berquist,  H. Burton,  A. Carreras,  K. Carter-Fenk,  
 R. Chakraborty,  A. D. Chien,  K. D. Closser,  V. Cofer-Shabica,  
 S. Dasgupta,  Jia Deng,  M. de Wergifosse,  M. Diedenhofen,  Hainam Do,  
 S. Ehlert,  Po-Tung Fang,  S. Fatehi,  Qingguo Feng,  J. Gayvert,  
 Qinghui Ge,  G. Gidofalvi,  M. Goldey,  J. Gomes,  C. Gonzalez-Espinoza,  
 S. Gulania,  A. Gunina,  M. W. D. Hanson-Heine,  P. H. P. Harbach,  
 A. W. Hauser,  M. F. Herbst,  M. Hernandez Vera,  M. Hodecker,  
 Z. C. Holden,  S. Houck,  Xunkun Huang,  Kerwin Hui,  B. C. Huynh,  
 M. Ivanov,  Hyunjun Ji,  Hanjie Jiang,  B. Kaduk,  S. Kaehler,  
 K. Khistyaev,  Jaehoon Kim,  P. Klunzinger,  Z. Koczor-Benda,  
 Joong Hoon Koh,  D. Kosenkov,  L. Koulias,  T. Kowalczyk,  C. M. Krauter,  
 K. Kue,  A. Kunitsa,  T. Kus,  A. Landau,  K. V. Lawler,  D. Lefrancois,  
 S. Lehtola,  Rain Li,  Yi-Pei Li,  Jiashu Liang,  M. Liebenthal,  
 Hung-Hsuan Lin,  You-Sheng Lin,  Fenglai Liu,  Kuan-Yu Liu,  
 M. Loipersberger,  A. Luenser,  A. Manjanath,  P. Manohar,  E. Mansoor,  
 S. F. Manzer,  Shan-Ping Mao,  A. V. Marenich,  T. Markovich,  S. Mason,  
 S. A. Maurer,  P. F. McLaughlin,  M. F. S. J. Menger,  J.-M. Mewes,  
 S. A. Mewes,  P. Morgante,  J. W. Mullinax,  T. S. Nguyen-Beck,  
 K. J. Oosterbaan,  G. Paran,  Alexander C. Paul,  Suranjan K. Paul,  
 F. Pavosevic,  Zheng Pei,  S. Prager,  E. I. Proynov,  E. Ramos,  B. Rana,  
 A. E. Rask,  A. Rettig,  R. M. Richard,  F. Rob,  E. Rossomme,  T. Scheele,  
 M. Scheurer,  M. Schneider,  N. Sergueev,  S. M. Sharada,  W. Skomorowski,  
 D. W. Small,  C. J. Stein,  Yu-Chuan Su,  E. J. Sundstrom,  Zhen Tao,  
 J. Thirman,  T. Tsuchimochi,  N. M. Tubman,  S. P. Veccham,  O. Vydrov,  
 J. Wenzel,  J. Witte,  A. Yamada,  Kun Yao,  S. Yeganeh,  S. R. Yost,  
 A. Zech,  Igor Ying Zhang,  Xing Zhang,  Yu Zhang,  D. Zuev,  
 A. Aspuru-Guzik,  A. T. Bell,  N. A. Besley,  K. B. Bravaya,  B. R. Brooks,  
 D. Casanova,  Jeng-Da Chai,  S. Coriani,  C. J. Cramer,  
 A. E. DePrince, III,  R. A. DiStasio Jr.,  A. Dreuw,  B. D. Dunietz,  
 T. R. Furlani,  W. A. Goddard III,  S. Grimme,  S. Hammes-Schiffer,  
 T. Head-Gordon,  W. J. Hehre,  Chao-Ping Hsu,  T.-C. Jagau,  Yousung Jung,  
 A. Klamt,  Jing Kong,  D. S. Lambrecht,  WanZhen Liang,  N. J. Mayhall,  
 C. W. McCurdy,  J. B. Neaton,  C. Ochsenfeld,  J. A. Parkhill,  R. Peverati,  
 V. A. Rassolov,  Yihan Shao,  L. V. Slipchenko,  T. Stauch,  R. P. Steele,  
 J. E. Subotnik,  A. J. W. Thom,  A. Tkatchenko,  D. G. Truhlar,  
 T. Van Voorhis,  T. A. Wesolowski,  K. B. Whaley,  H. L. Woodcock III,  
 P. M. Zimmerman,  S. Faraji,  P. M. W. Gill,  M. Head-Gordon,  
 J. M. Herbert,  A. I. Krylov

 Contributors to earlier versions of Q-Chem not listed above: 
 R. D. Adamson,  B. Austin,  R. Baer,  J. Baker,  G. J. O. Beran,  
 K. Brandhorst,  S. T. Brown,  E. F. C. Byrd,  A. K. Chakraborty,  
 G. K. L. Chan,  Chun-Min Chang,  Yunqing Chen,  C.-L. Cheng,  
 Siu Hung Chien,  D. M. Chipman,  D. L. Crittenden,  H. Dachsel,  
 R. J. Doerksen,  A. D. Dutoi,  R. G. Edgar,  J. Fosso-Tande,  
 L. Fusti-Molnar,  D. Ghosh,  A. Ghysels,  A. Golubeva-Zadorozhnaya,  
 J. Gonthier,  M. S. Gordon,  S. R. Gwaltney,  G. Hawkins,  J. E. Herr,  
 A. Heyden,  S. Hirata,  E. G. Hohenstein,  G. Kedziora,  F. J. Keil,  
 C. Kelley,  Jihan Kim,  R. A. King,  R. Z. Khaliullin,  P. P. Korambath,  
 W. Kurlancheek,  A. Laurent,  A. M. Lee,  M. S. Lee,  S. V. Levchenko,  
 Ching Yeh Lin,  D. Liotard,  E. Livshits,  R. C. Lochan,  I. Lotan,  
 L. A. Martinez-Martinez,  P. E. Maslen,  N. Nair,  D. P. O'Neill,  
 D. Neuhauser,  E. Neuscamman,  C. M. Oana,  R. Olivares-Amaya,  R. Olson,  
 T. M. Perrine,  B. Peters,  P. A. Pieniazek,  A. Prociuk,  Y. M. Rhee,  
 J. Ritchie,  M. A. Rohrdanz,  E. Rosta,  N. J. Russ,  H. F. Schaefer III,  
 M. W. Schmidt,  N. E. Schultz,  S. Sharma,  N. Shenvi,  C. D. Sherrill,  
 A. C. Simmonett,  A. Sodt,  T. Stein,  D. Stuck,  K. S. Thanthiriwatte,  
 V. Vanovschi,  L. Vogt,  Tao Wang,  A. Warshel,  M. A. Watson,  
 C. F. Williams,  Q. Wu,  X. Xu,  Jun Yang,  W. Zhang,  Yan Zhao

 Please cite Q-Chem as follows:
 Y. Shao et al., Mol. Phys. 113, 184-215 (2015)
 DOI: 10.1080/00268976.2014.952696

 Q-Chem 5.4.0 for Intel X86 EM64T Linux

 Parts of Q-Chem use Armadillo 9.800.1 (Horizon Scraper).
 http://arma.sourceforge.net/

 Q-Chem begins on Tue Jan  9 13:06:43 2024  

 Host: 
0

     Scratch files written to ./qchem1519142//
 May1621 |scratch|qcdevops|jenkins|workspace|build_RNUM    
 Parallel job on  1  processors
 Processing $rem in /cm/shared/apps/spack/cpu/opt/spack/linux-centos8-zen2/gcc-10.2.0/qchem-5.4-akfmr7b3t57bfs6qan3padb2wnb2i7cl/config/preferences:
 Processing $rem in /home/rramji/.qchemrc:
 Symmetry turned off for PCM/SM12/SMD calculation
 Core orbitals will be frozen

 Checking the input file for inconsistencies... 	...done.

 Q-Chem warning in module forms1/BasisType.C, line 2236:

 You are not using the predefined 5D/6D in this basis set.


--------------------------------------------------------------
User input:
--------------------------------------------------------------
$molecule
0 1
C	0.014560	-8.517702	0.320589
C	-0.180211	-7.641575	-0.737240
S	0.299553	-7.638634	1.842356
C	-0.114873	-6.264785	-0.366488
H	-0.368061	-7.966081	-1.768528
C	0.131236	-6.072714	1.038637
C	0.253435	-4.787049	1.588197
C	-0.249014	-5.162801	-1.258831
C	-0.122513	-3.874817	-0.709695
C	0.121043	-3.683952	0.697430
O	-0.505933	-5.499772	-2.553323
O	0.512697	-4.459055	2.888369
C	0.080869	-5.329063	3.927625
H	0.173159	-4.755694	4.869656
H	0.716363	-6.238095	4.007459
H	-0.978072	-5.637262	3.789565
C	-0.246949	-4.572261	-3.600064
H	-0.344574	-5.139743	-4.544887
H	0.779898	-4.153131	-3.532074
H	-0.983261	-3.739531	-3.612378
C	0.188009	-2.306654	1.064246
S	-0.278644	-2.306501	-1.517360
C	0.000000	-1.435185	0.000000
H	0.373017	-1.978138	2.094685
C	0.000000	0.000000	0.000000
S	0.452792	0.783312	1.507541
C	1.238397	2.145556	0.718873
C	0.452875	0.782898	-1.067872
C	1.145945	1.987956	-0.686410
S	0.333556	0.570531	-2.805516
C	1.204604	2.090290	-3.054530
C	1.556633	2.704929	-1.862551
F	2.220797	3.864903	-1.819088
C	1.430252	2.477345	-4.456084
O	1.052242	1.806648	-5.406510
O	2.099050	3.650663	-4.569225
C	2.351116	4.076808	-5.916207
H	2.895579	5.033821	-5.833064
H	1.401015	4.217390	-6.470168
H	2.962391	3.327969	-6.459293
H	1.699302	2.946693	1.306486
H	0.900177	-9.143623	0.159475
H	-0.866566	-9.149441	0.483604
H	1.062246	-1.443175	-0.194856
$end

$rem
JOBTYPE		SP
EXCHANGE	HF
CORRELATION	pRIMP2
BASIS		cc-pvtz
METHOD		rimp2
AUX_BASIS	rimp2-cc-pvtz
SOLVENT_METHOD	PCM
PURECART	11111
SYMMETRY	false
MEM_TOTAL	110000
SCF_CONVERGENCE = 6
THRESH=10
GUI = 2
$end



$solvent
dielectric 4.90
$end
--------------------------------------------------------------
 ----------------------------------------------------------------
             Standard Nuclear Orientation (Angstroms)
    I     Atom           X                Y                Z
 ----------------------------------------------------------------
    1      C       0.0145600000    -8.5177020000     0.3205890000
    2      C      -0.1802110000    -7.6415750000    -0.7372400000
    3      S       0.2995530000    -7.6386340000     1.8423560000
    4      C      -0.1148730000    -6.2647850000    -0.3664880000
    5      H      -0.3680610000    -7.9660810000    -1.7685280000
    6      C       0.1312360000    -6.0727140000     1.0386370000
    7      C       0.2534350000    -4.7870490000     1.5881970000
    8      C      -0.2490140000    -5.1628010000    -1.2588310000
    9      C      -0.1225130000    -3.8748170000    -0.7096950000
   10      C       0.1210430000    -3.6839520000     0.6974300000
   11      O      -0.5059330000    -5.4997720000    -2.5533230000
   12      O       0.5126970000    -4.4590550000     2.8883690000
   13      C       0.0808690000    -5.3290630000     3.9276250000
   14      H       0.1731590000    -4.7556940000     4.8696560000
   15      H       0.7163630000    -6.2380950000     4.0074590000
   16      H      -0.9780720000    -5.6372620000     3.7895650000
   17      C      -0.2469490000    -4.5722610000    -3.6000640000
   18      H      -0.3445740000    -5.1397430000    -4.5448870000
   19      H       0.7798980000    -4.1531310000    -3.5320740000
   20      H      -0.9832610000    -3.7395310000    -3.6123780000
   21      C       0.1880090000    -2.3066540000     1.0642460000
   22      S      -0.2786440000    -2.3065010000    -1.5173600000
   23      C       0.0000000000    -1.4351850000     0.0000000000
   24      H       0.3730170000    -1.9781380000     2.0946850000
   25      C       0.0000000000     0.0000000000     0.0000000000
   26      S       0.4527920000     0.7833120000     1.5075410000
   27      C       1.2383970000     2.1455560000     0.7188730000
   28      C       0.4528750000     0.7828980000    -1.0678720000
   29      C       1.1459450000     1.9879560000    -0.6864100000
   30      S       0.3335560000     0.5705310000    -2.8055160000
   31      C       1.2046040000     2.0902900000    -3.0545300000
   32      C       1.5566330000     2.7049290000    -1.8625510000
   33      F       2.2207970000     3.8649030000    -1.8190880000
   34      C       1.4302520000     2.4773450000    -4.4560840000
   35      O       1.0522420000     1.8066480000    -5.4065100000
   36      O       2.0990500000     3.6506630000    -4.5692250000
   37      C       2.3511160000     4.0768080000    -5.9162070000
   38      H       2.8955790000     5.0338210000    -5.8330640000
   39      H       1.4010150000     4.2173900000    -6.4701680000
   40      H       2.9623910000     3.3279690000    -6.4592930000
   41      H       1.6993020000     2.9466930000     1.3064860000
   42      H       0.9001770000    -9.1436230000     0.1594750000
   43      H      -0.8665660000    -9.1494410000     0.4836040000
   44      H       1.0622460000    -1.4431750000    -0.1948560000
 ----------------------------------------------------------------
 Nuclear Repulsion Energy =        3366.46876512 hartrees
 There are      120 alpha and      120 beta electrons
 Requested basis set is cc-pVTZ
 There are 388 shells and 1096 basis functions

 Total QAlloc Memory Limit 110000 MB
 Mega-Array Size       188 MB
 MEM_STATIC part       192 MB
 Discretize the solute cavity surface with Lebedev spheres
	Using 110 Lebedev grid points for each H atom
	Using 194 Lebedev grid points for other atoms
	Atomic van der Waals radii will be scaled by 1.20
 Remove points where switching function is < 1.0e-08
 Keep 2929 surface tesserae and discard 4347 interior tesserae
 Molecular Surface Area = 436.294 Angst**2
 Requested basis set is rimp2-cc-pVTZ
 There are 853 shells and 2963 basis functions
 A cutoff of  1.0D-10 yielded  33417 shell pairs
 There are    252117 function pairs (    326010 Cartesian)
 Smallest overlap matrix eigenvalue = 2.15E-05

 Scale SEOQF with 1.000000e-01/1.000000e-02/1.000000e-02

 Standard Electronic Orientation quadrupole field applied
 Nucleus-field energy     =     0.0000000218 hartrees
 Guess from superposition of atomic densities
 Warning:  Energy on first SCF cycle will be non-variational
 SAD guess density has 240.000000 electrons

 -----------------------------------------------------------------------
  General SCF calculation program by
  Eric Jon Sundstrom, Paul Horn, Yuezhi Mao, Dmitri Zuev, Alec White,
  David Stuck, Shaama M.S., Shane Yost, Joonho Lee, David Small,
  Daniel Levine, Susi Lehtola, Hugh Burton, Evgeny Epifanovsky,
  Bang C. Huynh
 -----------------------------------------------------------------------
 Hartree-Fock
 using 64 threads for integral computing
 -------------------------------------------------------
 OpenMP Integral computing Module                
 Release: version 1.0, May 2013, Q-Chem Inc. Pittsburgh 
 -------------------------------------------------------
 A restricted SCF calculation will be
 performed using DIIS
 SCF converges when DIIS error is below 1.0e-06
 ---------------------------------------
  Cycle       Energy         DIIS error
 ---------------------------------------
    1   -2767.0760460631      1.75e-02  
    2   -2754.8743704968      1.53e-03  
    3   -2755.2232065684      8.55e-04  
    4   -2755.3104429935      2.56e-04  
    5   -2755.3243087732      7.41e-05  
    6   -2755.3259120284      2.65e-05  
    7   -2755.3263441329      1.38e-05  
    8   -2755.3264811188      5.66e-06  
    9   -2755.3265112042      2.90e-06  
   10   -2755.3265182839      1.49e-06  
   11   -2755.3265206965      8.00e-07  Convergence criterion met
 ---------------------------------------
 SCF time:   CPU 7871.95s  wall 298.00s 

************** Final PCM Free Energy Summary **************
 G_electrostatic  =      -0.02036420 hartree =     -12.77872547 kcal/mol
 G_cavitation     =       0.00000000 hartree =       0.00000000 kcal/mol
 G_dispersion     =       0.00000000 hartree =       0.00000000 kcal/mol
 G_repulsion      =       0.00000000 hartree =       0.00000000 kcal/mol
 --------------------------------------------------
 Non-electrostatic Free Energy =       0.00000000 hartree =       0.00000000 kcal/mol
 Total                         =      -0.02036420 hartree =     -12.77872547 kcal/mol
 --------------------------------------------------
 SCF Energy (H0 + V/2)                       =   -2755.32652070 
 Solute Internal Energy (H0)                 =   -2755.30615650 
 Total Free Energy (H0 + V/2 + non-elec)     =   -2755.32652070 hartree
                                             = -1728993.48743456 kcal/mol
***********************************************************

 SCF   energy in the final basis set =    -2755.3265206965
 Total energy in the final basis set =    -2755.3265206965


 --------------------------------------------------------------
  Generalized many-body perturbation theory program
  by Joonho Lee, Fazle Rob, Xintian Feng, Evgeny Epifanovsky

 No regularization used 
 (reg. param. = 0.0000e+00)
  (P|Q)^-1/2 Time:  CPU 211.26 s  wall 3.79 s

 In RI-MP2 calculation: 
 # of frozen core orbitals: 45

 Components of the RIMP2 correlation energy:
        aaaa    correlation energy =        -0.6704983835 a.u.
        abab    correlation energy =        -3.7556137337 a.u.
        bbbb    correlation energy =        -0.6704983835 a.u.
        non-Brillouin singles      =        -0.0000000000 a.u.
        total same-spin energy     =        -1.3409967670 a.u.
        total opposite-spin energy =        -3.7556137337 a.u.

 Total  RIMP2   correlation energy =        -5.0966105006 a.u.
        RIMP2         total energy =     -2760.4231311972 a.u.

 RI-MP2 Energy Time:  CPU 2937.93 s  wall 49.19 s
 
 --------------------------------------------------------------
 
                    Orbital Energies (a.u.)
 --------------------------------------------------------------
 
 Alpha MOs
 -- Occupied --
-92.0138 -91.9966 -91.9784 -91.9594 -26.3425 -20.6150 -20.5880 -20.5878
-20.5615 -11.4095 -11.3809 -11.3097 -11.3095 -11.3069 -11.3039 -11.2976
-11.2937 -11.2889 -11.2853 -11.2844 -11.2843 -11.2837 -11.2835 -11.2745
-11.2721 -11.2603 -11.2592 -11.2509 -11.2394  -9.0127  -8.9968  -8.9810
 -8.9620  -6.6935  -6.6929  -6.6924  -6.6778  -6.6771  -6.6759  -6.6621
 -6.6612  -6.6599  -6.6432  -6.6423  -6.6413  -1.6596  -1.4674  -1.4112
 -1.4097  -1.3701  -1.2331  -1.2018  -1.1750  -1.1382  -1.1005  -1.0485
 -1.0447  -1.0248  -1.0038  -0.9974  -0.9644  -0.9565  -0.9495  -0.9422
 -0.8944  -0.8698  -0.8633  -0.8163  -0.7920  -0.7900  -0.7841  -0.7694
 -0.7569  -0.7370  -0.7246  -0.7103  -0.6963  -0.6959  -0.6848  -0.6818
 -0.6739  -0.6656  -0.6562  -0.6491  -0.6375  -0.6313  -0.6211  -0.6158
 -0.6111  -0.6001  -0.5938  -0.5770  -0.5708  -0.5661  -0.5599  -0.5560
 -0.5491  -0.5327  -0.5304  -0.5266  -0.5162  -0.5117  -0.5082  -0.5004
 -0.4846  -0.4796  -0.4775  -0.4733  -0.4706  -0.4651  -0.4591  -0.4474
 -0.4321  -0.3982  -0.3811  -0.3722  -0.3508  -0.3016  -0.2858  -0.2169
 -- Virtual --
  0.0290   0.0567   0.1005   0.1333   0.1373   0.1456   0.1510   0.1540
  0.1569   0.1595   0.1664   0.1770   0.1820   0.1837   0.1854   0.1950
  0.1992   0.2034   0.2042   0.2135   0.2150   0.2203   0.2247   0.2275
  0.2282   0.2378   0.2424   0.2502   0.2537   0.2586   0.2621   0.2735
  0.2939   0.3020   0.3176   0.3257   0.3281   0.3354   0.3434   0.3481
  0.3555   0.3580   0.3609   0.3737   0.3760   0.3785   0.3830   0.3848
  0.3895   0.3943   0.4006   0.4047   0.4085   0.4140   0.4157   0.4219
  0.4251   0.4275   0.4343   0.4379   0.4404   0.4439   0.4542   0.4574
  0.4608   0.4611   0.4684   0.4692   0.4716   0.4775   0.4779   0.4830
  0.4906   0.4926   0.4978   0.5030   0.5076   0.5101   0.5145   0.5185
  0.5221   0.5283   0.5290   0.5333   0.5358   0.5418   0.5437   0.5476
  0.5496   0.5516   0.5569   0.5606   0.5682   0.5695   0.5745   0.5838
  0.5869   0.5881   0.5900   0.5990   0.6007   0.6042   0.6113   0.6131
  0.6154   0.6174   0.6197   0.6215   0.6226   0.6254   0.6293   0.6327
  0.6340   0.6389   0.6443   0.6449   0.6481   0.6538   0.6573   0.6624
  0.6678   0.6696   0.6717   0.6781   0.6829   0.6856   0.6895   0.6998
  0.7062   0.7112   0.7121   0.7165   0.7224   0.7246   0.7306   0.7353
  0.7434   0.7507   0.7577   0.7605   0.7692   0.7717   0.7839   0.7872
  0.7952   0.8000   0.8047   0.8134   0.8182   0.8208   0.8243   0.8274
  0.8322   0.8414   0.8463   0.8528   0.8590   0.8674   0.8705   0.8776
  0.8819   0.8864   0.8919   0.8933   0.8975   0.9007   0.9058   0.9120
  0.9212   0.9262   0.9303   0.9402   0.9439   0.9477   0.9510   0.9544
  0.9574   0.9624   0.9719   0.9764   0.9827   0.9847   0.9885   0.9917
  0.9982   1.0012   1.0079   1.0083   1.0166   1.0239   1.0249   1.0321
  1.0371   1.0436   1.0454   1.0490   1.0539   1.0579   1.0663   1.0687
  1.0738   1.0775   1.0827   1.0889   1.0978   1.1008   1.1041   1.1074
  1.1109   1.1149   1.1176   1.1208   1.1323   1.1364   1.1413   1.1514
  1.1569   1.1590   1.1650   1.1668   1.1716   1.1729   1.1801   1.1842
  1.1868   1.1905   1.2006   1.2029   1.2063   1.2124   1.2166   1.2222
  1.2246   1.2328   1.2342   1.2404   1.2440   1.2483   1.2524   1.2561
  1.2601   1.2673   1.2692   1.2765   1.2783   1.2868   1.2888   1.2974
  1.3023   1.3062   1.3131   1.3150   1.3236   1.3303   1.3325   1.3371
  1.3445   1.3612   1.3634   1.3665   1.3803   1.3851   1.3975   1.3992
  1.4021   1.4100   1.4128   1.4204   1.4313   1.4351   1.4412   1.4537
  1.4575   1.4687   1.4714   1.4821   1.4886   1.4951   1.4977   1.5009
  1.5030   1.5098   1.5137   1.5154   1.5219   1.5329   1.5367   1.5404
  1.5429   1.5447   1.5494   1.5587   1.5661   1.5713   1.5749   1.5759
  1.5820   1.5897   1.6014   1.6026   1.6106   1.6300   1.6315   1.6388
  1.6399   1.6470   1.6533   1.6540   1.6663   1.6698   1.6822   1.6850
  1.6938   1.6988   1.7070   1.7133   1.7172   1.7222   1.7313   1.7524
  1.7590   1.7660   1.7698   1.7770   1.7841   1.7939   1.8107   1.8131
  1.8202   1.8271   1.8313   1.8456   1.8532   1.8602   1.8700   1.8734
  1.8842   1.8870   1.8947   1.9159   1.9208   1.9266   1.9315   1.9386
  1.9419   1.9456   1.9470   1.9753   1.9800   1.9847   1.9969   2.0042
  2.0161   2.0180   2.0225   2.0295   2.0325   2.0369   2.0424   2.0543
  2.0636   2.0775   2.0860   2.0878   2.0978   2.1087   2.1244   2.1351
  2.1507   2.1554   2.1628   2.1675   2.1836   2.1868   2.1908   2.1911
  2.2022   2.2115   2.2158   2.2204   2.2230   2.2305   2.2343   2.2389
  2.2483   2.2594   2.2641   2.2689   2.2708   2.2773   2.2904   2.2989
  2.3032   2.3112   2.3287   2.3305   2.3379   2.3517   2.3530   2.3663
  2.3689   2.3792   2.3826   2.3955   2.3983   2.4120   2.4164   2.4213
  2.4258   2.4436   2.4507   2.4545   2.4640   2.4806   2.4885   2.4954
  2.5077   2.5115   2.5208   2.5328   2.5404   2.5451   2.5551   2.5632
  2.5682   2.5846   2.5872   2.5961   2.6008   2.6125   2.6166   2.6242
  2.6284   2.6346   2.6416   2.6442   2.6475   2.6502   2.6684   2.6724
  2.6779   2.6850   2.6899   2.6908   2.7008   2.7041   2.7103   2.7178
  2.7198   2.7286   2.7336   2.7438   2.7524   2.7632   2.7684   2.7711
  2.7803   2.7895   2.7978   2.8036   2.8061   2.8135   2.8215   2.8292
  2.8430   2.8463   2.8506   2.8524   2.8541   2.8644   2.8691   2.8752
  2.8804   2.8860   2.8948   2.9096   2.9112   2.9262   2.9302   2.9391
  2.9531   2.9553   2.9583   2.9612   2.9712   2.9774   2.9825   2.9882
  2.9944   2.9974   3.0145   3.0232   3.0249   3.0342   3.0418   3.0444
  3.0516   3.0612   3.0660   3.0693   3.0870   3.0910   3.0949   3.0999
  3.1067   3.1096   3.1117   3.1259   3.1300   3.1346   3.1386   3.1435
  3.1476   3.1493   3.1555   3.1595   3.1618   3.1683   3.1731   3.1827
  3.1843   3.1877   3.1939   3.2053   3.2146   3.2172   3.2216   3.2266
  3.2306   3.2306   3.2437   3.2497   3.2576   3.2588   3.2630   3.2652
  3.2705   3.2714   3.2758   3.2864   3.2910   3.2925   3.2976   3.3009
  3.3083   3.3116   3.3138   3.3190   3.3274   3.3319   3.3383   3.3429
  3.3475   3.3511   3.3517   3.3566   3.3619   3.3638   3.3694   3.3735
  3.3805   3.3837   3.3888   3.3900   3.3980   3.4004   3.4037   3.4064
  3.4126   3.4178   3.4223   3.4268   3.4309   3.4352   3.4367   3.4467
  3.4508   3.4524   3.4578   3.4655   3.4688   3.4721   3.4741   3.4812
  3.4853   3.4916   3.4983   3.5032   3.5075   3.5135   3.5245   3.5325
  3.5407   3.5418   3.5505   3.5563   3.5603   3.5655   3.5685   3.5734
  3.5862   3.5883   3.5920   3.5943   3.5979   3.6002   3.6086   3.6149
  3.6190   3.6220   3.6277   3.6324   3.6331   3.6369   3.6501   3.6533
  3.6559   3.6635   3.6709   3.6747   3.6808   3.6851   3.6885   3.6994
  3.7033   3.7057   3.7073   3.7133   3.7204   3.7251   3.7283   3.7325
  3.7377   3.7449   3.7501   3.7552   3.7603   3.7656   3.7698   3.7859
  3.7869   3.7885   3.7976   3.8026   3.8051   3.8087   3.8121   3.8151
  3.8189   3.8212   3.8269   3.8390   3.8428   3.8469   3.8522   3.8576
  3.8676   3.8693   3.8760   3.8834   3.8916   3.8959   3.9028   3.9087
  3.9098   3.9177   3.9220   3.9397   3.9419   3.9500   3.9554   3.9577
  3.9646   3.9685   3.9788   3.9868   4.0007   4.0059   4.0095   4.0151
  4.0246   4.0302   4.0412   4.0432   4.0458   4.0626   4.0667   4.0686
  4.0723   4.0741   4.0894   4.0975   4.1087   4.1121   4.1232   4.1288
  4.1394   4.1423   4.1535   4.1569   4.1658   4.1672   4.1687   4.1711
  4.1746   4.1913   4.1930   4.2093   4.2135   4.2191   4.2303   4.2339
  4.2422   4.2499   4.2522   4.2666   4.2826   4.2866   4.2876   4.3012
  4.3102   4.3266   4.3298   4.3397   4.3421   4.3443   4.3550   4.3603
  4.3608   4.3698   4.3832   4.3886   4.3916   4.4053   4.4111   4.4147
  4.4229   4.4253   4.4305   4.4357   4.4408   4.4491   4.4512   4.4583
  4.4645   4.4737   4.4862   4.4952   4.5118   4.5221   4.5253   4.5260
  4.5391   4.5425   4.5490   4.5604   4.5691   4.5707   4.5766   4.5861
  4.5983   4.6036   4.6096   4.6209   4.6243   4.6423   4.6469   4.6523
  4.6617   4.6648   4.6832   4.6897   4.7056   4.7130   4.7289   4.7382
  4.7473   4.7681   4.7745   4.7880   4.7918   4.7947   4.8068   4.8155
  4.8340   4.8366   4.8426   4.8496   4.8606   4.8614   4.8824   4.8871
  4.8921   4.9094   4.9277   4.9441   4.9544   4.9578   4.9669   4.9784
  4.9801   5.0013   5.0088   5.0128   5.0197   5.0358   5.0447   5.0611
  5.0653   5.0680   5.0989   5.1043   5.1269   5.1351   5.1426   5.1644
  5.1742   5.1907   5.1976   5.2086   5.2205   5.2277   5.2448   5.2526
  5.2564   5.2599   5.2737   5.2900   5.2948   5.3066   5.3183   5.3263
  5.3413   5.3521   5.3563   5.3635   5.3837   5.3848   5.4009   5.4039
  5.4052   5.4252   5.4261   5.4414   5.4479   5.4690   5.4849   5.5019
  5.5122   5.5210   5.5233   5.5391   5.5574   5.5681   5.5776   5.5852
  5.6016   5.6048   5.6112   5.6216   5.6427   5.6620   5.6702   5.6896
  5.7024   5.7412   5.7568   5.7643   5.7692   5.8074   5.8170   5.8349
  5.8586   5.8794   5.9015   5.9133   5.9290   5.9310   5.9689   5.9973
  6.0399   6.0434   6.0692   6.1280   6.1504   6.1572   6.1729   6.1776
  6.1805   6.2043   6.2290   6.2494   6.2556   6.2613   6.2703   6.2729
  6.2858   6.3007   6.3514   6.3752   6.4452   6.4500   6.5075   6.5395
  6.5492   6.5713   6.6045   6.6449   6.6619   6.6711   6.7141   6.7471
  6.8083   6.8305   6.8582   6.8596   6.9004   6.9781   7.1317   7.1451
  7.2038   7.2068   7.2218   7.2392   7.3097   7.3272   7.3411   7.3639
  7.3651   7.4061   7.4132   7.4864   7.4873   7.4966   7.5237   7.5514
  7.6186   7.7411   7.7738   7.7897   7.8023   7.9019   7.9263   7.9540
  7.9769   8.1371   8.3133   8.4842   8.9228   9.0257   9.3639   9.4878
  9.6741  10.2297  11.1778  11.4346  11.7521  11.9125  12.1235  12.3677
 12.4232  12.4939  12.9578  12.9622  13.0324  13.2575  13.3886  13.4888
 13.7738  13.8359  13.9080  13.9474  14.0415  14.3104  14.9410  15.2217
 --------------------------------------------------------------
 
          Ground-State Mulliken Net Atomic Charges

     Atom                 Charge (a.u.)
  ----------------------------------------
      1 C                    -0.070614
      2 C                    -0.252309
      3 S                    -0.133495
      4 C                    -0.047466
      5 H                     0.194613
      6 C                    -0.048643
      7 C                     0.218252
      8 C                     0.229516
      9 C                    -0.066885
     10 C                    -0.035517
     11 O                    -0.334404
     12 O                    -0.344173
     13 C                    -0.082756
     14 H                     0.120012
     15 H                     0.092241
     16 H                     0.093122
     17 C                    -0.088535
     18 H                     0.124286
     19 H                     0.093373
     20 H                     0.091173
     21 C                    -0.305674
     22 S                    -0.104064
     23 C                     0.097944
     24 H                     0.199214
     25 C                     0.001919
     26 S                     0.077276
     27 C                    -0.210990
     28 C                    -0.038729
     29 C                    -0.104427
     30 S                     0.003628
     31 C                    -0.162636
     32 C                     0.404791
     33 F                    -0.207487
     34 C                     0.445435
     35 O                    -0.460545
     36 O                    -0.300760
     37 C                    -0.058630
     38 H                     0.121478
     39 H                     0.095183
     40 H                     0.095040
     41 H                     0.217496
     42 H                     0.118450
     43 H                     0.116087
     44 H                     0.208210
  ----------------------------------------
  Sum of atomic charges =     0.000000

 -----------------------------------------------------------------
                    Cartesian Multipole Moments
 -----------------------------------------------------------------
    Charge (ESU x 10^10)
                 0.0000
    Dipole Moment (Debye)
         X       1.8483      Y       1.4761      Z       2.5670
       Tot       3.4906
    Quadrupole Moments (Debye-Ang)
        XX    -197.6774     XY       7.2820     YY    -174.8224
        XZ      -6.6939     YZ      -2.3447     ZZ    -187.8480
    Octopole Moments (Debye-Ang^2)
       XXX    -272.1186    XXY     413.6210    XYY     -82.9667
       YYY     984.0605    XXZ     138.3207    XYZ     -13.1554
       YYZ      76.2588    XZZ     -51.3184    YZZ     398.3107
       ZZZ     504.3848
    Hexadecapole Moments (Debye-Ang^3)
      XXXX   -1165.5729   XXXY    -703.3114   XXYY   -3927.3754
      XYYY    -558.9146   YYYY  -19436.4363   XXXZ     616.0194
      XXYZ     588.5459   XYYZ      14.8351   YYYZ    1991.8500
      XXZZ   -1356.7090   XYZZ      44.5694   YYZZ   -4226.9898
      XZZZ     398.4738   YZZZ    1458.1698   ZZZZ   -7475.6349
 -----------------------------------------------------------------
 Total job time:  351.39s(wall), 10932.58s(cpu) 
 Tue Jan  9 13:12:34 2024

        *************************************************************
        *                                                           *
        *  Thank you very much for using Q-Chem.  Have a nice day.  *
        *                                                           *
        *************************************************************


0 sent ACK to 0 
now end server 0 ... 
cleanup process ... done
remove work dirs ./qchem1519142.0 -- ./qchem1519142.0
rm -rf ./qchem1519142.0
rm -rf ./qchem1519142
