You are running Q-Chem version: 5.4.0

#
# job setting
#
local host:  exp-14-17
current dir: /home/rramji/project-csd799/aromodel/ptb7fout-qchem/hydrogenated-rotation-run
input file:  Dimethoxy_Benzodithiophene_Phi_40_Theta_300_Methylcarbonyl_3_Fluoro_Thienothiophene_Hydrogenated.qcin
output file: 
nprocs     : 1
nthreads   : 64
#
# qchem installation setting
#
QC:          /cm/shared/apps/spack/cpu/opt/spack/linux-centos8-zen2/gcc-10.2.0/qchem-5.4-akfmr7b3t57bfs6qan3padb2wnb2i7cl
QCAUX:       /cm/shared/apps/spack/cpu/opt/spack/linux-centos8-zen2/gcc-10.2.0/qchem-5.4-akfmr7b3t57bfs6qan3padb2wnb2i7cl/qcaux
QCPROG:      /cm/shared/apps/spack/cpu/opt/spack/linux-centos8-zen2/gcc-10.2.0/qchem-5.4-akfmr7b3t57bfs6qan3padb2wnb2i7cl/exe/qcprog.exe
QCPROG_S:    /cm/shared/apps/spack/cpu/opt/spack/linux-centos8-zen2/gcc-10.2.0/qchem-5.4-akfmr7b3t57bfs6qan3padb2wnb2i7cl/exe/qcprog.exe_s
PARALLEL:    -DPARALLEL
QCMPI:       mpich
#
# qchem directory setting
#
qcrun:       qchem1971309
QCSCRATCH:   .
QCLOCALSCR:  
QCTMPDIR:    .
QCFILEPREF:  ./qchem1971309
QCSAVEDIR:   
workdirs:    ./qchem1971309
workdir0:    ./qchem1971309
partmpdirs =  
#
# parallel setting
#
QCRSH:           ssh
QCMPI:           mpich
QCMPIRUN:        /cm/shared/apps/spack/cpu/opt/spack/linux-centos8-zen2/gcc-10.2.0/qchem-5.4-akfmr7b3t57bfs6qan3padb2wnb2i7cl/bin/mpi/mpirun_qchem
QCMACHINEFILE:   ./qchem1971309/hostfile
exp-14-17

#
# env setting
#
exported envs:   QC QCAUX QCSCRATCH QCRUNNAME QCFILEPREF QCPROG QCPROG_S GUIFILE

Running Job 1 of 1 Dimethoxy_Benzodithiophene_Phi_40_Theta_300_Methylcarbonyl_3_Fluoro_Thienothiophene_Hydrogenated.qcin
qchem Dimethoxy_Benzodithiophene_Phi_40_Theta_300_Methylcarbonyl_3_Fluoro_Thienothiophene_Hydrogenated.qcin_1971309.0 ./qchem1971309/ 1
/cm/shared/apps/spack/cpu/opt/spack/linux-centos8-zen2/gcc-10.2.0/qchem-5.4-akfmr7b3t57bfs6qan3padb2wnb2i7cl/bin/mpi/mpirun_qchem -machinefile ./qchem1971309/hostfile -np 1 /cm/shared/apps/spack/cpu/opt/spack/linux-centos8-zen2/gcc-10.2.0/qchem-5.4-akfmr7b3t57bfs6qan3padb2wnb2i7cl/exe/qcprog.exe Dimethoxy_Benzodithiophene_Phi_40_Theta_300_Methylcarbonyl_3_Fluoro_Thienothiophene_Hydrogenated.qcin_1971309.0 ./qchem1971309/

Process 0 of 1 is on exp-14-17 - thread support 0
initial socket setup ...start
initial socket setup ...done 
now start server 0 ... 
                  Welcome to Q-Chem
     A Quantum Leap Into The Future Of Chemistry


 Q-Chem 5.4, Q-Chem, Inc., Pleasanton, CA (2021)

 License issued to: University of California, San Diego (site)

 E. Epifanovsky,  A. T. B. Gilbert,  Xintian Feng,  Joonho Lee,  Yuezhi Mao,  
 N. Mardirossian,  P. Pokhilko,  A. White,  M. Wormit,  M. P. Coons,  
 A. L. Dempwolff,  Zhengting Gan,  D. Hait,  P. R. Horn,  L. D. Jacobson,  
 I. Kaliman,  J. Kussmann,  A. W. Lange,  Ka Un Lao,  D. S. Levine,  Jie Liu,  
 S. C. McKenzie,  A. F. Morrison,  K. Nanda,  F. Plasser,  D. R. Rehn,  
 M. L. Vidal,  Zhi-Qiang You,  Ying Zhu,  B. Alam,  B. Albrecht,  
 A. Aldossary,  E. Alguire,  J. H. Andersen,  D. Barton,  K. Begam,  A. Behn,  
 Y. A. Bernard,  E. J. Berquist,  H. Burton,  A. Carreras,  K. Carter-Fenk,  
 R. Chakraborty,  A. D. Chien,  K. D. Closser,  V. Cofer-Shabica,  
 S. Dasgupta,  Jia Deng,  M. de Wergifosse,  M. Diedenhofen,  Hainam Do,  
 S. Ehlert,  Po-Tung Fang,  S. Fatehi,  Qingguo Feng,  J. Gayvert,  
 Qinghui Ge,  G. Gidofalvi,  M. Goldey,  J. Gomes,  C. Gonzalez-Espinoza,  
 S. Gulania,  A. Gunina,  M. W. D. Hanson-Heine,  P. H. P. Harbach,  
 A. W. Hauser,  M. F. Herbst,  M. Hernandez Vera,  M. Hodecker,  
 Z. C. Holden,  S. Houck,  Xunkun Huang,  Kerwin Hui,  B. C. Huynh,  
 M. Ivanov,  Hyunjun Ji,  Hanjie Jiang,  B. Kaduk,  S. Kaehler,  
 K. Khistyaev,  Jaehoon Kim,  P. Klunzinger,  Z. Koczor-Benda,  
 Joong Hoon Koh,  D. Kosenkov,  L. Koulias,  T. Kowalczyk,  C. M. Krauter,  
 K. Kue,  A. Kunitsa,  T. Kus,  A. Landau,  K. V. Lawler,  D. Lefrancois,  
 S. Lehtola,  Rain Li,  Yi-Pei Li,  Jiashu Liang,  M. Liebenthal,  
 Hung-Hsuan Lin,  You-Sheng Lin,  Fenglai Liu,  Kuan-Yu Liu,  
 M. Loipersberger,  A. Luenser,  A. Manjanath,  P. Manohar,  E. Mansoor,  
 S. F. Manzer,  Shan-Ping Mao,  A. V. Marenich,  T. Markovich,  S. Mason,  
 S. A. Maurer,  P. F. McLaughlin,  M. F. S. J. Menger,  J.-M. Mewes,  
 S. A. Mewes,  P. Morgante,  J. W. Mullinax,  T. S. Nguyen-Beck,  
 K. J. Oosterbaan,  G. Paran,  Alexander C. Paul,  Suranjan K. Paul,  
 F. Pavosevic,  Zheng Pei,  S. Prager,  E. I. Proynov,  E. Ramos,  B. Rana,  
 A. E. Rask,  A. Rettig,  R. M. Richard,  F. Rob,  E. Rossomme,  T. Scheele,  
 M. Scheurer,  M. Schneider,  N. Sergueev,  S. M. Sharada,  W. Skomorowski,  
 D. W. Small,  C. J. Stein,  Yu-Chuan Su,  E. J. Sundstrom,  Zhen Tao,  
 J. Thirman,  T. Tsuchimochi,  N. M. Tubman,  S. P. Veccham,  O. Vydrov,  
 J. Wenzel,  J. Witte,  A. Yamada,  Kun Yao,  S. Yeganeh,  S. R. Yost,  
 A. Zech,  Igor Ying Zhang,  Xing Zhang,  Yu Zhang,  D. Zuev,  
 A. Aspuru-Guzik,  A. T. Bell,  N. A. Besley,  K. B. Bravaya,  B. R. Brooks,  
 D. Casanova,  Jeng-Da Chai,  S. Coriani,  C. J. Cramer,  
 A. E. DePrince, III,  R. A. DiStasio Jr.,  A. Dreuw,  B. D. Dunietz,  
 T. R. Furlani,  W. A. Goddard III,  S. Grimme,  S. Hammes-Schiffer,  
 T. Head-Gordon,  W. J. Hehre,  Chao-Ping Hsu,  T.-C. Jagau,  Yousung Jung,  
 A. Klamt,  Jing Kong,  D. S. Lambrecht,  WanZhen Liang,  N. J. Mayhall,  
 C. W. McCurdy,  J. B. Neaton,  C. Ochsenfeld,  J. A. Parkhill,  R. Peverati,  
 V. A. Rassolov,  Yihan Shao,  L. V. Slipchenko,  T. Stauch,  R. P. Steele,  
 J. E. Subotnik,  A. J. W. Thom,  A. Tkatchenko,  D. G. Truhlar,  
 T. Van Voorhis,  T. A. Wesolowski,  K. B. Whaley,  H. L. Woodcock III,  
 P. M. Zimmerman,  S. Faraji,  P. M. W. Gill,  M. Head-Gordon,  
 J. M. Herbert,  A. I. Krylov

 Contributors to earlier versions of Q-Chem not listed above: 
 R. D. Adamson,  B. Austin,  R. Baer,  J. Baker,  G. J. O. Beran,  
 K. Brandhorst,  S. T. Brown,  E. F. C. Byrd,  A. K. Chakraborty,  
 G. K. L. Chan,  Chun-Min Chang,  Yunqing Chen,  C.-L. Cheng,  
 Siu Hung Chien,  D. M. Chipman,  D. L. Crittenden,  H. Dachsel,  
 R. J. Doerksen,  A. D. Dutoi,  R. G. Edgar,  J. Fosso-Tande,  
 L. Fusti-Molnar,  D. Ghosh,  A. Ghysels,  A. Golubeva-Zadorozhnaya,  
 J. Gonthier,  M. S. Gordon,  S. R. Gwaltney,  G. Hawkins,  J. E. Herr,  
 A. Heyden,  S. Hirata,  E. G. Hohenstein,  G. Kedziora,  F. J. Keil,  
 C. Kelley,  Jihan Kim,  R. A. King,  R. Z. Khaliullin,  P. P. Korambath,  
 W. Kurlancheek,  A. Laurent,  A. M. Lee,  M. S. Lee,  S. V. Levchenko,  
 Ching Yeh Lin,  D. Liotard,  E. Livshits,  R. C. Lochan,  I. Lotan,  
 L. A. Martinez-Martinez,  P. E. Maslen,  N. Nair,  D. P. O'Neill,  
 D. Neuhauser,  E. Neuscamman,  C. M. Oana,  R. Olivares-Amaya,  R. Olson,  
 T. M. Perrine,  B. Peters,  P. A. Pieniazek,  A. Prociuk,  Y. M. Rhee,  
 J. Ritchie,  M. A. Rohrdanz,  E. Rosta,  N. J. Russ,  H. F. Schaefer III,  
 M. W. Schmidt,  N. E. Schultz,  S. Sharma,  N. Shenvi,  C. D. Sherrill,  
 A. C. Simmonett,  A. Sodt,  T. Stein,  D. Stuck,  K. S. Thanthiriwatte,  
 V. Vanovschi,  L. Vogt,  Tao Wang,  A. Warshel,  M. A. Watson,  
 C. F. Williams,  Q. Wu,  X. Xu,  Jun Yang,  W. Zhang,  Yan Zhao

 Please cite Q-Chem as follows:
 Y. Shao et al., Mol. Phys. 113, 184-215 (2015)
 DOI: 10.1080/00268976.2014.952696

 Q-Chem 5.4.0 for Intel X86 EM64T Linux

 Parts of Q-Chem use Armadillo 9.800.1 (Horizon Scraper).
 http://arma.sourceforge.net/

 Q-Chem begins on Tue Jan  9 12:36:50 2024  

 Host: 
0

     Scratch files written to ./qchem1971309//
 May1621 |scratch|qcdevops|jenkins|workspace|build_RNUM    
 Parallel job on  1  processors
 Processing $rem in /cm/shared/apps/spack/cpu/opt/spack/linux-centos8-zen2/gcc-10.2.0/qchem-5.4-akfmr7b3t57bfs6qan3padb2wnb2i7cl/config/preferences:
 Processing $rem in /home/rramji/.qchemrc:
 Symmetry turned off for PCM/SM12/SMD calculation
 Core orbitals will be frozen

 Checking the input file for inconsistencies... 	...done.

 Q-Chem warning in module forms1/BasisType.C, line 2236:

 You are not using the predefined 5D/6D in this basis set.


--------------------------------------------------------------
User input:
--------------------------------------------------------------
$molecule
0 1
C	0.254945	-8.517702	0.194917
C	-0.680596	-7.641575	-0.335839
S	1.603876	-7.638634	0.954772
C	-0.354585	-6.264785	-0.147576
H	-1.591356	-7.966081	-0.854836
C	0.879999	-6.072714	0.567090
C	1.379534	-4.787049	0.826731
C	-1.124384	-5.162801	-0.618405
C	-0.622407	-3.874817	-0.362333
C	0.612067	-3.683952	0.355575
O	-2.281166	-5.499772	-1.253677
O	2.542174	-4.459055	1.463859
C	3.060718	-5.329063	2.462679
H	3.841678	-4.755694	2.997507
H	3.530361	-6.238095	2.027179
H	2.274283	-5.637262	3.185132
C	-2.916545	-4.572261	-2.124902
H	-3.703073	-5.139743	-2.657438
H	-2.204417	-4.153131	-2.867810
H	-3.399269	-3.739531	-1.568770
C	0.936109	-2.306654	0.540061
S	-1.341474	-2.306501	-0.761887
C	-0.000000	-1.435185	-0.000000
H	1.844392	-1.978138	1.060690
C	0.000000	0.000000	0.000000
S	0.581934	0.692785	1.507541
C	1.592155	1.897915	0.718873
C	0.581944	0.692363	-1.067872
C	1.473741	1.758764	-0.686410
S	0.427560	0.503942	-2.805516
C	1.549278	1.849357	-3.054530
C	2.002690	2.393529	-1.862551
F	2.858191	3.420549	-1.819088
C	1.838710	2.191348	-4.456084
O	1.349977	1.596481	-5.406510
O	2.701091	3.230705	-4.569225
C	3.023327	3.606605	-5.916207
H	3.725703	4.454534	-5.833064
H	2.112072	3.910035	-6.470168
H	3.495281	2.762996	-6.459293
H	2.185174	2.606846	1.306486
H	0.700788	-9.143623	-0.587067
H	-0.186556	-9.149441	0.974683
H	0.533530	-1.443175	-0.938979
$end

$rem
JOBTYPE		SP
EXCHANGE	HF
CORRELATION	pRIMP2
BASIS		cc-pvtz
METHOD		rimp2
AUX_BASIS	rimp2-cc-pvtz
SOLVENT_METHOD	PCM
PURECART	11111
SYMMETRY	false
MEM_TOTAL	110000
SCF_CONVERGENCE = 6
THRESH=10
GUI = 2
$end



$solvent
dielectric 4.90
$end
--------------------------------------------------------------
 ----------------------------------------------------------------
             Standard Nuclear Orientation (Angstroms)
    I     Atom           X                Y                Z
 ----------------------------------------------------------------
    1      C       0.2549450000    -8.5177020000     0.1949170000
    2      C      -0.6805960000    -7.6415750000    -0.3358390000
    3      S       1.6038760000    -7.6386340000     0.9547720000
    4      C      -0.3545850000    -6.2647850000    -0.1475760000
    5      H      -1.5913560000    -7.9660810000    -0.8548360000
    6      C       0.8799990000    -6.0727140000     0.5670900000
    7      C       1.3795340000    -4.7870490000     0.8267310000
    8      C      -1.1243840000    -5.1628010000    -0.6184050000
    9      C      -0.6224070000    -3.8748170000    -0.3623330000
   10      C       0.6120670000    -3.6839520000     0.3555750000
   11      O      -2.2811660000    -5.4997720000    -1.2536770000
   12      O       2.5421740000    -4.4590550000     1.4638590000
   13      C       3.0607180000    -5.3290630000     2.4626790000
   14      H       3.8416780000    -4.7556940000     2.9975070000
   15      H       3.5303610000    -6.2380950000     2.0271790000
   16      H       2.2742830000    -5.6372620000     3.1851320000
   17      C      -2.9165450000    -4.5722610000    -2.1249020000
   18      H      -3.7030730000    -5.1397430000    -2.6574380000
   19      H      -2.2044170000    -4.1531310000    -2.8678100000
   20      H      -3.3992690000    -3.7395310000    -1.5687700000
   21      C       0.9361090000    -2.3066540000     0.5400610000
   22      S      -1.3414740000    -2.3065010000    -0.7618870000
   23      C       0.0000000000    -1.4351850000     0.0000000000
   24      H       1.8443920000    -1.9781380000     1.0606900000
   25      C       0.0000000000     0.0000000000     0.0000000000
   26      S       0.5819340000     0.6927850000     1.5075410000
   27      C       1.5921550000     1.8979150000     0.7188730000
   28      C       0.5819440000     0.6923630000    -1.0678720000
   29      C       1.4737410000     1.7587640000    -0.6864100000
   30      S       0.4275600000     0.5039420000    -2.8055160000
   31      C       1.5492780000     1.8493570000    -3.0545300000
   32      C       2.0026900000     2.3935290000    -1.8625510000
   33      F       2.8581910000     3.4205490000    -1.8190880000
   34      C       1.8387100000     2.1913480000    -4.4560840000
   35      O       1.3499770000     1.5964810000    -5.4065100000
   36      O       2.7010910000     3.2307050000    -4.5692250000
   37      C       3.0233270000     3.6066050000    -5.9162070000
   38      H       3.7257030000     4.4545340000    -5.8330640000
   39      H       2.1120720000     3.9100350000    -6.4701680000
   40      H       3.4952810000     2.7629960000    -6.4592930000
   41      H       2.1851740000     2.6068460000     1.3064860000
   42      H       0.7007880000    -9.1436230000    -0.5870670000
   43      H      -0.1865560000    -9.1494410000     0.9746830000
   44      H       0.5335300000    -1.4431750000    -0.9389790000
 ----------------------------------------------------------------
 Nuclear Repulsion Energy =        3365.56595861 hartrees
 There are      120 alpha and      120 beta electrons
 Requested basis set is cc-pVTZ
 There are 388 shells and 1096 basis functions

 Total QAlloc Memory Limit 110000 MB
 Mega-Array Size       188 MB
 MEM_STATIC part       192 MB
 Discretize the solute cavity surface with Lebedev spheres
	Using 110 Lebedev grid points for each H atom
	Using 194 Lebedev grid points for other atoms
	Atomic van der Waals radii will be scaled by 1.20
 Remove points where switching function is < 1.0e-08
 Keep 2906 surface tesserae and discard 4370 interior tesserae
 Molecular Surface Area = 440.665 Angst**2
 Requested basis set is rimp2-cc-pVTZ
 There are 853 shells and 2963 basis functions
 A cutoff of  1.0D-10 yielded  33456 shell pairs
 There are    252004 function pairs (    325844 Cartesian)
 Smallest overlap matrix eigenvalue = 2.17E-05

 Scale SEOQF with 1.000000e-01/1.000000e-02/1.000000e-02

 Standard Electronic Orientation quadrupole field applied
 Nucleus-field energy     =     0.0000000424 hartrees
 Guess from superposition of atomic densities
 Warning:  Energy on first SCF cycle will be non-variational
 SAD guess density has 240.000000 electrons

 -----------------------------------------------------------------------
  General SCF calculation program by
  Eric Jon Sundstrom, Paul Horn, Yuezhi Mao, Dmitri Zuev, Alec White,
  David Stuck, Shaama M.S., Shane Yost, Joonho Lee, David Small,
  Daniel Levine, Susi Lehtola, Hugh Burton, Evgeny Epifanovsky,
  Bang C. Huynh
 -----------------------------------------------------------------------
 Hartree-Fock
 using 64 threads for integral computing
 -------------------------------------------------------
 OpenMP Integral computing Module                
 Release: version 1.0, May 2013, Q-Chem Inc. Pittsburgh 
 -------------------------------------------------------
 A restricted SCF calculation will be
 performed using DIIS
 SCF converges when DIIS error is below 1.0e-06
 ---------------------------------------
  Cycle       Energy         DIIS error
 ---------------------------------------
    1   -2767.0837062924      1.75e-02  
    2   -2754.8641015243      1.53e-03  
    3   -2755.2123472494      8.52e-04  
    4   -2755.2984073567      2.57e-04  
    5   -2755.3120417024      7.32e-05  
    6   -2755.3135709593      2.61e-05  
    7   -2755.3139784936      1.37e-05  
    8   -2755.3141128016      5.76e-06  
    9   -2755.3141442127      2.84e-06  
   10   -2755.3141514303      1.51e-06  
   11   -2755.3141536365      7.29e-07  Convergence criterion met
 ---------------------------------------
 SCF time:   CPU 7469.80s  wall 297.00s 

************** Final PCM Free Energy Summary **************
 G_electrostatic  =      -0.02090574 hartree =     -13.11855204 kcal/mol
 G_cavitation     =       0.00000000 hartree =       0.00000000 kcal/mol
 G_dispersion     =       0.00000000 hartree =       0.00000000 kcal/mol
 G_repulsion      =       0.00000000 hartree =       0.00000000 kcal/mol
 --------------------------------------------------
 Non-electrostatic Free Energy =       0.00000000 hartree =       0.00000000 kcal/mol
 Total                         =      -0.02090574 hartree =     -13.11855204 kcal/mol
 --------------------------------------------------
 SCF Energy (H0 + V/2)                       =   -2755.31415364 
 Solute Internal Energy (H0)                 =   -2755.29324789 
 Total Free Energy (H0 + V/2 + non-elec)     =   -2755.31415364 hartree
                                             = -1728985.72698727 kcal/mol
***********************************************************

 SCF   energy in the final basis set =    -2755.3141536365
 Total energy in the final basis set =    -2755.3141536365


 --------------------------------------------------------------
  Generalized many-body perturbation theory program
  by Joonho Lee, Fazle Rob, Xintian Feng, Evgeny Epifanovsky

 No regularization used 
 (reg. param. = 0.0000e+00)
  (P|Q)^-1/2 Time:  CPU 182.66 s  wall 3.11 s

 In RI-MP2 calculation: 
 # of frozen core orbitals: 45

 Components of the RIMP2 correlation energy:
        aaaa    correlation energy =        -0.6705140375 a.u.
        abab    correlation energy =        -3.7560861857 a.u.
        bbbb    correlation energy =        -0.6705140375 a.u.
        non-Brillouin singles      =        -0.0000000000 a.u.
        total same-spin energy     =        -1.3410280749 a.u.
        total opposite-spin energy =        -3.7560861857 a.u.

 Total  RIMP2   correlation energy =        -5.0971142606 a.u.
        RIMP2         total energy =     -2760.4112678972 a.u.

 RI-MP2 Energy Time:  CPU 2928.48 s  wall 47.87 s
 
 --------------------------------------------------------------
 
                    Orbital Energies (a.u.)
 --------------------------------------------------------------
 
 Alpha MOs
 -- Occupied --
-92.0145 -92.0061 -91.9717 -91.9571 -26.3460 -20.6159 -20.5869 -20.5847
-20.5624 -11.4109 -11.3864 -11.3196 -11.3083 -11.3081 -11.3039 -11.2994
-11.2913 -11.2896 -11.2874 -11.2827 -11.2826 -11.2808 -11.2761 -11.2721
-11.2714 -11.2567 -11.2556 -11.2483 -11.2337  -9.0134  -9.0060  -8.9742
 -8.9597  -6.6941  -6.6934  -6.6930  -6.6869  -6.6862  -6.6851  -6.6554
 -6.6545  -6.6532  -6.6409  -6.6400  -6.6390  -1.6630  -1.4684  -1.4091
 -1.4077  -1.3712  -1.2357  -1.2007  -1.1723  -1.1396  -1.0996  -1.0488
 -1.0441  -1.0260  -1.0015  -0.9955  -0.9651  -0.9571  -0.9482  -0.9418
 -0.8915  -0.8723  -0.8614  -0.8176  -0.7951  -0.7889  -0.7831  -0.7669
 -0.7593  -0.7344  -0.7277  -0.7117  -0.7015  -0.6934  -0.6859  -0.6795
 -0.6750  -0.6668  -0.6544  -0.6476  -0.6353  -0.6297  -0.6187  -0.6148
 -0.6102  -0.6009  -0.5934  -0.5755  -0.5712  -0.5633  -0.5566  -0.5545
 -0.5525  -0.5322  -0.5267  -0.5225  -0.5124  -0.5105  -0.5066  -0.4996
 -0.4854  -0.4832  -0.4759  -0.4745  -0.4715  -0.4664  -0.4578  -0.4444
 -0.4255  -0.3966  -0.3821  -0.3690  -0.3496  -0.3070  -0.2873  -0.2170
 -- Virtual --
  0.0295   0.0530   0.0867   0.1300   0.1441   0.1466   0.1484   0.1547
  0.1564   0.1607   0.1670   0.1777   0.1797   0.1841   0.1892   0.1922
  0.1999   0.2019   0.2060   0.2103   0.2143   0.2216   0.2232   0.2275
  0.2302   0.2304   0.2427   0.2447   0.2482   0.2565   0.2638   0.2658
  0.2752   0.2907   0.2995   0.3146   0.3215   0.3336   0.3345   0.3449
  0.3470   0.3552   0.3596   0.3643   0.3670   0.3757   0.3810   0.3839
  0.3884   0.3925   0.3929   0.4009   0.4069   0.4112   0.4142   0.4204
  0.4252   0.4282   0.4296   0.4328   0.4436   0.4448   0.4464   0.4520
  0.4557   0.4561   0.4640   0.4723   0.4760   0.4778   0.4788   0.4835
  0.4871   0.4946   0.4962   0.5005   0.5055   0.5081   0.5091   0.5135
  0.5197   0.5280   0.5310   0.5325   0.5352   0.5405   0.5422   0.5441
  0.5499   0.5552   0.5584   0.5619   0.5680   0.5721   0.5769   0.5802
  0.5805   0.5874   0.5905   0.5959   0.6024   0.6034   0.6049   0.6110
  0.6127   0.6150   0.6192   0.6206   0.6213   0.6260   0.6276   0.6371
  0.6380   0.6391   0.6422   0.6467   0.6493   0.6522   0.6573   0.6595
  0.6639   0.6662   0.6728   0.6784   0.6805   0.6893   0.6952   0.6968
  0.7033   0.7103   0.7125   0.7155   0.7177   0.7202   0.7245   0.7313
  0.7389   0.7456   0.7523   0.7589   0.7629   0.7704   0.7753   0.7870
  0.7913   0.7960   0.7995   0.8031   0.8139   0.8156   0.8229   0.8274
  0.8289   0.8349   0.8404   0.8495   0.8518   0.8616   0.8693   0.8707
  0.8788   0.8799   0.8929   0.8947   0.8980   0.9001   0.9035   0.9091
  0.9168   0.9230   0.9315   0.9349   0.9412   0.9425   0.9491   0.9521
  0.9593   0.9664   0.9716   0.9734   0.9754   0.9816   0.9864   0.9888
  0.9943   0.9983   1.0008   1.0053   1.0135   1.0187   1.0250   1.0293
  1.0310   1.0380   1.0443   1.0511   1.0533   1.0575   1.0628   1.0656
  1.0756   1.0801   1.0841   1.0852   1.0901   1.0972   1.1043   1.1062
  1.1108   1.1130   1.1154   1.1261   1.1276   1.1294   1.1346   1.1484
  1.1543   1.1629   1.1652   1.1670   1.1690   1.1728   1.1790   1.1825
  1.1872   1.1905   1.1962   1.2015   1.2044   1.2069   1.2106   1.2174
  1.2219   1.2257   1.2347   1.2411   1.2432   1.2474   1.2487   1.2568
  1.2572   1.2646   1.2675   1.2739   1.2778   1.2836   1.2869   1.2901
  1.2968   1.3052   1.3070   1.3217   1.3272   1.3285   1.3311   1.3431
  1.3507   1.3542   1.3670   1.3737   1.3803   1.3931   1.4006   1.4017
  1.4073   1.4114   1.4157   1.4196   1.4299   1.4358   1.4448   1.4525
  1.4601   1.4662   1.4712   1.4782   1.4853   1.4912   1.5014   1.5033
  1.5048   1.5071   1.5100   1.5139   1.5220   1.5300   1.5358   1.5379
  1.5394   1.5431   1.5482   1.5514   1.5563   1.5590   1.5728   1.5785
  1.5814   1.5908   1.6004   1.6055   1.6162   1.6236   1.6270   1.6381
  1.6437   1.6450   1.6557   1.6589   1.6678   1.6757   1.6796   1.6874
  1.6953   1.6984   1.7016   1.7125   1.7195   1.7244   1.7280   1.7499
  1.7549   1.7609   1.7705   1.7834   1.7909   1.7992   1.8013   1.8140
  1.8207   1.8246   1.8294   1.8453   1.8550   1.8576   1.8715   1.8797
  1.8813   1.8887   1.8976   1.9171   1.9204   1.9262   1.9301   1.9412
  1.9478   1.9519   1.9595   1.9649   1.9777   1.9810   1.9884   1.9966
  2.0029   2.0074   2.0136   2.0203   2.0311   2.0433   2.0500   2.0535
  2.0617   2.0721   2.0737   2.0876   2.0896   2.1060   2.1111   2.1219
  2.1405   2.1486   2.1589   2.1722   2.1766   2.1804   2.1848   2.1890
  2.1933   2.1988   2.2027   2.2148   2.2252   2.2278   2.2340   2.2416
  2.2469   2.2494   2.2568   2.2659   2.2757   2.2792   2.2863   2.2995
  2.3065   2.3156   2.3274   2.3323   2.3390   2.3480   2.3552   2.3583
  2.3655   2.3721   2.3920   2.3941   2.4043   2.4131   2.4190   2.4270
  2.4337   2.4386   2.4525   2.4578   2.4691   2.4820   2.4827   2.4909
  2.5005   2.5123   2.5162   2.5263   2.5380   2.5474   2.5496   2.5552
  2.5650   2.5776   2.5854   2.6019   2.6109   2.6240   2.6250   2.6299
  2.6324   2.6345   2.6396   2.6449   2.6506   2.6567   2.6699   2.6719
  2.6799   2.6833   2.6861   2.6976   2.7001   2.7035   2.7106   2.7165
  2.7209   2.7278   2.7307   2.7439   2.7490   2.7567   2.7702   2.7730
  2.7782   2.7846   2.7882   2.8021   2.8080   2.8100   2.8203   2.8336
  2.8367   2.8411   2.8453   2.8529   2.8585   2.8714   2.8723   2.8792
  2.8811   2.8857   2.9009   2.9070   2.9120   2.9197   2.9386   2.9464
  2.9505   2.9553   2.9571   2.9615   2.9660   2.9767   2.9794   2.9852
  2.9883   2.9970   3.0184   3.0202   3.0228   3.0357   3.0428   3.0463
  3.0531   3.0609   3.0730   3.0741   3.0843   3.0914   3.0940   3.1000
  3.1032   3.1051   3.1104   3.1154   3.1239   3.1305   3.1340   3.1423
  3.1468   3.1514   3.1551   3.1597   3.1620   3.1661   3.1739   3.1836
  3.1890   3.1994   3.2047   3.2108   3.2142   3.2157   3.2188   3.2230
  3.2257   3.2355   3.2414   3.2456   3.2513   3.2602   3.2616   3.2672
  3.2690   3.2749   3.2811   3.2876   3.2883   3.2934   3.3029   3.3066
  3.3074   3.3098   3.3167   3.3215   3.3289   3.3357   3.3424   3.3461
  3.3479   3.3525   3.3555   3.3591   3.3614   3.3662   3.3664   3.3689
  3.3735   3.3820   3.3888   3.3931   3.3962   3.3992   3.4052   3.4069
  3.4120   3.4169   3.4236   3.4267   3.4331   3.4339   3.4413   3.4483
  3.4508   3.4567   3.4598   3.4618   3.4684   3.4724   3.4742   3.4773
  3.4854   3.4873   3.4964   3.4982   3.5077   3.5230   3.5258   3.5301
  3.5371   3.5411   3.5462   3.5542   3.5571   3.5597   3.5668   3.5763
  3.5812   3.5850   3.5895   3.5982   3.5984   3.6049   3.6089   3.6125
  3.6171   3.6300   3.6348   3.6375   3.6400   3.6415   3.6481   3.6580
  3.6645   3.6693   3.6752   3.6797   3.6814   3.6844   3.6885   3.6974
  3.7051   3.7062   3.7114   3.7149   3.7200   3.7259   3.7297   3.7320
  3.7402   3.7498   3.7508   3.7600   3.7650   3.7716   3.7727   3.7794
  3.7845   3.7882   3.7979   3.8015   3.8038   3.8078   3.8090   3.8158
  3.8239   3.8296   3.8334   3.8347   3.8452   3.8505   3.8507   3.8639
  3.8658   3.8719   3.8798   3.8823   3.8858   3.8900   3.8998   3.9037
  3.9073   3.9115   3.9224   3.9371   3.9415   3.9472   3.9520   3.9620
  3.9656   3.9667   3.9810   3.9876   3.9951   4.0010   4.0061   4.0158
  4.0195   4.0230   4.0426   4.0430   4.0533   4.0632   4.0668   4.0684
  4.0717   4.0812   4.0920   4.1016   4.1052   4.1157   4.1230   4.1270
  4.1387   4.1404   4.1492   4.1617   4.1639   4.1653   4.1718   4.1730
  4.1768   4.1877   4.1897   4.2028   4.2144   4.2184   4.2333   4.2391
  4.2457   4.2508   4.2648   4.2658   4.2761   4.2794   4.2882   4.3079
  4.3261   4.3293   4.3349   4.3411   4.3478   4.3503   4.3522   4.3583
  4.3672   4.3684   4.3832   4.3875   4.4042   4.4069   4.4143   4.4201
  4.4242   4.4262   4.4276   4.4311   4.4332   4.4444   4.4483   4.4559
  4.4651   4.4748   4.4852   4.4979   4.5126   4.5190   4.5226   4.5285
  4.5395   4.5503   4.5572   4.5630   4.5696   4.5739   4.5818   4.5917
  4.5944   4.5983   4.6194   4.6319   4.6380   4.6401   4.6481   4.6533
  4.6650   4.6706   4.6742   4.6833   4.7075   4.7196   4.7289   4.7325
  4.7422   4.7566   4.7702   4.7777   4.7813   4.7938   4.8084   4.8211
  4.8275   4.8329   4.8465   4.8550   4.8618   4.8769   4.8867   4.8903
  4.9007   4.9240   4.9389   4.9433   4.9495   4.9641   4.9681   4.9773
  4.9795   4.9955   5.0081   5.0088   5.0155   5.0251   5.0415   5.0485
  5.0628   5.0826   5.0937   5.1025   5.1075   5.1175   5.1362   5.1632
  5.1757   5.1957   5.1996   5.2083   5.2151   5.2281   5.2341   5.2466
  5.2515   5.2567   5.2749   5.2786   5.2964   5.2975   5.3198   5.3281
  5.3403   5.3489   5.3562   5.3641   5.3808   5.3900   5.3970   5.4051
  5.4069   5.4157   5.4254   5.4425   5.4481   5.4749   5.4843   5.5025
  5.5110   5.5130   5.5212   5.5331   5.5616   5.5711   5.5797   5.5853
  5.5962   5.6090   5.6123   5.6206   5.6438   5.6550   5.6872   5.6931
  5.7231   5.7313   5.7497   5.7669   5.7723   5.8065   5.8224   5.8454
  5.8609   5.8810   5.9002   5.9101   5.9281   5.9527   5.9823   6.0049
  6.0334   6.0411   6.0595   6.1238   6.1496   6.1521   6.1680   6.1757
  6.1824   6.1867   6.2308   6.2483   6.2506   6.2605   6.2644   6.2746
  6.2884   6.2912   6.3379   6.3690   6.4360   6.4490   6.4781   6.5381
  6.5468   6.5665   6.6007   6.6470   6.6602   6.6701   6.7144   6.7440
  6.8081   6.8285   6.8563   6.8584   6.9006   6.9769   7.1330   7.1474
  7.2029   7.2048   7.2241   7.2400   7.3088   7.3276   7.3425   7.3608
  7.3616   7.4041   7.4122   7.4831   7.4885   7.4972   7.5195   7.5494
  7.6143   7.7397   7.7704   7.7884   7.8038   7.8967   7.9274   7.9549
  7.9661   8.1315   8.2532   8.4451   8.9195   9.0224   9.3607   9.4807
  9.6671  10.2313  11.1929  11.4043  11.7530  11.9623  12.1238  12.3370
 12.4235  12.4769  12.9324  12.9808  13.0292  13.3379  13.3868  13.4810
 13.7148  13.7839  13.8787  13.9369  14.0378  14.3108  14.8753  15.2126
 --------------------------------------------------------------
 
          Ground-State Mulliken Net Atomic Charges

     Atom                 Charge (a.u.)
  ----------------------------------------
      1 C                    -0.069657
      2 C                    -0.268851
      3 S                    -0.138116
      4 C                    -0.041610
      5 H                     0.192394
      6 C                    -0.053028
      7 C                     0.223790
      8 C                     0.221079
      9 C                    -0.069748
     10 C                    -0.051769
     11 O                    -0.336034
     12 O                    -0.344119
     13 C                    -0.082509
     14 H                     0.119371
     15 H                     0.092169
     16 H                     0.092724
     17 C                    -0.086715
     18 H                     0.122281
     19 H                     0.092232
     20 H                     0.089985
     21 C                    -0.267866
     22 S                    -0.086673
     23 C                     0.043664
     24 H                     0.208001
     25 C                    -0.086267
     26 S                     0.092218
     27 C                    -0.163741
     28 C                     0.009550
     29 C                    -0.092378
     30 S                     0.025218
     31 C                    -0.151678
     32 C                     0.391804
     33 F                    -0.204237
     34 C                     0.446853
     35 O                    -0.461091
     36 O                    -0.301175
     37 C                    -0.058272
     38 H                     0.121606
     39 H                     0.095367
     40 H                     0.095334
     41 H                     0.218403
     42 H                     0.116308
     43 H                     0.113713
     44 H                     0.191472
  ----------------------------------------
  Sum of atomic charges =     0.000000

 -----------------------------------------------------------------
                    Cartesian Multipole Moments
 -----------------------------------------------------------------
    Charge (ESU x 10^10)
                 0.0000
    Dipole Moment (Debye)
         X       2.4683      Y       3.4013      Z       2.2810
       Tot       4.7817
    Quadrupole Moments (Debye-Ang)
        XX    -187.3183     XY      11.1706     YY    -185.8019
        XZ       4.1228     YZ      -4.4271     ZZ    -194.7658
    Octopole Moments (Debye-Ang^2)
       XXX    -386.7425    XXY     410.3088    XYY    -136.7711
       YYY    1106.7385    XXZ     136.9049    XYZ     -74.1126
       YYZ     114.8429    XZZ     -69.0659    YZZ     447.5018
       ZZZ     520.2116
    Hexadecapole Moments (Debye-Ang^3)
      XXXX   -3279.7641   XXXY    -334.5057   XXYY   -4068.7269
      XYYY     -94.0424   YYYY  -19491.7073   XXXZ     493.7990
      XXYZ     402.8349   XYYZ     212.4596   YYYZ    1509.8673
      XXZZ   -1226.8683   XYZZ     154.1862   YYZZ   -4114.6764
      XZZZ     172.5967   YZZZ    1125.6866   ZZZZ   -6139.1315
 -----------------------------------------------------------------
 Total job time:  349.70s(wall), 10549.46s(cpu) 
 Tue Jan  9 12:42:40 2024

        *************************************************************
        *                                                           *
        *  Thank you very much for using Q-Chem.  Have a nice day.  *
        *                                                           *
        *************************************************************


0 sent ACK to 0 
now end server 0 ... 
cleanup process ... done
remove work dirs ./qchem1971309.0 -- ./qchem1971309.0
rm -rf ./qchem1971309.0
rm -rf ./qchem1971309
