You are running Q-Chem version: 5.4.0

#
# job setting
#
local host:  exp-4-18
current dir: /home/rramji/project-csd799/aromodel/ptb7fout-qchem/hydrogenated-rotation-run
input file:  Dimethoxy_Benzodithiophene_Phi_20_Theta_300_Methylcarbonyl_3_Fluoro_Thienothiophene_Hydrogenated.qcin
output file: 
nprocs     : 1
nthreads   : 64
#
# qchem installation setting
#
QC:          /cm/shared/apps/spack/cpu/opt/spack/linux-centos8-zen2/gcc-10.2.0/qchem-5.4-akfmr7b3t57bfs6qan3padb2wnb2i7cl
QCAUX:       /cm/shared/apps/spack/cpu/opt/spack/linux-centos8-zen2/gcc-10.2.0/qchem-5.4-akfmr7b3t57bfs6qan3padb2wnb2i7cl/qcaux
QCPROG:      /cm/shared/apps/spack/cpu/opt/spack/linux-centos8-zen2/gcc-10.2.0/qchem-5.4-akfmr7b3t57bfs6qan3padb2wnb2i7cl/exe/qcprog.exe
QCPROG_S:    /cm/shared/apps/spack/cpu/opt/spack/linux-centos8-zen2/gcc-10.2.0/qchem-5.4-akfmr7b3t57bfs6qan3padb2wnb2i7cl/exe/qcprog.exe_s
PARALLEL:    -DPARALLEL
QCMPI:       mpich
#
# qchem directory setting
#
qcrun:       qchem1317831
QCSCRATCH:   .
QCLOCALSCR:  
QCTMPDIR:    .
QCFILEPREF:  ./qchem1317831
QCSAVEDIR:   
workdirs:    ./qchem1317831
workdir0:    ./qchem1317831
partmpdirs =  
#
# parallel setting
#
QCRSH:           ssh
QCMPI:           mpich
QCMPIRUN:        /cm/shared/apps/spack/cpu/opt/spack/linux-centos8-zen2/gcc-10.2.0/qchem-5.4-akfmr7b3t57bfs6qan3padb2wnb2i7cl/bin/mpi/mpirun_qchem
QCMACHINEFILE:   ./qchem1317831/hostfile
exp-4-18

#
# env setting
#
exported envs:   QC QCAUX QCSCRATCH QCRUNNAME QCFILEPREF QCPROG QCPROG_S GUIFILE

Running Job 1 of 1 Dimethoxy_Benzodithiophene_Phi_20_Theta_300_Methylcarbonyl_3_Fluoro_Thienothiophene_Hydrogenated.qcin
qchem Dimethoxy_Benzodithiophene_Phi_20_Theta_300_Methylcarbonyl_3_Fluoro_Thienothiophene_Hydrogenated.qcin_1317831.0 ./qchem1317831/ 1
/cm/shared/apps/spack/cpu/opt/spack/linux-centos8-zen2/gcc-10.2.0/qchem-5.4-akfmr7b3t57bfs6qan3padb2wnb2i7cl/bin/mpi/mpirun_qchem -machinefile ./qchem1317831/hostfile -np 1 /cm/shared/apps/spack/cpu/opt/spack/linux-centos8-zen2/gcc-10.2.0/qchem-5.4-akfmr7b3t57bfs6qan3padb2wnb2i7cl/exe/qcprog.exe Dimethoxy_Benzodithiophene_Phi_20_Theta_300_Methylcarbonyl_3_Fluoro_Thienothiophene_Hydrogenated.qcin_1317831.0 ./qchem1317831/

Process 0 of 1 is on exp-4-18 - thread support 0
initial socket setup ...start
initial socket setup ...done 
now start server 0 ... 
                  Welcome to Q-Chem
     A Quantum Leap Into The Future Of Chemistry


 Q-Chem 5.4, Q-Chem, Inc., Pleasanton, CA (2021)

 License issued to: University of California, San Diego (site)

 E. Epifanovsky,  A. T. B. Gilbert,  Xintian Feng,  Joonho Lee,  Yuezhi Mao,  
 N. Mardirossian,  P. Pokhilko,  A. White,  M. Wormit,  M. P. Coons,  
 A. L. Dempwolff,  Zhengting Gan,  D. Hait,  P. R. Horn,  L. D. Jacobson,  
 I. Kaliman,  J. Kussmann,  A. W. Lange,  Ka Un Lao,  D. S. Levine,  Jie Liu,  
 S. C. McKenzie,  A. F. Morrison,  K. Nanda,  F. Plasser,  D. R. Rehn,  
 M. L. Vidal,  Zhi-Qiang You,  Ying Zhu,  B. Alam,  B. Albrecht,  
 A. Aldossary,  E. Alguire,  J. H. Andersen,  D. Barton,  K. Begam,  A. Behn,  
 Y. A. Bernard,  E. J. Berquist,  H. Burton,  A. Carreras,  K. Carter-Fenk,  
 R. Chakraborty,  A. D. Chien,  K. D. Closser,  V. Cofer-Shabica,  
 S. Dasgupta,  Jia Deng,  M. de Wergifosse,  M. Diedenhofen,  Hainam Do,  
 S. Ehlert,  Po-Tung Fang,  S. Fatehi,  Qingguo Feng,  J. Gayvert,  
 Qinghui Ge,  G. Gidofalvi,  M. Goldey,  J. Gomes,  C. Gonzalez-Espinoza,  
 S. Gulania,  A. Gunina,  M. W. D. Hanson-Heine,  P. H. P. Harbach,  
 A. W. Hauser,  M. F. Herbst,  M. Hernandez Vera,  M. Hodecker,  
 Z. C. Holden,  S. Houck,  Xunkun Huang,  Kerwin Hui,  B. C. Huynh,  
 M. Ivanov,  Hyunjun Ji,  Hanjie Jiang,  B. Kaduk,  S. Kaehler,  
 K. Khistyaev,  Jaehoon Kim,  P. Klunzinger,  Z. Koczor-Benda,  
 Joong Hoon Koh,  D. Kosenkov,  L. Koulias,  T. Kowalczyk,  C. M. Krauter,  
 K. Kue,  A. Kunitsa,  T. Kus,  A. Landau,  K. V. Lawler,  D. Lefrancois,  
 S. Lehtola,  Rain Li,  Yi-Pei Li,  Jiashu Liang,  M. Liebenthal,  
 Hung-Hsuan Lin,  You-Sheng Lin,  Fenglai Liu,  Kuan-Yu Liu,  
 M. Loipersberger,  A. Luenser,  A. Manjanath,  P. Manohar,  E. Mansoor,  
 S. F. Manzer,  Shan-Ping Mao,  A. V. Marenich,  T. Markovich,  S. Mason,  
 S. A. Maurer,  P. F. McLaughlin,  M. F. S. J. Menger,  J.-M. Mewes,  
 S. A. Mewes,  P. Morgante,  J. W. Mullinax,  T. S. Nguyen-Beck,  
 K. J. Oosterbaan,  G. Paran,  Alexander C. Paul,  Suranjan K. Paul,  
 F. Pavosevic,  Zheng Pei,  S. Prager,  E. I. Proynov,  E. Ramos,  B. Rana,  
 A. E. Rask,  A. Rettig,  R. M. Richard,  F. Rob,  E. Rossomme,  T. Scheele,  
 M. Scheurer,  M. Schneider,  N. Sergueev,  S. M. Sharada,  W. Skomorowski,  
 D. W. Small,  C. J. Stein,  Yu-Chuan Su,  E. J. Sundstrom,  Zhen Tao,  
 J. Thirman,  T. Tsuchimochi,  N. M. Tubman,  S. P. Veccham,  O. Vydrov,  
 J. Wenzel,  J. Witte,  A. Yamada,  Kun Yao,  S. Yeganeh,  S. R. Yost,  
 A. Zech,  Igor Ying Zhang,  Xing Zhang,  Yu Zhang,  D. Zuev,  
 A. Aspuru-Guzik,  A. T. Bell,  N. A. Besley,  K. B. Bravaya,  B. R. Brooks,  
 D. Casanova,  Jeng-Da Chai,  S. Coriani,  C. J. Cramer,  
 A. E. DePrince, III,  R. A. DiStasio Jr.,  A. Dreuw,  B. D. Dunietz,  
 T. R. Furlani,  W. A. Goddard III,  S. Grimme,  S. Hammes-Schiffer,  
 T. Head-Gordon,  W. J. Hehre,  Chao-Ping Hsu,  T.-C. Jagau,  Yousung Jung,  
 A. Klamt,  Jing Kong,  D. S. Lambrecht,  WanZhen Liang,  N. J. Mayhall,  
 C. W. McCurdy,  J. B. Neaton,  C. Ochsenfeld,  J. A. Parkhill,  R. Peverati,  
 V. A. Rassolov,  Yihan Shao,  L. V. Slipchenko,  T. Stauch,  R. P. Steele,  
 J. E. Subotnik,  A. J. W. Thom,  A. Tkatchenko,  D. G. Truhlar,  
 T. Van Voorhis,  T. A. Wesolowski,  K. B. Whaley,  H. L. Woodcock III,  
 P. M. Zimmerman,  S. Faraji,  P. M. W. Gill,  M. Head-Gordon,  
 J. M. Herbert,  A. I. Krylov

 Contributors to earlier versions of Q-Chem not listed above: 
 R. D. Adamson,  B. Austin,  R. Baer,  J. Baker,  G. J. O. Beran,  
 K. Brandhorst,  S. T. Brown,  E. F. C. Byrd,  A. K. Chakraborty,  
 G. K. L. Chan,  Chun-Min Chang,  Yunqing Chen,  C.-L. Cheng,  
 Siu Hung Chien,  D. M. Chipman,  D. L. Crittenden,  H. Dachsel,  
 R. J. Doerksen,  A. D. Dutoi,  R. G. Edgar,  J. Fosso-Tande,  
 L. Fusti-Molnar,  D. Ghosh,  A. Ghysels,  A. Golubeva-Zadorozhnaya,  
 J. Gonthier,  M. S. Gordon,  S. R. Gwaltney,  G. Hawkins,  J. E. Herr,  
 A. Heyden,  S. Hirata,  E. G. Hohenstein,  G. Kedziora,  F. J. Keil,  
 C. Kelley,  Jihan Kim,  R. A. King,  R. Z. Khaliullin,  P. P. Korambath,  
 W. Kurlancheek,  A. Laurent,  A. M. Lee,  M. S. Lee,  S. V. Levchenko,  
 Ching Yeh Lin,  D. Liotard,  E. Livshits,  R. C. Lochan,  I. Lotan,  
 L. A. Martinez-Martinez,  P. E. Maslen,  N. Nair,  D. P. O'Neill,  
 D. Neuhauser,  E. Neuscamman,  C. M. Oana,  R. Olivares-Amaya,  R. Olson,  
 T. M. Perrine,  B. Peters,  P. A. Pieniazek,  A. Prociuk,  Y. M. Rhee,  
 J. Ritchie,  M. A. Rohrdanz,  E. Rosta,  N. J. Russ,  H. F. Schaefer III,  
 M. W. Schmidt,  N. E. Schultz,  S. Sharma,  N. Shenvi,  C. D. Sherrill,  
 A. C. Simmonett,  A. Sodt,  T. Stein,  D. Stuck,  K. S. Thanthiriwatte,  
 V. Vanovschi,  L. Vogt,  Tao Wang,  A. Warshel,  M. A. Watson,  
 C. F. Williams,  Q. Wu,  X. Xu,  Jun Yang,  W. Zhang,  Yan Zhao

 Please cite Q-Chem as follows:
 Y. Shao et al., Mol. Phys. 113, 184-215 (2015)
 DOI: 10.1080/00268976.2014.952696

 Q-Chem 5.4.0 for Intel X86 EM64T Linux

 Parts of Q-Chem use Armadillo 9.800.1 (Horizon Scraper).
 http://arma.sourceforge.net/

 Q-Chem begins on Tue Jan  9 12:44:15 2024  

 Host: 
0

     Scratch files written to ./qchem1317831//
 May1621 |scratch|qcdevops|jenkins|workspace|build_RNUM    
 Parallel job on  1  processors
 Processing $rem in /cm/shared/apps/spack/cpu/opt/spack/linux-centos8-zen2/gcc-10.2.0/qchem-5.4-akfmr7b3t57bfs6qan3padb2wnb2i7cl/config/preferences:
 Processing $rem in /home/rramji/.qchemrc:
 Symmetry turned off for PCM/SM12/SMD calculation
 Core orbitals will be frozen

 Checking the input file for inconsistencies... 	...done.

 Q-Chem warning in module forms1/BasisType.C, line 2236:

 You are not using the predefined 5D/6D in this basis set.


--------------------------------------------------------------
User input:
--------------------------------------------------------------
$molecule
0 1
C	0.254945	-8.517702	0.194917
C	-0.680596	-7.641575	-0.335839
S	1.603876	-7.638634	0.954772
C	-0.354585	-6.264785	-0.147576
H	-1.591356	-7.966081	-0.854836
C	0.879999	-6.072714	0.567090
C	1.379534	-4.787049	0.826731
C	-1.124384	-5.162801	-0.618405
C	-0.622407	-3.874817	-0.362333
C	0.612067	-3.683952	0.355575
O	-2.281166	-5.499772	-1.253677
O	2.542174	-4.459055	1.463859
C	3.060718	-5.329063	2.462679
H	3.841678	-4.755694	2.997507
H	3.530361	-6.238095	2.027179
H	2.274283	-5.637262	3.185132
C	-2.916545	-4.572261	-2.124902
H	-3.703073	-5.139743	-2.657438
H	-2.204417	-4.153131	-2.867810
H	-3.399269	-3.739531	-1.568770
C	0.936109	-2.306654	0.540061
S	-1.341474	-2.306501	-0.761887
C	-0.000000	-1.435185	-0.000000
H	1.844392	-1.978138	1.060690
C	0.000000	0.000000	0.000000
S	0.309893	0.850039	1.507541
C	0.847011	2.328006	0.718873
C	0.310046	0.849645	-1.067872
C	0.783331	2.156746	-0.686410
S	0.229416	0.619785	-2.805516
C	0.823328	2.267711	-3.054530
C	1.063278	2.934142	-1.862551
F	1.515925	4.191824	-1.819088
C	0.978337	2.688069	-4.456084
O	0.722535	1.961921	-5.406510
O	1.433229	3.959697	-4.569225
C	1.607467	4.423139	-5.916207
H	1.977475	5.460158	-5.833064
H	0.647388	4.396602	-6.470168
H	2.339490	3.791823	-6.459293
H	1.161798	3.197007	1.306486
H	0.700788	-9.143623	-0.587067
H	-0.186556	-9.149441	0.974683
H	0.533530	-1.443175	-0.938979
$end

$rem
JOBTYPE		SP
EXCHANGE	HF
CORRELATION	pRIMP2
BASIS		cc-pvtz
METHOD		rimp2
AUX_BASIS	rimp2-cc-pvtz
SOLVENT_METHOD	PCM
PURECART	11111
SYMMETRY	false
MEM_TOTAL	110000
SCF_CONVERGENCE = 6
THRESH=10
GUI = 2
$end



$solvent
dielectric 4.90
$end
--------------------------------------------------------------
 ----------------------------------------------------------------
             Standard Nuclear Orientation (Angstroms)
    I     Atom           X                Y                Z
 ----------------------------------------------------------------
    1      C       0.2549450000    -8.5177020000     0.1949170000
    2      C      -0.6805960000    -7.6415750000    -0.3358390000
    3      S       1.6038760000    -7.6386340000     0.9547720000
    4      C      -0.3545850000    -6.2647850000    -0.1475760000
    5      H      -1.5913560000    -7.9660810000    -0.8548360000
    6      C       0.8799990000    -6.0727140000     0.5670900000
    7      C       1.3795340000    -4.7870490000     0.8267310000
    8      C      -1.1243840000    -5.1628010000    -0.6184050000
    9      C      -0.6224070000    -3.8748170000    -0.3623330000
   10      C       0.6120670000    -3.6839520000     0.3555750000
   11      O      -2.2811660000    -5.4997720000    -1.2536770000
   12      O       2.5421740000    -4.4590550000     1.4638590000
   13      C       3.0607180000    -5.3290630000     2.4626790000
   14      H       3.8416780000    -4.7556940000     2.9975070000
   15      H       3.5303610000    -6.2380950000     2.0271790000
   16      H       2.2742830000    -5.6372620000     3.1851320000
   17      C      -2.9165450000    -4.5722610000    -2.1249020000
   18      H      -3.7030730000    -5.1397430000    -2.6574380000
   19      H      -2.2044170000    -4.1531310000    -2.8678100000
   20      H      -3.3992690000    -3.7395310000    -1.5687700000
   21      C       0.9361090000    -2.3066540000     0.5400610000
   22      S      -1.3414740000    -2.3065010000    -0.7618870000
   23      C       0.0000000000    -1.4351850000     0.0000000000
   24      H       1.8443920000    -1.9781380000     1.0606900000
   25      C       0.0000000000     0.0000000000     0.0000000000
   26      S       0.3098930000     0.8500390000     1.5075410000
   27      C       0.8470110000     2.3280060000     0.7188730000
   28      C       0.3100460000     0.8496450000    -1.0678720000
   29      C       0.7833310000     2.1567460000    -0.6864100000
   30      S       0.2294160000     0.6197850000    -2.8055160000
   31      C       0.8233280000     2.2677110000    -3.0545300000
   32      C       1.0632780000     2.9341420000    -1.8625510000
   33      F       1.5159250000     4.1918240000    -1.8190880000
   34      C       0.9783370000     2.6880690000    -4.4560840000
   35      O       0.7225350000     1.9619210000    -5.4065100000
   36      O       1.4332290000     3.9596970000    -4.5692250000
   37      C       1.6074670000     4.4231390000    -5.9162070000
   38      H       1.9774750000     5.4601580000    -5.8330640000
   39      H       0.6473880000     4.3966020000    -6.4701680000
   40      H       2.3394900000     3.7918230000    -6.4592930000
   41      H       1.1617980000     3.1970070000     1.3064860000
   42      H       0.7007880000    -9.1436230000    -0.5870670000
   43      H      -0.1865560000    -9.1494410000     0.9746830000
   44      H       0.5335300000    -1.4431750000    -0.9389790000
 ----------------------------------------------------------------
 Nuclear Repulsion Energy =        3340.53132756 hartrees
 There are      120 alpha and      120 beta electrons
 Requested basis set is cc-pVTZ
 There are 388 shells and 1096 basis functions

 Total QAlloc Memory Limit 110000 MB
 Mega-Array Size       188 MB
 MEM_STATIC part       192 MB
 Discretize the solute cavity surface with Lebedev spheres
	Using 110 Lebedev grid points for each H atom
	Using 194 Lebedev grid points for other atoms
	Atomic van der Waals radii will be scaled by 1.20
 Remove points where switching function is < 1.0e-08
 Keep 2942 surface tesserae and discard 4334 interior tesserae
 Molecular Surface Area = 442.835 Angst**2
 Requested basis set is rimp2-cc-pVTZ
 There are 853 shells and 2963 basis functions
 A cutoff of  1.0D-10 yielded  33061 shell pairs
 There are    249573 function pairs (    322889 Cartesian)
 Smallest overlap matrix eigenvalue = 2.17E-05

 Scale SEOQF with 1.000000e-01/1.000000e-02/1.000000e-02

 Standard Electronic Orientation quadrupole field applied
 Nucleus-field energy     =     0.0000000356 hartrees
 Guess from superposition of atomic densities
 Warning:  Energy on first SCF cycle will be non-variational
 SAD guess density has 240.000000 electrons

 -----------------------------------------------------------------------
  General SCF calculation program by
  Eric Jon Sundstrom, Paul Horn, Yuezhi Mao, Dmitri Zuev, Alec White,
  David Stuck, Shaama M.S., Shane Yost, Joonho Lee, David Small,
  Daniel Levine, Susi Lehtola, Hugh Burton, Evgeny Epifanovsky,
  Bang C. Huynh
 -----------------------------------------------------------------------
 Hartree-Fock
 using 64 threads for integral computing
 -------------------------------------------------------
 OpenMP Integral computing Module                
 Release: version 1.0, May 2013, Q-Chem Inc. Pittsburgh 
 -------------------------------------------------------
 A restricted SCF calculation will be
 performed using DIIS
 SCF converges when DIIS error is below 1.0e-06
 ---------------------------------------
  Cycle       Energy         DIIS error
 ---------------------------------------
    1   -2767.0323367817      1.75e-02  
    2   -2754.8908521637      1.53e-03  
    3   -2755.2382353342      8.52e-04  
    4   -2755.3242010540      2.56e-04  
    5   -2755.3376873217      7.31e-05  
    6   -2755.3391741208      2.56e-05  
    7   -2755.3395590761      1.34e-05  
    8   -2755.3396834785      5.56e-06  
    9   -2755.3397125449      2.77e-06  
   10   -2755.3397191999      1.42e-06  
   11   -2755.3397212579      7.19e-07  Convergence criterion met
 ---------------------------------------
 SCF time:   CPU 7645.95s  wall 291.00s 

************** Final PCM Free Energy Summary **************
 G_electrostatic  =      -0.02034843 hartree =     -12.76883109 kcal/mol
 G_cavitation     =       0.00000000 hartree =       0.00000000 kcal/mol
 G_dispersion     =       0.00000000 hartree =       0.00000000 kcal/mol
 G_repulsion      =       0.00000000 hartree =       0.00000000 kcal/mol
 --------------------------------------------------
 Non-electrostatic Free Energy =       0.00000000 hartree =       0.00000000 kcal/mol
 Total                         =      -0.02034843 hartree =     -12.76883109 kcal/mol
 --------------------------------------------------
 SCF Energy (H0 + V/2)                       =   -2755.33972126 
 Solute Internal Energy (H0)                 =   -2755.31937283 
 Total Free Energy (H0 + V/2 + non-elec)     =   -2755.33972126 hartree
                                             = -1729001.77091182 kcal/mol
***********************************************************

 SCF   energy in the final basis set =    -2755.3397212579
 Total energy in the final basis set =    -2755.3397212579


 --------------------------------------------------------------
  Generalized many-body perturbation theory program
  by Joonho Lee, Fazle Rob, Xintian Feng, Evgeny Epifanovsky

 No regularization used 
 (reg. param. = 0.0000e+00)
  (P|Q)^-1/2 Time:  CPU 247.23 s  wall 4.70 s

 In RI-MP2 calculation: 
 # of frozen core orbitals: 45

 Components of the RIMP2 correlation energy:
        aaaa    correlation energy =        -0.6692103019 a.u.
        abab    correlation energy =        -3.7524063107 a.u.
        bbbb    correlation energy =        -0.6692103019 a.u.
        non-Brillouin singles      =        -0.0000000000 a.u.
        total same-spin energy     =        -1.3384206039 a.u.
        total opposite-spin energy =        -3.7524063107 a.u.

 Total  RIMP2   correlation energy =        -5.0908269146 a.u.
        RIMP2         total energy =     -2760.4305481725 a.u.

 RI-MP2 Energy Time:  CPU 3129.49 s  wall 51.85 s
 
 --------------------------------------------------------------
 
                    Orbital Energies (a.u.)
 --------------------------------------------------------------
 
 Alpha MOs
 -- Occupied --
-92.0137 -92.0010 -91.9754 -91.9583 -26.3446 -20.6154 -20.5873 -20.5863
-20.5618 -11.4101 -11.3842 -11.3108 -11.3090 -11.3066 -11.3024 -11.3011
-11.2987 -11.2892 -11.2857 -11.2836 -11.2830 -11.2825 -11.2797 -11.2732
-11.2724 -11.2581 -11.2580 -11.2496 -11.2367  -9.0124  -9.0011  -8.9778
 -8.9609  -6.6932  -6.6925  -6.6921  -6.6821  -6.6814  -6.6803  -6.6589
 -6.6580  -6.6567  -6.6421  -6.6412  -6.6402  -1.6616  -1.4679  -1.4100
 -1.4088  -1.3706  -1.2309  -1.2021  -1.1734  -1.1376  -1.1006  -1.0471
 -1.0452  -1.0241  -1.0031  -0.9969  -0.9637  -0.9576  -0.9485  -0.9417
 -0.8928  -0.8710  -0.8641  -0.8156  -0.7939  -0.7899  -0.7846  -0.7681
 -0.7587  -0.7352  -0.7263  -0.7100  -0.7008  -0.6944  -0.6853  -0.6800
 -0.6744  -0.6655  -0.6552  -0.6484  -0.6348  -0.6306  -0.6200  -0.6150
 -0.6107  -0.5996  -0.5932  -0.5763  -0.5709  -0.5643  -0.5578  -0.5551
 -0.5520  -0.5317  -0.5284  -0.5246  -0.5130  -0.5094  -0.5073  -0.5010
 -0.4858  -0.4810  -0.4763  -0.4744  -0.4724  -0.4670  -0.4598  -0.4457
 -0.4265  -0.3975  -0.3846  -0.3698  -0.3502  -0.3022  -0.2889  -0.2195
 -- Virtual --
  0.0341   0.0514   0.1022   0.1285   0.1435   0.1467   0.1489   0.1544
  0.1567   0.1601   0.1685   0.1778   0.1800   0.1845   0.1885   0.1937
  0.2003   0.2017   0.2057   0.2106   0.2147   0.2218   0.2230   0.2279
  0.2297   0.2325   0.2410   0.2444   0.2486   0.2558   0.2654   0.2677
  0.2753   0.2921   0.3001   0.3236   0.3295   0.3365   0.3381   0.3442
  0.3499   0.3563   0.3592   0.3666   0.3681   0.3759   0.3829   0.3840
  0.3881   0.3930   0.3949   0.4014   0.4070   0.4116   0.4172   0.4226
  0.4260   0.4282   0.4297   0.4332   0.4416   0.4462   0.4491   0.4528
  0.4540   0.4547   0.4623   0.4689   0.4723   0.4755   0.4809   0.4816
  0.4858   0.4948   0.4998   0.5018   0.5043   0.5061   0.5099   0.5145
  0.5218   0.5279   0.5328   0.5340   0.5385   0.5420   0.5425   0.5443
  0.5503   0.5537   0.5565   0.5581   0.5677   0.5711   0.5767   0.5793
  0.5815   0.5831   0.5914   0.5940   0.5963   0.6039   0.6056   0.6090
  0.6129   0.6144   0.6184   0.6213   0.6218   0.6252   0.6271   0.6301
  0.6356   0.6422   0.6434   0.6454   0.6471   0.6539   0.6546   0.6590
  0.6617   0.6626   0.6730   0.6794   0.6863   0.6891   0.6954   0.6972
  0.7012   0.7084   0.7129   0.7147   0.7176   0.7207   0.7236   0.7353
  0.7400   0.7450   0.7560   0.7610   0.7643   0.7690   0.7725   0.7882
  0.7888   0.7959   0.7980   0.8068   0.8087   0.8138   0.8220   0.8260
  0.8275   0.8326   0.8452   0.8508   0.8539   0.8628   0.8678   0.8733
  0.8800   0.8887   0.8903   0.8963   0.8967   0.9020   0.9042   0.9089
  0.9210   0.9245   0.9273   0.9324   0.9397   0.9450   0.9505   0.9546
  0.9583   0.9677   0.9748   0.9767   0.9812   0.9856   0.9881   0.9906
  0.9954   0.9959   1.0009   1.0143   1.0166   1.0193   1.0234   1.0278
  1.0318   1.0395   1.0479   1.0494   1.0522   1.0584   1.0623   1.0627
  1.0728   1.0801   1.0840   1.0922   1.0931   1.0994   1.1032   1.1072
  1.1085   1.1117   1.1124   1.1237   1.1248   1.1330   1.1395   1.1516
  1.1559   1.1607   1.1629   1.1633   1.1696   1.1744   1.1808   1.1842
  1.1859   1.1932   1.1945   1.2004   1.2039   1.2084   1.2125   1.2157
  1.2200   1.2231   1.2369   1.2403   1.2419   1.2463   1.2476   1.2531
  1.2567   1.2624   1.2661   1.2750   1.2774   1.2807   1.2886   1.2929
  1.2982   1.3031   1.3136   1.3147   1.3241   1.3260   1.3311   1.3388
  1.3452   1.3555   1.3612   1.3700   1.3832   1.3918   1.3942   1.3992
  1.4061   1.4097   1.4164   1.4224   1.4302   1.4343   1.4413   1.4549
  1.4579   1.4701   1.4746   1.4839   1.4865   1.4880   1.4983   1.5026
  1.5050   1.5063   1.5084   1.5148   1.5229   1.5321   1.5360   1.5382
  1.5401   1.5445   1.5477   1.5536   1.5571   1.5605   1.5735   1.5779
  1.5814   1.5878   1.6025   1.6076   1.6146   1.6215   1.6268   1.6370
  1.6411   1.6542   1.6568   1.6575   1.6700   1.6762   1.6843   1.6892
  1.6929   1.6993   1.7034   1.7102   1.7138   1.7229   1.7315   1.7516
  1.7545   1.7618   1.7740   1.7843   1.7955   1.7989   1.8079   1.8191
  1.8233   1.8283   1.8319   1.8441   1.8522   1.8584   1.8718   1.8772
  1.8788   1.8895   1.9023   1.9057   1.9190   1.9215   1.9331   1.9364
  1.9432   1.9506   1.9538   1.9637   1.9772   1.9814   1.9914   1.9980
  2.0001   2.0085   2.0173   2.0198   2.0270   2.0372   2.0423   2.0567
  2.0617   2.0710   2.0753   2.0913   2.0922   2.1050   2.1154   2.1335
  2.1373   2.1550   2.1626   2.1690   2.1787   2.1818   2.1921   2.1935
  2.1955   2.2005   2.2074   2.2164   2.2242   2.2309   2.2352   2.2479
  2.2483   2.2522   2.2599   2.2620   2.2718   2.2841   2.2909   2.3016
  2.3051   2.3130   2.3281   2.3322   2.3431   2.3475   2.3565   2.3624
  2.3652   2.3761   2.3903   2.3996   2.4094   2.4140   2.4199   2.4279
  2.4354   2.4393   2.4549   2.4603   2.4694   2.4817   2.4847   2.4965
  2.5039   2.5054   2.5137   2.5326   2.5429   2.5479   2.5540   2.5638
  2.5675   2.5830   2.5907   2.5990   2.6097   2.6234   2.6255   2.6280
  2.6307   2.6329   2.6397   2.6456   2.6496   2.6582   2.6669   2.6745
  2.6790   2.6830   2.6884   2.6954   2.6995   2.7042   2.7064   2.7138
  2.7203   2.7287   2.7395   2.7474   2.7538   2.7573   2.7665   2.7726
  2.7812   2.7837   2.7918   2.7985   2.8047   2.8128   2.8155   2.8248
  2.8352   2.8417   2.8480   2.8531   2.8596   2.8644   2.8682   2.8727
  2.8775   2.8845   2.8931   2.9023   2.9097   2.9197   2.9284   2.9371
  2.9455   2.9521   2.9571   2.9601   2.9622   2.9734   2.9766   2.9861
  2.9925   2.9983   3.0165   3.0192   3.0228   3.0329   3.0365   3.0441
  3.0496   3.0572   3.0706   3.0815   3.0851   3.0896   3.0940   3.0959
  3.1044   3.1072   3.1125   3.1185   3.1279   3.1325   3.1339   3.1381
  3.1476   3.1489   3.1546   3.1552   3.1641   3.1650   3.1720   3.1804
  3.1883   3.1947   3.2017   3.2092   3.2116   3.2153   3.2179   3.2219
  3.2293   3.2353   3.2440   3.2447   3.2504   3.2577   3.2637   3.2675
  3.2688   3.2764   3.2789   3.2851   3.2877   3.2945   3.2983   3.3030
  3.3073   3.3117   3.3182   3.3229   3.3302   3.3340   3.3395   3.3396
  3.3459   3.3503   3.3558   3.3584   3.3610   3.3618   3.3678   3.3701
  3.3736   3.3765   3.3886   3.3926   3.3981   3.4002   3.4041   3.4065
  3.4092   3.4195   3.4233   3.4262   3.4277   3.4320   3.4392   3.4430
  3.4458   3.4519   3.4563   3.4604   3.4667   3.4694   3.4741   3.4791
  3.4839   3.4884   3.4950   3.4981   3.5046   3.5191   3.5240   3.5313
  3.5329   3.5434   3.5466   3.5487   3.5555   3.5653   3.5682   3.5746
  3.5792   3.5843   3.5883   3.5920   3.5993   3.6065   3.6089   3.6095
  3.6122   3.6226   3.6271   3.6313   3.6372   3.6383   3.6435   3.6550
  3.6569   3.6669   3.6740   3.6776   3.6793   3.6802   3.6917   3.6966
  3.6992   3.7054   3.7076   3.7115   3.7170   3.7203   3.7254   3.7311
  3.7385   3.7469   3.7524   3.7587   3.7638   3.7695   3.7705   3.7773
  3.7839   3.7874   3.7964   3.7989   3.8015   3.8081   3.8113   3.8150
  3.8190   3.8233   3.8274   3.8276   3.8357   3.8485   3.8494   3.8575
  3.8636   3.8712   3.8741   3.8811   3.8840   3.8878   3.8910   3.8986
  3.9026   3.9176   3.9189   3.9349   3.9471   3.9503   3.9559   3.9588
  3.9614   3.9686   3.9700   3.9845   3.9910   4.0003   4.0042   4.0070
  4.0169   4.0227   4.0334   4.0439   4.0490   4.0580   4.0660   4.0679
  4.0684   4.0768   4.0905   4.1016   4.1089   4.1146   4.1186   4.1266
  4.1322   4.1417   4.1479   4.1583   4.1627   4.1656   4.1666   4.1712
  4.1748   4.1832   4.1890   4.2051   4.2138   4.2166   4.2311   4.2367
  4.2452   4.2507   4.2598   4.2616   4.2726   4.2793   4.2836   4.2990
  4.3179   4.3226   4.3334   4.3414   4.3419   4.3481   4.3496   4.3558
  4.3614   4.3675   4.3730   4.3800   4.3948   4.4049   4.4058   4.4175
  4.4200   4.4252   4.4282   4.4305   4.4352   4.4418   4.4448   4.4569
  4.4594   4.4721   4.4889   4.4965   4.5101   4.5193   4.5244   4.5300
  4.5388   4.5452   4.5585   4.5628   4.5704   4.5730   4.5768   4.5849
  4.5926   4.5975   4.6119   4.6181   4.6359   4.6415   4.6420   4.6503
  4.6622   4.6657   4.6761   4.6940   4.7117   4.7188   4.7216   4.7284
  4.7366   4.7530   4.7680   4.7743   4.7827   4.7922   4.8073   4.8202
  4.8293   4.8301   4.8480   4.8515   4.8671   4.8839   4.8876   4.8952
  4.9049   4.9228   4.9331   4.9415   4.9456   4.9508   4.9625   4.9718
  4.9781   4.9968   5.0080   5.0088   5.0168   5.0291   5.0411   5.0501
  5.0590   5.0738   5.0878   5.1003   5.1119   5.1175   5.1316   5.1630
  5.1744   5.1938   5.2026   5.2082   5.2137   5.2281   5.2443   5.2514
  5.2544   5.2584   5.2753   5.2793   5.2952   5.2981   5.3194   5.3273
  5.3401   5.3493   5.3535   5.3631   5.3761   5.3873   5.3961   5.4019
  5.4064   5.4171   5.4258   5.4423   5.4527   5.4836   5.4849   5.5029
  5.5108   5.5163   5.5228   5.5343   5.5604   5.5693   5.5794   5.5867
  5.5976   5.6040   5.6119   5.6211   5.6464   5.6581   5.6909   5.6934
  5.7132   5.7331   5.7597   5.7642   5.7756   5.8070   5.8225   5.8464
  5.8594   5.8813   5.9016   5.9138   5.9286   5.9538   5.9742   6.0048
  6.0398   6.0430   6.0763   6.1233   6.1501   6.1569   6.1726   6.1773
  6.1816   6.1994   6.2281   6.2457   6.2609   6.2618   6.2747   6.2843
  6.2972   6.2999   6.3363   6.3703   6.4353   6.4496   6.4767   6.5388
  6.5460   6.5652   6.6035   6.6467   6.6606   6.6706   6.7123   6.7454
  6.8066   6.8293   6.8553   6.8590   6.8998   6.9775   7.1321   7.1466
  7.2034   7.2069   7.2226   7.2394   7.3093   7.3266   7.3410   7.3621
  7.3630   7.4055   7.4127   7.4845   7.4872   7.4968   7.5229   7.5508
  7.6156   7.7373   7.7718   7.7892   7.8028   7.8998   7.9266   7.9549
  7.9706   8.1332   8.2774   8.4844   8.9209   9.0205   9.3618   9.4779
  9.6690  10.1965  11.1717  11.4080  11.7418  11.9129  12.1225  12.3438
 12.4168  12.4758  12.9349  12.9751  13.0528  13.2975  13.3869  13.4804
 13.6581  13.7834  13.8725  13.9340  14.0346  14.3087  14.9407  15.2168
 --------------------------------------------------------------
 
          Ground-State Mulliken Net Atomic Charges

     Atom                 Charge (a.u.)
  ----------------------------------------
      1 C                    -0.070245
      2 C                    -0.260051
      3 S                    -0.135117
      4 C                    -0.044988
      5 H                     0.193477
      6 C                    -0.051505
      7 C                     0.220779
      8 C                     0.229919
      9 C                    -0.079758
     10 C                    -0.049652
     11 O                    -0.335545
     12 O                    -0.343711
     13 C                    -0.082527
     14 H                     0.119802
     15 H                     0.092102
     16 H                     0.092726
     17 C                    -0.086865
     18 H                     0.122810
     19 H                     0.093032
     20 H                     0.090088
     21 C                    -0.254762
     22 S                    -0.071883
     23 C                     0.035665
     24 H                     0.209568
     25 C                    -0.052948
     26 S                     0.088057
     27 C                    -0.184508
     28 C                    -0.005163
     29 C                    -0.098687
     30 S                     0.007715
     31 C                    -0.154431
     32 C                     0.394424
     33 F                    -0.205473
     34 C                     0.445084
     35 O                    -0.460801
     36 O                    -0.300931
     37 C                    -0.058401
     38 H                     0.121488
     39 H                     0.095242
     40 H                     0.095187
     41 H                     0.217117
     42 H                     0.117472
     43 H                     0.114915
     44 H                     0.191284
  ----------------------------------------
  Sum of atomic charges =     0.000000

 -----------------------------------------------------------------
                    Cartesian Multipole Moments
 -----------------------------------------------------------------
    Charge (ESU x 10^10)
                -0.0000
    Dipole Moment (Debye)
         X       1.1708      Y       2.8092      Z       2.3910
       Tot       3.8703
    Quadrupole Moments (Debye-Ang)
        XX    -192.1511     XY       8.3138     YY    -176.4983
        XZ       6.5939     YZ      -5.5182     ZZ    -195.6001
    Octopole Moments (Debye-Ang^2)
       XXX    -234.2182    XXY     361.7360    XYY     -87.6292
       YYY     990.9915    XXZ     155.8818    XYZ     -64.1715
       YYZ      94.8389    XZZ     -42.0630    YZZ     429.1330
       ZZZ     522.9908
    Hexadecapole Moments (Debye-Ang^3)
      XXXX   -2282.0094   XXXY     -80.2525   XXYY   -4095.1935
      XYYY     210.0123   YYYY  -20104.9351   XXXZ      91.3948
      XXYZ     568.5319   XYYZ      82.6042   YYYZ    1658.5441
      XXZZ   -1239.3479   XYZZ     146.8654   YYZZ   -4095.8143
      XZZZ    -138.9121   YZZZ    1312.2125   ZZZZ   -6151.6833
 -----------------------------------------------------------------
 Total job time:  348.78s(wall), 10927.68s(cpu) 
 Tue Jan  9 12:50:03 2024

        *************************************************************
        *                                                           *
        *  Thank you very much for using Q-Chem.  Have a nice day.  *
        *                                                           *
        *************************************************************


0 sent ACK to 0 
now end server 0 ... 
cleanup process ... done
remove work dirs ./qchem1317831.0 -- ./qchem1317831.0
rm -rf ./qchem1317831.0
rm -rf ./qchem1317831
