You are running Q-Chem version: 5.4.0

#
# job setting
#
local host:  exp-6-38
current dir: /home/rramji/project-csd799/aromodel/ptb7fout-qchem/hydrogenated-rotation-run
input file:  Dimethoxy_Benzodithiophene_Phi_50_Theta_20_Methylcarbonyl_3_Fluoro_Thienothiophene_Hydrogenated.qcin
output file: 
nprocs     : 1
nthreads   : 64
#
# qchem installation setting
#
QC:          /cm/shared/apps/spack/cpu/opt/spack/linux-centos8-zen2/gcc-10.2.0/qchem-5.4-akfmr7b3t57bfs6qan3padb2wnb2i7cl
QCAUX:       /cm/shared/apps/spack/cpu/opt/spack/linux-centos8-zen2/gcc-10.2.0/qchem-5.4-akfmr7b3t57bfs6qan3padb2wnb2i7cl/qcaux
QCPROG:      /cm/shared/apps/spack/cpu/opt/spack/linux-centos8-zen2/gcc-10.2.0/qchem-5.4-akfmr7b3t57bfs6qan3padb2wnb2i7cl/exe/qcprog.exe
QCPROG_S:    /cm/shared/apps/spack/cpu/opt/spack/linux-centos8-zen2/gcc-10.2.0/qchem-5.4-akfmr7b3t57bfs6qan3padb2wnb2i7cl/exe/qcprog.exe_s
PARALLEL:    -DPARALLEL
QCMPI:       mpich
#
# qchem directory setting
#
qcrun:       qchem3750042
QCSCRATCH:   .
QCLOCALSCR:  
QCTMPDIR:    .
QCFILEPREF:  ./qchem3750042
QCSAVEDIR:   
workdirs:    ./qchem3750042
workdir0:    ./qchem3750042
partmpdirs =  
#
# parallel setting
#
QCRSH:           ssh
QCMPI:           mpich
QCMPIRUN:        /cm/shared/apps/spack/cpu/opt/spack/linux-centos8-zen2/gcc-10.2.0/qchem-5.4-akfmr7b3t57bfs6qan3padb2wnb2i7cl/bin/mpi/mpirun_qchem
QCMACHINEFILE:   ./qchem3750042/hostfile
exp-6-38

#
# env setting
#
exported envs:   QC QCAUX QCSCRATCH QCRUNNAME QCFILEPREF QCPROG QCPROG_S GUIFILE

Running Job 1 of 1 Dimethoxy_Benzodithiophene_Phi_50_Theta_20_Methylcarbonyl_3_Fluoro_Thienothiophene_Hydrogenated.qcin
qchem Dimethoxy_Benzodithiophene_Phi_50_Theta_20_Methylcarbonyl_3_Fluoro_Thienothiophene_Hydrogenated.qcin_3750042.0 ./qchem3750042/ 1
/cm/shared/apps/spack/cpu/opt/spack/linux-centos8-zen2/gcc-10.2.0/qchem-5.4-akfmr7b3t57bfs6qan3padb2wnb2i7cl/bin/mpi/mpirun_qchem -machinefile ./qchem3750042/hostfile -np 1 /cm/shared/apps/spack/cpu/opt/spack/linux-centos8-zen2/gcc-10.2.0/qchem-5.4-akfmr7b3t57bfs6qan3padb2wnb2i7cl/exe/qcprog.exe Dimethoxy_Benzodithiophene_Phi_50_Theta_20_Methylcarbonyl_3_Fluoro_Thienothiophene_Hydrogenated.qcin_3750042.0 ./qchem3750042/

Process 0 of 1 is on exp-6-38 - thread support 0
initial socket setup ...start
initial socket setup ...done 
now start server 0 ... 
                  Welcome to Q-Chem
     A Quantum Leap Into The Future Of Chemistry


 Q-Chem 5.4, Q-Chem, Inc., Pleasanton, CA (2021)

 License issued to: University of California, San Diego (site)

 E. Epifanovsky,  A. T. B. Gilbert,  Xintian Feng,  Joonho Lee,  Yuezhi Mao,  
 N. Mardirossian,  P. Pokhilko,  A. White,  M. Wormit,  M. P. Coons,  
 A. L. Dempwolff,  Zhengting Gan,  D. Hait,  P. R. Horn,  L. D. Jacobson,  
 I. Kaliman,  J. Kussmann,  A. W. Lange,  Ka Un Lao,  D. S. Levine,  Jie Liu,  
 S. C. McKenzie,  A. F. Morrison,  K. Nanda,  F. Plasser,  D. R. Rehn,  
 M. L. Vidal,  Zhi-Qiang You,  Ying Zhu,  B. Alam,  B. Albrecht,  
 A. Aldossary,  E. Alguire,  J. H. Andersen,  D. Barton,  K. Begam,  A. Behn,  
 Y. A. Bernard,  E. J. Berquist,  H. Burton,  A. Carreras,  K. Carter-Fenk,  
 R. Chakraborty,  A. D. Chien,  K. D. Closser,  V. Cofer-Shabica,  
 S. Dasgupta,  Jia Deng,  M. de Wergifosse,  M. Diedenhofen,  Hainam Do,  
 S. Ehlert,  Po-Tung Fang,  S. Fatehi,  Qingguo Feng,  J. Gayvert,  
 Qinghui Ge,  G. Gidofalvi,  M. Goldey,  J. Gomes,  C. Gonzalez-Espinoza,  
 S. Gulania,  A. Gunina,  M. W. D. Hanson-Heine,  P. H. P. Harbach,  
 A. W. Hauser,  M. F. Herbst,  M. Hernandez Vera,  M. Hodecker,  
 Z. C. Holden,  S. Houck,  Xunkun Huang,  Kerwin Hui,  B. C. Huynh,  
 M. Ivanov,  Hyunjun Ji,  Hanjie Jiang,  B. Kaduk,  S. Kaehler,  
 K. Khistyaev,  Jaehoon Kim,  P. Klunzinger,  Z. Koczor-Benda,  
 Joong Hoon Koh,  D. Kosenkov,  L. Koulias,  T. Kowalczyk,  C. M. Krauter,  
 K. Kue,  A. Kunitsa,  T. Kus,  A. Landau,  K. V. Lawler,  D. Lefrancois,  
 S. Lehtola,  Rain Li,  Yi-Pei Li,  Jiashu Liang,  M. Liebenthal,  
 Hung-Hsuan Lin,  You-Sheng Lin,  Fenglai Liu,  Kuan-Yu Liu,  
 M. Loipersberger,  A. Luenser,  A. Manjanath,  P. Manohar,  E. Mansoor,  
 S. F. Manzer,  Shan-Ping Mao,  A. V. Marenich,  T. Markovich,  S. Mason,  
 S. A. Maurer,  P. F. McLaughlin,  M. F. S. J. Menger,  J.-M. Mewes,  
 S. A. Mewes,  P. Morgante,  J. W. Mullinax,  T. S. Nguyen-Beck,  
 K. J. Oosterbaan,  G. Paran,  Alexander C. Paul,  Suranjan K. Paul,  
 F. Pavosevic,  Zheng Pei,  S. Prager,  E. I. Proynov,  E. Ramos,  B. Rana,  
 A. E. Rask,  A. Rettig,  R. M. Richard,  F. Rob,  E. Rossomme,  T. Scheele,  
 M. Scheurer,  M. Schneider,  N. Sergueev,  S. M. Sharada,  W. Skomorowski,  
 D. W. Small,  C. J. Stein,  Yu-Chuan Su,  E. J. Sundstrom,  Zhen Tao,  
 J. Thirman,  T. Tsuchimochi,  N. M. Tubman,  S. P. Veccham,  O. Vydrov,  
 J. Wenzel,  J. Witte,  A. Yamada,  Kun Yao,  S. Yeganeh,  S. R. Yost,  
 A. Zech,  Igor Ying Zhang,  Xing Zhang,  Yu Zhang,  D. Zuev,  
 A. Aspuru-Guzik,  A. T. Bell,  N. A. Besley,  K. B. Bravaya,  B. R. Brooks,  
 D. Casanova,  Jeng-Da Chai,  S. Coriani,  C. J. Cramer,  
 A. E. DePrince, III,  R. A. DiStasio Jr.,  A. Dreuw,  B. D. Dunietz,  
 T. R. Furlani,  W. A. Goddard III,  S. Grimme,  S. Hammes-Schiffer,  
 T. Head-Gordon,  W. J. Hehre,  Chao-Ping Hsu,  T.-C. Jagau,  Yousung Jung,  
 A. Klamt,  Jing Kong,  D. S. Lambrecht,  WanZhen Liang,  N. J. Mayhall,  
 C. W. McCurdy,  J. B. Neaton,  C. Ochsenfeld,  J. A. Parkhill,  R. Peverati,  
 V. A. Rassolov,  Yihan Shao,  L. V. Slipchenko,  T. Stauch,  R. P. Steele,  
 J. E. Subotnik,  A. J. W. Thom,  A. Tkatchenko,  D. G. Truhlar,  
 T. Van Voorhis,  T. A. Wesolowski,  K. B. Whaley,  H. L. Woodcock III,  
 P. M. Zimmerman,  S. Faraji,  P. M. W. Gill,  M. Head-Gordon,  
 J. M. Herbert,  A. I. Krylov

 Contributors to earlier versions of Q-Chem not listed above: 
 R. D. Adamson,  B. Austin,  R. Baer,  J. Baker,  G. J. O. Beran,  
 K. Brandhorst,  S. T. Brown,  E. F. C. Byrd,  A. K. Chakraborty,  
 G. K. L. Chan,  Chun-Min Chang,  Yunqing Chen,  C.-L. Cheng,  
 Siu Hung Chien,  D. M. Chipman,  D. L. Crittenden,  H. Dachsel,  
 R. J. Doerksen,  A. D. Dutoi,  R. G. Edgar,  J. Fosso-Tande,  
 L. Fusti-Molnar,  D. Ghosh,  A. Ghysels,  A. Golubeva-Zadorozhnaya,  
 J. Gonthier,  M. S. Gordon,  S. R. Gwaltney,  G. Hawkins,  J. E. Herr,  
 A. Heyden,  S. Hirata,  E. G. Hohenstein,  G. Kedziora,  F. J. Keil,  
 C. Kelley,  Jihan Kim,  R. A. King,  R. Z. Khaliullin,  P. P. Korambath,  
 W. Kurlancheek,  A. Laurent,  A. M. Lee,  M. S. Lee,  S. V. Levchenko,  
 Ching Yeh Lin,  D. Liotard,  E. Livshits,  R. C. Lochan,  I. Lotan,  
 L. A. Martinez-Martinez,  P. E. Maslen,  N. Nair,  D. P. O'Neill,  
 D. Neuhauser,  E. Neuscamman,  C. M. Oana,  R. Olivares-Amaya,  R. Olson,  
 T. M. Perrine,  B. Peters,  P. A. Pieniazek,  A. Prociuk,  Y. M. Rhee,  
 J. Ritchie,  M. A. Rohrdanz,  E. Rosta,  N. J. Russ,  H. F. Schaefer III,  
 M. W. Schmidt,  N. E. Schultz,  S. Sharma,  N. Shenvi,  C. D. Sherrill,  
 A. C. Simmonett,  A. Sodt,  T. Stein,  D. Stuck,  K. S. Thanthiriwatte,  
 V. Vanovschi,  L. Vogt,  Tao Wang,  A. Warshel,  M. A. Watson,  
 C. F. Williams,  Q. Wu,  X. Xu,  Jun Yang,  W. Zhang,  Yan Zhao

 Please cite Q-Chem as follows:
 Y. Shao et al., Mol. Phys. 113, 184-215 (2015)
 DOI: 10.1080/00268976.2014.952696

 Q-Chem 5.4.0 for Intel X86 EM64T Linux

 Parts of Q-Chem use Armadillo 9.800.1 (Horizon Scraper).
 http://arma.sourceforge.net/

 Q-Chem begins on Tue Jan  9 09:53:52 2024  

 Host: 
0

     Scratch files written to ./qchem3750042//
 May1621 |scratch|qcdevops|jenkins|workspace|build_RNUM    
 Parallel job on  1  processors
 Processing $rem in /cm/shared/apps/spack/cpu/opt/spack/linux-centos8-zen2/gcc-10.2.0/qchem-5.4-akfmr7b3t57bfs6qan3padb2wnb2i7cl/config/preferences:
 Processing $rem in /home/rramji/.qchemrc:
 Symmetry turned off for PCM/SM12/SMD calculation
 Core orbitals will be frozen

 Checking the input file for inconsistencies... 	...done.

 Q-Chem warning in module forms1/BasisType.C, line 2236:

 You are not using the predefined 5D/6D in this basis set.


--------------------------------------------------------------
User input:
--------------------------------------------------------------
$molecule
0 1
C	-0.147685	-8.517702	0.284919
C	0.212552	-7.641575	-0.728574
S	-0.661757	-7.638634	1.745304
C	0.083761	-6.264785	-0.374824
H	0.565513	-7.966081	-1.715621
C	-0.405665	-6.072714	0.965104
C	-0.574617	-4.787049	1.502136
C	0.413763	-5.162801	-1.214687
C	0.248748	-3.874817	-0.675870
C	-0.243888	-3.683952	0.664513
O	0.838511	-5.499772	-2.464209
O	-1.000176	-4.459055	2.757750
C	-1.893778	-5.329063	3.441858
H	-2.284868	-4.755694	4.303826
H	-1.383341	-6.238095	3.828743
H	-2.741817	-5.637262	2.792824
C	1.586168	-4.572261	-3.241222
H	1.974033	-5.139743	-4.108274
H	2.441448	-4.153131	-2.668916
H	0.954660	-3.739531	-3.620041
C	-0.369302	-2.306654	1.015668
S	0.517367	-2.306501	-1.453394
C	0.000000	-1.435185	0.000000
H	-0.724300	-1.978138	2.000559
C	0.000000	0.000000	0.000000
S	0.693394	0.581209	1.507541
C	1.897536	1.592607	0.718873
C	0.693330	0.580791	-1.067872
C	1.756758	1.476132	-0.686410
S	0.508573	0.422041	-2.805516
C	1.846879	1.552232	-3.054530
C	2.387897	2.009402	-1.862551
F	3.408741	2.872264	-1.819088
C	2.191300	1.838768	-4.456084
O	1.606694	1.337806	-5.406510
O	3.221062	2.712584	-4.569225
C	3.603677	3.026817	-5.916207
H	4.442623	3.739898	-5.833064
H	2.758956	3.483875	-6.470168
H	3.921969	2.114070	-6.459293
H	2.604650	2.187790	1.306486
H	0.699838	-9.143623	0.588198
H	-0.992270	-9.149441	-0.014470
H	1.017360	-1.443175	0.362373
$end

$rem
JOBTYPE		SP
EXCHANGE	HF
CORRELATION	pRIMP2
BASIS		cc-pvtz
METHOD		rimp2
AUX_BASIS	rimp2-cc-pvtz
SOLVENT_METHOD	PCM
PURECART	11111
SYMMETRY	false
MEM_TOTAL	110000
SCF_CONVERGENCE = 6
THRESH=10
GUI = 2
$end



$solvent
dielectric 4.90
$end
--------------------------------------------------------------
 ----------------------------------------------------------------
             Standard Nuclear Orientation (Angstroms)
    I     Atom           X                Y                Z
 ----------------------------------------------------------------
    1      C      -0.1476850000    -8.5177020000     0.2849190000
    2      C       0.2125520000    -7.6415750000    -0.7285740000
    3      S      -0.6617570000    -7.6386340000     1.7453040000
    4      C       0.0837610000    -6.2647850000    -0.3748240000
    5      H       0.5655130000    -7.9660810000    -1.7156210000
    6      C      -0.4056650000    -6.0727140000     0.9651040000
    7      C      -0.5746170000    -4.7870490000     1.5021360000
    8      C       0.4137630000    -5.1628010000    -1.2146870000
    9      C       0.2487480000    -3.8748170000    -0.6758700000
   10      C      -0.2438880000    -3.6839520000     0.6645130000
   11      O       0.8385110000    -5.4997720000    -2.4642090000
   12      O      -1.0001760000    -4.4590550000     2.7577500000
   13      C      -1.8937780000    -5.3290630000     3.4418580000
   14      H      -2.2848680000    -4.7556940000     4.3038260000
   15      H      -1.3833410000    -6.2380950000     3.8287430000
   16      H      -2.7418170000    -5.6372620000     2.7928240000
   17      C       1.5861680000    -4.5722610000    -3.2412220000
   18      H       1.9740330000    -5.1397430000    -4.1082740000
   19      H       2.4414480000    -4.1531310000    -2.6689160000
   20      H       0.9546600000    -3.7395310000    -3.6200410000
   21      C      -0.3693020000    -2.3066540000     1.0156680000
   22      S       0.5173670000    -2.3065010000    -1.4533940000
   23      C       0.0000000000    -1.4351850000     0.0000000000
   24      H      -0.7243000000    -1.9781380000     2.0005590000
   25      C       0.0000000000     0.0000000000     0.0000000000
   26      S       0.6933940000     0.5812090000     1.5075410000
   27      C       1.8975360000     1.5926070000     0.7188730000
   28      C       0.6933300000     0.5807910000    -1.0678720000
   29      C       1.7567580000     1.4761320000    -0.6864100000
   30      S       0.5085730000     0.4220410000    -2.8055160000
   31      C       1.8468790000     1.5522320000    -3.0545300000
   32      C       2.3878970000     2.0094020000    -1.8625510000
   33      F       3.4087410000     2.8722640000    -1.8190880000
   34      C       2.1913000000     1.8387680000    -4.4560840000
   35      O       1.6066940000     1.3378060000    -5.4065100000
   36      O       3.2210620000     2.7125840000    -4.5692250000
   37      C       3.6036770000     3.0268170000    -5.9162070000
   38      H       4.4426230000     3.7398980000    -5.8330640000
   39      H       2.7589560000     3.4838750000    -6.4701680000
   40      H       3.9219690000     2.1140700000    -6.4592930000
   41      H       2.6046500000     2.1877900000     1.3064860000
   42      H       0.6998380000    -9.1436230000     0.5881980000
   43      H      -0.9922700000    -9.1494410000    -0.0144700000
   44      H       1.0173600000    -1.4431750000     0.3623730000
 ----------------------------------------------------------------
 Nuclear Repulsion Energy =        3409.68417151 hartrees
 There are      120 alpha and      120 beta electrons
 Requested basis set is cc-pVTZ
 There are 388 shells and 1096 basis functions

 Total QAlloc Memory Limit 110000 MB
 Mega-Array Size       188 MB
 MEM_STATIC part       192 MB
 Discretize the solute cavity surface with Lebedev spheres
	Using 110 Lebedev grid points for each H atom
	Using 194 Lebedev grid points for other atoms
	Atomic van der Waals radii will be scaled by 1.20
 Remove points where switching function is < 1.0e-08
 Keep 2930 surface tesserae and discard 4346 interior tesserae
 Molecular Surface Area = 433.625 Angst**2
 Requested basis set is rimp2-cc-pVTZ
 There are 853 shells and 2963 basis functions
 A cutoff of  1.0D-10 yielded  34212 shell pairs
 There are    257054 function pairs (    332075 Cartesian)
 Smallest overlap matrix eigenvalue = 2.13E-05

 Scale SEOQF with 1.000000e-01/1.000000e-02/1.000000e-02

 Standard Electronic Orientation quadrupole field applied
 Nucleus-field energy     =     0.0000000333 hartrees
 Guess from superposition of atomic densities
 Warning:  Energy on first SCF cycle will be non-variational
 SAD guess density has 240.000000 electrons

 -----------------------------------------------------------------------
  General SCF calculation program by
  Eric Jon Sundstrom, Paul Horn, Yuezhi Mao, Dmitri Zuev, Alec White,
  David Stuck, Shaama M.S., Shane Yost, Joonho Lee, David Small,
  Daniel Levine, Susi Lehtola, Hugh Burton, Evgeny Epifanovsky,
  Bang C. Huynh
 -----------------------------------------------------------------------
 Hartree-Fock
 using 64 threads for integral computing
 -------------------------------------------------------
 OpenMP Integral computing Module                
 Release: version 1.0, May 2013, Q-Chem Inc. Pittsburgh 
 -------------------------------------------------------
 A restricted SCF calculation will be
 performed using DIIS
 SCF converges when DIIS error is below 1.0e-06
 ---------------------------------------
  Cycle       Energy         DIIS error
 ---------------------------------------
    1   -2767.1698983382      1.75e-02  
    2   -2754.8395191372      1.53e-03  
    3   -2755.1893214404      8.49e-04  
    4   -2755.2751365602      2.57e-04  
    5   -2755.2890316982      7.37e-05  
    6   -2755.2906287821      2.67e-05  
    7   -2755.2910586533      1.35e-05  
    8   -2755.2911908804      5.47e-06  
    9   -2755.2912180837      2.67e-06  
   10   -2755.2912244598      1.49e-06  
   11   -2755.2912267322      7.65e-07  Convergence criterion met
 ---------------------------------------
 SCF time:   CPU 7709.85s  wall 277.00s 

************** Final PCM Free Energy Summary **************
 G_electrostatic  =      -0.02093938 hartree =     -13.13966138 kcal/mol
 G_cavitation     =       0.00000000 hartree =       0.00000000 kcal/mol
 G_dispersion     =       0.00000000 hartree =       0.00000000 kcal/mol
 G_repulsion      =       0.00000000 hartree =       0.00000000 kcal/mol
 --------------------------------------------------
 Non-electrostatic Free Energy =       0.00000000 hartree =       0.00000000 kcal/mol
 Total                         =      -0.02093938 hartree =     -13.13966138 kcal/mol
 --------------------------------------------------
 SCF Energy (H0 + V/2)                       =   -2755.29122673 
 Solute Internal Energy (H0)                 =   -2755.27028735 
 Total Free Energy (H0 + V/2 + non-elec)     =   -2755.29122673 hartree
                                             = -1728971.34013768 kcal/mol
***********************************************************

 SCF   energy in the final basis set =    -2755.2912267322
 Total energy in the final basis set =    -2755.2912267322


 --------------------------------------------------------------
  Generalized many-body perturbation theory program
  by Joonho Lee, Fazle Rob, Xintian Feng, Evgeny Epifanovsky

 No regularization used 
 (reg. param. = 0.0000e+00)
  (P|Q)^-1/2 Time:  CPU 105.99 s  wall 1.67 s

 In RI-MP2 calculation: 
 # of frozen core orbitals: 45

 Components of the RIMP2 correlation energy:
        aaaa    correlation energy =        -0.6721966042 a.u.
        abab    correlation energy =        -3.7606779457 a.u.
        bbbb    correlation energy =        -0.6721966042 a.u.
        non-Brillouin singles      =        -0.0000000000 a.u.
        total same-spin energy     =        -1.3443932083 a.u.
        total opposite-spin energy =        -3.7606779457 a.u.

 Total  RIMP2   correlation energy =        -5.1050711540 a.u.
        RIMP2         total energy =     -2760.3962978862 a.u.

 RI-MP2 Energy Time:  CPU 2914.94 s  wall 47.27 s
 
 --------------------------------------------------------------
 
                    Orbital Energies (a.u.)
 --------------------------------------------------------------
 
 Alpha MOs
 -- Occupied --
-92.0080 -91.9999 -91.9740 -91.9583 -26.3441 -20.6155 -20.5870 -20.5867
-20.5621 -11.4102 -11.3835 -11.3204 -11.3083 -11.3077 -11.3040 -11.2983
-11.2916 -11.2893 -11.2873 -11.2835 -11.2828 -11.2795 -11.2777 -11.2727
-11.2670 -11.2580 -11.2569 -11.2501 -11.2381  -9.0082  -9.0002  -8.9765
 -8.9609  -6.6890  -6.6882  -6.6878  -6.6812  -6.6804  -6.6793  -6.6575
 -6.6567  -6.6553  -6.6422  -6.6412  -6.6402  -1.6612  -1.4680  -1.4101
 -1.4087  -1.3707  -1.2394  -1.1997  -1.1741  -1.1405  -1.0988  -1.0493
 -1.0440  -1.0278  -1.0020  -0.9948  -0.9658  -0.9557  -0.9495  -0.9421
 -0.8930  -0.8704  -0.8597  -0.8186  -0.7933  -0.7883  -0.7822  -0.7685
 -0.7568  -0.7376  -0.7262  -0.7145  -0.6957  -0.6933  -0.6854  -0.6814
 -0.6745  -0.6654  -0.6553  -0.6482  -0.6364  -0.6305  -0.6203  -0.6152
 -0.6107  -0.6013  -0.5925  -0.5782  -0.5704  -0.5668  -0.5594  -0.5564
 -0.5432  -0.5332  -0.5309  -0.5253  -0.5147  -0.5120  -0.5073  -0.5006
 -0.4838  -0.4821  -0.4772  -0.4733  -0.4691  -0.4634  -0.4546  -0.4462
 -0.4286  -0.3903  -0.3832  -0.3691  -0.3531  -0.3007  -0.2868  -0.2161
 -- Virtual --
  0.0229   0.0534   0.0887   0.1315   0.1424   0.1465   0.1530   0.1547
  0.1561   0.1573   0.1667   0.1772   0.1816   0.1845   0.1856   0.1931
  0.1987   0.2020   0.2049   0.2145   0.2159   0.2202   0.2259   0.2270
  0.2294   0.2352   0.2402   0.2466   0.2538   0.2593   0.2641   0.2750
  0.2768   0.2991   0.3121   0.3187   0.3203   0.3336   0.3378   0.3451
  0.3498   0.3582   0.3613   0.3620   0.3744   0.3794   0.3834   0.3846
  0.3850   0.3930   0.4015   0.4029   0.4063   0.4116   0.4172   0.4234
  0.4254   0.4282   0.4358   0.4388   0.4420   0.4444   0.4469   0.4515
  0.4592   0.4630   0.4639   0.4679   0.4731   0.4770   0.4816   0.4871
  0.4906   0.4949   0.5001   0.5009   0.5045   0.5097   0.5112   0.5156
  0.5245   0.5268   0.5309   0.5330   0.5357   0.5422   0.5465   0.5481
  0.5503   0.5549   0.5581   0.5608   0.5677   0.5729   0.5746   0.5819
  0.5864   0.5885   0.5924   0.5981   0.6000   0.6027   0.6052   0.6114
  0.6147   0.6182   0.6187   0.6214   0.6242   0.6263   0.6313   0.6361
  0.6382   0.6405   0.6421   0.6458   0.6491   0.6532   0.6599   0.6609
  0.6615   0.6682   0.6758   0.6845   0.6860   0.6916   0.6960   0.7029
  0.7083   0.7121   0.7146   0.7162   0.7183   0.7245   0.7332   0.7381
  0.7431   0.7458   0.7522   0.7584   0.7587   0.7756   0.7785   0.7856
  0.7890   0.7951   0.7982   0.8092   0.8118   0.8194   0.8215   0.8265
  0.8310   0.8339   0.8421   0.8518   0.8621   0.8664   0.8679   0.8762
  0.8836   0.8868   0.8888   0.8931   0.9017   0.9090   0.9116   0.9180
  0.9203   0.9239   0.9292   0.9417   0.9437   0.9500   0.9519   0.9576
  0.9597   0.9658   0.9694   0.9737   0.9794   0.9839   0.9895   0.9928
  0.9965   1.0033   1.0086   1.0131   1.0147   1.0212   1.0278   1.0346
  1.0396   1.0426   1.0508   1.0543   1.0555   1.0601   1.0696   1.0743
  1.0750   1.0813   1.0849   1.0921   1.0935   1.1035   1.1047   1.1068
  1.1109   1.1162   1.1182   1.1235   1.1334   1.1381   1.1481   1.1526
  1.1553   1.1604   1.1625   1.1693   1.1715   1.1762   1.1813   1.1858
  1.1899   1.1954   1.1960   1.1983   1.2004   1.2046   1.2090   1.2205
  1.2249   1.2259   1.2330   1.2420   1.2453   1.2463   1.2512   1.2567
  1.2593   1.2645   1.2740   1.2780   1.2799   1.2857   1.2889   1.2984
  1.3024   1.3077   1.3104   1.3127   1.3287   1.3317   1.3382   1.3399
  1.3425   1.3599   1.3663   1.3723   1.3764   1.3895   1.3966   1.4036
  1.4081   1.4114   1.4163   1.4215   1.4345   1.4401   1.4439   1.4527
  1.4586   1.4743   1.4792   1.4829   1.4877   1.4947   1.4971   1.5007
  1.5045   1.5085   1.5109   1.5158   1.5208   1.5264   1.5335   1.5379
  1.5422   1.5435   1.5488   1.5556   1.5629   1.5676   1.5739   1.5790
  1.5870   1.5939   1.6005   1.6060   1.6212   1.6243   1.6324   1.6332
  1.6450   1.6504   1.6520   1.6589   1.6649   1.6701   1.6768   1.6873
  1.6946   1.6991   1.7105   1.7129   1.7159   1.7241   1.7346   1.7380
  1.7559   1.7606   1.7622   1.7727   1.7797   1.7982   1.8027   1.8103
  1.8150   1.8220   1.8328   1.8424   1.8535   1.8644   1.8711   1.8749
  1.8806   1.8976   1.9002   1.9061   1.9108   1.9237   1.9305   1.9423
  1.9490   1.9609   1.9653   1.9729   1.9870   1.9891   1.9988   2.0031
  2.0046   2.0188   2.0197   2.0266   2.0358   2.0405   2.0533   2.0640
  2.0671   2.0731   2.0865   2.0926   2.1023   2.1060   2.1225   2.1315
  2.1327   2.1490   2.1620   2.1639   2.1716   2.1807   2.1869   2.1902
  2.1948   2.2088   2.2212   2.2265   2.2355   2.2367   2.2428   2.2447
  2.2549   2.2636   2.2667   2.2740   2.2772   2.2872   2.2965   2.3015
  2.3134   2.3224   2.3248   2.3322   2.3391   2.3483   2.3560   2.3710
  2.3728   2.3848   2.3869   2.3917   2.4034   2.4140   2.4192   2.4231
  2.4334   2.4408   2.4520   2.4619   2.4693   2.4803   2.4846   2.4919
  2.5000   2.5144   2.5169   2.5233   2.5297   2.5432   2.5489   2.5569
  2.5689   2.5780   2.5895   2.5935   2.6031   2.6107   2.6221   2.6243
  2.6336   2.6372   2.6425   2.6445   2.6456   2.6489   2.6573   2.6699
  2.6823   2.6865   2.6898   2.6923   2.7040   2.7073   2.7107   2.7151
  2.7228   2.7315   2.7442   2.7491   2.7542   2.7639   2.7659   2.7714
  2.7797   2.7870   2.7938   2.8025   2.8092   2.8159   2.8213   2.8284
  2.8313   2.8442   2.8511   2.8554   2.8604   2.8681   2.8752   2.8780
  2.8803   2.8906   2.8947   2.9011   2.9124   2.9296   2.9349   2.9506
  2.9565   2.9585   2.9593   2.9729   2.9768   2.9824   2.9905   2.9940
  3.0028   3.0150   3.0185   3.0234   3.0298   3.0338   3.0430   3.0451
  3.0513   3.0631   3.0653   3.0760   3.0820   3.0917   3.0947   3.1001
  3.1062   3.1111   3.1139   3.1185   3.1273   3.1387   3.1407   3.1435
  3.1473   3.1511   3.1586   3.1629   3.1662   3.1720   3.1781   3.1830
  3.1915   3.1939   3.2005   3.2081   3.2160   3.2173   3.2205   3.2237
  3.2281   3.2385   3.2451   3.2481   3.2537   3.2579   3.2654   3.2664
  3.2697   3.2745   3.2802   3.2831   3.2921   3.2971   3.3043   3.3074
  3.3093   3.3133   3.3198   3.3201   3.3324   3.3391   3.3408   3.3465
  3.3471   3.3508   3.3551   3.3582   3.3636   3.3693   3.3704   3.3762
  3.3805   3.3864   3.3872   3.3961   3.3984   3.4040   3.4050   3.4069
  3.4111   3.4178   3.4264   3.4297   3.4307   3.4381   3.4427   3.4455
  3.4475   3.4525   3.4600   3.4648   3.4707   3.4723   3.4755   3.4805
  3.4877   3.4914   3.4957   3.5038   3.5095   3.5150   3.5270   3.5313
  3.5377   3.5441   3.5497   3.5559   3.5578   3.5629   3.5696   3.5786
  3.5876   3.5930   3.5954   3.5968   3.5989   3.6034   3.6126   3.6158
  3.6176   3.6241   3.6295   3.6339   3.6387   3.6440   3.6533   3.6588
  3.6628   3.6678   3.6731   3.6809   3.6826   3.6831   3.6910   3.7018
  3.7035   3.7054   3.7129   3.7205   3.7232   3.7264   3.7328   3.7394
  3.7458   3.7507   3.7558   3.7590   3.7687   3.7702   3.7818   3.7844
  3.7895   3.7945   3.7989   3.8020   3.8064   3.8089   3.8117   3.8173
  3.8213   3.8298   3.8427   3.8458   3.8505   3.8530   3.8578   3.8626
  3.8690   3.8723   3.8805   3.8846   3.8914   3.8924   3.8982   3.9102
  3.9163   3.9259   3.9311   3.9395   3.9470   3.9502   3.9548   3.9616
  3.9720   3.9780   3.9838   3.9912   3.9993   4.0043   4.0145   4.0233
  4.0271   4.0384   4.0431   4.0517   4.0592   4.0670   4.0672   4.0722
  4.0769   4.0832   4.0994   4.1018   4.1052   4.1265   4.1290   4.1350
  4.1403   4.1458   4.1475   4.1613   4.1656   4.1666   4.1700   4.1728
  4.1794   4.1879   4.1954   4.2029   4.2142   4.2168   4.2223   4.2383
  4.2425   4.2480   4.2527   4.2667   4.2715   4.2880   4.3016   4.3091
  4.3224   4.3364   4.3386   4.3417   4.3462   4.3553   4.3582   4.3611
  4.3665   4.3731   4.3893   4.3923   4.4025   4.4076   4.4151   4.4192
  4.4240   4.4261   4.4301   4.4361   4.4422   4.4502   4.4546   4.4585
  4.4690   4.4786   4.4835   4.4974   4.5135   4.5192   4.5274   4.5321
  4.5444   4.5471   4.5559   4.5675   4.5735   4.5774   4.5809   4.5899
  4.6008   4.6067   4.6127   4.6224   4.6417   4.6435   4.6544   4.6582
  4.6604   4.6748   4.6805   4.6920   4.7035   4.7092   4.7260   4.7377
  4.7482   4.7585   4.7665   4.7770   4.7823   4.8005   4.8016   4.8100
  4.8221   4.8347   4.8440   4.8492   4.8578   4.8716   4.8866   4.8903
  4.8996   4.9269   4.9294   4.9397   4.9566   4.9610   4.9690   4.9727
  4.9813   4.9967   5.0084   5.0136   5.0174   5.0362   5.0452   5.0528
  5.0723   5.0876   5.0948   5.0992   5.1291   5.1423   5.1601   5.1675
  5.1817   5.1921   5.1976   5.2076   5.2231   5.2313   5.2412   5.2484
  5.2564   5.2576   5.2755   5.2924   5.2978   5.3091   5.3167   5.3268
  5.3394   5.3507   5.3584   5.3642   5.3700   5.3836   5.3984   5.4031
  5.4089   5.4130   5.4257   5.4378   5.4426   5.4606   5.4847   5.5027
  5.5129   5.5155   5.5208   5.5348   5.5631   5.5684   5.5796   5.5838
  5.5986   5.6109   5.6210   5.6378   5.6396   5.6603   5.6700   5.6906
  5.7091   5.7279   5.7491   5.7558   5.7667   5.8069   5.8143   5.8391
  5.8595   5.8801   5.9003   5.9163   5.9286   5.9487   5.9850   6.0123
  6.0407   6.0443   6.0545   6.1337   6.1500   6.1607   6.1753   6.1766
  6.1817   6.2035   6.2287   6.2485   6.2596   6.2609   6.2705   6.2832
  6.2905   6.3044   6.3569   6.3816   6.4456   6.4495   6.5039   6.5407
  6.5481   6.5709   6.6034   6.6481   6.6631   6.6706   6.7138   6.7462
  6.8098   6.8302   6.8566   6.8594   6.9006   6.9776   7.1336   7.1462
  7.2033   7.2046   7.2236   7.2402   7.3096   7.3278   7.3415   7.3624
  7.3629   7.4050   7.4127   7.4848   7.4874   7.4974   7.5197   7.5498
  7.6150   7.7406   7.7723   7.7893   7.8031   7.8983   7.9274   7.9550
  7.9700   8.1332   8.2531   8.4650   8.9215   9.0279   9.3628   9.4831
  9.6712  10.2415  11.2004  11.4393  11.7600  11.9730  12.1254  12.3778
 12.4310  12.5043  12.9584  12.9751  13.0099  13.3666  13.3875  13.4984
 13.7656  13.8561  13.9207  13.9702  14.0583  14.3161  14.9148  15.2266
 --------------------------------------------------------------
 
          Ground-State Mulliken Net Atomic Charges

     Atom                 Charge (a.u.)
  ----------------------------------------
      1 C                    -0.070564
      2 C                    -0.255721
      3 S                    -0.135545
      4 C                    -0.049742
      5 H                     0.193992
      6 C                    -0.050551
      7 C                     0.217779
      8 C                     0.228343
      9 C                    -0.073501
     10 C                    -0.025087
     11 O                    -0.334707
     12 O                    -0.343505
     13 C                    -0.082856
     14 H                     0.119708
     15 H                     0.091779
     16 H                     0.093043
     17 C                    -0.088649
     18 H                     0.123918
     19 H                     0.091562
     20 H                     0.092540
     21 C                    -0.330077
     22 S                    -0.096928
     23 C                     0.119645
     24 H                     0.199402
     25 C                    -0.068464
     26 S                     0.072030
     27 C                    -0.164779
     28 C                    -0.035571
     29 C                    -0.088679
     30 S                     0.035908
     31 C                    -0.152204
     32 C                     0.395944
     33 F                    -0.206595
     34 C                     0.446463
     35 O                    -0.460414
     36 O                    -0.300698
     37 C                    -0.058411
     38 H                     0.121509
     39 H                     0.095350
     40 H                     0.095054
     41 H                     0.218906
     42 H                     0.117797
     43 H                     0.115529
     44 H                     0.187044
  ----------------------------------------
  Sum of atomic charges =     0.000000

 -----------------------------------------------------------------
                    Cartesian Multipole Moments
 -----------------------------------------------------------------
    Charge (ESU x 10^10)
                 0.0000
    Dipole Moment (Debye)
         X       3.1561      Y       1.8593      Z       2.5359
       Tot       4.4552
    Quadrupole Moments (Debye-Ang)
        XX    -184.7608     XY       6.9946     YY    -182.4392
        XZ     -14.8969     YZ      -0.6333     ZZ    -194.1403
    Octopole Moments (Debye-Ang^2)
       XXX    -374.2539    XXY     433.6868    XYY    -108.8578
       YYY    1112.4447    XXZ     124.3852    XYZ      12.3332
       YYZ      98.9446    XZZ     -64.2686    YZZ     455.5453
       ZZZ     500.3881
    Hexadecapole Moments (Debye-Ang^3)
      XXXX   -2624.7534   XXXY   -1040.5293   XXYY   -3814.6084
      XYYY   -1121.5463   YYYY  -18521.0241   XXXZ    1501.7664
      XXYZ     370.6406   XYYZ     253.8749   YYYZ    1720.0095
      XXZZ   -1250.8334   XYZZ     -48.3011   YYZZ   -4352.0076
      XZZZ    1111.2927   YZZZ    1194.0124   ZZZZ   -7291.6338
 -----------------------------------------------------------------
 Total job time:  329.41s(wall), 10746.85s(cpu) 
 Tue Jan  9 09:59:22 2024

        *************************************************************
        *                                                           *
        *  Thank you very much for using Q-Chem.  Have a nice day.  *
        *                                                           *
        *************************************************************


0 sent ACK to 0 
now end server 0 ... 
cleanup process ... done
remove work dirs ./qchem3750042.0 -- ./qchem3750042.0
rm -rf ./qchem3750042.0
rm -rf ./qchem3750042
