You are running Q-Chem version: 5.4.0

#
# job setting
#
local host:  exp-14-16
current dir: /home/rramji/project-csd799/aromodel/ptb7fout-qchem/hydrogenated-rotation-run
input file:  Dimethoxy_Benzodithiophene_Phi_30_Theta_150_Methylcarbonyl_3_Fluoro_Thienothiophene_Hydrogenated.qcin
output file: 
nprocs     : 1
nthreads   : 64
#
# qchem installation setting
#
QC:          /cm/shared/apps/spack/cpu/opt/spack/linux-centos8-zen2/gcc-10.2.0/qchem-5.4-akfmr7b3t57bfs6qan3padb2wnb2i7cl
QCAUX:       /cm/shared/apps/spack/cpu/opt/spack/linux-centos8-zen2/gcc-10.2.0/qchem-5.4-akfmr7b3t57bfs6qan3padb2wnb2i7cl/qcaux
QCPROG:      /cm/shared/apps/spack/cpu/opt/spack/linux-centos8-zen2/gcc-10.2.0/qchem-5.4-akfmr7b3t57bfs6qan3padb2wnb2i7cl/exe/qcprog.exe
QCPROG_S:    /cm/shared/apps/spack/cpu/opt/spack/linux-centos8-zen2/gcc-10.2.0/qchem-5.4-akfmr7b3t57bfs6qan3padb2wnb2i7cl/exe/qcprog.exe_s
PARALLEL:    -DPARALLEL
QCMPI:       mpich
#
# qchem directory setting
#
qcrun:       qchem1497837
QCSCRATCH:   .
QCLOCALSCR:  
QCTMPDIR:    .
QCFILEPREF:  ./qchem1497837
QCSAVEDIR:   
workdirs:    ./qchem1497837
workdir0:    ./qchem1497837
partmpdirs =  
#
# parallel setting
#
QCRSH:           ssh
QCMPI:           mpich
QCMPIRUN:        /cm/shared/apps/spack/cpu/opt/spack/linux-centos8-zen2/gcc-10.2.0/qchem-5.4-akfmr7b3t57bfs6qan3padb2wnb2i7cl/bin/mpi/mpirun_qchem
QCMACHINEFILE:   ./qchem1497837/hostfile
exp-14-16

#
# env setting
#
exported envs:   QC QCAUX QCSCRATCH QCRUNNAME QCFILEPREF QCPROG QCPROG_S GUIFILE

Running Job 1 of 1 Dimethoxy_Benzodithiophene_Phi_30_Theta_150_Methylcarbonyl_3_Fluoro_Thienothiophene_Hydrogenated.qcin
qchem Dimethoxy_Benzodithiophene_Phi_30_Theta_150_Methylcarbonyl_3_Fluoro_Thienothiophene_Hydrogenated.qcin_1497837.0 ./qchem1497837/ 1
/cm/shared/apps/spack/cpu/opt/spack/linux-centos8-zen2/gcc-10.2.0/qchem-5.4-akfmr7b3t57bfs6qan3padb2wnb2i7cl/bin/mpi/mpirun_qchem -machinefile ./qchem1497837/hostfile -np 1 /cm/shared/apps/spack/cpu/opt/spack/linux-centos8-zen2/gcc-10.2.0/qchem-5.4-akfmr7b3t57bfs6qan3padb2wnb2i7cl/exe/qcprog.exe Dimethoxy_Benzodithiophene_Phi_30_Theta_150_Methylcarbonyl_3_Fluoro_Thienothiophene_Hydrogenated.qcin_1497837.0 ./qchem1497837/

Process 0 of 1 is on exp-14-16 - thread support 0
initial socket setup ...start
initial socket setup ...done 
now start server 0 ... 
                  Welcome to Q-Chem
     A Quantum Leap Into The Future Of Chemistry


 Q-Chem 5.4, Q-Chem, Inc., Pleasanton, CA (2021)

 License issued to: University of California, San Diego (site)

 E. Epifanovsky,  A. T. B. Gilbert,  Xintian Feng,  Joonho Lee,  Yuezhi Mao,  
 N. Mardirossian,  P. Pokhilko,  A. White,  M. Wormit,  M. P. Coons,  
 A. L. Dempwolff,  Zhengting Gan,  D. Hait,  P. R. Horn,  L. D. Jacobson,  
 I. Kaliman,  J. Kussmann,  A. W. Lange,  Ka Un Lao,  D. S. Levine,  Jie Liu,  
 S. C. McKenzie,  A. F. Morrison,  K. Nanda,  F. Plasser,  D. R. Rehn,  
 M. L. Vidal,  Zhi-Qiang You,  Ying Zhu,  B. Alam,  B. Albrecht,  
 A. Aldossary,  E. Alguire,  J. H. Andersen,  D. Barton,  K. Begam,  A. Behn,  
 Y. A. Bernard,  E. J. Berquist,  H. Burton,  A. Carreras,  K. Carter-Fenk,  
 R. Chakraborty,  A. D. Chien,  K. D. Closser,  V. Cofer-Shabica,  
 S. Dasgupta,  Jia Deng,  M. de Wergifosse,  M. Diedenhofen,  Hainam Do,  
 S. Ehlert,  Po-Tung Fang,  S. Fatehi,  Qingguo Feng,  J. Gayvert,  
 Qinghui Ge,  G. Gidofalvi,  M. Goldey,  J. Gomes,  C. Gonzalez-Espinoza,  
 S. Gulania,  A. Gunina,  M. W. D. Hanson-Heine,  P. H. P. Harbach,  
 A. W. Hauser,  M. F. Herbst,  M. Hernandez Vera,  M. Hodecker,  
 Z. C. Holden,  S. Houck,  Xunkun Huang,  Kerwin Hui,  B. C. Huynh,  
 M. Ivanov,  Hyunjun Ji,  Hanjie Jiang,  B. Kaduk,  S. Kaehler,  
 K. Khistyaev,  Jaehoon Kim,  P. Klunzinger,  Z. Koczor-Benda,  
 Joong Hoon Koh,  D. Kosenkov,  L. Koulias,  T. Kowalczyk,  C. M. Krauter,  
 K. Kue,  A. Kunitsa,  T. Kus,  A. Landau,  K. V. Lawler,  D. Lefrancois,  
 S. Lehtola,  Rain Li,  Yi-Pei Li,  Jiashu Liang,  M. Liebenthal,  
 Hung-Hsuan Lin,  You-Sheng Lin,  Fenglai Liu,  Kuan-Yu Liu,  
 M. Loipersberger,  A. Luenser,  A. Manjanath,  P. Manohar,  E. Mansoor,  
 S. F. Manzer,  Shan-Ping Mao,  A. V. Marenich,  T. Markovich,  S. Mason,  
 S. A. Maurer,  P. F. McLaughlin,  M. F. S. J. Menger,  J.-M. Mewes,  
 S. A. Mewes,  P. Morgante,  J. W. Mullinax,  T. S. Nguyen-Beck,  
 K. J. Oosterbaan,  G. Paran,  Alexander C. Paul,  Suranjan K. Paul,  
 F. Pavosevic,  Zheng Pei,  S. Prager,  E. I. Proynov,  E. Ramos,  B. Rana,  
 A. E. Rask,  A. Rettig,  R. M. Richard,  F. Rob,  E. Rossomme,  T. Scheele,  
 M. Scheurer,  M. Schneider,  N. Sergueev,  S. M. Sharada,  W. Skomorowski,  
 D. W. Small,  C. J. Stein,  Yu-Chuan Su,  E. J. Sundstrom,  Zhen Tao,  
 J. Thirman,  T. Tsuchimochi,  N. M. Tubman,  S. P. Veccham,  O. Vydrov,  
 J. Wenzel,  J. Witte,  A. Yamada,  Kun Yao,  S. Yeganeh,  S. R. Yost,  
 A. Zech,  Igor Ying Zhang,  Xing Zhang,  Yu Zhang,  D. Zuev,  
 A. Aspuru-Guzik,  A. T. Bell,  N. A. Besley,  K. B. Bravaya,  B. R. Brooks,  
 D. Casanova,  Jeng-Da Chai,  S. Coriani,  C. J. Cramer,  
 A. E. DePrince, III,  R. A. DiStasio Jr.,  A. Dreuw,  B. D. Dunietz,  
 T. R. Furlani,  W. A. Goddard III,  S. Grimme,  S. Hammes-Schiffer,  
 T. Head-Gordon,  W. J. Hehre,  Chao-Ping Hsu,  T.-C. Jagau,  Yousung Jung,  
 A. Klamt,  Jing Kong,  D. S. Lambrecht,  WanZhen Liang,  N. J. Mayhall,  
 C. W. McCurdy,  J. B. Neaton,  C. Ochsenfeld,  J. A. Parkhill,  R. Peverati,  
 V. A. Rassolov,  Yihan Shao,  L. V. Slipchenko,  T. Stauch,  R. P. Steele,  
 J. E. Subotnik,  A. J. W. Thom,  A. Tkatchenko,  D. G. Truhlar,  
 T. Van Voorhis,  T. A. Wesolowski,  K. B. Whaley,  H. L. Woodcock III,  
 P. M. Zimmerman,  S. Faraji,  P. M. W. Gill,  M. Head-Gordon,  
 J. M. Herbert,  A. I. Krylov

 Contributors to earlier versions of Q-Chem not listed above: 
 R. D. Adamson,  B. Austin,  R. Baer,  J. Baker,  G. J. O. Beran,  
 K. Brandhorst,  S. T. Brown,  E. F. C. Byrd,  A. K. Chakraborty,  
 G. K. L. Chan,  Chun-Min Chang,  Yunqing Chen,  C.-L. Cheng,  
 Siu Hung Chien,  D. M. Chipman,  D. L. Crittenden,  H. Dachsel,  
 R. J. Doerksen,  A. D. Dutoi,  R. G. Edgar,  J. Fosso-Tande,  
 L. Fusti-Molnar,  D. Ghosh,  A. Ghysels,  A. Golubeva-Zadorozhnaya,  
 J. Gonthier,  M. S. Gordon,  S. R. Gwaltney,  G. Hawkins,  J. E. Herr,  
 A. Heyden,  S. Hirata,  E. G. Hohenstein,  G. Kedziora,  F. J. Keil,  
 C. Kelley,  Jihan Kim,  R. A. King,  R. Z. Khaliullin,  P. P. Korambath,  
 W. Kurlancheek,  A. Laurent,  A. M. Lee,  M. S. Lee,  S. V. Levchenko,  
 Ching Yeh Lin,  D. Liotard,  E. Livshits,  R. C. Lochan,  I. Lotan,  
 L. A. Martinez-Martinez,  P. E. Maslen,  N. Nair,  D. P. O'Neill,  
 D. Neuhauser,  E. Neuscamman,  C. M. Oana,  R. Olivares-Amaya,  R. Olson,  
 T. M. Perrine,  B. Peters,  P. A. Pieniazek,  A. Prociuk,  Y. M. Rhee,  
 J. Ritchie,  M. A. Rohrdanz,  E. Rosta,  N. J. Russ,  H. F. Schaefer III,  
 M. W. Schmidt,  N. E. Schultz,  S. Sharma,  N. Shenvi,  C. D. Sherrill,  
 A. C. Simmonett,  A. Sodt,  T. Stein,  D. Stuck,  K. S. Thanthiriwatte,  
 V. Vanovschi,  L. Vogt,  Tao Wang,  A. Warshel,  M. A. Watson,  
 C. F. Williams,  Q. Wu,  X. Xu,  Jun Yang,  W. Zhang,  Yan Zhao

 Please cite Q-Chem as follows:
 Y. Shao et al., Mol. Phys. 113, 184-215 (2015)
 DOI: 10.1080/00268976.2014.952696

 Q-Chem 5.4.0 for Intel X86 EM64T Linux

 Parts of Q-Chem use Armadillo 9.800.1 (Horizon Scraper).
 http://arma.sourceforge.net/

 Q-Chem begins on Tue Jan  9 11:09:50 2024  

 Host: 
0

     Scratch files written to ./qchem1497837//
 May1621 |scratch|qcdevops|jenkins|workspace|build_RNUM    
 Parallel job on  1  processors
 Processing $rem in /cm/shared/apps/spack/cpu/opt/spack/linux-centos8-zen2/gcc-10.2.0/qchem-5.4-akfmr7b3t57bfs6qan3padb2wnb2i7cl/config/preferences:
 Processing $rem in /home/rramji/.qchemrc:
 Symmetry turned off for PCM/SM12/SMD calculation
 Core orbitals will be frozen

 Checking the input file for inconsistencies... 	...done.

 Q-Chem warning in module forms1/BasisType.C, line 2236:

 You are not using the predefined 5D/6D in this basis set.


--------------------------------------------------------------
User input:
--------------------------------------------------------------
$molecule
0 1
C	-0.123330	-8.517702	-0.296276
C	0.421494	-7.641575	0.631143
S	-0.911611	-7.638634	-1.628795
C	0.233291	-6.264785	0.305097
H	0.950737	-7.966081	1.535988
C	-0.478557	-6.072714	-0.931114
C	-0.781346	-4.787049	-1.405737
C	0.664542	-5.162801	1.097747
C	0.357854	-3.874817	0.624993
C	-0.352278	-3.683952	-0.613970
O	1.348709	-5.499772	2.226300
O	-1.469658	-4.459055	-2.538827
C	-1.419319	-5.329063	-3.663102
H	-1.828237	-4.755694	-4.516756
H	-2.043793	-6.238095	-3.520769
H	-0.377021	-5.637262	-3.895546
C	1.463351	-4.572261	3.298492
H	1.878237	-5.139743	4.152945
H	0.475176	-4.153131	3.585804
H	2.159469	-3.739531	3.058230
C	-0.540664	-2.306654	-0.935761
S	0.780808	-2.306501	1.330550
C	0.000000	-1.435185	0.000000
H	-1.066946	-1.978138	-1.840780
C	0.000000	0.000000	0.000000
S	0.452792	0.783312	1.507541
C	1.238397	2.145556	0.718873
C	0.452875	0.782898	-1.067872
C	1.145945	1.987956	-0.686410
S	0.333556	0.570531	-2.805516
C	1.204604	2.090290	-3.054530
C	1.556633	2.704929	-1.862551
F	2.220797	3.864903	-1.819088
C	1.430252	2.477345	-4.456084
O	1.052242	1.806648	-5.406510
O	2.099050	3.650663	-4.569225
C	2.351116	4.076808	-5.916207
H	2.895579	5.033821	-5.833064
H	1.401015	4.217390	-6.470168
H	2.962391	3.327969	-6.459293
H	1.699302	2.946693	1.306486
H	-0.900433	-9.143623	0.158021
H	0.648903	-9.149441	-0.750822
H	-0.931540	-1.443175	0.546415
$end

$rem
JOBTYPE		SP
EXCHANGE	HF
CORRELATION	pRIMP2
BASIS		cc-pvtz
METHOD		rimp2
AUX_BASIS	rimp2-cc-pvtz
SOLVENT_METHOD	PCM
PURECART	11111
SYMMETRY	false
MEM_TOTAL	110000
SCF_CONVERGENCE = 6
THRESH=10
GUI = 2
$end



$solvent
dielectric 4.90
$end
--------------------------------------------------------------
 ----------------------------------------------------------------
             Standard Nuclear Orientation (Angstroms)
    I     Atom           X                Y                Z
 ----------------------------------------------------------------
    1      C      -0.1233300000    -8.5177020000    -0.2962760000
    2      C       0.4214940000    -7.6415750000     0.6311430000
    3      S      -0.9116110000    -7.6386340000    -1.6287950000
    4      C       0.2332910000    -6.2647850000     0.3050970000
    5      H       0.9507370000    -7.9660810000     1.5359880000
    6      C      -0.4785570000    -6.0727140000    -0.9311140000
    7      C      -0.7813460000    -4.7870490000    -1.4057370000
    8      C       0.6645420000    -5.1628010000     1.0977470000
    9      C       0.3578540000    -3.8748170000     0.6249930000
   10      C      -0.3522780000    -3.6839520000    -0.6139700000
   11      O       1.3487090000    -5.4997720000     2.2263000000
   12      O      -1.4696580000    -4.4590550000    -2.5388270000
   13      C      -1.4193190000    -5.3290630000    -3.6631020000
   14      H      -1.8282370000    -4.7556940000    -4.5167560000
   15      H      -2.0437930000    -6.2380950000    -3.5207690000
   16      H      -0.3770210000    -5.6372620000    -3.8955460000
   17      C       1.4633510000    -4.5722610000     3.2984920000
   18      H       1.8782370000    -5.1397430000     4.1529450000
   19      H       0.4751760000    -4.1531310000     3.5858040000
   20      H       2.1594690000    -3.7395310000     3.0582300000
   21      C      -0.5406640000    -2.3066540000    -0.9357610000
   22      S       0.7808080000    -2.3065010000     1.3305500000
   23      C       0.0000000000    -1.4351850000     0.0000000000
   24      H      -1.0669460000    -1.9781380000    -1.8407800000
   25      C       0.0000000000     0.0000000000     0.0000000000
   26      S       0.4527920000     0.7833120000     1.5075410000
   27      C       1.2383970000     2.1455560000     0.7188730000
   28      C       0.4528750000     0.7828980000    -1.0678720000
   29      C       1.1459450000     1.9879560000    -0.6864100000
   30      S       0.3335560000     0.5705310000    -2.8055160000
   31      C       1.2046040000     2.0902900000    -3.0545300000
   32      C       1.5566330000     2.7049290000    -1.8625510000
   33      F       2.2207970000     3.8649030000    -1.8190880000
   34      C       1.4302520000     2.4773450000    -4.4560840000
   35      O       1.0522420000     1.8066480000    -5.4065100000
   36      O       2.0990500000     3.6506630000    -4.5692250000
   37      C       2.3511160000     4.0768080000    -5.9162070000
   38      H       2.8955790000     5.0338210000    -5.8330640000
   39      H       1.4010150000     4.2173900000    -6.4701680000
   40      H       2.9623910000     3.3279690000    -6.4592930000
   41      H       1.6993020000     2.9466930000     1.3064860000
   42      H      -0.9004330000    -9.1436230000     0.1580210000
   43      H       0.6489030000    -9.1494410000    -0.7508220000
   44      H      -0.9315400000    -1.4431750000     0.5464150000
 ----------------------------------------------------------------
 Nuclear Repulsion Energy =        3357.18241956 hartrees
 There are      120 alpha and      120 beta electrons
 Requested basis set is cc-pVTZ
 There are 388 shells and 1096 basis functions

 Total QAlloc Memory Limit 110000 MB
 Mega-Array Size       188 MB
 MEM_STATIC part       192 MB
 Discretize the solute cavity surface with Lebedev spheres
	Using 110 Lebedev grid points for each H atom
	Using 194 Lebedev grid points for other atoms
	Atomic van der Waals radii will be scaled by 1.20
 Remove points where switching function is < 1.0e-08
 Keep 2955 surface tesserae and discard 4321 interior tesserae
 Molecular Surface Area = 438.537 Angst**2
 Requested basis set is rimp2-cc-pVTZ
 There are 853 shells and 2963 basis functions
 A cutoff of  1.0D-10 yielded  33230 shell pairs
 There are    250658 function pairs (    324151 Cartesian)
 Smallest overlap matrix eigenvalue = 2.18E-05

 Scale SEOQF with 1.000000e-01/1.000000e-02/1.000000e-02

 Standard Electronic Orientation quadrupole field applied
 Nucleus-field energy     =     0.0000000263 hartrees
 Guess from superposition of atomic densities
 Warning:  Energy on first SCF cycle will be non-variational
 SAD guess density has 240.000000 electrons

 -----------------------------------------------------------------------
  General SCF calculation program by
  Eric Jon Sundstrom, Paul Horn, Yuezhi Mao, Dmitri Zuev, Alec White,
  David Stuck, Shaama M.S., Shane Yost, Joonho Lee, David Small,
  Daniel Levine, Susi Lehtola, Hugh Burton, Evgeny Epifanovsky,
  Bang C. Huynh
 -----------------------------------------------------------------------
 Hartree-Fock
 using 64 threads for integral computing
 -------------------------------------------------------
 OpenMP Integral computing Module                
 Release: version 1.0, May 2013, Q-Chem Inc. Pittsburgh 
 -------------------------------------------------------
 A restricted SCF calculation will be
 performed using DIIS
 SCF converges when DIIS error is below 1.0e-06
 ---------------------------------------
  Cycle       Energy         DIIS error
 ---------------------------------------
    1   -2767.0525098145      1.75e-02  
    2   -2754.8707825867      1.53e-03  
    3   -2755.2204997833      8.54e-04  
    4   -2755.3071582872      2.56e-04  
    5   -2755.3208441914      7.44e-05  
    6   -2755.3224317441      2.65e-05  
    7   -2755.3228624126      1.40e-05  
    8   -2755.3230075633      5.93e-06  
    9   -2755.3230429608      3.10e-06  
   10   -2755.3230516600      1.60e-06  
   11   -2755.3230545796      8.67e-07  Convergence criterion met
 ---------------------------------------
 SCF time:   CPU 7626.64s  wall 283.00s 

************** Final PCM Free Energy Summary **************
 G_electrostatic  =      -0.02087219 hartree =     -13.09749410 kcal/mol
 G_cavitation     =       0.00000000 hartree =       0.00000000 kcal/mol
 G_dispersion     =       0.00000000 hartree =       0.00000000 kcal/mol
 G_repulsion      =       0.00000000 hartree =       0.00000000 kcal/mol
 --------------------------------------------------
 Non-electrostatic Free Energy =       0.00000000 hartree =       0.00000000 kcal/mol
 Total                         =      -0.02087219 hartree =     -13.09749410 kcal/mol
 --------------------------------------------------
 SCF Energy (H0 + V/2)                       =   -2755.32305458 
 Solute Internal Energy (H0)                 =   -2755.30218239 
 Total Free Energy (H0 + V/2 + non-elec)     =   -2755.32305458 hartree
                                             = -1728991.31241333 kcal/mol
***********************************************************

 SCF   energy in the final basis set =    -2755.3230545796
 Total energy in the final basis set =    -2755.3230545796


 --------------------------------------------------------------
  Generalized many-body perturbation theory program
  by Joonho Lee, Fazle Rob, Xintian Feng, Evgeny Epifanovsky

 No regularization used 
 (reg. param. = 0.0000e+00)
  (P|Q)^-1/2 Time:  CPU 219.87 s  wall 3.66 s

 In RI-MP2 calculation: 
 # of frozen core orbitals: 45

 Components of the RIMP2 correlation energy:
        aaaa    correlation energy =        -0.6699049658 a.u.
        abab    correlation energy =        -3.7547709275 a.u.
        bbbb    correlation energy =        -0.6699049658 a.u.
        non-Brillouin singles      =        -0.0000000000 a.u.
        total same-spin energy     =        -1.3398099317 a.u.
        total opposite-spin energy =        -3.7547709275 a.u.

 Total  RIMP2   correlation energy =        -5.0945808592 a.u.
        RIMP2         total energy =     -2760.4176354388 a.u.

 RI-MP2 Energy Time:  CPU 2930.32 s  wall 48.21 s
 
 --------------------------------------------------------------
 
                    Orbital Energies (a.u.)
 --------------------------------------------------------------
 
 Alpha MOs
 -- Occupied --
-92.0154 -91.9999 -91.9798 -91.9572 -26.3439 -20.6153 -20.5868 -20.5867
-20.5619 -11.4100 -11.3833 -11.3124 -11.3088 -11.3067 -11.3001 -11.2987
-11.2979 -11.2892 -11.2858 -11.2848 -11.2830 -11.2821 -11.2784 -11.2742
-11.2715 -11.2576 -11.2566 -11.2487 -11.2346  -9.0144  -9.0000  -8.9820
 -8.9598  -6.6952  -6.6946  -6.6941  -6.6810  -6.6803  -6.6792  -6.6631
 -6.6622  -6.6609  -6.6411  -6.6401  -6.6391  -1.6610  -1.4678  -1.4102
 -1.4085  -1.3705  -1.2312  -1.2025  -1.1730  -1.1385  -1.0994  -1.0460
 -1.0455  -1.0251  -1.0037  -0.9970  -0.9636  -0.9593  -0.9480  -0.9404
 -0.8939  -0.8696  -0.8650  -0.8120  -0.8003  -0.7895  -0.7835  -0.7668
 -0.7571  -0.7374  -0.7258  -0.7153  -0.6978  -0.6881  -0.6851  -0.6803
 -0.6743  -0.6613  -0.6562  -0.6483  -0.6371  -0.6308  -0.6191  -0.6143
 -0.6120  -0.5998  -0.5922  -0.5765  -0.5706  -0.5646  -0.5581  -0.5545
 -0.5445  -0.5342  -0.5305  -0.5290  -0.5139  -0.5087  -0.5076  -0.5004
 -0.4853  -0.4822  -0.4761  -0.4747  -0.4715  -0.4685  -0.4577  -0.4455
 -0.4302  -0.3940  -0.3856  -0.3695  -0.3511  -0.3012  -0.2881  -0.2159
 -- Virtual --
  0.0302   0.0537   0.0963   0.1287   0.1407   0.1438   0.1528   0.1561
  0.1573   0.1598   0.1649   0.1731   0.1819   0.1846   0.1903   0.1942
  0.2019   0.2049   0.2070   0.2148   0.2187   0.2223   0.2238   0.2271
  0.2294   0.2381   0.2400   0.2447   0.2499   0.2588   0.2627   0.2715
  0.2757   0.2940   0.3057   0.3246   0.3290   0.3383   0.3408   0.3471
  0.3512   0.3584   0.3586   0.3682   0.3714   0.3815   0.3837   0.3851
  0.3892   0.3956   0.3967   0.4024   0.4119   0.4146   0.4147   0.4236
  0.4264   0.4295   0.4306   0.4340   0.4394   0.4458   0.4482   0.4527
  0.4541   0.4607   0.4673   0.4718   0.4735   0.4758   0.4808   0.4874
  0.4905   0.4944   0.4989   0.5030   0.5068   0.5083   0.5136   0.5172
  0.5233   0.5267   0.5316   0.5326   0.5370   0.5386   0.5426   0.5487
  0.5522   0.5530   0.5563   0.5628   0.5666   0.5673   0.5724   0.5795
  0.5846   0.5893   0.5936   0.5957   0.5971   0.6047   0.6097   0.6108
  0.6138   0.6141   0.6176   0.6196   0.6220   0.6243   0.6271   0.6297
  0.6301   0.6349   0.6414   0.6473   0.6530   0.6533   0.6559   0.6577
  0.6632   0.6686   0.6737   0.6809   0.6834   0.6871   0.6954   0.6975
  0.7029   0.7077   0.7145   0.7187   0.7218   0.7235   0.7264   0.7321
  0.7406   0.7476   0.7563   0.7624   0.7668   0.7697   0.7807   0.7859
  0.7890   0.7907   0.8015   0.8028   0.8127   0.8172   0.8205   0.8229
  0.8377   0.8397   0.8424   0.8527   0.8594   0.8647   0.8708   0.8742
  0.8754   0.8790   0.8916   0.8933   0.8978   0.9014   0.9064   0.9131
  0.9212   0.9310   0.9328   0.9355   0.9430   0.9438   0.9522   0.9564
  0.9607   0.9663   0.9675   0.9722   0.9765   0.9844   0.9902   0.9924
  0.9975   1.0013   1.0046   1.0091   1.0135   1.0213   1.0239   1.0307
  1.0354   1.0413   1.0434   1.0503   1.0554   1.0605   1.0642   1.0678
  1.0763   1.0794   1.0805   1.0876   1.0963   1.1027   1.1065   1.1078
  1.1154   1.1170   1.1190   1.1240   1.1299   1.1328   1.1397   1.1525
  1.1531   1.1604   1.1663   1.1711   1.1758   1.1770   1.1808   1.1824
  1.1866   1.1891   1.1961   1.1982   1.2044   1.2108   1.2143   1.2174
  1.2222   1.2258   1.2340   1.2412   1.2419   1.2468   1.2511   1.2545
  1.2610   1.2677   1.2689   1.2780   1.2818   1.2843   1.2869   1.2975
  1.2983   1.3017   1.3084   1.3189   1.3224   1.3244   1.3354   1.3404
  1.3479   1.3593   1.3612   1.3699   1.3763   1.3858   1.3903   1.3945
  1.3998   1.4088   1.4099   1.4244   1.4309   1.4317   1.4406   1.4523
  1.4573   1.4743   1.4791   1.4831   1.4854   1.4909   1.4946   1.5013
  1.5054   1.5102   1.5119   1.5218   1.5268   1.5325   1.5345   1.5384
  1.5401   1.5423   1.5490   1.5508   1.5527   1.5626   1.5676   1.5765
  1.5870   1.5926   1.6003   1.6071   1.6183   1.6229   1.6305   1.6378
  1.6417   1.6572   1.6584   1.6606   1.6641   1.6771   1.6790   1.6863
  1.6949   1.6985   1.7060   1.7145   1.7204   1.7254   1.7349   1.7479
  1.7580   1.7628   1.7680   1.7757   1.7829   1.7962   1.8091   1.8127
  1.8153   1.8234   1.8255   1.8425   1.8527   1.8552   1.8727   1.8741
  1.8836   1.8883   1.9012   1.9087   1.9206   1.9236   1.9354   1.9414
  1.9437   1.9484   1.9519   1.9657   1.9738   1.9850   1.9913   2.0023
  2.0047   2.0089   2.0114   2.0220   2.0289   2.0376   2.0427   2.0485
  2.0616   2.0718   2.0894   2.0969   2.1022   2.1091   2.1131   2.1306
  2.1394   2.1569   2.1637   2.1668   2.1769   2.1860   2.1896   2.1949
  2.1964   2.2038   2.2089   2.2122   2.2246   2.2310   2.2333   2.2393
  2.2440   2.2492   2.2521   2.2651   2.2753   2.2819   2.2848   2.2932
  2.3101   2.3114   2.3198   2.3292   2.3370   2.3437   2.3530   2.3586
  2.3613   2.3737   2.3882   2.4016   2.4074   2.4152   2.4161   2.4270
  2.4292   2.4356   2.4513   2.4601   2.4696   2.4815   2.4891   2.4937
  2.5024   2.5058   2.5137   2.5321   2.5399   2.5451   2.5519   2.5537
  2.5666   2.5810   2.5846   2.6008   2.6115   2.6196   2.6232   2.6245
  2.6262   2.6358   2.6392   2.6431   2.6477   2.6496   2.6650   2.6663
  2.6724   2.6823   2.6873   2.6928   2.6988   2.7002   2.7076   2.7189
  2.7221   2.7295   2.7352   2.7418   2.7507   2.7591   2.7703   2.7758
  2.7832   2.7910   2.7916   2.7990   2.8104   2.8114   2.8162   2.8374
  2.8393   2.8481   2.8493   2.8531   2.8582   2.8601   2.8664   2.8766
  2.8818   2.8870   2.8970   2.9034   2.9122   2.9195   2.9313   2.9414
  2.9524   2.9562   2.9588   2.9628   2.9778   2.9830   2.9861   2.9910
  2.9997   3.0131   3.0218   3.0233   3.0270   3.0383   3.0464   3.0474
  3.0494   3.0565   3.0652   3.0730   3.0818   3.0912   3.0934   3.0998
  3.1016   3.1101   3.1109   3.1179   3.1267   3.1278   3.1350   3.1433
  3.1499   3.1510   3.1532   3.1577   3.1623   3.1685   3.1741   3.1804
  3.1869   3.1958   3.1986   3.2038   3.2105   3.2177   3.2224   3.2249
  3.2348   3.2375   3.2437   3.2513   3.2570   3.2583   3.2619   3.2672
  3.2686   3.2758   3.2831   3.2854   3.2887   3.2969   3.3012   3.3047
  3.3086   3.3126   3.3157   3.3181   3.3244   3.3352   3.3386   3.3444
  3.3465   3.3498   3.3528   3.3549   3.3638   3.3656   3.3674   3.3704
  3.3784   3.3841   3.3875   3.3930   3.3960   3.4000   3.4042   3.4071
  3.4123   3.4210   3.4255   3.4298   3.4316   3.4363   3.4422   3.4479
  3.4503   3.4543   3.4610   3.4624   3.4689   3.4723   3.4761   3.4797
  3.4850   3.4893   3.4940   3.5020   3.5051   3.5147   3.5198   3.5303
  3.5384   3.5420   3.5465   3.5503   3.5611   3.5630   3.5671   3.5717
  3.5783   3.5861   3.5894   3.5962   3.6022   3.6069   3.6086   3.6156
  3.6236   3.6254   3.6268   3.6347   3.6373   3.6392   3.6467   3.6547
  3.6602   3.6661   3.6711   3.6729   3.6803   3.6821   3.6927   3.7008
  3.7053   3.7058   3.7073   3.7131   3.7179   3.7244   3.7264   3.7315
  3.7429   3.7477   3.7504   3.7564   3.7627   3.7663   3.7720   3.7785
  3.7828   3.7868   3.7988   3.8031   3.8056   3.8085   3.8111   3.8142
  3.8199   3.8208   3.8316   3.8409   3.8466   3.8497   3.8519   3.8556
  3.8650   3.8705   3.8714   3.8758   3.8842   3.8892   3.8997   3.9043
  3.9182   3.9215   3.9250   3.9320   3.9401   3.9496   3.9530   3.9610
  3.9648   3.9671   3.9675   3.9806   3.9934   3.9943   4.0080   4.0181
  4.0230   4.0357   4.0394   4.0427   4.0478   4.0562   4.0671   4.0687
  4.0689   4.0771   4.0879   4.0921   4.0985   4.1142   4.1187   4.1280
  4.1334   4.1359   4.1482   4.1569   4.1597   4.1639   4.1681   4.1714
  4.1753   4.1828   4.1896   4.1996   4.2127   4.2144   4.2184   4.2382
  4.2471   4.2499   4.2564   4.2622   4.2737   4.2878   4.2999   4.3069
  4.3180   4.3318   4.3371   4.3415   4.3481   4.3518   4.3586   4.3641
  4.3680   4.3693   4.3813   4.3885   4.3976   4.4032   4.4087   4.4126
  4.4173   4.4254   4.4295   4.4320   4.4348   4.4408   4.4490   4.4553
  4.4624   4.4733   4.4920   4.4962   4.5101   4.5122   4.5153   4.5251
  4.5301   4.5484   4.5592   4.5606   4.5656   4.5697   4.5826   4.5859
  4.5887   4.5942   4.6154   4.6227   4.6331   4.6428   4.6508   4.6568
  4.6644   4.6696   4.6783   4.6847   4.6989   4.7037   4.7273   4.7304
  4.7398   4.7480   4.7568   4.7719   4.7809   4.7929   4.7952   4.8158
  4.8220   4.8277   4.8443   4.8502   4.8619   4.8719   4.8752   4.8876
  4.9024   4.9114   4.9295   4.9392   4.9449   4.9579   4.9661   4.9776
  4.9830   4.9981   5.0077   5.0087   5.0167   5.0258   5.0341   5.0485
  5.0566   5.0871   5.0899   5.1127   5.1164   5.1239   5.1589   5.1641
  5.1799   5.1963   5.2014   5.2060   5.2198   5.2286   5.2505   5.2553
  5.2595   5.2613   5.2705   5.2908   5.2932   5.3134   5.3187   5.3262
  5.3298   5.3487   5.3524   5.3615   5.3677   5.3903   5.3966   5.4033
  5.4112   5.4206   5.4259   5.4434   5.4475   5.4847   5.4995   5.5020
  5.5105   5.5204   5.5261   5.5430   5.5655   5.5756   5.5800   5.5865
  5.5993   5.6090   5.6139   5.6211   5.6454   5.6618   5.6734   5.6914
  5.6972   5.7398   5.7532   5.7639   5.7704   5.8071   5.8153   5.8441
  5.8591   5.8785   5.9023   5.9138   5.9286   5.9553   5.9873   6.0183
  6.0394   6.0418   6.0797   6.1262   6.1501   6.1553   6.1718   6.1766
  6.1816   6.1956   6.2374   6.2428   6.2540   6.2610   6.2699   6.2832
  6.2876   6.2948   6.3446   6.3869   6.4435   6.4496   6.4801   6.5395
  6.5478   6.5659   6.6040   6.6476   6.6611   6.6706   6.7125   6.7456
  6.8071   6.8297   6.8555   6.8589   6.8985   6.9776   7.1323   7.1449
  7.2035   7.2058   7.2226   7.2400   7.3093   7.3286   7.3413   7.3627
  7.3635   7.4049   7.4128   7.4851   7.4870   7.4971   7.5240   7.5503
  7.6166   7.7372   7.7724   7.7893   7.8030   7.8992   7.9275   7.9534
  7.9717   8.1347   8.2509   8.5313   8.9214   9.0257   9.3625   9.4862
  9.6744  10.2460  11.1875  11.4268  11.7568  11.9267  12.1235  12.3749
 12.4248  12.5082  12.9289  13.0049  13.0555  13.2699  13.3853  13.4858
 13.6481  13.7771  13.8723  13.9346  14.0317  14.3078  14.8840  15.2132
 --------------------------------------------------------------
 
          Ground-State Mulliken Net Atomic Charges

     Atom                 Charge (a.u.)
  ----------------------------------------
      1 C                    -0.069774
      2 C                    -0.267371
      3 S                    -0.137398
      4 C                    -0.043215
      5 H                     0.192417
      6 C                    -0.053437
      7 C                     0.223169
      8 C                     0.220112
      9 C                    -0.076394
     10 C                    -0.050911
     11 O                    -0.334643
     12 O                    -0.344028
     13 C                    -0.082644
     14 H                     0.120605
     15 H                     0.091957
     16 H                     0.093022
     17 C                    -0.088125
     18 H                     0.123856
     19 H                     0.091981
     20 H                     0.089641
     21 C                    -0.268815
     22 S                    -0.081953
     23 C                     0.068443
     24 H                     0.206981
     25 C                    -0.093367
     26 S                     0.075012
     27 C                    -0.173835
     28 C                     0.045328
     29 C                    -0.115180
     30 S                     0.008893
     31 C                    -0.158172
     32 C                     0.402249
     33 F                    -0.206340
     34 C                     0.445767
     35 O                    -0.460593
     36 O                    -0.300922
     37 C                    -0.058453
     38 H                     0.121565
     39 H                     0.095134
     40 H                     0.095306
     41 H                     0.219243
     42 H                     0.116353
     43 H                     0.114128
     44 H                     0.204407
  ----------------------------------------
  Sum of atomic charges =     0.000000

 -----------------------------------------------------------------
                    Cartesian Multipole Moments
 -----------------------------------------------------------------
    Charge (ESU x 10^10)
                 0.0000
    Dipole Moment (Debye)
         X       1.0176      Y       3.0098      Z       3.3354
       Tot       4.6064
    Quadrupole Moments (Debye-Ang)
        XX    -197.1541     XY       5.2207     YY    -181.7829
        XZ      -0.2209     YZ      -9.8034     ZZ    -188.0033
    Octopole Moments (Debye-Ang^2)
       XXX    -252.3680    XXY     416.3167    XYY     -43.8046
       YYY    1049.4642    XXZ     177.9811    XYZ     -43.1005
       YYZ     165.1373    XZZ     -39.6846    YZZ     402.5802
       ZZZ     599.0548
    Hexadecapole Moments (Debye-Ang^3)
      XXXX   -1633.1074   XXXY    -967.6484   XXYY   -4017.9711
      XYYY   -1058.9648   YYYY  -19936.4692   XXXZ     267.1192
      XXYZ     199.4739   XYYZ      31.3686   YYYZ     441.7036
      XXZZ   -1295.5455   XYZZ     -54.7720   YYZZ   -4161.8905
      XZZZ     163.2867   YZZZ     412.4522   ZZZZ   -7123.6979
 -----------------------------------------------------------------
 Total job time:  336.46s(wall), 10694.69s(cpu) 
 Tue Jan  9 11:15:27 2024

        *************************************************************
        *                                                           *
        *  Thank you very much for using Q-Chem.  Have a nice day.  *
        *                                                           *
        *************************************************************


0 sent ACK to 0 
now end server 0 ... 
cleanup process ... done
remove work dirs ./qchem1497837.0 -- ./qchem1497837.0
rm -rf ./qchem1497837.0
rm -rf ./qchem1497837
