You are running Q-Chem version: 5.4.0

#
# job setting
#
local host:  exp-3-51
current dir: /home/rramji/project-csd799/aromodel/ptb7fout-qchem/hydrogenated-rotation-run
input file:  Dimethoxy_Benzodithiophene_Phi_15_Theta_190_Methylcarbonyl_3_Fluoro_Thienothiophene_Hydrogenated.qcin
output file: 
nprocs     : 1
nthreads   : 64
#
# qchem installation setting
#
QC:          /cm/shared/apps/spack/cpu/opt/spack/linux-centos8-zen2/gcc-10.2.0/qchem-5.4-akfmr7b3t57bfs6qan3padb2wnb2i7cl
QCAUX:       /cm/shared/apps/spack/cpu/opt/spack/linux-centos8-zen2/gcc-10.2.0/qchem-5.4-akfmr7b3t57bfs6qan3padb2wnb2i7cl/qcaux
QCPROG:      /cm/shared/apps/spack/cpu/opt/spack/linux-centos8-zen2/gcc-10.2.0/qchem-5.4-akfmr7b3t57bfs6qan3padb2wnb2i7cl/exe/qcprog.exe
QCPROG_S:    /cm/shared/apps/spack/cpu/opt/spack/linux-centos8-zen2/gcc-10.2.0/qchem-5.4-akfmr7b3t57bfs6qan3padb2wnb2i7cl/exe/qcprog.exe_s
PARALLEL:    -DPARALLEL
QCMPI:       mpich
#
# qchem directory setting
#
qcrun:       qchem789846
QCSCRATCH:   .
QCLOCALSCR:  
QCTMPDIR:    .
QCFILEPREF:  ./qchem789846
QCSAVEDIR:   
workdirs:    ./qchem789846
workdir0:    ./qchem789846
partmpdirs =  
#
# parallel setting
#
QCRSH:           ssh
QCMPI:           mpich
QCMPIRUN:        /cm/shared/apps/spack/cpu/opt/spack/linux-centos8-zen2/gcc-10.2.0/qchem-5.4-akfmr7b3t57bfs6qan3padb2wnb2i7cl/bin/mpi/mpirun_qchem
QCMACHINEFILE:   ./qchem789846/hostfile
exp-3-51

#
# env setting
#
exported envs:   QC QCAUX QCSCRATCH QCRUNNAME QCFILEPREF QCPROG QCPROG_S GUIFILE

Running Job 1 of 1 Dimethoxy_Benzodithiophene_Phi_15_Theta_190_Methylcarbonyl_3_Fluoro_Thienothiophene_Hydrogenated.qcin
qchem Dimethoxy_Benzodithiophene_Phi_15_Theta_190_Methylcarbonyl_3_Fluoro_Thienothiophene_Hydrogenated.qcin_789846.0 ./qchem789846/ 1
/cm/shared/apps/spack/cpu/opt/spack/linux-centos8-zen2/gcc-10.2.0/qchem-5.4-akfmr7b3t57bfs6qan3padb2wnb2i7cl/bin/mpi/mpirun_qchem -machinefile ./qchem789846/hostfile -np 1 /cm/shared/apps/spack/cpu/opt/spack/linux-centos8-zen2/gcc-10.2.0/qchem-5.4-akfmr7b3t57bfs6qan3padb2wnb2i7cl/exe/qcprog.exe Dimethoxy_Benzodithiophene_Phi_15_Theta_190_Methylcarbonyl_3_Fluoro_Thienothiophene_Hydrogenated.qcin_789846.0 ./qchem789846/

Process 0 of 1 is on exp-3-51 - thread support 0
initial socket setup ...start
initial socket setup ...done 
now start server 0 ... 
                  Welcome to Q-Chem
     A Quantum Leap Into The Future Of Chemistry


 Q-Chem 5.4, Q-Chem, Inc., Pleasanton, CA (2021)

 License issued to: University of California, San Diego (site)

 E. Epifanovsky,  A. T. B. Gilbert,  Xintian Feng,  Joonho Lee,  Yuezhi Mao,  
 N. Mardirossian,  P. Pokhilko,  A. White,  M. Wormit,  M. P. Coons,  
 A. L. Dempwolff,  Zhengting Gan,  D. Hait,  P. R. Horn,  L. D. Jacobson,  
 I. Kaliman,  J. Kussmann,  A. W. Lange,  Ka Un Lao,  D. S. Levine,  Jie Liu,  
 S. C. McKenzie,  A. F. Morrison,  K. Nanda,  F. Plasser,  D. R. Rehn,  
 M. L. Vidal,  Zhi-Qiang You,  Ying Zhu,  B. Alam,  B. Albrecht,  
 A. Aldossary,  E. Alguire,  J. H. Andersen,  D. Barton,  K. Begam,  A. Behn,  
 Y. A. Bernard,  E. J. Berquist,  H. Burton,  A. Carreras,  K. Carter-Fenk,  
 R. Chakraborty,  A. D. Chien,  K. D. Closser,  V. Cofer-Shabica,  
 S. Dasgupta,  Jia Deng,  M. de Wergifosse,  M. Diedenhofen,  Hainam Do,  
 S. Ehlert,  Po-Tung Fang,  S. Fatehi,  Qingguo Feng,  J. Gayvert,  
 Qinghui Ge,  G. Gidofalvi,  M. Goldey,  J. Gomes,  C. Gonzalez-Espinoza,  
 S. Gulania,  A. Gunina,  M. W. D. Hanson-Heine,  P. H. P. Harbach,  
 A. W. Hauser,  M. F. Herbst,  M. Hernandez Vera,  M. Hodecker,  
 Z. C. Holden,  S. Houck,  Xunkun Huang,  Kerwin Hui,  B. C. Huynh,  
 M. Ivanov,  Hyunjun Ji,  Hanjie Jiang,  B. Kaduk,  S. Kaehler,  
 K. Khistyaev,  Jaehoon Kim,  P. Klunzinger,  Z. Koczor-Benda,  
 Joong Hoon Koh,  D. Kosenkov,  L. Koulias,  T. Kowalczyk,  C. M. Krauter,  
 K. Kue,  A. Kunitsa,  T. Kus,  A. Landau,  K. V. Lawler,  D. Lefrancois,  
 S. Lehtola,  Rain Li,  Yi-Pei Li,  Jiashu Liang,  M. Liebenthal,  
 Hung-Hsuan Lin,  You-Sheng Lin,  Fenglai Liu,  Kuan-Yu Liu,  
 M. Loipersberger,  A. Luenser,  A. Manjanath,  P. Manohar,  E. Mansoor,  
 S. F. Manzer,  Shan-Ping Mao,  A. V. Marenich,  T. Markovich,  S. Mason,  
 S. A. Maurer,  P. F. McLaughlin,  M. F. S. J. Menger,  J.-M. Mewes,  
 S. A. Mewes,  P. Morgante,  J. W. Mullinax,  T. S. Nguyen-Beck,  
 K. J. Oosterbaan,  G. Paran,  Alexander C. Paul,  Suranjan K. Paul,  
 F. Pavosevic,  Zheng Pei,  S. Prager,  E. I. Proynov,  E. Ramos,  B. Rana,  
 A. E. Rask,  A. Rettig,  R. M. Richard,  F. Rob,  E. Rossomme,  T. Scheele,  
 M. Scheurer,  M. Schneider,  N. Sergueev,  S. M. Sharada,  W. Skomorowski,  
 D. W. Small,  C. J. Stein,  Yu-Chuan Su,  E. J. Sundstrom,  Zhen Tao,  
 J. Thirman,  T. Tsuchimochi,  N. M. Tubman,  S. P. Veccham,  O. Vydrov,  
 J. Wenzel,  J. Witte,  A. Yamada,  Kun Yao,  S. Yeganeh,  S. R. Yost,  
 A. Zech,  Igor Ying Zhang,  Xing Zhang,  Yu Zhang,  D. Zuev,  
 A. Aspuru-Guzik,  A. T. Bell,  N. A. Besley,  K. B. Bravaya,  B. R. Brooks,  
 D. Casanova,  Jeng-Da Chai,  S. Coriani,  C. J. Cramer,  
 A. E. DePrince, III,  R. A. DiStasio Jr.,  A. Dreuw,  B. D. Dunietz,  
 T. R. Furlani,  W. A. Goddard III,  S. Grimme,  S. Hammes-Schiffer,  
 T. Head-Gordon,  W. J. Hehre,  Chao-Ping Hsu,  T.-C. Jagau,  Yousung Jung,  
 A. Klamt,  Jing Kong,  D. S. Lambrecht,  WanZhen Liang,  N. J. Mayhall,  
 C. W. McCurdy,  J. B. Neaton,  C. Ochsenfeld,  J. A. Parkhill,  R. Peverati,  
 V. A. Rassolov,  Yihan Shao,  L. V. Slipchenko,  T. Stauch,  R. P. Steele,  
 J. E. Subotnik,  A. J. W. Thom,  A. Tkatchenko,  D. G. Truhlar,  
 T. Van Voorhis,  T. A. Wesolowski,  K. B. Whaley,  H. L. Woodcock III,  
 P. M. Zimmerman,  S. Faraji,  P. M. W. Gill,  M. Head-Gordon,  
 J. M. Herbert,  A. I. Krylov

 Contributors to earlier versions of Q-Chem not listed above: 
 R. D. Adamson,  B. Austin,  R. Baer,  J. Baker,  G. J. O. Beran,  
 K. Brandhorst,  S. T. Brown,  E. F. C. Byrd,  A. K. Chakraborty,  
 G. K. L. Chan,  Chun-Min Chang,  Yunqing Chen,  C.-L. Cheng,  
 Siu Hung Chien,  D. M. Chipman,  D. L. Crittenden,  H. Dachsel,  
 R. J. Doerksen,  A. D. Dutoi,  R. G. Edgar,  J. Fosso-Tande,  
 L. Fusti-Molnar,  D. Ghosh,  A. Ghysels,  A. Golubeva-Zadorozhnaya,  
 J. Gonthier,  M. S. Gordon,  S. R. Gwaltney,  G. Hawkins,  J. E. Herr,  
 A. Heyden,  S. Hirata,  E. G. Hohenstein,  G. Kedziora,  F. J. Keil,  
 C. Kelley,  Jihan Kim,  R. A. King,  R. Z. Khaliullin,  P. P. Korambath,  
 W. Kurlancheek,  A. Laurent,  A. M. Lee,  M. S. Lee,  S. V. Levchenko,  
 Ching Yeh Lin,  D. Liotard,  E. Livshits,  R. C. Lochan,  I. Lotan,  
 L. A. Martinez-Martinez,  P. E. Maslen,  N. Nair,  D. P. O'Neill,  
 D. Neuhauser,  E. Neuscamman,  C. M. Oana,  R. Olivares-Amaya,  R. Olson,  
 T. M. Perrine,  B. Peters,  P. A. Pieniazek,  A. Prociuk,  Y. M. Rhee,  
 J. Ritchie,  M. A. Rohrdanz,  E. Rosta,  N. J. Russ,  H. F. Schaefer III,  
 M. W. Schmidt,  N. E. Schultz,  S. Sharma,  N. Shenvi,  C. D. Sherrill,  
 A. C. Simmonett,  A. Sodt,  T. Stein,  D. Stuck,  K. S. Thanthiriwatte,  
 V. Vanovschi,  L. Vogt,  Tao Wang,  A. Warshel,  M. A. Watson,  
 C. F. Williams,  Q. Wu,  X. Xu,  Jun Yang,  W. Zhang,  Yan Zhao

 Please cite Q-Chem as follows:
 Y. Shao et al., Mol. Phys. 113, 184-215 (2015)
 DOI: 10.1080/00268976.2014.952696

 Q-Chem 5.4.0 for Intel X86 EM64T Linux

 Parts of Q-Chem use Armadillo 9.800.1 (Horizon Scraper).
 http://arma.sourceforge.net/

 Q-Chem begins on Tue Jan  9 11:39:11 2024  

 Host: 
0

     Scratch files written to ./qchem789846//
 May1621 |scratch|qcdevops|jenkins|workspace|build_RNUM    
 Parallel job on  1  processors
 Processing $rem in /cm/shared/apps/spack/cpu/opt/spack/linux-centos8-zen2/gcc-10.2.0/qchem-5.4-akfmr7b3t57bfs6qan3padb2wnb2i7cl/config/preferences:
 Processing $rem in /home/rramji/.qchemrc:
 Symmetry turned off for PCM/SM12/SMD calculation
 Core orbitals will be frozen

 Checking the input file for inconsistencies... 	...done.

 Q-Chem warning in module forms1/BasisType.C, line 2236:

 You are not using the predefined 5D/6D in this basis set.


--------------------------------------------------------------
User input:
--------------------------------------------------------------
$molecule
0 1
C	0.095966	-8.517702	-0.306235
C	-0.082807	-7.641575	0.754415
S	0.348635	-7.638634	-1.833702
C	-0.017401	-6.264785	0.383675
H	-0.259008	-7.966081	1.787757
C	0.231913	-6.072714	-1.020885
C	0.305044	-4.787049	-1.579097
C	-0.196549	-5.162801	1.268082
C	-0.127606	-3.874817	0.708796
C	0.124792	-3.683952	-0.696769
O	-0.397867	-5.499772	2.572378
O	0.506103	-4.459055	-2.889532
C	1.267335	-5.329063	-3.718420
H	1.502804	-4.755694	-4.635204
H	0.697471	-6.238095	-4.010790
H	2.215194	-5.637262	-3.226506
C	-0.999238	-4.572261	3.467415
H	-1.230649	-5.139743	4.388648
H	-1.940905	-4.153131	3.052323
H	-0.311543	-3.739531	3.730819
C	0.187323	-2.306654	-1.064366
S	-0.257128	-2.306501	1.521154
C	0.000000	-1.435185	0.000000
H	0.365903	-1.978138	-2.095939
C	0.000000	0.000000	0.000000
S	0.234628	0.873813	1.507541
C	0.640889	2.392969	0.718873
C	0.234815	0.873434	-1.067872
C	0.592377	2.216811	-0.686410
S	0.174526	0.637422	-2.805516
C	0.622551	2.330840	-3.054530
C	0.803505	3.015647	-1.862551
F	1.144815	4.307994	-1.819088
C	0.740334	2.763108	-4.456084
O	0.548793	2.017428	-5.406510
O	1.082665	4.069544	-4.569225
C	1.215848	4.546407	-5.916207
H	1.494066	5.611729	-5.833064
H	0.261736	4.436296	-6.470168
H	2.000108	3.981294	-6.459293
H	0.878739	3.286099	1.306486
H	-0.791346	-9.143623	-0.457736
H	0.979708	-9.149441	-0.158056
H	-1.064830	-1.443175	-0.180205
$end

$rem
JOBTYPE		SP
EXCHANGE	HF
CORRELATION	pRIMP2
BASIS		cc-pvtz
METHOD		rimp2
AUX_BASIS	rimp2-cc-pvtz
SOLVENT_METHOD	PCM
PURECART	11111
SYMMETRY	false
MEM_TOTAL	110000
SCF_CONVERGENCE = 6
THRESH=10
GUI = 2
$end



$solvent
dielectric 4.90
$end
--------------------------------------------------------------
 ----------------------------------------------------------------
             Standard Nuclear Orientation (Angstroms)
    I     Atom           X                Y                Z
 ----------------------------------------------------------------
    1      C       0.0959660000    -8.5177020000    -0.3062350000
    2      C      -0.0828070000    -7.6415750000     0.7544150000
    3      S       0.3486350000    -7.6386340000    -1.8337020000
    4      C      -0.0174010000    -6.2647850000     0.3836750000
    5      H      -0.2590080000    -7.9660810000     1.7877570000
    6      C       0.2319130000    -6.0727140000    -1.0208850000
    7      C       0.3050440000    -4.7870490000    -1.5790970000
    8      C      -0.1965490000    -5.1628010000     1.2680820000
    9      C      -0.1276060000    -3.8748170000     0.7087960000
   10      C       0.1247920000    -3.6839520000    -0.6967690000
   11      O      -0.3978670000    -5.4997720000     2.5723780000
   12      O       0.5061030000    -4.4590550000    -2.8895320000
   13      C       1.2673350000    -5.3290630000    -3.7184200000
   14      H       1.5028040000    -4.7556940000    -4.6352040000
   15      H       0.6974710000    -6.2380950000    -4.0107900000
   16      H       2.2151940000    -5.6372620000    -3.2265060000
   17      C      -0.9992380000    -4.5722610000     3.4674150000
   18      H      -1.2306490000    -5.1397430000     4.3886480000
   19      H      -1.9409050000    -4.1531310000     3.0523230000
   20      H      -0.3115430000    -3.7395310000     3.7308190000
   21      C       0.1873230000    -2.3066540000    -1.0643660000
   22      S      -0.2571280000    -2.3065010000     1.5211540000
   23      C       0.0000000000    -1.4351850000     0.0000000000
   24      H       0.3659030000    -1.9781380000    -2.0959390000
   25      C       0.0000000000     0.0000000000     0.0000000000
   26      S       0.2346280000     0.8738130000     1.5075410000
   27      C       0.6408890000     2.3929690000     0.7188730000
   28      C       0.2348150000     0.8734340000    -1.0678720000
   29      C       0.5923770000     2.2168110000    -0.6864100000
   30      S       0.1745260000     0.6374220000    -2.8055160000
   31      C       0.6225510000     2.3308400000    -3.0545300000
   32      C       0.8035050000     3.0156470000    -1.8625510000
   33      F       1.1448150000     4.3079940000    -1.8190880000
   34      C       0.7403340000     2.7631080000    -4.4560840000
   35      O       0.5487930000     2.0174280000    -5.4065100000
   36      O       1.0826650000     4.0695440000    -4.5692250000
   37      C       1.2158480000     4.5464070000    -5.9162070000
   38      H       1.4940660000     5.6117290000    -5.8330640000
   39      H       0.2617360000     4.4362960000    -6.4701680000
   40      H       2.0001080000     3.9812940000    -6.4592930000
   41      H       0.8787390000     3.2860990000     1.3064860000
   42      H      -0.7913460000    -9.1436230000    -0.4577360000
   43      H       0.9797080000    -9.1494410000    -0.1580560000
   44      H      -1.0648300000    -1.4431750000    -0.1802050000
 ----------------------------------------------------------------
 Nuclear Repulsion Energy =        3344.63942079 hartrees
 There are      120 alpha and      120 beta electrons
 Requested basis set is cc-pVTZ
 There are 388 shells and 1096 basis functions

 Total QAlloc Memory Limit 110000 MB
 Mega-Array Size       188 MB
 MEM_STATIC part       192 MB
 Discretize the solute cavity surface with Lebedev spheres
	Using 110 Lebedev grid points for each H atom
	Using 194 Lebedev grid points for other atoms
	Atomic van der Waals radii will be scaled by 1.20
 Remove points where switching function is < 1.0e-08
 Keep 2976 surface tesserae and discard 4300 interior tesserae
 Molecular Surface Area = 437.240 Angst**2
 Requested basis set is rimp2-cc-pVTZ
 There are 853 shells and 2963 basis functions
 A cutoff of  1.0D-10 yielded  33104 shell pairs
 There are    249902 function pairs (    323255 Cartesian)
 Smallest overlap matrix eigenvalue = 2.04E-05

 Scale SEOQF with 1.000000e-01/1.000000e-02/1.000000e-02

 Standard Electronic Orientation quadrupole field applied
 Nucleus-field energy     =     0.0000000187 hartrees
 Guess from superposition of atomic densities
 Warning:  Energy on first SCF cycle will be non-variational
 SAD guess density has 240.000000 electrons

 -----------------------------------------------------------------------
  General SCF calculation program by
  Eric Jon Sundstrom, Paul Horn, Yuezhi Mao, Dmitri Zuev, Alec White,
  David Stuck, Shaama M.S., Shane Yost, Joonho Lee, David Small,
  Daniel Levine, Susi Lehtola, Hugh Burton, Evgeny Epifanovsky,
  Bang C. Huynh
 -----------------------------------------------------------------------
 Hartree-Fock
 using 64 threads for integral computing
 -------------------------------------------------------
 OpenMP Integral computing Module                
 Release: version 1.0, May 2013, Q-Chem Inc. Pittsburgh 
 -------------------------------------------------------
 A restricted SCF calculation will be
 performed using DIIS
 SCF converges when DIIS error is below 1.0e-06
 ---------------------------------------
  Cycle       Energy         DIIS error
 ---------------------------------------
    1   -2767.0395132893      1.75e-02  
    2   -2754.8841511784      1.53e-03  
    3   -2755.2333340206      8.57e-04  
    4   -2755.3208759349      2.56e-04  
    5   -2755.3345997660      7.42e-05  
    6   -2755.3361708586      2.62e-05  
    7   -2755.3365852257      1.38e-05  
    8   -2755.3367194451      5.72e-06  
    9   -2755.3367509705      3.02e-06  
   10   -2755.3367588359      1.56e-06  
   11   -2755.3367616589      8.66e-07  Convergence criterion met
 ---------------------------------------
 SCF time:   CPU 7777.77s  wall 297.00s 

************** Final PCM Free Energy Summary **************
 G_electrostatic  =      -0.01982142 hartree =     -12.43812983 kcal/mol
 G_cavitation     =       0.00000000 hartree =       0.00000000 kcal/mol
 G_dispersion     =       0.00000000 hartree =       0.00000000 kcal/mol
 G_repulsion      =       0.00000000 hartree =       0.00000000 kcal/mol
 --------------------------------------------------
 Non-electrostatic Free Energy =       0.00000000 hartree =       0.00000000 kcal/mol
 Total                         =      -0.01982142 hartree =     -12.43812983 kcal/mol
 --------------------------------------------------
 SCF Energy (H0 + V/2)                       =   -2755.33676166 
 Solute Internal Energy (H0)                 =   -2755.31694024 
 Total Free Energy (H0 + V/2 + non-elec)     =   -2755.33676166 hartree
                                             = -1728999.91373542 kcal/mol
***********************************************************

 SCF   energy in the final basis set =    -2755.3367616589
 Total energy in the final basis set =    -2755.3367616589


 --------------------------------------------------------------
  Generalized many-body perturbation theory program
  by Joonho Lee, Fazle Rob, Xintian Feng, Evgeny Epifanovsky

 No regularization used 
 (reg. param. = 0.0000e+00)
  (P|Q)^-1/2 Time:  CPU 157.51 s  wall 2.50 s

 In RI-MP2 calculation: 
 # of frozen core orbitals: 45

 Components of the RIMP2 correlation energy:
        aaaa    correlation energy =        -0.6696109891 a.u.
        abab    correlation energy =        -3.7532300326 a.u.
        bbbb    correlation energy =        -0.6696109891 a.u.
        non-Brillouin singles      =        -0.0000000000 a.u.
        total same-spin energy     =        -1.3392219782 a.u.
        total opposite-spin energy =        -3.7532300326 a.u.

 Total  RIMP2   correlation energy =        -5.0924520107 a.u.
        RIMP2         total energy =     -2760.4292136696 a.u.

 RI-MP2 Energy Time:  CPU 3034.06 s  wall 49.61 s
 
 --------------------------------------------------------------
 
                    Orbital Energies (a.u.)
 --------------------------------------------------------------
 
 Alpha MOs
 -- Occupied --
-92.0146 -91.9971 -91.9829 -91.9592 -26.3429 -20.6150 -20.5893 -20.5875
-20.5616 -11.4096 -11.3818 -11.3111 -11.3100 -11.3097 -11.3011 -11.2982
-11.2931 -11.2889 -11.2861 -11.2858 -11.2848 -11.2838 -11.2826 -11.2742
-11.2742 -11.2606 -11.2596 -11.2509 -11.2398  -9.0133  -8.9973  -8.9851
 -8.9618  -6.6941  -6.6935  -6.6929  -6.6784  -6.6777  -6.6765  -6.6663
 -6.6654  -6.6641  -6.6430  -6.6421  -6.6410  -1.6600  -1.4675  -1.4125
 -1.4094  -1.3702  -1.2303  -1.2034  -1.1753  -1.1375  -1.1016  -1.0483
 -1.0453  -1.0235  -1.0047  -0.9994  -0.9631  -0.9595  -0.9497  -0.9409
 -0.8957  -0.8709  -0.8649  -0.8091  -0.8020  -0.7904  -0.7845  -0.7688
 -0.7570  -0.7380  -0.7249  -0.7113  -0.6995  -0.6931  -0.6848  -0.6815
 -0.6740  -0.6637  -0.6574  -0.6494  -0.6395  -0.6317  -0.6212  -0.6157
 -0.6122  -0.5984  -0.5938  -0.5773  -0.5716  -0.5655  -0.5603  -0.5543
 -0.5467  -0.5360  -0.5312  -0.5289  -0.5141  -0.5098  -0.5087  -0.5018
 -0.4853  -0.4823  -0.4772  -0.4737  -0.4704  -0.4662  -0.4615  -0.4481
 -0.4338  -0.3945  -0.3874  -0.3719  -0.3502  -0.2987  -0.2891  -0.2180
 -- Virtual --
  0.0332   0.0535   0.1128   0.1273   0.1372   0.1453   0.1528   0.1559
  0.1581   0.1601   0.1633   0.1719   0.1786   0.1851   0.1899   0.1955
  0.1998   0.2028   0.2048   0.2150   0.2209   0.2228   0.2237   0.2273
  0.2286   0.2403   0.2433   0.2471   0.2534   0.2556   0.2650   0.2737
  0.2898   0.2913   0.3114   0.3260   0.3279   0.3349   0.3438   0.3497
  0.3526   0.3580   0.3652   0.3713   0.3766   0.3815   0.3845   0.3848
  0.3902   0.3934   0.3999   0.4072   0.4089   0.4137   0.4178   0.4248
  0.4265   0.4306   0.4342   0.4403   0.4426   0.4456   0.4529   0.4565
  0.4614   0.4638   0.4665   0.4720   0.4754   0.4798   0.4859   0.4863
  0.4926   0.4957   0.4975   0.5011   0.5018   0.5092   0.5171   0.5187
  0.5206   0.5293   0.5309   0.5329   0.5352   0.5409   0.5433   0.5460
  0.5504   0.5558   0.5587   0.5588   0.5611   0.5691   0.5759   0.5793
  0.5846   0.5881   0.5931   0.5982   0.6005   0.6065   0.6098   0.6118
  0.6143   0.6157   0.6197   0.6212   0.6221   0.6239   0.6269   0.6296
  0.6338   0.6351   0.6426   0.6461   0.6474   0.6532   0.6567   0.6587
  0.6617   0.6691   0.6720   0.6854   0.6903   0.6923   0.6983   0.7048
  0.7081   0.7105   0.7166   0.7177   0.7195   0.7285   0.7331   0.7369
  0.7460   0.7499   0.7559   0.7610   0.7676   0.7728   0.7798   0.7847
  0.7985   0.8009   0.8064   0.8134   0.8207   0.8223   0.8241   0.8300
  0.8401   0.8428   0.8451   0.8556   0.8621   0.8671   0.8685   0.8751
  0.8787   0.8875   0.8922   0.8953   0.8979   0.9047   0.9089   0.9175
  0.9226   0.9307   0.9375   0.9396   0.9405   0.9475   0.9521   0.9572
  0.9636   0.9648   0.9715   0.9743   0.9812   0.9854   0.9874   0.9927
  0.9962   1.0023   1.0053   1.0148   1.0173   1.0188   1.0273   1.0331
  1.0391   1.0397   1.0489   1.0524   1.0539   1.0639   1.0664   1.0703
  1.0725   1.0794   1.0829   1.0847   1.0951   1.0989   1.1051   1.1091
  1.1148   1.1169   1.1245   1.1262   1.1300   1.1428   1.1477   1.1533
  1.1575   1.1593   1.1683   1.1695   1.1727   1.1766   1.1824   1.1839
  1.1879   1.1918   1.1976   1.2009   1.2097   1.2134   1.2157   1.2227
  1.2251   1.2293   1.2319   1.2361   1.2449   1.2521   1.2537   1.2573
  1.2624   1.2640   1.2697   1.2754   1.2787   1.2849   1.2908   1.2941
  1.2988   1.3006   1.3118   1.3153   1.3240   1.3340   1.3375   1.3391
  1.3444   1.3555   1.3629   1.3681   1.3784   1.3812   1.3928   1.3973
  1.4007   1.4067   1.4144   1.4222   1.4298   1.4369   1.4417   1.4544
  1.4573   1.4683   1.4769   1.4800   1.4853   1.4883   1.4989   1.5007
  1.5026   1.5086   1.5127   1.5153   1.5210   1.5325   1.5342   1.5399
  1.5437   1.5440   1.5507   1.5568   1.5599   1.5631   1.5670   1.5819
  1.5828   1.5986   1.6030   1.6082   1.6152   1.6266   1.6305   1.6398
  1.6452   1.6480   1.6540   1.6585   1.6659   1.6720   1.6774   1.6877
  1.6911   1.6957   1.7107   1.7126   1.7230   1.7292   1.7374   1.7502
  1.7623   1.7660   1.7778   1.7863   1.7935   1.7998   1.8060   1.8183
  1.8204   1.8212   1.8313   1.8424   1.8526   1.8618   1.8684   1.8731
  1.8893   1.8906   1.8936   1.9078   1.9170   1.9213   1.9320   1.9406
  1.9503   1.9530   1.9601   1.9672   1.9780   1.9926   1.9956   2.0029
  2.0058   2.0140   2.0203   2.0304   2.0364   2.0400   2.0485   2.0576
  2.0685   2.0737   2.0787   2.0944   2.1001   2.1079   2.1130   2.1246
  2.1356   2.1519   2.1574   2.1690   2.1754   2.1839   2.1863   2.1942
  2.1995   2.2034   2.2062   2.2185   2.2228   2.2314   2.2364   2.2382
  2.2464   2.2545   2.2637   2.2677   2.2714   2.2795   2.2846   2.2927
  2.3056   2.3076   2.3245   2.3312   2.3401   2.3472   2.3567   2.3652
  2.3699   2.3765   2.3842   2.3973   2.4027   2.4147   2.4196   2.4248
  2.4377   2.4427   2.4476   2.4659   2.4733   2.4819   2.4894   2.4915
  2.5040   2.5105   2.5143   2.5290   2.5409   2.5467   2.5526   2.5613
  2.5681   2.5773   2.5931   2.6044   2.6161   2.6175   2.6211   2.6223
  2.6270   2.6334   2.6395   2.6447   2.6472   2.6484   2.6630   2.6699
  2.6775   2.6806   2.6865   2.6948   2.7013   2.7041   2.7121   2.7132
  2.7219   2.7244   2.7383   2.7450   2.7454   2.7490   2.7584   2.7704
  2.7783   2.7845   2.7967   2.8009   2.8036   2.8115   2.8166   2.8233
  2.8433   2.8450   2.8513   2.8525   2.8555   2.8668   2.8702   2.8718
  2.8791   2.8849   2.8926   2.8952   2.9076   2.9187   2.9241   2.9419
  2.9503   2.9546   2.9581   2.9669   2.9727   2.9755   2.9816   2.9919
  2.9998   3.0012   3.0089   3.0160   3.0235   3.0355   3.0390   3.0455
  3.0506   3.0642   3.0680   3.0754   3.0808   3.0872   3.0941   3.0984
  3.1045   3.1083   3.1160   3.1201   3.1243   3.1312   3.1373   3.1454
  3.1464   3.1504   3.1527   3.1542   3.1627   3.1648   3.1659   3.1762
  3.1836   3.1938   3.1956   3.2044   3.2111   3.2164   3.2184   3.2218
  3.2251   3.2337   3.2426   3.2498   3.2520   3.2572   3.2640   3.2684
  3.2699   3.2716   3.2756   3.2827   3.2845   3.2922   3.2961   3.3001
  3.3047   3.3079   3.3161   3.3241   3.3262   3.3318   3.3378   3.3444
  3.3468   3.3498   3.3532   3.3535   3.3613   3.3636   3.3661   3.3692
  3.3749   3.3813   3.3874   3.3905   3.3954   3.3985   3.4001   3.4041
  3.4098   3.4163   3.4262   3.4285   3.4314   3.4344   3.4377   3.4492
  3.4529   3.4563   3.4607   3.4622   3.4694   3.4738   3.4782   3.4791
  3.4837   3.4897   3.4941   3.4960   3.5010   3.5140   3.5258   3.5346
  3.5379   3.5448   3.5465   3.5525   3.5588   3.5634   3.5695   3.5765
  3.5790   3.5861   3.5925   3.5977   3.5986   3.6027   3.6053   3.6063
  3.6136   3.6153   3.6229   3.6258   3.6346   3.6400   3.6428   3.6512
  3.6585   3.6664   3.6685   3.6790   3.6790   3.6847   3.6874   3.6995
  3.7019   3.7055   3.7055   3.7101   3.7147   3.7189   3.7216   3.7325
  3.7383   3.7423   3.7448   3.7479   3.7636   3.7675   3.7734   3.7748
  3.7792   3.7846   3.7863   3.7966   3.8029   3.8071   3.8118   3.8174
  3.8204   3.8220   3.8266   3.8353   3.8430   3.8493   3.8519   3.8563
  3.8610   3.8689   3.8739   3.8796   3.8831   3.8941   3.8962   3.9055
  3.9148   3.9186   3.9236   3.9319   3.9416   3.9485   3.9495   3.9583
  3.9601   3.9637   3.9687   3.9863   3.9913   3.9973   4.0091   4.0149
  4.0197   4.0286   4.0329   4.0370   4.0494   4.0528   4.0652   4.0675
  4.0695   4.0720   4.0842   4.0908   4.0972   4.1050   4.1136   4.1290
  4.1347   4.1432   4.1476   4.1586   4.1653   4.1678   4.1710   4.1725
  4.1781   4.1897   4.1939   4.2022   4.2102   4.2175   4.2286   4.2347
  4.2458   4.2520   4.2551   4.2669   4.2761   4.2886   4.2894   4.3047
  4.3139   4.3232   4.3326   4.3393   4.3418   4.3487   4.3512   4.3590
  4.3706   4.3728   4.3813   4.3837   4.3926   4.4052   4.4120   4.4183
  4.4235   4.4243   4.4308   4.4319   4.4365   4.4440   4.4483   4.4590
  4.4663   4.4761   4.4911   4.4943   4.5058   4.5162   4.5176   4.5281
  4.5350   4.5423   4.5578   4.5645   4.5662   4.5709   4.5784   4.5796
  4.5936   4.5988   4.6106   4.6181   4.6325   4.6431   4.6461   4.6518
  4.6582   4.6717   4.6785   4.6843   4.6940   4.7099   4.7230   4.7308
  4.7452   4.7537   4.7616   4.7755   4.7848   4.7967   4.8084   4.8173
  4.8240   4.8322   4.8398   4.8579   4.8622   4.8724   4.8759   4.8873
  4.9010   4.9198   4.9351   4.9442   4.9541   4.9600   4.9675   4.9827
  4.9965   4.9972   5.0079   5.0088   5.0207   5.0351   5.0457   5.0612
  5.0684   5.0910   5.0981   5.1105   5.1272   5.1342   5.1507   5.1647
  5.1741   5.1905   5.2030   5.2076   5.2262   5.2372   5.2522   5.2550
  5.2583   5.2616   5.2826   5.2895   5.2942   5.3164   5.3233   5.3304
  5.3356   5.3475   5.3539   5.3600   5.3742   5.3834   5.3943   5.3976
  5.4061   5.4189   5.4261   5.4335   5.4424   5.4849   5.4984   5.5105
  5.5166   5.5184   5.5221   5.5336   5.5645   5.5697   5.5837   5.5890
  5.5992   5.6072   5.6167   5.6215   5.6433   5.6606   5.6739   5.6898
  5.7067   5.7383   5.7500   5.7662   5.7840   5.8074   5.8176   5.8428
  5.8575   5.8800   5.9084   5.9176   5.9290   5.9553   5.9909   6.0013
  6.0399   6.0430   6.1016   6.1356   6.1497   6.1504   6.1718   6.1756
  6.1811   6.1973   6.2455   6.2495   6.2612   6.2651   6.2794   6.2892
  6.2922   6.3039   6.3534   6.4248   6.4499   6.4600   6.5201   6.5398
  6.5530   6.5732   6.6077   6.6492   6.6620   6.6710   6.7146   6.7475
  6.8094   6.8306   6.8562   6.8594   6.8989   6.9786   7.1316   7.1433
  7.2038   7.2074   7.2204   7.2410   7.3097   7.3295   7.3407   7.3635
  7.3648   7.4066   7.4132   7.4841   7.4860   7.4976   7.5260   7.5514
  7.6176   7.7337   7.7734   7.7907   7.8021   7.9023   7.9269   7.9538
  7.9757   8.1360   8.2592   8.6447   8.9224   9.0317   9.3633   9.4906
  9.6789  10.2482  11.1721  11.4666  11.7522  11.9114  12.1289  12.3828
 12.4288  12.5131  12.9301  13.0460  13.0742  13.1948  13.3871  13.4867
 13.7707  13.7917  13.8868  13.9429  14.0313  14.3112  15.1362  15.3149
 --------------------------------------------------------------
 
          Ground-State Mulliken Net Atomic Charges

     Atom                 Charge (a.u.)
  ----------------------------------------
      1 C                    -0.070641
      2 C                    -0.253214
      3 S                    -0.133168
      4 C                    -0.050261
      5 H                     0.194323
      6 C                    -0.049586
      7 C                     0.224249
      8 C                     0.234266
      9 C                    -0.074681
     10 C                    -0.034100
     11 O                    -0.333647
     12 O                    -0.343894
     13 C                    -0.083416
     14 H                     0.121377
     15 H                     0.092633
     16 H                     0.092897
     17 C                    -0.088827
     18 H                     0.125154
     19 H                     0.093342
     20 H                     0.090238
     21 C                    -0.322156
     22 S                    -0.097391
     23 C                     0.139299
     24 H                     0.196912
     25 C                    -0.036418
     26 S                     0.083790
     27 C                    -0.223077
     28 C                    -0.013508
     29 C                    -0.105644
     30 S                    -0.006300
     31 C                    -0.164541
     32 C                     0.410198
     33 F                    -0.207229
     34 C                     0.442977
     35 O                    -0.460793
     36 O                    -0.300589
     37 C                    -0.058574
     38 H                     0.121551
     39 H                     0.095140
     40 H                     0.095167
     41 H                     0.217038
     42 H                     0.118414
     43 H                     0.116112
     44 H                     0.206578
  ----------------------------------------
  Sum of atomic charges =     0.000000

 -----------------------------------------------------------------
                    Cartesian Multipole Moments
 -----------------------------------------------------------------
    Charge (ESU x 10^10)
                -0.0000
    Dipole Moment (Debye)
         X      -0.0871      Y       1.5977      Z       3.1809
       Tot       3.5606
    Quadrupole Moments (Debye-Ang)
        XX    -196.5385     XY       4.6116     YY    -171.4317
        XZ      -9.9404     YZ     -11.7151     ZZ    -192.0768
    Octopole Moments (Debye-Ang^2)
       XXX    -163.7055    XXY     366.5929    XYY     -39.6819
       YYY     939.3719    XXZ     184.4658    XYZ      22.4626
       YYZ     162.3665    XZZ     -26.2801    YZZ     407.9046
       ZZZ     609.8349
    Hexadecapole Moments (Debye-Ang^3)
      XXXX    -643.1967   XXXY    -266.1173   XXYY   -3883.8317
      XYYY    -204.3047   YYYY  -19981.1995   XXXZ     689.5250
      XXYZ     318.7386   XYYZ     -33.9737   YYYZ     420.9187
      XXZZ   -1316.7243   XYZZ      41.9108   YYZZ   -4289.5526
      XZZZ     429.1492   YZZZ     463.4098   ZZZZ   -7464.2789
 -----------------------------------------------------------------
 Total job time:  352.22s(wall), 10937.67s(cpu) 
 Tue Jan  9 11:45:03 2024

        *************************************************************
        *                                                           *
        *  Thank you very much for using Q-Chem.  Have a nice day.  *
        *                                                           *
        *************************************************************


0 sent ACK to 0 
now end server 0 ... 
cleanup process ... done
remove work dirs ./qchem789846.0 -- ./qchem789846.0
rm -rf ./qchem789846.0
rm -rf ./qchem789846
