You are running Q-Chem version: 5.4.0

#
# job setting
#
local host:  exp-14-15
current dir: /home/rramji/project-csd799/aromodel/ptb7fout-qchem/hydrogenated-rotation-run
input file:  Dimethoxy_Benzodithiophene_Phi_0_Theta_100_Methylcarbonyl_3_Fluoro_Thienothiophene_Hydrogenated.qcin
output file: 
nprocs     : 1
nthreads   : 64
#
# qchem installation setting
#
QC:          /cm/shared/apps/spack/cpu/opt/spack/linux-centos8-zen2/gcc-10.2.0/qchem-5.4-akfmr7b3t57bfs6qan3padb2wnb2i7cl
QCAUX:       /cm/shared/apps/spack/cpu/opt/spack/linux-centos8-zen2/gcc-10.2.0/qchem-5.4-akfmr7b3t57bfs6qan3padb2wnb2i7cl/qcaux
QCPROG:      /cm/shared/apps/spack/cpu/opt/spack/linux-centos8-zen2/gcc-10.2.0/qchem-5.4-akfmr7b3t57bfs6qan3padb2wnb2i7cl/exe/qcprog.exe
QCPROG_S:    /cm/shared/apps/spack/cpu/opt/spack/linux-centos8-zen2/gcc-10.2.0/qchem-5.4-akfmr7b3t57bfs6qan3padb2wnb2i7cl/exe/qcprog.exe_s
PARALLEL:    -DPARALLEL
QCMPI:       mpich
#
# qchem directory setting
#
qcrun:       qchem1975806
QCSCRATCH:   .
QCLOCALSCR:  
QCTMPDIR:    .
QCFILEPREF:  ./qchem1975806
QCSAVEDIR:   
workdirs:    ./qchem1975806
workdir0:    ./qchem1975806
partmpdirs =  
#
# parallel setting
#
QCRSH:           ssh
QCMPI:           mpich
QCMPIRUN:        /cm/shared/apps/spack/cpu/opt/spack/linux-centos8-zen2/gcc-10.2.0/qchem-5.4-akfmr7b3t57bfs6qan3padb2wnb2i7cl/bin/mpi/mpirun_qchem
QCMACHINEFILE:   ./qchem1975806/hostfile
exp-14-15

#
# env setting
#
exported envs:   QC QCAUX QCSCRATCH QCRUNNAME QCFILEPREF QCPROG QCPROG_S GUIFILE

Running Job 1 of 1 Dimethoxy_Benzodithiophene_Phi_0_Theta_100_Methylcarbonyl_3_Fluoro_Thienothiophene_Hydrogenated.qcin
qchem Dimethoxy_Benzodithiophene_Phi_0_Theta_100_Methylcarbonyl_3_Fluoro_Thienothiophene_Hydrogenated.qcin_1975806.0 ./qchem1975806/ 1
/cm/shared/apps/spack/cpu/opt/spack/linux-centos8-zen2/gcc-10.2.0/qchem-5.4-akfmr7b3t57bfs6qan3padb2wnb2i7cl/bin/mpi/mpirun_qchem -machinefile ./qchem1975806/hostfile -np 1 /cm/shared/apps/spack/cpu/opt/spack/linux-centos8-zen2/gcc-10.2.0/qchem-5.4-akfmr7b3t57bfs6qan3padb2wnb2i7cl/exe/qcprog.exe Dimethoxy_Benzodithiophene_Phi_0_Theta_100_Methylcarbonyl_3_Fluoro_Thienothiophene_Hydrogenated.qcin_1975806.0 ./qchem1975806/

Process 0 of 1 is on exp-14-15 - thread support 0
initial socket setup ...start
initial socket setup ...done 
now start server 0 ... 
                  Welcome to Q-Chem
     A Quantum Leap Into The Future Of Chemistry


 Q-Chem 5.4, Q-Chem, Inc., Pleasanton, CA (2021)

 License issued to: University of California, San Diego (site)

 E. Epifanovsky,  A. T. B. Gilbert,  Xintian Feng,  Joonho Lee,  Yuezhi Mao,  
 N. Mardirossian,  P. Pokhilko,  A. White,  M. Wormit,  M. P. Coons,  
 A. L. Dempwolff,  Zhengting Gan,  D. Hait,  P. R. Horn,  L. D. Jacobson,  
 I. Kaliman,  J. Kussmann,  A. W. Lange,  Ka Un Lao,  D. S. Levine,  Jie Liu,  
 S. C. McKenzie,  A. F. Morrison,  K. Nanda,  F. Plasser,  D. R. Rehn,  
 M. L. Vidal,  Zhi-Qiang You,  Ying Zhu,  B. Alam,  B. Albrecht,  
 A. Aldossary,  E. Alguire,  J. H. Andersen,  D. Barton,  K. Begam,  A. Behn,  
 Y. A. Bernard,  E. J. Berquist,  H. Burton,  A. Carreras,  K. Carter-Fenk,  
 R. Chakraborty,  A. D. Chien,  K. D. Closser,  V. Cofer-Shabica,  
 S. Dasgupta,  Jia Deng,  M. de Wergifosse,  M. Diedenhofen,  Hainam Do,  
 S. Ehlert,  Po-Tung Fang,  S. Fatehi,  Qingguo Feng,  J. Gayvert,  
 Qinghui Ge,  G. Gidofalvi,  M. Goldey,  J. Gomes,  C. Gonzalez-Espinoza,  
 S. Gulania,  A. Gunina,  M. W. D. Hanson-Heine,  P. H. P. Harbach,  
 A. W. Hauser,  M. F. Herbst,  M. Hernandez Vera,  M. Hodecker,  
 Z. C. Holden,  S. Houck,  Xunkun Huang,  Kerwin Hui,  B. C. Huynh,  
 M. Ivanov,  Hyunjun Ji,  Hanjie Jiang,  B. Kaduk,  S. Kaehler,  
 K. Khistyaev,  Jaehoon Kim,  P. Klunzinger,  Z. Koczor-Benda,  
 Joong Hoon Koh,  D. Kosenkov,  L. Koulias,  T. Kowalczyk,  C. M. Krauter,  
 K. Kue,  A. Kunitsa,  T. Kus,  A. Landau,  K. V. Lawler,  D. Lefrancois,  
 S. Lehtola,  Rain Li,  Yi-Pei Li,  Jiashu Liang,  M. Liebenthal,  
 Hung-Hsuan Lin,  You-Sheng Lin,  Fenglai Liu,  Kuan-Yu Liu,  
 M. Loipersberger,  A. Luenser,  A. Manjanath,  P. Manohar,  E. Mansoor,  
 S. F. Manzer,  Shan-Ping Mao,  A. V. Marenich,  T. Markovich,  S. Mason,  
 S. A. Maurer,  P. F. McLaughlin,  M. F. S. J. Menger,  J.-M. Mewes,  
 S. A. Mewes,  P. Morgante,  J. W. Mullinax,  T. S. Nguyen-Beck,  
 K. J. Oosterbaan,  G. Paran,  Alexander C. Paul,  Suranjan K. Paul,  
 F. Pavosevic,  Zheng Pei,  S. Prager,  E. I. Proynov,  E. Ramos,  B. Rana,  
 A. E. Rask,  A. Rettig,  R. M. Richard,  F. Rob,  E. Rossomme,  T. Scheele,  
 M. Scheurer,  M. Schneider,  N. Sergueev,  S. M. Sharada,  W. Skomorowski,  
 D. W. Small,  C. J. Stein,  Yu-Chuan Su,  E. J. Sundstrom,  Zhen Tao,  
 J. Thirman,  T. Tsuchimochi,  N. M. Tubman,  S. P. Veccham,  O. Vydrov,  
 J. Wenzel,  J. Witte,  A. Yamada,  Kun Yao,  S. Yeganeh,  S. R. Yost,  
 A. Zech,  Igor Ying Zhang,  Xing Zhang,  Yu Zhang,  D. Zuev,  
 A. Aspuru-Guzik,  A. T. Bell,  N. A. Besley,  K. B. Bravaya,  B. R. Brooks,  
 D. Casanova,  Jeng-Da Chai,  S. Coriani,  C. J. Cramer,  
 A. E. DePrince, III,  R. A. DiStasio Jr.,  A. Dreuw,  B. D. Dunietz,  
 T. R. Furlani,  W. A. Goddard III,  S. Grimme,  S. Hammes-Schiffer,  
 T. Head-Gordon,  W. J. Hehre,  Chao-Ping Hsu,  T.-C. Jagau,  Yousung Jung,  
 A. Klamt,  Jing Kong,  D. S. Lambrecht,  WanZhen Liang,  N. J. Mayhall,  
 C. W. McCurdy,  J. B. Neaton,  C. Ochsenfeld,  J. A. Parkhill,  R. Peverati,  
 V. A. Rassolov,  Yihan Shao,  L. V. Slipchenko,  T. Stauch,  R. P. Steele,  
 J. E. Subotnik,  A. J. W. Thom,  A. Tkatchenko,  D. G. Truhlar,  
 T. Van Voorhis,  T. A. Wesolowski,  K. B. Whaley,  H. L. Woodcock III,  
 P. M. Zimmerman,  S. Faraji,  P. M. W. Gill,  M. Head-Gordon,  
 J. M. Herbert,  A. I. Krylov

 Contributors to earlier versions of Q-Chem not listed above: 
 R. D. Adamson,  B. Austin,  R. Baer,  J. Baker,  G. J. O. Beran,  
 K. Brandhorst,  S. T. Brown,  E. F. C. Byrd,  A. K. Chakraborty,  
 G. K. L. Chan,  Chun-Min Chang,  Yunqing Chen,  C.-L. Cheng,  
 Siu Hung Chien,  D. M. Chipman,  D. L. Crittenden,  H. Dachsel,  
 R. J. Doerksen,  A. D. Dutoi,  R. G. Edgar,  J. Fosso-Tande,  
 L. Fusti-Molnar,  D. Ghosh,  A. Ghysels,  A. Golubeva-Zadorozhnaya,  
 J. Gonthier,  M. S. Gordon,  S. R. Gwaltney,  G. Hawkins,  J. E. Herr,  
 A. Heyden,  S. Hirata,  E. G. Hohenstein,  G. Kedziora,  F. J. Keil,  
 C. Kelley,  Jihan Kim,  R. A. King,  R. Z. Khaliullin,  P. P. Korambath,  
 W. Kurlancheek,  A. Laurent,  A. M. Lee,  M. S. Lee,  S. V. Levchenko,  
 Ching Yeh Lin,  D. Liotard,  E. Livshits,  R. C. Lochan,  I. Lotan,  
 L. A. Martinez-Martinez,  P. E. Maslen,  N. Nair,  D. P. O'Neill,  
 D. Neuhauser,  E. Neuscamman,  C. M. Oana,  R. Olivares-Amaya,  R. Olson,  
 T. M. Perrine,  B. Peters,  P. A. Pieniazek,  A. Prociuk,  Y. M. Rhee,  
 J. Ritchie,  M. A. Rohrdanz,  E. Rosta,  N. J. Russ,  H. F. Schaefer III,  
 M. W. Schmidt,  N. E. Schultz,  S. Sharma,  N. Shenvi,  C. D. Sherrill,  
 A. C. Simmonett,  A. Sodt,  T. Stein,  D. Stuck,  K. S. Thanthiriwatte,  
 V. Vanovschi,  L. Vogt,  Tao Wang,  A. Warshel,  M. A. Watson,  
 C. F. Williams,  Q. Wu,  X. Xu,  Jun Yang,  W. Zhang,  Yan Zhao

 Please cite Q-Chem as follows:
 Y. Shao et al., Mol. Phys. 113, 184-215 (2015)
 DOI: 10.1080/00268976.2014.952696

 Q-Chem 5.4.0 for Intel X86 EM64T Linux

 Parts of Q-Chem use Armadillo 9.800.1 (Horizon Scraper).
 http://arma.sourceforge.net/

 Q-Chem begins on Tue Jan  9 10:38:56 2024  

 Host: 
0

     Scratch files written to ./qchem1975806//
 May1621 |scratch|qcdevops|jenkins|workspace|build_RNUM    
 Parallel job on  1  processors
 Processing $rem in /cm/shared/apps/spack/cpu/opt/spack/linux-centos8-zen2/gcc-10.2.0/qchem-5.4-akfmr7b3t57bfs6qan3padb2wnb2i7cl/config/preferences:
 Processing $rem in /home/rramji/.qchemrc:
 Symmetry turned off for PCM/SM12/SMD calculation
 Core orbitals will be frozen

 Checking the input file for inconsistencies... 	...done.

 Q-Chem warning in module forms1/BasisType.C, line 2236:

 You are not using the predefined 5D/6D in this basis set.


--------------------------------------------------------------
User input:
--------------------------------------------------------------
$molecule
0 1
C	-0.306235	-8.517702	-0.095966
C	0.754415	-7.641575	0.082807
S	-1.833702	-7.638634	-0.348635
C	0.383675	-6.264785	0.017401
H	1.787757	-7.966081	0.259008
C	-1.020885	-6.072714	-0.231913
C	-1.579097	-4.787049	-0.305044
C	1.268082	-5.162801	0.196549
C	0.708796	-3.874817	0.127606
C	-0.696769	-3.683952	-0.124792
O	2.572378	-5.499772	0.397867
O	-2.889532	-4.459055	-0.506103
C	-3.718420	-5.329063	-1.267335
H	-4.635204	-4.755694	-1.502804
H	-4.010790	-6.238095	-0.697471
H	-3.226506	-5.637262	-2.215194
C	3.467415	-4.572261	0.999238
H	4.388648	-5.139743	1.230649
H	3.052323	-4.153131	1.940905
H	3.730819	-3.739531	0.311543
C	-1.064366	-2.306654	-0.187323
S	1.521154	-2.306501	0.257128
C	0.000000	-1.435185	0.000000
H	-2.095939	-1.978138	-0.365903
C	0.000000	0.000000	0.000000
S	0.000474	0.904764	1.507541
C	-0.000295	2.477305	0.718873
C	0.000752	0.904447	-1.067872
C	-0.001560	2.294593	-0.686410
S	0.003602	0.660872	-2.805516
C	-0.001928	2.412546	-3.054530
C	-0.004381	3.120854	-1.862551
F	-0.009185	4.457503	-1.819088
C	-0.000038	2.860570	-4.456084
O	0.007944	2.090724	-5.406510
O	-0.007501	4.211092	-4.569225
C	-0.002278	4.706177	-5.916207
H	-0.009265	5.807207	-5.833064
H	-0.895381	4.352875	-6.470168
H	0.901521	4.363301	-6.459293
H	-0.001708	3.401562	1.306486
H	-0.457736	-9.143623	0.791346
H	-0.158056	-9.149441	-0.979708
H	-0.180205	-1.443175	1.064830
$end

$rem
JOBTYPE		SP
EXCHANGE	HF
CORRELATION	pRIMP2
BASIS		cc-pvtz
METHOD		rimp2
AUX_BASIS	rimp2-cc-pvtz
SOLVENT_METHOD	PCM
PURECART	11111
SYMMETRY	false
MEM_TOTAL	110000
SCF_CONVERGENCE = 6
THRESH=10
GUI = 2
$end



$solvent
dielectric 4.90
$end
--------------------------------------------------------------
 ----------------------------------------------------------------
             Standard Nuclear Orientation (Angstroms)
    I     Atom           X                Y                Z
 ----------------------------------------------------------------
    1      C      -0.3062350000    -8.5177020000    -0.0959660000
    2      C       0.7544150000    -7.6415750000     0.0828070000
    3      S      -1.8337020000    -7.6386340000    -0.3486350000
    4      C       0.3836750000    -6.2647850000     0.0174010000
    5      H       1.7877570000    -7.9660810000     0.2590080000
    6      C      -1.0208850000    -6.0727140000    -0.2319130000
    7      C      -1.5790970000    -4.7870490000    -0.3050440000
    8      C       1.2680820000    -5.1628010000     0.1965490000
    9      C       0.7087960000    -3.8748170000     0.1276060000
   10      C      -0.6967690000    -3.6839520000    -0.1247920000
   11      O       2.5723780000    -5.4997720000     0.3978670000
   12      O      -2.8895320000    -4.4590550000    -0.5061030000
   13      C      -3.7184200000    -5.3290630000    -1.2673350000
   14      H      -4.6352040000    -4.7556940000    -1.5028040000
   15      H      -4.0107900000    -6.2380950000    -0.6974710000
   16      H      -3.2265060000    -5.6372620000    -2.2151940000
   17      C       3.4674150000    -4.5722610000     0.9992380000
   18      H       4.3886480000    -5.1397430000     1.2306490000
   19      H       3.0523230000    -4.1531310000     1.9409050000
   20      H       3.7308190000    -3.7395310000     0.3115430000
   21      C      -1.0643660000    -2.3066540000    -0.1873230000
   22      S       1.5211540000    -2.3065010000     0.2571280000
   23      C       0.0000000000    -1.4351850000     0.0000000000
   24      H      -2.0959390000    -1.9781380000    -0.3659030000
   25      C       0.0000000000     0.0000000000     0.0000000000
   26      S       0.0004740000     0.9047640000     1.5075410000
   27      C      -0.0002950000     2.4773050000     0.7188730000
   28      C       0.0007520000     0.9044470000    -1.0678720000
   29      C      -0.0015600000     2.2945930000    -0.6864100000
   30      S       0.0036020000     0.6608720000    -2.8055160000
   31      C      -0.0019280000     2.4125460000    -3.0545300000
   32      C      -0.0043810000     3.1208540000    -1.8625510000
   33      F      -0.0091850000     4.4575030000    -1.8190880000
   34      C      -0.0000380000     2.8605700000    -4.4560840000
   35      O       0.0079440000     2.0907240000    -5.4065100000
   36      O      -0.0075010000     4.2110920000    -4.5692250000
   37      C      -0.0022780000     4.7061770000    -5.9162070000
   38      H      -0.0092650000     5.8072070000    -5.8330640000
   39      H      -0.8953810000     4.3528750000    -6.4701680000
   40      H       0.9015210000     4.3633010000    -6.4592930000
   41      H      -0.0017080000     3.4015620000     1.3064860000
   42      H      -0.4577360000    -9.1436230000     0.7913460000
   43      H      -0.1580560000    -9.1494410000    -0.9797080000
   44      H      -0.1802050000    -1.4431750000     1.0648300000
 ----------------------------------------------------------------
 Nuclear Repulsion Energy =        3328.69282983 hartrees
 There are      120 alpha and      120 beta electrons
 Requested basis set is cc-pVTZ
 There are 388 shells and 1096 basis functions

 Total QAlloc Memory Limit 110000 MB
 Mega-Array Size       188 MB
 MEM_STATIC part       192 MB
 Discretize the solute cavity surface with Lebedev spheres
	Using 110 Lebedev grid points for each H atom
	Using 194 Lebedev grid points for other atoms
	Atomic van der Waals radii will be scaled by 1.20
 Remove points where switching function is < 1.0e-08
 Keep 2997 surface tesserae and discard 4279 interior tesserae
 Molecular Surface Area = 445.914 Angst**2
 Requested basis set is rimp2-cc-pVTZ
 There are 853 shells and 2963 basis functions
 A cutoff of  1.0D-10 yielded  32786 shell pairs
 There are    247888 function pairs (    320852 Cartesian)
 Smallest overlap matrix eigenvalue = 2.22E-05

 Scale SEOQF with 1.000000e-01/1.000000e-02/1.000000e-02

 Standard Electronic Orientation quadrupole field applied
 Nucleus-field energy     =     0.0000000391 hartrees
 Guess from superposition of atomic densities
 Warning:  Energy on first SCF cycle will be non-variational
 SAD guess density has 240.000000 electrons

 -----------------------------------------------------------------------
  General SCF calculation program by
  Eric Jon Sundstrom, Paul Horn, Yuezhi Mao, Dmitri Zuev, Alec White,
  David Stuck, Shaama M.S., Shane Yost, Joonho Lee, David Small,
  Daniel Levine, Susi Lehtola, Hugh Burton, Evgeny Epifanovsky,
  Bang C. Huynh
 -----------------------------------------------------------------------
 Hartree-Fock
 using 64 threads for integral computing
 -------------------------------------------------------
 OpenMP Integral computing Module                
 Release: version 1.0, May 2013, Q-Chem Inc. Pittsburgh 
 -------------------------------------------------------
 A restricted SCF calculation will be
 performed using DIIS
 SCF converges when DIIS error is below 1.0e-06
 ---------------------------------------
  Cycle       Energy         DIIS error
 ---------------------------------------
    1   -2767.0181067630      1.75e-02  
    2   -2754.8967311751      1.53e-03  
    3   -2755.2448495885      8.49e-04  
    4   -2755.3299684455      2.57e-04  
    5   -2755.3433568073      7.33e-05  
    6   -2755.3448315688      2.56e-05  
    7   -2755.3452096737      1.33e-05  
    8   -2755.3453334587      5.60e-06  
    9   -2755.3453635013      2.85e-06  
   10   -2755.3453706802      1.47e-06  
   11   -2755.3453729629      7.50e-07  Convergence criterion met
 ---------------------------------------
 SCF time:   CPU 7522.34s  wall 273.00s 

************** Final PCM Free Energy Summary **************
 G_electrostatic  =      -0.02135473 hartree =     -13.40029522 kcal/mol
 G_cavitation     =       0.00000000 hartree =       0.00000000 kcal/mol
 G_dispersion     =       0.00000000 hartree =       0.00000000 kcal/mol
 G_repulsion      =       0.00000000 hartree =       0.00000000 kcal/mol
 --------------------------------------------------
 Non-electrostatic Free Energy =       0.00000000 hartree =       0.00000000 kcal/mol
 Total                         =      -0.02135473 hartree =     -13.40029522 kcal/mol
 --------------------------------------------------
 SCF Energy (H0 + V/2)                       =   -2755.34537296 
 Solute Internal Energy (H0)                 =   -2755.32401823 
 Total Free Energy (H0 + V/2 + non-elec)     =   -2755.34537296 hartree
                                             = -1729005.31741022 kcal/mol
***********************************************************

 SCF   energy in the final basis set =    -2755.3453729629
 Total energy in the final basis set =    -2755.3453729629


 --------------------------------------------------------------
  Generalized many-body perturbation theory program
  by Joonho Lee, Fazle Rob, Xintian Feng, Evgeny Epifanovsky

 No regularization used 
 (reg. param. = 0.0000e+00)
  (P|Q)^-1/2 Time:  CPU 397.30 s  wall 6.27 s

 In RI-MP2 calculation: 
 # of frozen core orbitals: 45

 Components of the RIMP2 correlation energy:
        aaaa    correlation energy =        -0.6681883120 a.u.
        abab    correlation energy =        -3.7502447725 a.u.
        bbbb    correlation energy =        -0.6681883120 a.u.
        non-Brillouin singles      =        -0.0000000000 a.u.
        total same-spin energy     =        -1.3363766240 a.u.
        total opposite-spin energy =        -3.7502447725 a.u.

 Total  RIMP2   correlation energy =        -5.0866213966 a.u.
        RIMP2         total energy =     -2760.4319943594 a.u.

 RI-MP2 Energy Time:  CPU 3187.21 s  wall 51.14 s
 
 --------------------------------------------------------------
 
                    Orbital Energies (a.u.)
 --------------------------------------------------------------
 
 Alpha MOs
 -- Occupied --
-92.0178 -91.9981 -91.9763 -91.9578 -26.3435 -20.6150 -20.5869 -20.5864
-20.5615 -11.4096 -11.3826 -11.3116 -11.3087 -11.3063 -11.2999 -11.2986
-11.2980 -11.2890 -11.2851 -11.2842 -11.2825 -11.2825 -11.2791 -11.2724
-11.2721 -11.2578 -11.2570 -11.2492 -11.2359  -9.0164  -8.9982  -8.9785
 -8.9604  -6.6971  -6.6966  -6.6960  -6.6792  -6.6785  -6.6774  -6.6596
 -6.6587  -6.6574  -6.6416  -6.6407  -6.6397  -1.6606  -1.4674  -1.4099
 -1.4086  -1.3701  -1.2283  -1.2024  -1.1732  -1.1376  -1.0994  -1.0455
 -1.0442  -1.0246  -1.0033  -0.9966  -0.9628  -0.9586  -0.9480  -0.9405
 -0.8928  -0.8686  -0.8665  -0.8136  -0.7988  -0.7887  -0.7844  -0.7674
 -0.7567  -0.7376  -0.7255  -0.7170  -0.6972  -0.6860  -0.6846  -0.6794
 -0.6740  -0.6603  -0.6558  -0.6483  -0.6334  -0.6301  -0.6196  -0.6148
 -0.6111  -0.5991  -0.5915  -0.5768  -0.5714  -0.5644  -0.5583  -0.5538
 -0.5492  -0.5320  -0.5308  -0.5252  -0.5128  -0.5075  -0.5068  -0.5012
 -0.4855  -0.4816  -0.4768  -0.4740  -0.4714  -0.4676  -0.4607  -0.4460
 -0.4228  -0.3999  -0.3846  -0.3698  -0.3508  -0.3014  -0.2889  -0.2205
 -- Virtual --
  0.0344   0.0528   0.1085   0.1167   0.1398   0.1486   0.1532   0.1555
  0.1576   0.1607   0.1683   0.1738   0.1814   0.1838   0.1876   0.1954
  0.1994   0.2038   0.2053   0.2149   0.2193   0.2213   0.2254   0.2275
  0.2309   0.2329   0.2390   0.2463   0.2499   0.2548   0.2633   0.2685
  0.2731   0.2883   0.3006   0.3251   0.3302   0.3331   0.3386   0.3415
  0.3473   0.3544   0.3581   0.3617   0.3686   0.3808   0.3838   0.3847
  0.3891   0.3907   0.3942   0.4010   0.4062   0.4095   0.4158   0.4204
  0.4245   0.4270   0.4301   0.4368   0.4378   0.4411   0.4478   0.4502
  0.4552   0.4568   0.4651   0.4652   0.4687   0.4750   0.4784   0.4805
  0.4927   0.4962   0.4984   0.5040   0.5046   0.5085   0.5155   0.5193
  0.5201   0.5299   0.5336   0.5346   0.5404   0.5418   0.5448   0.5490
  0.5495   0.5541   0.5571   0.5586   0.5619   0.5672   0.5731   0.5773
  0.5804   0.5861   0.5868   0.5946   0.5982   0.6046   0.6093   0.6112
  0.6136   0.6173   0.6186   0.6200   0.6226   0.6244   0.6251   0.6298
  0.6336   0.6364   0.6422   0.6440   0.6474   0.6497   0.6535   0.6578
  0.6606   0.6654   0.6690   0.6741   0.6782   0.6868   0.6936   0.6953
  0.7040   0.7078   0.7120   0.7152   0.7188   0.7213   0.7231   0.7301
  0.7423   0.7467   0.7563   0.7593   0.7600   0.7709   0.7752   0.7846
  0.7929   0.7972   0.8016   0.8038   0.8145   0.8159   0.8194   0.8265
  0.8305   0.8375   0.8432   0.8462   0.8593   0.8638   0.8708   0.8748
  0.8771   0.8855   0.8875   0.8920   0.8954   0.9031   0.9061   0.9104
  0.9124   0.9221   0.9308   0.9328   0.9406   0.9485   0.9509   0.9566
  0.9568   0.9616   0.9677   0.9730   0.9796   0.9828   0.9839   0.9888
  0.9945   0.9975   1.0052   1.0091   1.0113   1.0209   1.0250   1.0261
  1.0336   1.0447   1.0458   1.0490   1.0524   1.0584   1.0657   1.0705
  1.0720   1.0799   1.0807   1.0859   1.0909   1.0976   1.1007   1.1045
  1.1093   1.1116   1.1147   1.1236   1.1279   1.1359   1.1424   1.1484
  1.1541   1.1570   1.1640   1.1657   1.1719   1.1747   1.1794   1.1848
  1.1886   1.1904   1.1980   1.2009   1.2084   1.2118   1.2141   1.2227
  1.2235   1.2286   1.2343   1.2390   1.2408   1.2493   1.2501   1.2536
  1.2606   1.2626   1.2655   1.2712   1.2752   1.2821   1.2889   1.2905
  1.3023   1.3031   1.3087   1.3158   1.3260   1.3287   1.3321   1.3433
  1.3583   1.3611   1.3706   1.3723   1.3808   1.3851   1.3944   1.4020
  1.4037   1.4084   1.4140   1.4199   1.4275   1.4335   1.4447   1.4537
  1.4579   1.4680   1.4783   1.4802   1.4884   1.4965   1.4973   1.5002
  1.5030   1.5059   1.5108   1.5153   1.5231   1.5326   1.5363   1.5386
  1.5406   1.5436   1.5496   1.5533   1.5555   1.5691   1.5757   1.5797
  1.5885   1.5897   1.6017   1.6045   1.6182   1.6241   1.6287   1.6380
  1.6441   1.6512   1.6581   1.6612   1.6659   1.6712   1.6841   1.6858
  1.6920   1.6999   1.7067   1.7117   1.7199   1.7223   1.7295   1.7432
  1.7606   1.7636   1.7809   1.7837   1.7938   1.7989   1.8022   1.8119
  1.8179   1.8206   1.8306   1.8476   1.8495   1.8583   1.8668   1.8800
  1.8815   1.8903   1.8964   1.9050   1.9183   1.9245   1.9284   1.9370
  1.9401   1.9466   1.9591   1.9650   1.9715   1.9772   1.9943   1.9972
  2.0032   2.0170   2.0204   2.0268   2.0285   2.0389   2.0433   2.0518
  2.0652   2.0701   2.0820   2.0911   2.0959   2.1023   2.1040   2.1099
  2.1418   2.1505   2.1572   2.1613   2.1775   2.1833   2.1872   2.1937
  2.2000   2.2053   2.2099   2.2136   2.2248   2.2283   2.2292   2.2410
  2.2475   2.2540   2.2598   2.2640   2.2700   2.2784   2.2920   2.3047
  2.3121   2.3131   2.3216   2.3296   2.3457   2.3513   2.3564   2.3661
  2.3701   2.3867   2.3911   2.4005   2.4101   2.4130   2.4202   2.4263
  2.4296   2.4338   2.4540   2.4645   2.4701   2.4808   2.4906   2.4937
  2.4971   2.5134   2.5188   2.5326   2.5352   2.5446   2.5575   2.5621
  2.5679   2.5799   2.5997   2.6023   2.6169   2.6185   2.6231   2.6264
  2.6277   2.6300   2.6422   2.6476   2.6489   2.6536   2.6651   2.6741
  2.6759   2.6816   2.6869   2.6891   2.7016   2.7038   2.7059   2.7087
  2.7163   2.7248   2.7416   2.7474   2.7538   2.7542   2.7629   2.7717
  2.7807   2.7867   2.7890   2.8017   2.8061   2.8095   2.8149   2.8258
  2.8314   2.8432   2.8480   2.8532   2.8553   2.8654   2.8692   2.8745
  2.8797   2.8861   2.8890   2.9031   2.9093   2.9158   2.9243   2.9449
  2.9470   2.9511   2.9595   2.9612   2.9712   2.9797   2.9841   2.9888
  2.9925   3.0105   3.0186   3.0229   3.0233   3.0340   3.0408   3.0457
  3.0516   3.0608   3.0680   3.0796   3.0822   3.0924   3.0943   3.0994
  3.1027   3.1068   3.1122   3.1236   3.1285   3.1321   3.1411   3.1429
  3.1460   3.1507   3.1555   3.1607   3.1658   3.1693   3.1755   3.1810
  3.1885   3.1968   3.2033   3.2068   3.2108   3.2172   3.2234   3.2250
  3.2322   3.2381   3.2433   3.2484   3.2529   3.2557   3.2648   3.2658
  3.2689   3.2704   3.2787   3.2843   3.2874   3.2914   3.2959   3.2989
  3.3048   3.3098   3.3197   3.3266   3.3277   3.3337   3.3357   3.3389
  3.3433   3.3508   3.3516   3.3561   3.3633   3.3643   3.3670   3.3719
  3.3754   3.3765   3.3900   3.3927   3.3959   3.4021   3.4045   3.4062
  3.4075   3.4176   3.4240   3.4291   3.4310   3.4348   3.4378   3.4445
  3.4474   3.4561   3.4576   3.4613   3.4647   3.4694   3.4713   3.4771
  3.4855   3.4897   3.4953   3.4996   3.5085   3.5126   3.5240   3.5266
  3.5368   3.5436   3.5469   3.5527   3.5574   3.5668   3.5710   3.5717
  3.5778   3.5825   3.5866   3.5911   3.5934   3.6019   3.6084   3.6166
  3.6204   3.6246   3.6288   3.6299   3.6352   3.6426   3.6449   3.6527
  3.6540   3.6650   3.6751   3.6775   3.6804   3.6819   3.6870   3.6922
  3.6942   3.7042   3.7058   3.7087   3.7160   3.7193   3.7222   3.7308
  3.7346   3.7405   3.7504   3.7535   3.7553   3.7654   3.7675   3.7734
  3.7816   3.7870   3.7900   3.7955   3.8027   3.8078   3.8092   3.8150
  3.8182   3.8201   3.8232   3.8310   3.8455   3.8491   3.8517   3.8544
  3.8642   3.8672   3.8729   3.8796   3.8863   3.8901   3.8974   3.9046
  3.9091   3.9158   3.9229   3.9369   3.9438   3.9492   3.9543   3.9581
  3.9640   3.9684   3.9771   3.9835   3.9908   4.0023   4.0028   4.0162
  4.0185   4.0202   4.0298   4.0385   4.0516   4.0611   4.0670   4.0685
  4.0699   4.0829   4.0847   4.1010   4.1050   4.1160   4.1255   4.1317
  4.1344   4.1389   4.1511   4.1575   4.1639   4.1654   4.1698   4.1728
  4.1797   4.1851   4.1937   4.2073   4.2111   4.2126   4.2274   4.2328
  4.2412   4.2477   4.2504   4.2703   4.2844   4.2886   4.2932   4.3048
  4.3103   4.3203   4.3238   4.3414   4.3431   4.3444   4.3538   4.3587
  4.3628   4.3734   4.3810   4.3839   4.3905   4.4058   4.4108   4.4171
  4.4233   4.4272   4.4320   4.4337   4.4356   4.4404   4.4493   4.4549
  4.4593   4.4741   4.4893   4.4984   4.5052   4.5175   4.5193   4.5250
  4.5348   4.5447   4.5575   4.5664   4.5683   4.5712   4.5778   4.5830
  4.5844   4.5978   4.6053   4.6180   4.6276   4.6395   4.6441   4.6549
  4.6650   4.6742   4.6755   4.6852   4.6990   4.7081   4.7155   4.7284
  4.7388   4.7464   4.7666   4.7778   4.7793   4.7801   4.8057   4.8135
  4.8236   4.8332   4.8501   4.8547   4.8662   4.8818   4.8876   4.8963
  4.9113   4.9281   4.9332   4.9416   4.9500   4.9631   4.9642   4.9683
  4.9851   4.9952   5.0088   5.0112   5.0172   5.0249   5.0408   5.0476
  5.0644   5.0824   5.0941   5.1141   5.1238   5.1278   5.1511   5.1642
  5.1761   5.1956   5.2048   5.2098   5.2214   5.2361   5.2506   5.2526
  5.2579   5.2677   5.2776   5.2877   5.2937   5.3117   5.3182   5.3278
  5.3353   5.3497   5.3509   5.3667   5.3719   5.3893   5.3918   5.4024
  5.4092   5.4161   5.4261   5.4434   5.4580   5.4849   5.4986   5.5045
  5.5106   5.5217   5.5245   5.5385   5.5663   5.5694   5.5822   5.5844
  5.5975   5.6120   5.6215   5.6389   5.6506   5.6588   5.6908   5.6965
  5.7183   5.7329   5.7602   5.7626   5.7789   5.8074   5.8190   5.8470
  5.8592   5.8796   5.9010   5.9163   5.9290   5.9464   5.9776   5.9978
  6.0400   6.0431   6.0884   6.1228   6.1504   6.1538   6.1731   6.1774
  6.1810   6.2004   6.2301   6.2422   6.2613   6.2620   6.2785   6.2865
  6.2888   6.3256   6.3389   6.3906   6.4306   6.4500   6.4846   6.5383
  6.5463   6.5665   6.6032   6.6470   6.6610   6.6710   6.7133   6.7460
  6.8073   6.8298   6.8561   6.8593   6.8992   6.9781   7.1314   7.1459
  7.2038   7.2076   7.2225   7.2395   7.3097   7.3268   7.3417   7.3629
  7.3638   7.4063   7.4131   7.4854   7.4869   7.4971   7.5244   7.5509
  7.6155   7.7382   7.7727   7.7899   7.8031   7.9019   7.9270   7.9550
  7.9721   8.1336   8.2911   8.5646   8.9216   9.0269   9.3625   9.4856
  9.6743  10.2392  11.1684  11.4337  11.7547  11.9593  12.1206  12.3843
 12.4321  12.5047  12.9158  13.0141  13.0400  13.2425  13.3847  13.4808
 13.7434  13.7707  13.8791  13.9469  14.0325  14.3122  14.8938  15.2044
 --------------------------------------------------------------
 
          Ground-State Mulliken Net Atomic Charges

     Atom                 Charge (a.u.)
  ----------------------------------------
      1 C                    -0.070148
      2 C                    -0.261957
      3 S                    -0.136171
      4 C                    -0.043389
      5 H                     0.193098
      6 C                    -0.052777
      7 C                     0.227146
      8 C                     0.224505
      9 C                    -0.080876
     10 C                    -0.064803
     11 O                    -0.335220
     12 O                    -0.343532
     13 C                    -0.082540
     14 H                     0.120004
     15 H                     0.091740
     16 H                     0.093153
     17 C                    -0.086167
     18 H                     0.122841
     19 H                     0.091432
     20 H                     0.090615
     21 C                    -0.232820
     22 S                    -0.074394
     23 C                     0.073446
     24 H                     0.206153
     25 C                    -0.117559
     26 S                     0.093332
     27 C                    -0.187997
     28 C                     0.045291
     29 C                    -0.117235
     30 S                     0.008517
     31 C                    -0.158094
     32 C                     0.401960
     33 F                    -0.207202
     34 C                     0.444106
     35 O                    -0.460632
     36 O                    -0.300550
     37 C                    -0.058638
     38 H                     0.121371
     39 H                     0.095136
     40 H                     0.095218
     41 H                     0.219279
     42 H                     0.116878
     43 H                     0.114804
     44 H                     0.182677
  ----------------------------------------
  Sum of atomic charges =     0.000000

 -----------------------------------------------------------------
                    Cartesian Multipole Moments
 -----------------------------------------------------------------
    Charge (ESU x 10^10)
                 0.0000
    Dipole Moment (Debye)
         X      -0.0249      Y       3.2011      Z       3.5192
       Tot       4.7574
    Quadrupole Moments (Debye-Ang)
        XX    -187.8928     XY      -3.5390     YY    -176.0535
        XZ       7.8823     YZ      -7.9683     ZZ    -201.8181
    Octopole Moments (Debye-Ang^2)
       XXX      51.5058    XXY     314.5118    XYY      47.5024
       YYY     978.9350    XXZ     175.7724    XYZ     -38.1289
       YYZ     114.9025    XZZ      14.0875    YZZ     453.1588
       ZZZ     574.7477
    Hexadecapole Moments (Debye-Ang^3)
      XXXX   -2303.2115   XXXY    -543.5419   XXYY   -4095.4202
      XYYY    -803.2404   YYYY  -20550.8877   XXXZ    -157.2042
      XXYZ     504.1384   XYYZ      83.3688   YYYZ    1093.3057
      XXZZ   -1319.8535   XYZZ    -174.5989   YYZZ   -4126.4245
      XZZZ    -278.6453   YZZZ     880.6294   ZZZZ   -5575.9746
 -----------------------------------------------------------------
 Total job time:  330.70s(wall), 10840.38s(cpu) 
 Tue Jan  9 10:44:27 2024

        *************************************************************
        *                                                           *
        *  Thank you very much for using Q-Chem.  Have a nice day.  *
        *                                                           *
        *************************************************************


0 sent ACK to 0 
now end server 0 ... 
cleanup process ... done
remove work dirs ./qchem1975806.0 -- ./qchem1975806.0
rm -rf ./qchem1975806.0
rm -rf ./qchem1975806
