You are running Q-Chem version: 5.4.0

#
# job setting
#
local host:  exp-4-19
current dir: /home/rramji/project-csd799/aromodel/ptb7fout-qchem/hydrogenated-rotation-run
input file:  Dimethoxy_Benzodithiophene_Phi_25_Theta_180_Methylcarbonyl_3_Fluoro_Thienothiophene_Hydrogenated.qcin
output file: 
nprocs     : 1
nthreads   : 64
#
# qchem installation setting
#
QC:          /cm/shared/apps/spack/cpu/opt/spack/linux-centos8-zen2/gcc-10.2.0/qchem-5.4-akfmr7b3t57bfs6qan3padb2wnb2i7cl
QCAUX:       /cm/shared/apps/spack/cpu/opt/spack/linux-centos8-zen2/gcc-10.2.0/qchem-5.4-akfmr7b3t57bfs6qan3padb2wnb2i7cl/qcaux
QCPROG:      /cm/shared/apps/spack/cpu/opt/spack/linux-centos8-zen2/gcc-10.2.0/qchem-5.4-akfmr7b3t57bfs6qan3padb2wnb2i7cl/exe/qcprog.exe
QCPROG_S:    /cm/shared/apps/spack/cpu/opt/spack/linux-centos8-zen2/gcc-10.2.0/qchem-5.4-akfmr7b3t57bfs6qan3padb2wnb2i7cl/exe/qcprog.exe_s
PARALLEL:    -DPARALLEL
QCMPI:       mpich
#
# qchem directory setting
#
qcrun:       qchem3308119
QCSCRATCH:   .
QCLOCALSCR:  
QCTMPDIR:    .
QCFILEPREF:  ./qchem3308119
QCSAVEDIR:   
workdirs:    ./qchem3308119
workdir0:    ./qchem3308119
partmpdirs =  
#
# parallel setting
#
QCRSH:           ssh
QCMPI:           mpich
QCMPIRUN:        /cm/shared/apps/spack/cpu/opt/spack/linux-centos8-zen2/gcc-10.2.0/qchem-5.4-akfmr7b3t57bfs6qan3padb2wnb2i7cl/bin/mpi/mpirun_qchem
QCMACHINEFILE:   ./qchem3308119/hostfile
exp-4-19

#
# env setting
#
exported envs:   QC QCAUX QCSCRATCH QCRUNNAME QCFILEPREF QCPROG QCPROG_S GUIFILE

Running Job 1 of 1 Dimethoxy_Benzodithiophene_Phi_25_Theta_180_Methylcarbonyl_3_Fluoro_Thienothiophene_Hydrogenated.qcin
qchem Dimethoxy_Benzodithiophene_Phi_25_Theta_180_Methylcarbonyl_3_Fluoro_Thienothiophene_Hydrogenated.qcin_3308119.0 ./qchem3308119/ 1
/cm/shared/apps/spack/cpu/opt/spack/linux-centos8-zen2/gcc-10.2.0/qchem-5.4-akfmr7b3t57bfs6qan3padb2wnb2i7cl/bin/mpi/mpirun_qchem -machinefile ./qchem3308119/hostfile -np 1 /cm/shared/apps/spack/cpu/opt/spack/linux-centos8-zen2/gcc-10.2.0/qchem-5.4-akfmr7b3t57bfs6qan3padb2wnb2i7cl/exe/qcprog.exe Dimethoxy_Benzodithiophene_Phi_25_Theta_180_Methylcarbonyl_3_Fluoro_Thienothiophene_Hydrogenated.qcin_3308119.0 ./qchem3308119/

Process 0 of 1 is on exp-4-19 - thread support 0
initial socket setup ...start
initial socket setup ...done 
now start server 0 ... 
                  Welcome to Q-Chem
     A Quantum Leap Into The Future Of Chemistry


 Q-Chem 5.4, Q-Chem, Inc., Pleasanton, CA (2021)

 License issued to: University of California, San Diego (site)

 E. Epifanovsky,  A. T. B. Gilbert,  Xintian Feng,  Joonho Lee,  Yuezhi Mao,  
 N. Mardirossian,  P. Pokhilko,  A. White,  M. Wormit,  M. P. Coons,  
 A. L. Dempwolff,  Zhengting Gan,  D. Hait,  P. R. Horn,  L. D. Jacobson,  
 I. Kaliman,  J. Kussmann,  A. W. Lange,  Ka Un Lao,  D. S. Levine,  Jie Liu,  
 S. C. McKenzie,  A. F. Morrison,  K. Nanda,  F. Plasser,  D. R. Rehn,  
 M. L. Vidal,  Zhi-Qiang You,  Ying Zhu,  B. Alam,  B. Albrecht,  
 A. Aldossary,  E. Alguire,  J. H. Andersen,  D. Barton,  K. Begam,  A. Behn,  
 Y. A. Bernard,  E. J. Berquist,  H. Burton,  A. Carreras,  K. Carter-Fenk,  
 R. Chakraborty,  A. D. Chien,  K. D. Closser,  V. Cofer-Shabica,  
 S. Dasgupta,  Jia Deng,  M. de Wergifosse,  M. Diedenhofen,  Hainam Do,  
 S. Ehlert,  Po-Tung Fang,  S. Fatehi,  Qingguo Feng,  J. Gayvert,  
 Qinghui Ge,  G. Gidofalvi,  M. Goldey,  J. Gomes,  C. Gonzalez-Espinoza,  
 S. Gulania,  A. Gunina,  M. W. D. Hanson-Heine,  P. H. P. Harbach,  
 A. W. Hauser,  M. F. Herbst,  M. Hernandez Vera,  M. Hodecker,  
 Z. C. Holden,  S. Houck,  Xunkun Huang,  Kerwin Hui,  B. C. Huynh,  
 M. Ivanov,  Hyunjun Ji,  Hanjie Jiang,  B. Kaduk,  S. Kaehler,  
 K. Khistyaev,  Jaehoon Kim,  P. Klunzinger,  Z. Koczor-Benda,  
 Joong Hoon Koh,  D. Kosenkov,  L. Koulias,  T. Kowalczyk,  C. M. Krauter,  
 K. Kue,  A. Kunitsa,  T. Kus,  A. Landau,  K. V. Lawler,  D. Lefrancois,  
 S. Lehtola,  Rain Li,  Yi-Pei Li,  Jiashu Liang,  M. Liebenthal,  
 Hung-Hsuan Lin,  You-Sheng Lin,  Fenglai Liu,  Kuan-Yu Liu,  
 M. Loipersberger,  A. Luenser,  A. Manjanath,  P. Manohar,  E. Mansoor,  
 S. F. Manzer,  Shan-Ping Mao,  A. V. Marenich,  T. Markovich,  S. Mason,  
 S. A. Maurer,  P. F. McLaughlin,  M. F. S. J. Menger,  J.-M. Mewes,  
 S. A. Mewes,  P. Morgante,  J. W. Mullinax,  T. S. Nguyen-Beck,  
 K. J. Oosterbaan,  G. Paran,  Alexander C. Paul,  Suranjan K. Paul,  
 F. Pavosevic,  Zheng Pei,  S. Prager,  E. I. Proynov,  E. Ramos,  B. Rana,  
 A. E. Rask,  A. Rettig,  R. M. Richard,  F. Rob,  E. Rossomme,  T. Scheele,  
 M. Scheurer,  M. Schneider,  N. Sergueev,  S. M. Sharada,  W. Skomorowski,  
 D. W. Small,  C. J. Stein,  Yu-Chuan Su,  E. J. Sundstrom,  Zhen Tao,  
 J. Thirman,  T. Tsuchimochi,  N. M. Tubman,  S. P. Veccham,  O. Vydrov,  
 J. Wenzel,  J. Witte,  A. Yamada,  Kun Yao,  S. Yeganeh,  S. R. Yost,  
 A. Zech,  Igor Ying Zhang,  Xing Zhang,  Yu Zhang,  D. Zuev,  
 A. Aspuru-Guzik,  A. T. Bell,  N. A. Besley,  K. B. Bravaya,  B. R. Brooks,  
 D. Casanova,  Jeng-Da Chai,  S. Coriani,  C. J. Cramer,  
 A. E. DePrince, III,  R. A. DiStasio Jr.,  A. Dreuw,  B. D. Dunietz,  
 T. R. Furlani,  W. A. Goddard III,  S. Grimme,  S. Hammes-Schiffer,  
 T. Head-Gordon,  W. J. Hehre,  Chao-Ping Hsu,  T.-C. Jagau,  Yousung Jung,  
 A. Klamt,  Jing Kong,  D. S. Lambrecht,  WanZhen Liang,  N. J. Mayhall,  
 C. W. McCurdy,  J. B. Neaton,  C. Ochsenfeld,  J. A. Parkhill,  R. Peverati,  
 V. A. Rassolov,  Yihan Shao,  L. V. Slipchenko,  T. Stauch,  R. P. Steele,  
 J. E. Subotnik,  A. J. W. Thom,  A. Tkatchenko,  D. G. Truhlar,  
 T. Van Voorhis,  T. A. Wesolowski,  K. B. Whaley,  H. L. Woodcock III,  
 P. M. Zimmerman,  S. Faraji,  P. M. W. Gill,  M. Head-Gordon,  
 J. M. Herbert,  A. I. Krylov

 Contributors to earlier versions of Q-Chem not listed above: 
 R. D. Adamson,  B. Austin,  R. Baer,  J. Baker,  G. J. O. Beran,  
 K. Brandhorst,  S. T. Brown,  E. F. C. Byrd,  A. K. Chakraborty,  
 G. K. L. Chan,  Chun-Min Chang,  Yunqing Chen,  C.-L. Cheng,  
 Siu Hung Chien,  D. M. Chipman,  D. L. Crittenden,  H. Dachsel,  
 R. J. Doerksen,  A. D. Dutoi,  R. G. Edgar,  J. Fosso-Tande,  
 L. Fusti-Molnar,  D. Ghosh,  A. Ghysels,  A. Golubeva-Zadorozhnaya,  
 J. Gonthier,  M. S. Gordon,  S. R. Gwaltney,  G. Hawkins,  J. E. Herr,  
 A. Heyden,  S. Hirata,  E. G. Hohenstein,  G. Kedziora,  F. J. Keil,  
 C. Kelley,  Jihan Kim,  R. A. King,  R. Z. Khaliullin,  P. P. Korambath,  
 W. Kurlancheek,  A. Laurent,  A. M. Lee,  M. S. Lee,  S. V. Levchenko,  
 Ching Yeh Lin,  D. Liotard,  E. Livshits,  R. C. Lochan,  I. Lotan,  
 L. A. Martinez-Martinez,  P. E. Maslen,  N. Nair,  D. P. O'Neill,  
 D. Neuhauser,  E. Neuscamman,  C. M. Oana,  R. Olivares-Amaya,  R. Olson,  
 T. M. Perrine,  B. Peters,  P. A. Pieniazek,  A. Prociuk,  Y. M. Rhee,  
 J. Ritchie,  M. A. Rohrdanz,  E. Rosta,  N. J. Russ,  H. F. Schaefer III,  
 M. W. Schmidt,  N. E. Schultz,  S. Sharma,  N. Shenvi,  C. D. Sherrill,  
 A. C. Simmonett,  A. Sodt,  T. Stein,  D. Stuck,  K. S. Thanthiriwatte,  
 V. Vanovschi,  L. Vogt,  Tao Wang,  A. Warshel,  M. A. Watson,  
 C. F. Williams,  Q. Wu,  X. Xu,  Jun Yang,  W. Zhang,  Yan Zhao

 Please cite Q-Chem as follows:
 Y. Shao et al., Mol. Phys. 113, 184-215 (2015)
 DOI: 10.1080/00268976.2014.952696

 Q-Chem 5.4.0 for Intel X86 EM64T Linux

 Parts of Q-Chem use Armadillo 9.800.1 (Horizon Scraper).
 http://arma.sourceforge.net/

 Q-Chem begins on Tue Jan  9 11:21:46 2024  

 Host: 
0

     Scratch files written to ./qchem3308119//
 May1621 |scratch|qcdevops|jenkins|workspace|build_RNUM    
 Parallel job on  1  processors
 Processing $rem in /cm/shared/apps/spack/cpu/opt/spack/linux-centos8-zen2/gcc-10.2.0/qchem-5.4-akfmr7b3t57bfs6qan3padb2wnb2i7cl/config/preferences:
 Processing $rem in /home/rramji/.qchemrc:
 Symmetry turned off for PCM/SM12/SMD calculation
 Core orbitals will be frozen

 Checking the input file for inconsistencies... 	...done.

 Q-Chem warning in module forms1/BasisType.C, line 2236:

 You are not using the predefined 5D/6D in this basis set.


--------------------------------------------------------------
User input:
--------------------------------------------------------------
$molecule
0 1
C	0.041330	-8.517702	-0.318247
C	0.049453	-7.641575	0.757333
S	0.024919	-7.638634	-1.866383
C	0.049488	-6.264785	0.380867
H	0.055368	-7.966081	1.805573
C	0.051115	-6.072714	-1.045647
C	0.026203	-4.787049	-1.608077
C	0.026637	-5.162801	1.282948
C	-0.002586	-3.874817	0.720187
C	0.001903	-3.683952	-0.707853
O	0.054867	-5.499772	2.602386
O	-0.003348	-4.459055	-2.933517
C	0.602384	-5.329063	-3.881999
H	0.675079	-4.755694	-4.825744
H	-0.009592	-6.238095	-4.070972
H	1.621263	-5.637262	-3.562152
C	-0.381947	-4.572261	3.588253
H	-0.449872	-5.139743	4.535674
H	-1.381388	-4.153131	3.342986
H	0.341040	-3.739531	3.728239
C	-0.000348	-2.306654	-1.080725
S	0.010924	-2.306501	1.542694
C	-0.000000	-1.435185	-0.000000
H	-0.003612	-1.978138	-2.127635
C	0.000000	0.000000	0.000000
S	0.382799	0.819795	1.507541
C	1.046687	2.245325	0.718873
C	0.382918	0.819389	-1.067872
C	0.968323	2.080267	-0.686410
S	0.282561	0.597432	-2.805516
C	1.017839	2.187324	-3.054530
C	1.314960	2.830306	-1.862551
F	1.875498	4.043751	-1.819088
C	1.208895	2.592573	-4.456084
O	0.890778	1.891482	-5.406510
O	1.772886	3.819715	-4.569225
C	1.986852	4.266207	-5.916207
H	2.445834	5.267032	-5.833064
H	1.028114	4.323448	-6.470168
H	2.661066	3.573494	-6.459293
H	1.436015	3.083584	1.306486
H	-0.858809	-9.143623	-0.313367
H	0.937378	-9.149441	-0.325780
H	-1.079945	-1.443175	0.007439
$end

$rem
JOBTYPE		SP
EXCHANGE	HF
CORRELATION	pRIMP2
BASIS		cc-pvtz
METHOD		rimp2
AUX_BASIS	rimp2-cc-pvtz
SOLVENT_METHOD	PCM
PURECART	11111
SYMMETRY	false
MEM_TOTAL	110000
SCF_CONVERGENCE = 6
THRESH=10
GUI = 2
$end



$solvent
dielectric 4.90
$end
--------------------------------------------------------------
 ----------------------------------------------------------------
             Standard Nuclear Orientation (Angstroms)
    I     Atom           X                Y                Z
 ----------------------------------------------------------------
    1      C       0.0413300000    -8.5177020000    -0.3182470000
    2      C       0.0494530000    -7.6415750000     0.7573330000
    3      S       0.0249190000    -7.6386340000    -1.8663830000
    4      C       0.0494880000    -6.2647850000     0.3808670000
    5      H       0.0553680000    -7.9660810000     1.8055730000
    6      C       0.0511150000    -6.0727140000    -1.0456470000
    7      C       0.0262030000    -4.7870490000    -1.6080770000
    8      C       0.0266370000    -5.1628010000     1.2829480000
    9      C      -0.0025860000    -3.8748170000     0.7201870000
   10      C       0.0019030000    -3.6839520000    -0.7078530000
   11      O       0.0548670000    -5.4997720000     2.6023860000
   12      O      -0.0033480000    -4.4590550000    -2.9335170000
   13      C       0.6023840000    -5.3290630000    -3.8819990000
   14      H       0.6750790000    -4.7556940000    -4.8257440000
   15      H      -0.0095920000    -6.2380950000    -4.0709720000
   16      H       1.6212630000    -5.6372620000    -3.5621520000
   17      C      -0.3819470000    -4.5722610000     3.5882530000
   18      H      -0.4498720000    -5.1397430000     4.5356740000
   19      H      -1.3813880000    -4.1531310000     3.3429860000
   20      H       0.3410400000    -3.7395310000     3.7282390000
   21      C      -0.0003480000    -2.3066540000    -1.0807250000
   22      S       0.0109240000    -2.3065010000     1.5426940000
   23      C       0.0000000000    -1.4351850000     0.0000000000
   24      H      -0.0036120000    -1.9781380000    -2.1276350000
   25      C       0.0000000000     0.0000000000     0.0000000000
   26      S       0.3827990000     0.8197950000     1.5075410000
   27      C       1.0466870000     2.2453250000     0.7188730000
   28      C       0.3829180000     0.8193890000    -1.0678720000
   29      C       0.9683230000     2.0802670000    -0.6864100000
   30      S       0.2825610000     0.5974320000    -2.8055160000
   31      C       1.0178390000     2.1873240000    -3.0545300000
   32      C       1.3149600000     2.8303060000    -1.8625510000
   33      F       1.8754980000     4.0437510000    -1.8190880000
   34      C       1.2088950000     2.5925730000    -4.4560840000
   35      O       0.8907780000     1.8914820000    -5.4065100000
   36      O       1.7728860000     3.8197150000    -4.5692250000
   37      C       1.9868520000     4.2662070000    -5.9162070000
   38      H       2.4458340000     5.2670320000    -5.8330640000
   39      H       1.0281140000     4.3234480000    -6.4701680000
   40      H       2.6610660000     3.5734940000    -6.4592930000
   41      H       1.4360150000     3.0835840000     1.3064860000
   42      H      -0.8588090000    -9.1436230000    -0.3133670000
   43      H       0.9373780000    -9.1494410000    -0.3257800000
   44      H      -1.0799450000    -1.4431750000     0.0074390000
 ----------------------------------------------------------------
 Nuclear Repulsion Energy =        3354.10941023 hartrees
 There are      120 alpha and      120 beta electrons
 Requested basis set is cc-pVTZ
 There are 388 shells and 1096 basis functions

 Total QAlloc Memory Limit 110000 MB
 Mega-Array Size       188 MB
 MEM_STATIC part       192 MB
 Discretize the solute cavity surface with Lebedev spheres
	Using 110 Lebedev grid points for each H atom
	Using 194 Lebedev grid points for other atoms
	Atomic van der Waals radii will be scaled by 1.20
 Remove points where switching function is < 1.0e-08
 Keep 2942 surface tesserae and discard 4334 interior tesserae
 Molecular Surface Area = 437.458 Angst**2
 Requested basis set is rimp2-cc-pVTZ
 There are 853 shells and 2963 basis functions
 A cutoff of  1.0D-10 yielded  33250 shell pairs
 There are    250808 function pairs (    324350 Cartesian)
 Smallest overlap matrix eigenvalue = 2.10E-05

 Scale SEOQF with 1.000000e-01/1.000000e-02/1.000000e-02

 Standard Electronic Orientation quadrupole field applied
 Nucleus-field energy     =     0.0000000200 hartrees
 Guess from superposition of atomic densities
 Warning:  Energy on first SCF cycle will be non-variational
 SAD guess density has 240.000000 electrons

 -----------------------------------------------------------------------
  General SCF calculation program by
  Eric Jon Sundstrom, Paul Horn, Yuezhi Mao, Dmitri Zuev, Alec White,
  David Stuck, Shaama M.S., Shane Yost, Joonho Lee, David Small,
  Daniel Levine, Susi Lehtola, Hugh Burton, Evgeny Epifanovsky,
  Bang C. Huynh
 -----------------------------------------------------------------------
 Hartree-Fock
 using 64 threads for integral computing
 -------------------------------------------------------
 OpenMP Integral computing Module                
 Release: version 1.0, May 2013, Q-Chem Inc. Pittsburgh 
 -------------------------------------------------------
 A restricted SCF calculation will be
 performed using DIIS
 SCF converges when DIIS error is below 1.0e-06
 ---------------------------------------
  Cycle       Energy         DIIS error
 ---------------------------------------
    1   -2767.0543275261      1.75e-02  
    2   -2754.8734130749      1.53e-03  
    3   -2755.2229792886      8.56e-04  
    4   -2755.3102787812      2.56e-04  
    5   -2755.3240457376      7.43e-05  
    6   -2755.3256372082      2.64e-05  
    7   -2755.3260624919      1.39e-05  
    8   -2755.3262014107      5.78e-06  
    9   -2755.3262339816      3.04e-06  
   10   -2755.3262420329      1.57e-06  
   11   -2755.3262448960      8.76e-07  Convergence criterion met
 ---------------------------------------
 SCF time:   CPU 7676.72s  wall 275.00s 

************** Final PCM Free Energy Summary **************
 G_electrostatic  =      -0.02004668 hartree =     -12.57948013 kcal/mol
 G_cavitation     =       0.00000000 hartree =       0.00000000 kcal/mol
 G_dispersion     =       0.00000000 hartree =       0.00000000 kcal/mol
 G_repulsion      =       0.00000000 hartree =       0.00000000 kcal/mol
 --------------------------------------------------
 Non-electrostatic Free Energy =       0.00000000 hartree =       0.00000000 kcal/mol
 Total                         =      -0.02004668 hartree =     -12.57948013 kcal/mol
 --------------------------------------------------
 SCF Energy (H0 + V/2)                       =   -2755.32624490 
 Solute Internal Energy (H0)                 =   -2755.30619822 
 Total Free Energy (H0 + V/2 + non-elec)     =   -2755.32624490 hartree
                                             = -1728993.31436711 kcal/mol
***********************************************************

 SCF   energy in the final basis set =    -2755.3262448960
 Total energy in the final basis set =    -2755.3262448960


 --------------------------------------------------------------
  Generalized many-body perturbation theory program
  by Joonho Lee, Fazle Rob, Xintian Feng, Evgeny Epifanovsky

 No regularization used 
 (reg. param. = 0.0000e+00)
  (P|Q)^-1/2 Time:  CPU 150.68 s  wall 2.70 s

 In RI-MP2 calculation: 
 # of frozen core orbitals: 45

 Components of the RIMP2 correlation energy:
        aaaa    correlation energy =        -0.6701587879 a.u.
        abab    correlation energy =        -3.7549847385 a.u.
        bbbb    correlation energy =        -0.6701587879 a.u.
        non-Brillouin singles      =        -0.0000000000 a.u.
        total same-spin energy     =        -1.3403175759 a.u.
        total opposite-spin energy =        -3.7549847385 a.u.

 Total  RIMP2   correlation energy =        -5.0953023144 a.u.
        RIMP2         total energy =     -2760.4215472104 a.u.

 RI-MP2 Energy Time:  CPU 2978.44 s  wall 48.24 s
 
 --------------------------------------------------------------
 
                    Orbital Energies (a.u.)
 --------------------------------------------------------------
 
 Alpha MOs
 -- Occupied --
-92.0143 -91.9983 -91.9824 -91.9584 -26.3433 -20.6151 -20.5885 -20.5872
-20.5617 -11.4098 -11.3824 -11.3098 -11.3096 -11.3052 -11.3049 -11.2983
-11.2957 -11.2890 -11.2858 -11.2852 -11.2851 -11.2823 -11.2815 -11.2745
-11.2730 -11.2590 -11.2589 -11.2501 -11.2379  -9.0132  -8.9986  -8.9846
 -8.9610  -6.6940  -6.6934  -6.6928  -6.6796  -6.6789  -6.6777  -6.6657
 -6.6648  -6.6635  -6.6422  -6.6413  -6.6403  -1.6604  -1.4676  -1.4118
 -1.4090  -1.3703  -1.2310  -1.2031  -1.1744  -1.1379  -1.1008  -1.0477
 -1.0455  -1.0242  -1.0042  -0.9987  -0.9634  -0.9595  -0.9492  -0.9409
 -0.8952  -0.8704  -0.8648  -0.8099  -0.8015  -0.7904  -0.7839  -0.7680
 -0.7570  -0.7377  -0.7252  -0.7125  -0.6990  -0.6916  -0.6849  -0.6813
 -0.6741  -0.6629  -0.6572  -0.6491  -0.6393  -0.6315  -0.6204  -0.6151
 -0.6121  -0.5989  -0.5935  -0.5774  -0.5709  -0.5655  -0.5597  -0.5552
 -0.5447  -0.5357  -0.5307  -0.5292  -0.5140  -0.5097  -0.5084  -0.5010
 -0.4852  -0.4822  -0.4773  -0.4739  -0.4706  -0.4661  -0.4596  -0.4472
 -0.4335  -0.3938  -0.3868  -0.3712  -0.3502  -0.2995  -0.2887  -0.2164
 -- Virtual --
  0.0317   0.0542   0.1041   0.1305   0.1375   0.1441   0.1531   0.1559
  0.1584   0.1605   0.1612   0.1725   0.1782   0.1847   0.1906   0.1938
  0.1999   0.2035   0.2051   0.2150   0.2214   0.2233   0.2244   0.2276
  0.2285   0.2414   0.2438   0.2482   0.2536   0.2573   0.2636   0.2742
  0.2876   0.2936   0.3149   0.3204   0.3282   0.3382   0.3431   0.3501
  0.3546   0.3585   0.3657   0.3716   0.3778   0.3824   0.3846   0.3867
  0.3901   0.3962   0.4011   0.4056   0.4083   0.4117   0.4188   0.4242
  0.4257   0.4296   0.4315   0.4401   0.4420   0.4432   0.4538   0.4545
  0.4594   0.4640   0.4678   0.4726   0.4746   0.4779   0.4827   0.4845
  0.4907   0.4950   0.4959   0.5003   0.5064   0.5098   0.5159   0.5171
  0.5201   0.5278   0.5307   0.5315   0.5355   0.5398   0.5431   0.5477
  0.5522   0.5557   0.5590   0.5605   0.5648   0.5702   0.5747   0.5783
  0.5849   0.5886   0.5924   0.5983   0.6003   0.6036   0.6080   0.6097
  0.6152   0.6182   0.6209   0.6221   0.6228   0.6248   0.6284   0.6303
  0.6340   0.6354   0.6442   0.6473   0.6497   0.6555   0.6559   0.6598
  0.6633   0.6681   0.6724   0.6847   0.6889   0.6940   0.6970   0.7016
  0.7073   0.7103   0.7167   0.7199   0.7226   0.7316   0.7332   0.7343
  0.7373   0.7520   0.7550   0.7620   0.7684   0.7754   0.7789   0.7845
  0.7946   0.8007   0.8027   0.8063   0.8198   0.8234   0.8273   0.8308
  0.8355   0.8432   0.8490   0.8503   0.8605   0.8674   0.8720   0.8729
  0.8781   0.8853   0.8938   0.8955   0.8979   0.9002   0.9084   0.9135
  0.9210   0.9319   0.9369   0.9396   0.9403   0.9445   0.9535   0.9577
  0.9631   0.9653   0.9681   0.9728   0.9796   0.9831   0.9874   0.9918
  0.9986   1.0050   1.0066   1.0121   1.0169   1.0203   1.0268   1.0345
  1.0378   1.0431   1.0477   1.0499   1.0543   1.0589   1.0637   1.0691
  1.0750   1.0780   1.0845   1.0867   1.0927   1.1036   1.1061   1.1094
  1.1142   1.1171   1.1206   1.1241   1.1297   1.1421   1.1434   1.1514
  1.1541   1.1610   1.1680   1.1693   1.1714   1.1758   1.1791   1.1855
  1.1881   1.1909   1.1948   1.1983   1.2055   1.2100   1.2168   1.2201
  1.2245   1.2264   1.2376   1.2396   1.2430   1.2522   1.2533   1.2566
  1.2607   1.2633   1.2700   1.2744   1.2774   1.2829   1.2930   1.2946
  1.3015   1.3059   1.3100   1.3153   1.3250   1.3292   1.3370   1.3416
  1.3447   1.3535   1.3618   1.3669   1.3738   1.3821   1.3953   1.3957
  1.3983   1.4048   1.4127   1.4181   1.4307   1.4320   1.4420   1.4555
  1.4574   1.4700   1.4764   1.4811   1.4878   1.4892   1.4992   1.4998
  1.5035   1.5082   1.5107   1.5158   1.5231   1.5336   1.5358   1.5393
  1.5424   1.5454   1.5490   1.5544   1.5617   1.5625   1.5677   1.5787
  1.5846   1.5954   1.6022   1.6100   1.6157   1.6250   1.6308   1.6391
  1.6437   1.6527   1.6547   1.6587   1.6655   1.6703   1.6766   1.6875
  1.6902   1.6955   1.7069   1.7163   1.7207   1.7291   1.7345   1.7425
  1.7607   1.7656   1.7717   1.7815   1.7932   1.7984   1.8064   1.8162
  1.8198   1.8237   1.8293   1.8392   1.8550   1.8586   1.8660   1.8723
  1.8881   1.8941   1.9074   1.9140   1.9185   1.9268   1.9299   1.9391
  1.9461   1.9589   1.9636   1.9660   1.9749   1.9886   1.9951   1.9993
  2.0076   2.0114   2.0210   2.0268   2.0340   2.0397   2.0440   2.0522
  2.0708   2.0728   2.0807   2.0948   2.0967   2.1072   2.1152   2.1258
  2.1404   2.1575   2.1598   2.1709   2.1756   2.1827   2.1854   2.1957
  2.1999   2.2022   2.2052   2.2196   2.2245   2.2310   2.2323   2.2402
  2.2430   2.2528   2.2612   2.2690   2.2698   2.2834   2.2846   2.2935
  2.2962   2.3095   2.3167   2.3296   2.3393   2.3477   2.3534   2.3658
  2.3682   2.3750   2.3873   2.3958   2.4055   2.4157   2.4201   2.4265
  2.4383   2.4461   2.4475   2.4632   2.4697   2.4808   2.4898   2.4909
  2.5020   2.5093   2.5148   2.5296   2.5402   2.5449   2.5529   2.5572
  2.5646   2.5822   2.5896   2.6032   2.6146   2.6173   2.6187   2.6234
  2.6265   2.6358   2.6398   2.6423   2.6456   2.6483   2.6623   2.6690
  2.6775   2.6812   2.6876   2.6951   2.6969   2.7004   2.7114   2.7144
  2.7197   2.7274   2.7387   2.7426   2.7508   2.7537   2.7675   2.7723
  2.7827   2.7847   2.7946   2.7982   2.8077   2.8111   2.8219   2.8258
  2.8432   2.8470   2.8518   2.8529   2.8572   2.8621   2.8717   2.8774
  2.8840   2.8861   2.8880   2.9001   2.9074   2.9201   2.9299   2.9423
  2.9512   2.9578   2.9591   2.9638   2.9706   2.9757   2.9844   2.9927
  3.0022   3.0041   3.0122   3.0219   3.0248   3.0325   3.0419   3.0425
  3.0478   3.0615   3.0658   3.0711   3.0826   3.0903   3.0951   3.0956
  3.1030   3.1083   3.1148   3.1213   3.1247   3.1329   3.1375   3.1427
  3.1451   3.1478   3.1512   3.1551   3.1626   3.1640   3.1689   3.1765
  3.1858   3.1940   3.1981   3.2078   3.2138   3.2166   3.2204   3.2255
  3.2295   3.2368   3.2438   3.2500   3.2525   3.2613   3.2660   3.2696
  3.2718   3.2757   3.2778   3.2830   3.2874   3.2912   3.2963   3.2998
  3.3097   3.3107   3.3149   3.3240   3.3315   3.3364   3.3378   3.3452
  3.3487   3.3519   3.3530   3.3538   3.3620   3.3651   3.3691   3.3699
  3.3739   3.3850   3.3888   3.3909   3.3961   3.4005   3.4032   3.4122
  3.4139   3.4199   3.4264   3.4291   3.4323   3.4360   3.4402   3.4497
  3.4523   3.4594   3.4612   3.4649   3.4658   3.4743   3.4795   3.4825
  3.4865   3.4893   3.4946   3.4972   3.5091   3.5128   3.5260   3.5279
  3.5394   3.5420   3.5438   3.5512   3.5566   3.5636   3.5683   3.5734
  3.5775   3.5845   3.5944   3.5971   3.5993   3.6032   3.6073   3.6101
  3.6158   3.6189   3.6245   3.6278   3.6347   3.6384   3.6430   3.6520
  3.6562   3.6639   3.6687   3.6731   3.6785   3.6824   3.6916   3.6983
  3.7039   3.7058   3.7103   3.7144   3.7159   3.7207   3.7272   3.7335
  3.7385   3.7480   3.7560   3.7572   3.7651   3.7671   3.7717   3.7828
  3.7844   3.7851   3.7951   3.8017   3.8049   3.8062   3.8096   3.8154
  3.8209   3.8235   3.8291   3.8359   3.8456   3.8480   3.8519   3.8543
  3.8644   3.8691   3.8704   3.8827   3.8878   3.8899   3.8987   3.9050
  3.9115   3.9240   3.9267   3.9340   3.9416   3.9451   3.9530   3.9587
  3.9599   3.9621   3.9678   3.9878   3.9946   3.9975   4.0084   4.0171
  4.0258   4.0298   4.0356   4.0370   4.0461   4.0510   4.0645   4.0677
  4.0693   4.0716   4.0885   4.0956   4.1017   4.1076   4.1175   4.1275
  4.1349   4.1436   4.1490   4.1566   4.1641   4.1666   4.1727   4.1729
  4.1783   4.1882   4.1921   4.1983   4.2132   4.2176   4.2287   4.2313
  4.2466   4.2489   4.2533   4.2650   4.2717   4.2878   4.2950   4.3091
  4.3179   4.3248   4.3356   4.3418   4.3447   4.3500   4.3519   4.3596
  4.3687   4.3730   4.3829   4.3836   4.3933   4.4059   4.4129   4.4154
  4.4189   4.4240   4.4293   4.4320   4.4354   4.4451   4.4504   4.4599
  4.4617   4.4731   4.4903   4.4995   4.5053   4.5133   4.5181   4.5323
  4.5346   4.5439   4.5580   4.5662   4.5675   4.5716   4.5803   4.5834
  4.5959   4.5972   4.6044   4.6133   4.6352   4.6444   4.6484   4.6544
  4.6634   4.6711   4.6764   4.6847   4.6955   4.7130   4.7194   4.7291
  4.7439   4.7495   4.7613   4.7744   4.7853   4.7949   4.8060   4.8157
  4.8232   4.8312   4.8402   4.8553   4.8676   4.8710   4.8799   4.8949
  4.8988   4.9074   4.9339   4.9438   4.9512   4.9595   4.9667   4.9809
  4.9959   5.0048   5.0082   5.0089   5.0204   5.0325   5.0449   5.0589
  5.0754   5.0909   5.0994   5.1167   5.1260   5.1320   5.1515   5.1650
  5.1764   5.1917   5.2037   5.2073   5.2227   5.2357   5.2517   5.2522
  5.2568   5.2620   5.2838   5.2900   5.2937   5.3154   5.3237   5.3298
  5.3316   5.3487   5.3520   5.3565   5.3733   5.3891   5.3959   5.4045
  5.4107   5.4206   5.4260   5.4338   5.4429   5.4848   5.4971   5.5095
  5.5118   5.5207   5.5223   5.5352   5.5660   5.5689   5.5836   5.5882
  5.5972   5.6075   5.6170   5.6214   5.6529   5.6602   5.6707   5.6903
  5.7022   5.7426   5.7474   5.7678   5.7778   5.8073   5.8175   5.8377
  5.8577   5.8798   5.9046   5.9137   5.9289   5.9506   5.9666   6.0013
  6.0410   6.0425   6.0902   6.1323   6.1502   6.1503   6.1714   6.1762
  6.1808   6.1956   6.2384   6.2473   6.2569   6.2613   6.2734   6.2854
  6.2912   6.2935   6.3461   6.4087   6.4492   6.4499   6.4991   6.5399
  6.5503   6.5678   6.6060   6.6485   6.6620   6.6709   6.7141   6.7467
  6.8082   6.8306   6.8562   6.8593   6.8993   6.9780   7.1325   7.1436
  7.2037   7.2067   7.2212   7.2412   7.3096   7.3302   7.3408   7.3632
  7.3644   7.4058   7.4131   7.4850   7.4857   7.4975   7.5247   7.5506
  7.6177   7.7348   7.7730   7.7905   7.8027   7.9008   7.9275   7.9532
  7.9749   8.1360   8.2434   8.6052   8.9221   9.0276   9.3631   9.4903
  9.6781  10.2502  11.1741  11.4438  11.7492  11.9075  12.1298  12.3798
 12.4276  12.5123  12.9307  13.0219  13.0497  13.1761  13.3866  13.4892
 13.7389  13.7787  13.8755  13.9363  14.0307  14.3097  15.0482  15.2510
 --------------------------------------------------------------
 
          Ground-State Mulliken Net Atomic Charges

     Atom                 Charge (a.u.)
  ----------------------------------------
      1 C                    -0.070169
      2 C                    -0.258620
      3 S                    -0.135183
      4 C                    -0.048309
      5 H                     0.193693
      6 C                    -0.051707
      7 C                     0.227800
      8 C                     0.230601
      9 C                    -0.073605
     10 C                    -0.045038
     11 O                    -0.333633
     12 O                    -0.344526
     13 C                    -0.083369
     14 H                     0.121385
     15 H                     0.092537
     16 H                     0.092892
     17 C                    -0.089069
     18 H                     0.124970
     19 H                     0.092975
     20 H                     0.089945
     21 C                    -0.283072
     22 S                    -0.097967
     23 C                     0.102005
     24 H                     0.197954
     25 C                    -0.031827
     26 S                     0.083669
     27 C                    -0.213033
     28 C                    -0.018365
     29 C                    -0.102315
     30 S                    -0.000765
     31 C                    -0.165138
     32 C                     0.410130
     33 F                    -0.206599
     34 C                     0.445121
     35 O                    -0.460943
     36 O                    -0.300849
     37 C                    -0.058558
     38 H                     0.121569
     39 H                     0.095162
     40 H                     0.095189
     41 H                     0.217935
     42 H                     0.117553
     43 H                     0.115287
     44 H                     0.204284
  ----------------------------------------
  Sum of atomic charges =     0.000000

 -----------------------------------------------------------------
                    Cartesian Multipole Moments
 -----------------------------------------------------------------
    Charge (ESU x 10^10)
                -0.0000
    Dipole Moment (Debye)
         X       0.4331      Y       2.0242      Z       3.2203
       Tot       3.8282
    Quadrupole Moments (Debye-Ang)
        XX    -197.1674     XY       6.0050     YY    -175.9690
        XZ      -8.9293     YZ     -11.1658     ZZ    -189.5172
    Octopole Moments (Debye-Ang^2)
       XXX    -243.5288    XXY     396.2497    XYY     -55.1258
       YYY     989.5375    XXZ     179.7824    XYZ       3.4947
       YYZ     169.9768    XZZ     -37.7929    YZZ     403.0376
       ZZZ     608.9341
    Hexadecapole Moments (Debye-Ang^3)
      XXXX    -899.6407   XXXY    -582.2861   XXYY   -3898.9924
      XYYY    -561.1816   YYYY  -19841.1102   XXXZ     731.8621
      XXYZ     237.3517   XYYZ      -6.4605   YYYZ     363.6600
      XXZZ   -1348.1592   XYZZ      14.7887   YYZZ   -4267.6930
      XZZZ     453.3307   YZZZ     392.3045   ZZZZ   -7519.4498
 -----------------------------------------------------------------
 Total job time:  329.53s(wall), 10862.27s(cpu) 
 Tue Jan  9 11:27:15 2024

        *************************************************************
        *                                                           *
        *  Thank you very much for using Q-Chem.  Have a nice day.  *
        *                                                           *
        *************************************************************


0 sent ACK to 0 
now end server 0 ... 
cleanup process ... done
remove work dirs ./qchem3308119.0 -- ./qchem3308119.0
rm -rf ./qchem3308119.0
rm -rf ./qchem3308119
