You are running Q-Chem version: 5.4.0

#
# job setting
#
local host:  exp-3-51
current dir: /home/rramji/project-csd799/aromodel/ptb7fout-qchem/hydrogenated-rotation-run
input file:  Dimethoxy_Benzodithiophene_Phi_15_Theta_350_Methylcarbonyl_3_Fluoro_Thienothiophene_Hydrogenated.qcin
output file: 
nprocs     : 1
nthreads   : 64
#
# qchem installation setting
#
QC:          /cm/shared/apps/spack/cpu/opt/spack/linux-centos8-zen2/gcc-10.2.0/qchem-5.4-akfmr7b3t57bfs6qan3padb2wnb2i7cl
QCAUX:       /cm/shared/apps/spack/cpu/opt/spack/linux-centos8-zen2/gcc-10.2.0/qchem-5.4-akfmr7b3t57bfs6qan3padb2wnb2i7cl/qcaux
QCPROG:      /cm/shared/apps/spack/cpu/opt/spack/linux-centos8-zen2/gcc-10.2.0/qchem-5.4-akfmr7b3t57bfs6qan3padb2wnb2i7cl/exe/qcprog.exe
QCPROG_S:    /cm/shared/apps/spack/cpu/opt/spack/linux-centos8-zen2/gcc-10.2.0/qchem-5.4-akfmr7b3t57bfs6qan3padb2wnb2i7cl/exe/qcprog.exe_s
PARALLEL:    -DPARALLEL
QCMPI:       mpich
#
# qchem directory setting
#
qcrun:       qchem820423
QCSCRATCH:   .
QCLOCALSCR:  
QCTMPDIR:    .
QCFILEPREF:  ./qchem820423
QCSAVEDIR:   
workdirs:    ./qchem820423
workdir0:    ./qchem820423
partmpdirs =  
#
# parallel setting
#
QCRSH:           ssh
QCMPI:           mpich
QCMPIRUN:        /cm/shared/apps/spack/cpu/opt/spack/linux-centos8-zen2/gcc-10.2.0/qchem-5.4-akfmr7b3t57bfs6qan3padb2wnb2i7cl/bin/mpi/mpirun_qchem
QCMACHINEFILE:   ./qchem820423/hostfile
exp-3-51

#
# env setting
#
exported envs:   QC QCAUX QCSCRATCH QCRUNNAME QCFILEPREF QCPROG QCPROG_S GUIFILE

Running Job 1 of 1 Dimethoxy_Benzodithiophene_Phi_15_Theta_350_Methylcarbonyl_3_Fluoro_Thienothiophene_Hydrogenated.qcin
qchem Dimethoxy_Benzodithiophene_Phi_15_Theta_350_Methylcarbonyl_3_Fluoro_Thienothiophene_Hydrogenated.qcin_820423.0 ./qchem820423/ 1
/cm/shared/apps/spack/cpu/opt/spack/linux-centos8-zen2/gcc-10.2.0/qchem-5.4-akfmr7b3t57bfs6qan3padb2wnb2i7cl/bin/mpi/mpirun_qchem -machinefile ./qchem820423/hostfile -np 1 /cm/shared/apps/spack/cpu/opt/spack/linux-centos8-zen2/gcc-10.2.0/qchem-5.4-akfmr7b3t57bfs6qan3padb2wnb2i7cl/exe/qcprog.exe Dimethoxy_Benzodithiophene_Phi_15_Theta_350_Methylcarbonyl_3_Fluoro_Thienothiophene_Hydrogenated.qcin_820423.0 ./qchem820423/

Process 0 of 1 is on exp-3-51 - thread support 0
initial socket setup ...start
initial socket setup ...done 
now start server 0 ... 
                  Welcome to Q-Chem
     A Quantum Leap Into The Future Of Chemistry


 Q-Chem 5.4, Q-Chem, Inc., Pleasanton, CA (2021)

 License issued to: University of California, San Diego (site)

 E. Epifanovsky,  A. T. B. Gilbert,  Xintian Feng,  Joonho Lee,  Yuezhi Mao,  
 N. Mardirossian,  P. Pokhilko,  A. White,  M. Wormit,  M. P. Coons,  
 A. L. Dempwolff,  Zhengting Gan,  D. Hait,  P. R. Horn,  L. D. Jacobson,  
 I. Kaliman,  J. Kussmann,  A. W. Lange,  Ka Un Lao,  D. S. Levine,  Jie Liu,  
 S. C. McKenzie,  A. F. Morrison,  K. Nanda,  F. Plasser,  D. R. Rehn,  
 M. L. Vidal,  Zhi-Qiang You,  Ying Zhu,  B. Alam,  B. Albrecht,  
 A. Aldossary,  E. Alguire,  J. H. Andersen,  D. Barton,  K. Begam,  A. Behn,  
 Y. A. Bernard,  E. J. Berquist,  H. Burton,  A. Carreras,  K. Carter-Fenk,  
 R. Chakraborty,  A. D. Chien,  K. D. Closser,  V. Cofer-Shabica,  
 S. Dasgupta,  Jia Deng,  M. de Wergifosse,  M. Diedenhofen,  Hainam Do,  
 S. Ehlert,  Po-Tung Fang,  S. Fatehi,  Qingguo Feng,  J. Gayvert,  
 Qinghui Ge,  G. Gidofalvi,  M. Goldey,  J. Gomes,  C. Gonzalez-Espinoza,  
 S. Gulania,  A. Gunina,  M. W. D. Hanson-Heine,  P. H. P. Harbach,  
 A. W. Hauser,  M. F. Herbst,  M. Hernandez Vera,  M. Hodecker,  
 Z. C. Holden,  S. Houck,  Xunkun Huang,  Kerwin Hui,  B. C. Huynh,  
 M. Ivanov,  Hyunjun Ji,  Hanjie Jiang,  B. Kaduk,  S. Kaehler,  
 K. Khistyaev,  Jaehoon Kim,  P. Klunzinger,  Z. Koczor-Benda,  
 Joong Hoon Koh,  D. Kosenkov,  L. Koulias,  T. Kowalczyk,  C. M. Krauter,  
 K. Kue,  A. Kunitsa,  T. Kus,  A. Landau,  K. V. Lawler,  D. Lefrancois,  
 S. Lehtola,  Rain Li,  Yi-Pei Li,  Jiashu Liang,  M. Liebenthal,  
 Hung-Hsuan Lin,  You-Sheng Lin,  Fenglai Liu,  Kuan-Yu Liu,  
 M. Loipersberger,  A. Luenser,  A. Manjanath,  P. Manohar,  E. Mansoor,  
 S. F. Manzer,  Shan-Ping Mao,  A. V. Marenich,  T. Markovich,  S. Mason,  
 S. A. Maurer,  P. F. McLaughlin,  M. F. S. J. Menger,  J.-M. Mewes,  
 S. A. Mewes,  P. Morgante,  J. W. Mullinax,  T. S. Nguyen-Beck,  
 K. J. Oosterbaan,  G. Paran,  Alexander C. Paul,  Suranjan K. Paul,  
 F. Pavosevic,  Zheng Pei,  S. Prager,  E. I. Proynov,  E. Ramos,  B. Rana,  
 A. E. Rask,  A. Rettig,  R. M. Richard,  F. Rob,  E. Rossomme,  T. Scheele,  
 M. Scheurer,  M. Schneider,  N. Sergueev,  S. M. Sharada,  W. Skomorowski,  
 D. W. Small,  C. J. Stein,  Yu-Chuan Su,  E. J. Sundstrom,  Zhen Tao,  
 J. Thirman,  T. Tsuchimochi,  N. M. Tubman,  S. P. Veccham,  O. Vydrov,  
 J. Wenzel,  J. Witte,  A. Yamada,  Kun Yao,  S. Yeganeh,  S. R. Yost,  
 A. Zech,  Igor Ying Zhang,  Xing Zhang,  Yu Zhang,  D. Zuev,  
 A. Aspuru-Guzik,  A. T. Bell,  N. A. Besley,  K. B. Bravaya,  B. R. Brooks,  
 D. Casanova,  Jeng-Da Chai,  S. Coriani,  C. J. Cramer,  
 A. E. DePrince, III,  R. A. DiStasio Jr.,  A. Dreuw,  B. D. Dunietz,  
 T. R. Furlani,  W. A. Goddard III,  S. Grimme,  S. Hammes-Schiffer,  
 T. Head-Gordon,  W. J. Hehre,  Chao-Ping Hsu,  T.-C. Jagau,  Yousung Jung,  
 A. Klamt,  Jing Kong,  D. S. Lambrecht,  WanZhen Liang,  N. J. Mayhall,  
 C. W. McCurdy,  J. B. Neaton,  C. Ochsenfeld,  J. A. Parkhill,  R. Peverati,  
 V. A. Rassolov,  Yihan Shao,  L. V. Slipchenko,  T. Stauch,  R. P. Steele,  
 J. E. Subotnik,  A. J. W. Thom,  A. Tkatchenko,  D. G. Truhlar,  
 T. Van Voorhis,  T. A. Wesolowski,  K. B. Whaley,  H. L. Woodcock III,  
 P. M. Zimmerman,  S. Faraji,  P. M. W. Gill,  M. Head-Gordon,  
 J. M. Herbert,  A. I. Krylov

 Contributors to earlier versions of Q-Chem not listed above: 
 R. D. Adamson,  B. Austin,  R. Baer,  J. Baker,  G. J. O. Beran,  
 K. Brandhorst,  S. T. Brown,  E. F. C. Byrd,  A. K. Chakraborty,  
 G. K. L. Chan,  Chun-Min Chang,  Yunqing Chen,  C.-L. Cheng,  
 Siu Hung Chien,  D. M. Chipman,  D. L. Crittenden,  H. Dachsel,  
 R. J. Doerksen,  A. D. Dutoi,  R. G. Edgar,  J. Fosso-Tande,  
 L. Fusti-Molnar,  D. Ghosh,  A. Ghysels,  A. Golubeva-Zadorozhnaya,  
 J. Gonthier,  M. S. Gordon,  S. R. Gwaltney,  G. Hawkins,  J. E. Herr,  
 A. Heyden,  S. Hirata,  E. G. Hohenstein,  G. Kedziora,  F. J. Keil,  
 C. Kelley,  Jihan Kim,  R. A. King,  R. Z. Khaliullin,  P. P. Korambath,  
 W. Kurlancheek,  A. Laurent,  A. M. Lee,  M. S. Lee,  S. V. Levchenko,  
 Ching Yeh Lin,  D. Liotard,  E. Livshits,  R. C. Lochan,  I. Lotan,  
 L. A. Martinez-Martinez,  P. E. Maslen,  N. Nair,  D. P. O'Neill,  
 D. Neuhauser,  E. Neuscamman,  C. M. Oana,  R. Olivares-Amaya,  R. Olson,  
 T. M. Perrine,  B. Peters,  P. A. Pieniazek,  A. Prociuk,  Y. M. Rhee,  
 J. Ritchie,  M. A. Rohrdanz,  E. Rosta,  N. J. Russ,  H. F. Schaefer III,  
 M. W. Schmidt,  N. E. Schultz,  S. Sharma,  N. Shenvi,  C. D. Sherrill,  
 A. C. Simmonett,  A. Sodt,  T. Stein,  D. Stuck,  K. S. Thanthiriwatte,  
 V. Vanovschi,  L. Vogt,  Tao Wang,  A. Warshel,  M. A. Watson,  
 C. F. Williams,  Q. Wu,  X. Xu,  Jun Yang,  W. Zhang,  Yan Zhao

 Please cite Q-Chem as follows:
 Y. Shao et al., Mol. Phys. 113, 184-215 (2015)
 DOI: 10.1080/00268976.2014.952696

 Q-Chem 5.4.0 for Intel X86 EM64T Linux

 Parts of Q-Chem use Armadillo 9.800.1 (Horizon Scraper).
 http://arma.sourceforge.net/

 Q-Chem begins on Tue Jan  9 13:17:54 2024  

 Host: 
0

     Scratch files written to ./qchem820423//
 May1621 |scratch|qcdevops|jenkins|workspace|build_RNUM    
 Parallel job on  1  processors
 Processing $rem in /cm/shared/apps/spack/cpu/opt/spack/linux-centos8-zen2/gcc-10.2.0/qchem-5.4-akfmr7b3t57bfs6qan3padb2wnb2i7cl/config/preferences:
 Processing $rem in /home/rramji/.qchemrc:
 Symmetry turned off for PCM/SM12/SMD calculation
 Core orbitals will be frozen

 Checking the input file for inconsistencies... 	...done.

 Q-Chem warning in module forms1/BasisType.C, line 2236:

 You are not using the predefined 5D/6D in this basis set.


--------------------------------------------------------------
User input:
--------------------------------------------------------------
$molecule
0 1
C	0.014560	-8.517702	0.320589
C	-0.180211	-7.641575	-0.737240
S	0.299553	-7.638634	1.842356
C	-0.114873	-6.264785	-0.366488
H	-0.368061	-7.966081	-1.768528
C	0.131236	-6.072714	1.038637
C	0.253435	-4.787049	1.588197
C	-0.249014	-5.162801	-1.258831
C	-0.122513	-3.874817	-0.709695
C	0.121043	-3.683952	0.697430
O	-0.505933	-5.499772	-2.553323
O	0.512697	-4.459055	2.888369
C	0.080869	-5.329063	3.927625
H	0.173159	-4.755694	4.869656
H	0.716363	-6.238095	4.007459
H	-0.978072	-5.637262	3.789565
C	-0.246949	-4.572261	-3.600064
H	-0.344574	-5.139743	-4.544887
H	0.779898	-4.153131	-3.532074
H	-0.983261	-3.739531	-3.612378
C	0.188009	-2.306654	1.064246
S	-0.278644	-2.306501	-1.517360
C	0.000000	-1.435185	0.000000
H	0.373017	-1.978138	2.094685
C	0.000000	0.000000	0.000000
S	0.234628	0.873813	1.507541
C	0.640889	2.392969	0.718873
C	0.234815	0.873434	-1.067872
C	0.592377	2.216811	-0.686410
S	0.174526	0.637422	-2.805516
C	0.622551	2.330840	-3.054530
C	0.803505	3.015647	-1.862551
F	1.144815	4.307994	-1.819088
C	0.740334	2.763108	-4.456084
O	0.548793	2.017428	-5.406510
O	1.082665	4.069544	-4.569225
C	1.215848	4.546407	-5.916207
H	1.494066	5.611729	-5.833064
H	0.261736	4.436296	-6.470168
H	2.000108	3.981294	-6.459293
H	0.878739	3.286099	1.306486
H	0.900177	-9.143623	0.159475
H	-0.866566	-9.149441	0.483604
H	1.062246	-1.443175	-0.194856
$end

$rem
JOBTYPE		SP
EXCHANGE	HF
CORRELATION	pRIMP2
BASIS		cc-pvtz
METHOD		rimp2
AUX_BASIS	rimp2-cc-pvtz
SOLVENT_METHOD	PCM
PURECART	11111
SYMMETRY	false
MEM_TOTAL	110000
SCF_CONVERGENCE = 6
THRESH=10
GUI = 2
$end



$solvent
dielectric 4.90
$end
--------------------------------------------------------------
 ----------------------------------------------------------------
             Standard Nuclear Orientation (Angstroms)
    I     Atom           X                Y                Z
 ----------------------------------------------------------------
    1      C       0.0145600000    -8.5177020000     0.3205890000
    2      C      -0.1802110000    -7.6415750000    -0.7372400000
    3      S       0.2995530000    -7.6386340000     1.8423560000
    4      C      -0.1148730000    -6.2647850000    -0.3664880000
    5      H      -0.3680610000    -7.9660810000    -1.7685280000
    6      C       0.1312360000    -6.0727140000     1.0386370000
    7      C       0.2534350000    -4.7870490000     1.5881970000
    8      C      -0.2490140000    -5.1628010000    -1.2588310000
    9      C      -0.1225130000    -3.8748170000    -0.7096950000
   10      C       0.1210430000    -3.6839520000     0.6974300000
   11      O      -0.5059330000    -5.4997720000    -2.5533230000
   12      O       0.5126970000    -4.4590550000     2.8883690000
   13      C       0.0808690000    -5.3290630000     3.9276250000
   14      H       0.1731590000    -4.7556940000     4.8696560000
   15      H       0.7163630000    -6.2380950000     4.0074590000
   16      H      -0.9780720000    -5.6372620000     3.7895650000
   17      C      -0.2469490000    -4.5722610000    -3.6000640000
   18      H      -0.3445740000    -5.1397430000    -4.5448870000
   19      H       0.7798980000    -4.1531310000    -3.5320740000
   20      H      -0.9832610000    -3.7395310000    -3.6123780000
   21      C       0.1880090000    -2.3066540000     1.0642460000
   22      S      -0.2786440000    -2.3065010000    -1.5173600000
   23      C       0.0000000000    -1.4351850000     0.0000000000
   24      H       0.3730170000    -1.9781380000     2.0946850000
   25      C       0.0000000000     0.0000000000     0.0000000000
   26      S       0.2346280000     0.8738130000     1.5075410000
   27      C       0.6408890000     2.3929690000     0.7188730000
   28      C       0.2348150000     0.8734340000    -1.0678720000
   29      C       0.5923770000     2.2168110000    -0.6864100000
   30      S       0.1745260000     0.6374220000    -2.8055160000
   31      C       0.6225510000     2.3308400000    -3.0545300000
   32      C       0.8035050000     3.0156470000    -1.8625510000
   33      F       1.1448150000     4.3079940000    -1.8190880000
   34      C       0.7403340000     2.7631080000    -4.4560840000
   35      O       0.5487930000     2.0174280000    -5.4065100000
   36      O       1.0826650000     4.0695440000    -4.5692250000
   37      C       1.2158480000     4.5464070000    -5.9162070000
   38      H       1.4940660000     5.6117290000    -5.8330640000
   39      H       0.2617360000     4.4362960000    -6.4701680000
   40      H       2.0001080000     3.9812940000    -6.4592930000
   41      H       0.8787390000     3.2860990000     1.3064860000
   42      H       0.9001770000    -9.1436230000     0.1594750000
   43      H      -0.8665660000    -9.1494410000     0.4836040000
   44      H       1.0622460000    -1.4431750000    -0.1948560000
 ----------------------------------------------------------------
 Nuclear Repulsion Energy =        3351.47900341 hartrees
 There are      120 alpha and      120 beta electrons
 Requested basis set is cc-pVTZ
 There are 388 shells and 1096 basis functions

 Total QAlloc Memory Limit 110000 MB
 Mega-Array Size       188 MB
 MEM_STATIC part       192 MB
 Discretize the solute cavity surface with Lebedev spheres
	Using 110 Lebedev grid points for each H atom
	Using 194 Lebedev grid points for other atoms
	Atomic van der Waals radii will be scaled by 1.20
 Remove points where switching function is < 1.0e-08
 Keep 2957 surface tesserae and discard 4319 interior tesserae
 Molecular Surface Area = 437.085 Angst**2
 Requested basis set is rimp2-cc-pVTZ
 There are 853 shells and 2963 basis functions
 A cutoff of  1.0D-10 yielded  33131 shell pairs
 There are    250079 function pairs (    323502 Cartesian)
 Smallest overlap matrix eigenvalue = 2.13E-05

 Scale SEOQF with 1.000000e-01/1.000000e-02/1.000000e-02

 Standard Electronic Orientation quadrupole field applied
 Nucleus-field energy     =     0.0000000176 hartrees
 Guess from superposition of atomic densities
 Warning:  Energy on first SCF cycle will be non-variational
 SAD guess density has 240.000000 electrons

 -----------------------------------------------------------------------
  General SCF calculation program by
  Eric Jon Sundstrom, Paul Horn, Yuezhi Mao, Dmitri Zuev, Alec White,
  David Stuck, Shaama M.S., Shane Yost, Joonho Lee, David Small,
  Daniel Levine, Susi Lehtola, Hugh Burton, Evgeny Epifanovsky,
  Bang C. Huynh
 -----------------------------------------------------------------------
 Hartree-Fock
 using 64 threads for integral computing
 -------------------------------------------------------
 OpenMP Integral computing Module                
 Release: version 1.0, May 2013, Q-Chem Inc. Pittsburgh 
 -------------------------------------------------------
 A restricted SCF calculation will be
 performed using DIIS
 SCF converges when DIIS error is below 1.0e-06
 ---------------------------------------
  Cycle       Energy         DIIS error
 ---------------------------------------
    1   -2767.0461583872      1.75e-02  
    2   -2754.8878184580      1.53e-03  
    3   -2755.2366435438      8.56e-04  
    4   -2755.3242137462      2.56e-04  
    5   -2755.3380067972      7.42e-05  
    6   -2755.3395928787      2.64e-05  
    7   -2755.3400165437      1.38e-05  
    8   -2755.3401531112      5.74e-06  
    9   -2755.3401843836      3.00e-06  
   10   -2755.3401919550      1.53e-06  
   11   -2755.3401945861      8.28e-07  Convergence criterion met
 ---------------------------------------
 SCF time:   CPU 8061.53s  wall 306.00s 

************** Final PCM Free Energy Summary **************
 G_electrostatic  =      -0.02031110 hartree =     -12.74540703 kcal/mol
 G_cavitation     =       0.00000000 hartree =       0.00000000 kcal/mol
 G_dispersion     =       0.00000000 hartree =       0.00000000 kcal/mol
 G_repulsion      =       0.00000000 hartree =       0.00000000 kcal/mol
 --------------------------------------------------
 Non-electrostatic Free Energy =       0.00000000 hartree =       0.00000000 kcal/mol
 Total                         =      -0.02031110 hartree =     -12.74540703 kcal/mol
 --------------------------------------------------
 SCF Energy (H0 + V/2)                       =   -2755.34019459 
 Solute Internal Energy (H0)                 =   -2755.31988349 
 Total Free Energy (H0 + V/2 + non-elec)     =   -2755.34019459 hartree
                                             = -1729002.06792973 kcal/mol
***********************************************************

 SCF   energy in the final basis set =    -2755.3401945861
 Total energy in the final basis set =    -2755.3401945861


 --------------------------------------------------------------
  Generalized many-body perturbation theory program
  by Joonho Lee, Fazle Rob, Xintian Feng, Evgeny Epifanovsky

 No regularization used 
 (reg. param. = 0.0000e+00)
  (P|Q)^-1/2 Time:  CPU 223.51 s  wall 4.25 s

 In RI-MP2 calculation: 
 # of frozen core orbitals: 45

 Components of the RIMP2 correlation energy:
        aaaa    correlation energy =        -0.6696127360 a.u.
        abab    correlation energy =        -3.7530209693 a.u.
        bbbb    correlation energy =        -0.6696127360 a.u.
        non-Brillouin singles      =        -0.0000000000 a.u.
        total same-spin energy     =        -1.3392254719 a.u.
        total opposite-spin energy =        -3.7530209693 a.u.

 Total  RIMP2   correlation energy =        -5.0922464412 a.u.
        RIMP2         total energy =     -2760.4324410273 a.u.

 RI-MP2 Energy Time:  CPU 3074.81 s  wall 50.95 s
 
 --------------------------------------------------------------
 
                    Orbital Energies (a.u.)
 --------------------------------------------------------------
 
 Alpha MOs
 -- Occupied --
-92.0141 -91.9947 -91.9804 -91.9601 -26.3420 -20.6147 -20.5886 -20.5883
-20.5612 -11.4091 -11.3803 -11.3117 -11.3109 -11.3102 -11.2993 -11.2973
-11.2909 -11.2887 -11.2853 -11.2851 -11.2848 -11.2844 -11.2837 -11.2756
-11.2730 -11.2619 -11.2599 -11.2516 -11.2410  -9.0128  -8.9950  -8.9828
 -8.9627  -6.6936  -6.6930  -6.6925  -6.6760  -6.6753  -6.6741  -6.6640
 -6.6631  -6.6618  -6.6439  -6.6430  -6.6419  -1.6591  -1.4671  -1.4120
 -1.4102  -1.3698  -1.2308  -1.2026  -1.1757  -1.1372  -1.1014  -1.0489
 -1.0442  -1.0239  -1.0048  -0.9983  -0.9639  -0.9569  -0.9498  -0.9421
 -0.8951  -0.8698  -0.8648  -0.8155  -0.7920  -0.7906  -0.7849  -0.7702
 -0.7567  -0.7374  -0.7241  -0.7100  -0.6965  -0.6955  -0.6845  -0.6819
 -0.6737  -0.6648  -0.6567  -0.6496  -0.6382  -0.6318  -0.6218  -0.6162
 -0.6113  -0.5998  -0.5936  -0.5764  -0.5714  -0.5665  -0.5604  -0.5562
 -0.5501  -0.5324  -0.5311  -0.5272  -0.5163  -0.5119  -0.5085  -0.5010
 -0.4849  -0.4798  -0.4767  -0.4736  -0.4708  -0.4657  -0.4601  -0.4480
 -0.4328  -0.3983  -0.3831  -0.3727  -0.3504  -0.3005  -0.2864  -0.2183
 -- Virtual --
  0.0314   0.0554   0.1124   0.1336   0.1365   0.1457   0.1511   0.1535
  0.1570   0.1598   0.1648   0.1761   0.1815   0.1827   0.1850   0.1961
  0.1987   0.2031   0.2054   0.2140   0.2151   0.2202   0.2252   0.2277
  0.2282   0.2370   0.2414   0.2505   0.2535   0.2580   0.2633   0.2732
  0.2944   0.3029   0.3178   0.3254   0.3283   0.3393   0.3432   0.3475
  0.3566   0.3571   0.3639   0.3746   0.3781   0.3820   0.3836   0.3850
  0.3914   0.3953   0.4004   0.4053   0.4071   0.4125   0.4144   0.4247
  0.4274   0.4295   0.4360   0.4390   0.4410   0.4432   0.4551   0.4565
  0.4608   0.4647   0.4681   0.4716   0.4746   0.4770   0.4790   0.4870
  0.4886   0.4940   0.4974   0.5020   0.5075   0.5103   0.5174   0.5202
  0.5234   0.5287   0.5326   0.5362   0.5376   0.5427   0.5438   0.5482
  0.5506   0.5519   0.5568   0.5603   0.5666   0.5695   0.5732   0.5854
  0.5858   0.5879   0.5906   0.5962   0.6014   0.6047   0.6105   0.6112
  0.6150   0.6160   0.6190   0.6210   0.6221   0.6237   0.6266   0.6287
  0.6326   0.6398   0.6418   0.6446   0.6464   0.6525   0.6552   0.6608
  0.6641   0.6679   0.6698   0.6785   0.6833   0.6853   0.6890   0.7013
  0.7082   0.7086   0.7121   0.7162   0.7225   0.7232   0.7370   0.7407
  0.7485   0.7502   0.7565   0.7623   0.7703   0.7730   0.7848   0.7894
  0.7967   0.8020   0.8075   0.8144   0.8206   0.8238   0.8275   0.8323
  0.8386   0.8417   0.8491   0.8532   0.8639   0.8679   0.8714   0.8811
  0.8850   0.8877   0.8939   0.8960   0.8983   0.9022   0.9093   0.9119
  0.9237   0.9251   0.9353   0.9413   0.9422   0.9498   0.9526   0.9556
  0.9621   0.9652   0.9705   0.9780   0.9845   0.9873   0.9905   0.9912
  0.9968   1.0011   1.0095   1.0135   1.0163   1.0233   1.0265   1.0317
  1.0355   1.0409   1.0491   1.0528   1.0564   1.0615   1.0663   1.0707
  1.0756   1.0770   1.0865   1.0894   1.0991   1.1019   1.1063   1.1096
  1.1107   1.1143   1.1185   1.1234   1.1348   1.1358   1.1445   1.1518
  1.1554   1.1566   1.1640   1.1667   1.1690   1.1752   1.1809   1.1847
  1.1901   1.1922   1.2005   1.2034   1.2085   1.2137   1.2178   1.2228
  1.2263   1.2317   1.2350   1.2409   1.2451   1.2481   1.2511   1.2554
  1.2611   1.2674   1.2725   1.2758   1.2794   1.2855   1.2898   1.2970
  1.3011   1.3055   1.3111   1.3180   1.3304   1.3315   1.3337   1.3402
  1.3466   1.3512   1.3607   1.3658   1.3849   1.3899   1.3952   1.3998
  1.4022   1.4050   1.4136   1.4285   1.4318   1.4364   1.4394   1.4535
  1.4566   1.4689   1.4765   1.4852   1.4862   1.4907   1.4953   1.5019
  1.5026   1.5088   1.5152   1.5186   1.5205   1.5311   1.5352   1.5382
  1.5422   1.5449   1.5477   1.5512   1.5657   1.5694   1.5749   1.5785
  1.5825   1.5939   1.6010   1.6104   1.6109   1.6270   1.6290   1.6371
  1.6433   1.6465   1.6513   1.6581   1.6674   1.6701   1.6814   1.6868
  1.6923   1.6972   1.7028   1.7080   1.7182   1.7276   1.7395   1.7479
  1.7609   1.7661   1.7722   1.7762   1.7854   1.7976   1.8111   1.8182
  1.8225   1.8257   1.8368   1.8414   1.8579   1.8636   1.8683   1.8741
  1.8854   1.8877   1.8968   1.9109   1.9126   1.9241   1.9311   1.9347
  1.9421   1.9485   1.9532   1.9764   1.9837   1.9889   1.9968   2.0048
  2.0065   2.0165   2.0217   2.0298   2.0336   2.0368   2.0416   2.0482
  2.0596   2.0780   2.0864   2.0884   2.0962   2.1066   2.1251   2.1359
  2.1535   2.1542   2.1644   2.1688   2.1806   2.1850   2.1914   2.1955
  2.2016   2.2095   2.2113   2.2200   2.2281   2.2330   2.2380   2.2465
  2.2522   2.2556   2.2591   2.2689   2.2726   2.2789   2.2867   2.3001
  2.3036   2.3158   2.3287   2.3308   2.3374   2.3459   2.3504   2.3622
  2.3686   2.3720   2.3875   2.3965   2.3980   2.4113   2.4152   2.4221
  2.4291   2.4416   2.4460   2.4628   2.4718   2.4803   2.4892   2.4934
  2.5092   2.5139   2.5215   2.5283   2.5421   2.5435   2.5512   2.5627
  2.5742   2.5871   2.5953   2.5995   2.6045   2.6153   2.6207   2.6258
  2.6301   2.6366   2.6396   2.6427   2.6466   2.6471   2.6639   2.6752
  2.6764   2.6860   2.6869   2.6922   2.7026   2.7044   2.7124   2.7146
  2.7169   2.7270   2.7364   2.7401   2.7491   2.7615   2.7656   2.7729
  2.7812   2.7880   2.7894   2.8016   2.8017   2.8057   2.8171   2.8325
  2.8412   2.8463   2.8522   2.8546   2.8616   2.8639   2.8662   2.8730
  2.8783   2.8865   2.8889   2.9059   2.9132   2.9276   2.9307   2.9393
  2.9498   2.9547   2.9610   2.9643   2.9722   2.9762   2.9813   2.9822
  2.9944   2.9973   3.0072   3.0142   3.0232   3.0253   3.0393   3.0422
  3.0501   3.0637   3.0666   3.0701   3.0828   3.0912   3.0959   3.0993
  3.1075   3.1081   3.1093   3.1232   3.1284   3.1363   3.1383   3.1434
  3.1461   3.1494   3.1538   3.1567   3.1595   3.1621   3.1683   3.1777
  3.1830   3.1873   3.1939   3.2101   3.2144   3.2169   3.2210   3.2240
  3.2267   3.2349   3.2431   3.2493   3.2565   3.2570   3.2629   3.2667
  3.2724   3.2757   3.2808   3.2850   3.2898   3.2938   3.2967   3.2992
  3.3063   3.3085   3.3116   3.3133   3.3275   3.3320   3.3350   3.3445
  3.3457   3.3482   3.3505   3.3537   3.3613   3.3631   3.3690   3.3739
  3.3754   3.3823   3.3856   3.3933   3.3954   3.3986   3.4024   3.4037
  3.4097   3.4140   3.4191   3.4252   3.4298   3.4337   3.4414   3.4443
  3.4517   3.4545   3.4613   3.4622   3.4683   3.4736   3.4770   3.4796
  3.4857   3.4905   3.4962   3.5022   3.5075   3.5110   3.5217   3.5281
  3.5345   3.5375   3.5464   3.5547   3.5594   3.5670   3.5676   3.5804
  3.5825   3.5869   3.5904   3.5943   3.5981   3.6034   3.6072   3.6106
  3.6148   3.6231   3.6264   3.6301   3.6326   3.6358   3.6431   3.6482
  3.6605   3.6650   3.6715   3.6786   3.6792   3.6821   3.6938   3.6970
  3.6971   3.7057   3.7079   3.7126   3.7170   3.7234   3.7261   3.7321
  3.7357   3.7460   3.7486   3.7510   3.7603   3.7634   3.7675   3.7694
  3.7854   3.7882   3.7926   3.7982   3.8042   3.8061   3.8107   3.8138
  3.8185   3.8208   3.8322   3.8386   3.8459   3.8482   3.8538   3.8566
  3.8670   3.8682   3.8749   3.8810   3.8904   3.8967   3.9064   3.9086
  3.9129   3.9196   3.9231   3.9341   3.9413   3.9485   3.9549   3.9579
  3.9646   3.9683   3.9787   3.9890   3.9960   4.0002   4.0064   4.0082
  4.0184   4.0247   4.0309   4.0417   4.0442   4.0545   4.0634   4.0671
  4.0684   4.0734   4.0863   4.0969   4.1051   4.1142   4.1244   4.1271
  4.1290   4.1442   4.1505   4.1594   4.1666   4.1668   4.1684   4.1729
  4.1746   4.1804   4.1937   4.2086   4.2144   4.2149   4.2305   4.2318
  4.2454   4.2515   4.2567   4.2689   4.2738   4.2859   4.2957   4.3008
  4.3171   4.3226   4.3297   4.3393   4.3420   4.3450   4.3559   4.3604
  4.3628   4.3701   4.3834   4.3878   4.3919   4.4019   4.4098   4.4162
  4.4217   4.4252   4.4307   4.4344   4.4381   4.4465   4.4514   4.4544
  4.4656   4.4721   4.4916   4.5016   4.5115   4.5166   4.5234   4.5316
  4.5369   4.5443   4.5495   4.5594   4.5693   4.5714   4.5772   4.5842
  4.6010   4.6040   4.6051   4.6199   4.6216   4.6411   4.6493   4.6511
  4.6593   4.6662   4.6885   4.6937   4.7042   4.7075   4.7214   4.7316
  4.7475   4.7645   4.7765   4.7796   4.7898   4.7996   4.8004   4.8119
  4.8281   4.8348   4.8430   4.8469   4.8624   4.8635   4.8767   4.8848
  4.8977   4.9102   4.9343   4.9403   4.9500   4.9607   4.9656   4.9805
  4.9831   5.0021   5.0090   5.0100   5.0206   5.0269   5.0438   5.0516
  5.0665   5.0807   5.0984   5.1064   5.1247   5.1315   5.1517   5.1689
  5.1724   5.1912   5.2039   5.2146   5.2232   5.2285   5.2517   5.2548
  5.2593   5.2731   5.2791   5.2886   5.2956   5.3066   5.3174   5.3254
  5.3426   5.3528   5.3547   5.3645   5.3811   5.3894   5.3998   5.4017
  5.4033   5.4194   5.4263   5.4406   5.4472   5.4850   5.4866   5.5039
  5.5109   5.5206   5.5244   5.5376   5.5520   5.5688   5.5781   5.5851
  5.5988   5.6078   5.6123   5.6218   5.6438   5.6620   5.6734   5.6885
  5.6960   5.7449   5.7597   5.7626   5.7803   5.8077   5.8206   5.8552
  5.8581   5.8803   5.9015   5.9197   5.9293   5.9434   5.9768   6.0023
  6.0399   6.0451   6.0865   6.1291   6.1506   6.1577   6.1727   6.1799
  6.1812   6.2157   6.2310   6.2476   6.2615   6.2622   6.2759   6.2881
  6.2992   6.3262   6.3528   6.3848   6.4502   6.4505   6.5061   6.5403
  6.5499   6.5693   6.6078   6.6440   6.6622   6.6713   6.7142   6.7483
  6.8082   6.8315   6.8591   6.8596   6.8994   6.9785   7.1316   7.1449
  7.2041   7.2082   7.2211   7.2388   7.3100   7.3268   7.3408   7.3644
  7.3660   7.4071   7.4134   7.4865   7.4869   7.4966   7.5266   7.5525
  7.6203   7.7429   7.7743   7.7905   7.8018   7.9045   7.9264   7.9536
  7.9828   8.1385   8.3655   8.5595   8.9232   9.0290   9.3643   9.4907
  9.6777  10.2347  11.1645  11.4556  11.7481  11.8941  12.1237  12.3838
 12.4257  12.4992  12.9571  13.0073  13.0787  13.2923  13.3890  13.4886
 13.7746  13.8463  13.9167  13.9701  14.0415  14.3125  15.0221  15.2326
 --------------------------------------------------------------
 
          Ground-State Mulliken Net Atomic Charges

     Atom                 Charge (a.u.)
  ----------------------------------------
      1 C                    -0.070849
      2 C                    -0.247656
      3 S                    -0.131843
      4 C                    -0.049018
      5 H                     0.195189
      6 C                    -0.048854
      7 C                     0.218785
      8 C                     0.232388
      9 C                    -0.068957
     10 C                    -0.033559
     11 O                    -0.333996
     12 O                    -0.344182
     13 C                    -0.082728
     14 H                     0.120176
     15 H                     0.092252
     16 H                     0.093175
     17 C                    -0.089044
     18 H                     0.124750
     19 H                     0.093822
     20 H                     0.091522
     21 C                    -0.314624
     22 S                    -0.108147
     23 C                     0.121762
     24 H                     0.197734
     25 C                     0.016462
     26 S                     0.074298
     27 C                    -0.220010
     28 C                    -0.040537
     29 C                    -0.112962
     30 S                    -0.009459
     31 C                    -0.164262
     32 C                     0.406246
     33 F                    -0.207930
     34 C                     0.443976
     35 O                    -0.460598
     36 O                    -0.300649
     37 C                    -0.058689
     38 H                     0.121409
     39 H                     0.095149
     40 H                     0.094985
     41 H                     0.216878
     42 H                     0.119056
     43 H                     0.116719
     44 H                     0.211819
  ----------------------------------------
  Sum of atomic charges =     0.000000

 -----------------------------------------------------------------
                    Cartesian Multipole Moments
 -----------------------------------------------------------------
    Charge (ESU x 10^10)
                 0.0000
    Dipole Moment (Debye)
         X       1.1872      Y       1.1491      Z       2.6300
       Tot       3.1059
    Quadrupole Moments (Debye-Ang)
        XX    -200.4910     XY       4.4236     YY    -169.6804
        XZ      -4.7709     YZ      -3.0523     ZZ    -188.1447
    Octopole Moments (Debye-Ang^2)
       XXX    -143.1213    XXY     385.2465    XYY     -46.1407
       YYY     919.9891    XXZ     150.2481    XYZ      -1.5774
       YYZ      63.5676    XZZ     -29.0844    YZZ     387.2167
       ZZZ     505.6192
    Hexadecapole Moments (Debye-Ang^3)
      XXXX    -537.0594   XXXY    -405.3277   XXYY   -3958.3559
      XYYY    -259.2961   YYYY  -19834.1112   XXXZ     266.3512
      XXYZ     694.7515   XYYZ     -67.2614   YYYZ    2065.8256
      XXZZ   -1363.9607   XYZZ      37.5574   YYZZ   -4212.0076
      XZZZ     146.1940   YZZZ    1565.7095   ZZZZ   -7478.8917
 -----------------------------------------------------------------
 Total job time:  361.49s(wall), 11260.79s(cpu) 
 Tue Jan  9 13:23:56 2024

        *************************************************************
        *                                                           *
        *  Thank you very much for using Q-Chem.  Have a nice day.  *
        *                                                           *
        *************************************************************


0 sent ACK to 0 
now end server 0 ... 
cleanup process ... done
remove work dirs ./qchem820423.0 -- ./qchem820423.0
rm -rf ./qchem820423.0
rm -rf ./qchem820423
