You are running Q-Chem version: 5.4.0

#
# job setting
#
local host:  exp-6-38
current dir: /home/rramji/project-csd799/aromodel/ptb7fout-qchem/hydrogenated-rotation-run
input file:  Dimethoxy_Benzodithiophene_Phi_50_Theta_130_Methylcarbonyl_3_Fluoro_Thienothiophene_Hydrogenated.qcin
output file: 
nprocs     : 1
nthreads   : 64
#
# qchem installation setting
#
QC:          /cm/shared/apps/spack/cpu/opt/spack/linux-centos8-zen2/gcc-10.2.0/qchem-5.4-akfmr7b3t57bfs6qan3padb2wnb2i7cl
QCAUX:       /cm/shared/apps/spack/cpu/opt/spack/linux-centos8-zen2/gcc-10.2.0/qchem-5.4-akfmr7b3t57bfs6qan3padb2wnb2i7cl/qcaux
QCPROG:      /cm/shared/apps/spack/cpu/opt/spack/linux-centos8-zen2/gcc-10.2.0/qchem-5.4-akfmr7b3t57bfs6qan3padb2wnb2i7cl/exe/qcprog.exe
QCPROG_S:    /cm/shared/apps/spack/cpu/opt/spack/linux-centos8-zen2/gcc-10.2.0/qchem-5.4-akfmr7b3t57bfs6qan3padb2wnb2i7cl/exe/qcprog.exe_s
PARALLEL:    -DPARALLEL
QCMPI:       mpich
#
# qchem directory setting
#
qcrun:       qchem3762314
QCSCRATCH:   .
QCLOCALSCR:  
QCTMPDIR:    .
QCFILEPREF:  ./qchem3762314
QCSAVEDIR:   
workdirs:    ./qchem3762314
workdir0:    ./qchem3762314
partmpdirs =  
#
# parallel setting
#
QCRSH:           ssh
QCMPI:           mpich
QCMPIRUN:        /cm/shared/apps/spack/cpu/opt/spack/linux-centos8-zen2/gcc-10.2.0/qchem-5.4-akfmr7b3t57bfs6qan3padb2wnb2i7cl/bin/mpi/mpirun_qchem
QCMACHINEFILE:   ./qchem3762314/hostfile
exp-6-38

#
# env setting
#
exported envs:   QC QCAUX QCSCRATCH QCRUNNAME QCFILEPREF QCPROG QCPROG_S GUIFILE

Running Job 1 of 1 Dimethoxy_Benzodithiophene_Phi_50_Theta_130_Methylcarbonyl_3_Fluoro_Thienothiophene_Hydrogenated.qcin
qchem Dimethoxy_Benzodithiophene_Phi_50_Theta_130_Methylcarbonyl_3_Fluoro_Thienothiophene_Hydrogenated.qcin_3762314.0 ./qchem3762314/ 1
/cm/shared/apps/spack/cpu/opt/spack/linux-centos8-zen2/gcc-10.2.0/qchem-5.4-akfmr7b3t57bfs6qan3padb2wnb2i7cl/bin/mpi/mpirun_qchem -machinefile ./qchem3762314/hostfile -np 1 /cm/shared/apps/spack/cpu/opt/spack/linux-centos8-zen2/gcc-10.2.0/qchem-5.4-akfmr7b3t57bfs6qan3padb2wnb2i7cl/exe/qcprog.exe Dimethoxy_Benzodithiophene_Phi_50_Theta_130_Methylcarbonyl_3_Fluoro_Thienothiophene_Hydrogenated.qcin_3762314.0 ./qchem3762314/

Process 0 of 1 is on exp-6-38 - thread support 0
initial socket setup ...start
initial socket setup ...done 
now start server 0 ... 
                  Welcome to Q-Chem
     A Quantum Leap Into The Future Of Chemistry


 Q-Chem 5.4, Q-Chem, Inc., Pleasanton, CA (2021)

 License issued to: University of California, San Diego (site)

 E. Epifanovsky,  A. T. B. Gilbert,  Xintian Feng,  Joonho Lee,  Yuezhi Mao,  
 N. Mardirossian,  P. Pokhilko,  A. White,  M. Wormit,  M. P. Coons,  
 A. L. Dempwolff,  Zhengting Gan,  D. Hait,  P. R. Horn,  L. D. Jacobson,  
 I. Kaliman,  J. Kussmann,  A. W. Lange,  Ka Un Lao,  D. S. Levine,  Jie Liu,  
 S. C. McKenzie,  A. F. Morrison,  K. Nanda,  F. Plasser,  D. R. Rehn,  
 M. L. Vidal,  Zhi-Qiang You,  Ying Zhu,  B. Alam,  B. Albrecht,  
 A. Aldossary,  E. Alguire,  J. H. Andersen,  D. Barton,  K. Begam,  A. Behn,  
 Y. A. Bernard,  E. J. Berquist,  H. Burton,  A. Carreras,  K. Carter-Fenk,  
 R. Chakraborty,  A. D. Chien,  K. D. Closser,  V. Cofer-Shabica,  
 S. Dasgupta,  Jia Deng,  M. de Wergifosse,  M. Diedenhofen,  Hainam Do,  
 S. Ehlert,  Po-Tung Fang,  S. Fatehi,  Qingguo Feng,  J. Gayvert,  
 Qinghui Ge,  G. Gidofalvi,  M. Goldey,  J. Gomes,  C. Gonzalez-Espinoza,  
 S. Gulania,  A. Gunina,  M. W. D. Hanson-Heine,  P. H. P. Harbach,  
 A. W. Hauser,  M. F. Herbst,  M. Hernandez Vera,  M. Hodecker,  
 Z. C. Holden,  S. Houck,  Xunkun Huang,  Kerwin Hui,  B. C. Huynh,  
 M. Ivanov,  Hyunjun Ji,  Hanjie Jiang,  B. Kaduk,  S. Kaehler,  
 K. Khistyaev,  Jaehoon Kim,  P. Klunzinger,  Z. Koczor-Benda,  
 Joong Hoon Koh,  D. Kosenkov,  L. Koulias,  T. Kowalczyk,  C. M. Krauter,  
 K. Kue,  A. Kunitsa,  T. Kus,  A. Landau,  K. V. Lawler,  D. Lefrancois,  
 S. Lehtola,  Rain Li,  Yi-Pei Li,  Jiashu Liang,  M. Liebenthal,  
 Hung-Hsuan Lin,  You-Sheng Lin,  Fenglai Liu,  Kuan-Yu Liu,  
 M. Loipersberger,  A. Luenser,  A. Manjanath,  P. Manohar,  E. Mansoor,  
 S. F. Manzer,  Shan-Ping Mao,  A. V. Marenich,  T. Markovich,  S. Mason,  
 S. A. Maurer,  P. F. McLaughlin,  M. F. S. J. Menger,  J.-M. Mewes,  
 S. A. Mewes,  P. Morgante,  J. W. Mullinax,  T. S. Nguyen-Beck,  
 K. J. Oosterbaan,  G. Paran,  Alexander C. Paul,  Suranjan K. Paul,  
 F. Pavosevic,  Zheng Pei,  S. Prager,  E. I. Proynov,  E. Ramos,  B. Rana,  
 A. E. Rask,  A. Rettig,  R. M. Richard,  F. Rob,  E. Rossomme,  T. Scheele,  
 M. Scheurer,  M. Schneider,  N. Sergueev,  S. M. Sharada,  W. Skomorowski,  
 D. W. Small,  C. J. Stein,  Yu-Chuan Su,  E. J. Sundstrom,  Zhen Tao,  
 J. Thirman,  T. Tsuchimochi,  N. M. Tubman,  S. P. Veccham,  O. Vydrov,  
 J. Wenzel,  J. Witte,  A. Yamada,  Kun Yao,  S. Yeganeh,  S. R. Yost,  
 A. Zech,  Igor Ying Zhang,  Xing Zhang,  Yu Zhang,  D. Zuev,  
 A. Aspuru-Guzik,  A. T. Bell,  N. A. Besley,  K. B. Bravaya,  B. R. Brooks,  
 D. Casanova,  Jeng-Da Chai,  S. Coriani,  C. J. Cramer,  
 A. E. DePrince, III,  R. A. DiStasio Jr.,  A. Dreuw,  B. D. Dunietz,  
 T. R. Furlani,  W. A. Goddard III,  S. Grimme,  S. Hammes-Schiffer,  
 T. Head-Gordon,  W. J. Hehre,  Chao-Ping Hsu,  T.-C. Jagau,  Yousung Jung,  
 A. Klamt,  Jing Kong,  D. S. Lambrecht,  WanZhen Liang,  N. J. Mayhall,  
 C. W. McCurdy,  J. B. Neaton,  C. Ochsenfeld,  J. A. Parkhill,  R. Peverati,  
 V. A. Rassolov,  Yihan Shao,  L. V. Slipchenko,  T. Stauch,  R. P. Steele,  
 J. E. Subotnik,  A. J. W. Thom,  A. Tkatchenko,  D. G. Truhlar,  
 T. Van Voorhis,  T. A. Wesolowski,  K. B. Whaley,  H. L. Woodcock III,  
 P. M. Zimmerman,  S. Faraji,  P. M. W. Gill,  M. Head-Gordon,  
 J. M. Herbert,  A. I. Krylov

 Contributors to earlier versions of Q-Chem not listed above: 
 R. D. Adamson,  B. Austin,  R. Baer,  J. Baker,  G. J. O. Beran,  
 K. Brandhorst,  S. T. Brown,  E. F. C. Byrd,  A. K. Chakraborty,  
 G. K. L. Chan,  Chun-Min Chang,  Yunqing Chen,  C.-L. Cheng,  
 Siu Hung Chien,  D. M. Chipman,  D. L. Crittenden,  H. Dachsel,  
 R. J. Doerksen,  A. D. Dutoi,  R. G. Edgar,  J. Fosso-Tande,  
 L. Fusti-Molnar,  D. Ghosh,  A. Ghysels,  A. Golubeva-Zadorozhnaya,  
 J. Gonthier,  M. S. Gordon,  S. R. Gwaltney,  G. Hawkins,  J. E. Herr,  
 A. Heyden,  S. Hirata,  E. G. Hohenstein,  G. Kedziora,  F. J. Keil,  
 C. Kelley,  Jihan Kim,  R. A. King,  R. Z. Khaliullin,  P. P. Korambath,  
 W. Kurlancheek,  A. Laurent,  A. M. Lee,  M. S. Lee,  S. V. Levchenko,  
 Ching Yeh Lin,  D. Liotard,  E. Livshits,  R. C. Lochan,  I. Lotan,  
 L. A. Martinez-Martinez,  P. E. Maslen,  N. Nair,  D. P. O'Neill,  
 D. Neuhauser,  E. Neuscamman,  C. M. Oana,  R. Olivares-Amaya,  R. Olson,  
 T. M. Perrine,  B. Peters,  P. A. Pieniazek,  A. Prociuk,  Y. M. Rhee,  
 J. Ritchie,  M. A. Rohrdanz,  E. Rosta,  N. J. Russ,  H. F. Schaefer III,  
 M. W. Schmidt,  N. E. Schultz,  S. Sharma,  N. Shenvi,  C. D. Sherrill,  
 A. C. Simmonett,  A. Sodt,  T. Stein,  D. Stuck,  K. S. Thanthiriwatte,  
 V. Vanovschi,  L. Vogt,  Tao Wang,  A. Warshel,  M. A. Watson,  
 C. F. Williams,  Q. Wu,  X. Xu,  Jun Yang,  W. Zhang,  Yan Zhao

 Please cite Q-Chem as follows:
 Y. Shao et al., Mol. Phys. 113, 184-215 (2015)
 DOI: 10.1080/00268976.2014.952696

 Q-Chem 5.4.0 for Intel X86 EM64T Linux

 Parts of Q-Chem use Armadillo 9.800.1 (Horizon Scraper).
 http://arma.sourceforge.net/

 Q-Chem begins on Tue Jan  9 10:54:39 2024  

 Host: 
0

     Scratch files written to ./qchem3762314//
 May1621 |scratch|qcdevops|jenkins|workspace|build_RNUM    
 Parallel job on  1  processors
 Processing $rem in /cm/shared/apps/spack/cpu/opt/spack/linux-centos8-zen2/gcc-10.2.0/qchem-5.4-akfmr7b3t57bfs6qan3padb2wnb2i7cl/config/preferences:
 Processing $rem in /home/rramji/.qchemrc:
 Symmetry turned off for PCM/SM12/SMD calculation
 Core orbitals will be frozen

 Checking the input file for inconsistencies... 	...done.

 Q-Chem warning in module forms1/BasisType.C, line 2236:

 You are not using the predefined 5D/6D in this basis set.


--------------------------------------------------------------
User input:
--------------------------------------------------------------
$molecule
0 1
C	-0.217225	-8.517702	-0.236226
C	0.611939	-7.641575	0.448921
S	-1.413715	-7.638634	-1.218777
C	0.323572	-6.264785	0.206907
H	1.418739	-7.966081	1.118185
C	-0.768156	-6.072714	-0.711285
C	-1.215016	-4.787049	-1.053725
C	0.999917	-5.162801	0.804258
C	0.550033	-3.874817	0.464908
C	-0.541024	-3.683952	-0.456457
O	2.028811	-5.499772	1.630752
O	-2.249357	-4.459055	-1.883064
C	-2.586579	-5.329063	-2.956754
H	-3.262802	-4.755694	-3.619069
H	-3.124711	-6.238095	-2.609423
H	-1.686639	-5.637262	-3.531667
C	2.503251	-4.572261	2.599073
H	3.185356	-5.139743	3.260097
H	1.672937	-4.153131	3.207034
H	3.075213	-3.739531	2.135214
C	-0.828107	-2.306654	-0.694410
S	1.188794	-2.306501	0.983256
C	0.000000	-1.435185	0.000000
H	-1.632185	-1.978138	-1.364851
C	0.000000	0.000000	0.000000
S	0.693394	0.581209	1.507541
C	1.897536	1.592607	0.718873
C	0.693330	0.580791	-1.067872
C	1.756758	1.476132	-0.686410
S	0.508573	0.422041	-2.805516
C	1.846879	1.552232	-3.054530
C	2.387897	2.009402	-1.862551
F	3.408741	2.872264	-1.819088
C	2.191300	1.838768	-4.456084
O	1.606694	1.337806	-5.406510
O	3.221062	2.712584	-4.569225
C	3.603677	3.026817	-5.916207
H	4.442623	3.739898	-5.833064
H	2.758956	3.483875	-6.470168
H	3.921969	2.114070	-6.459293
H	2.604650	2.187790	1.306486
H	-0.792084	-9.143623	0.456457
H	0.352973	-9.149441	-0.927480
H	-0.688477	-1.443175	0.832067
$end

$rem
JOBTYPE		SP
EXCHANGE	HF
CORRELATION	pRIMP2
BASIS		cc-pvtz
METHOD		rimp2
AUX_BASIS	rimp2-cc-pvtz
SOLVENT_METHOD	PCM
PURECART	11111
SYMMETRY	false
MEM_TOTAL	110000
SCF_CONVERGENCE = 6
THRESH=10
GUI = 2
$end



$solvent
dielectric 4.90
$end
--------------------------------------------------------------
 ----------------------------------------------------------------
             Standard Nuclear Orientation (Angstroms)
    I     Atom           X                Y                Z
 ----------------------------------------------------------------
    1      C      -0.2172250000    -8.5177020000    -0.2362260000
    2      C       0.6119390000    -7.6415750000     0.4489210000
    3      S      -1.4137150000    -7.6386340000    -1.2187770000
    4      C       0.3235720000    -6.2647850000     0.2069070000
    5      H       1.4187390000    -7.9660810000     1.1181850000
    6      C      -0.7681560000    -6.0727140000    -0.7112850000
    7      C      -1.2150160000    -4.7870490000    -1.0537250000
    8      C       0.9999170000    -5.1628010000     0.8042580000
    9      C       0.5500330000    -3.8748170000     0.4649080000
   10      C      -0.5410240000    -3.6839520000    -0.4564570000
   11      O       2.0288110000    -5.4997720000     1.6307520000
   12      O      -2.2493570000    -4.4590550000    -1.8830640000
   13      C      -2.5865790000    -5.3290630000    -2.9567540000
   14      H      -3.2628020000    -4.7556940000    -3.6190690000
   15      H      -3.1247110000    -6.2380950000    -2.6094230000
   16      H      -1.6866390000    -5.6372620000    -3.5316670000
   17      C       2.5032510000    -4.5722610000     2.5990730000
   18      H       3.1853560000    -5.1397430000     3.2600970000
   19      H       1.6729370000    -4.1531310000     3.2070340000
   20      H       3.0752130000    -3.7395310000     2.1352140000
   21      C      -0.8281070000    -2.3066540000    -0.6944100000
   22      S       1.1887940000    -2.3065010000     0.9832560000
   23      C       0.0000000000    -1.4351850000     0.0000000000
   24      H      -1.6321850000    -1.9781380000    -1.3648510000
   25      C       0.0000000000     0.0000000000     0.0000000000
   26      S       0.6933940000     0.5812090000     1.5075410000
   27      C       1.8975360000     1.5926070000     0.7188730000
   28      C       0.6933300000     0.5807910000    -1.0678720000
   29      C       1.7567580000     1.4761320000    -0.6864100000
   30      S       0.5085730000     0.4220410000    -2.8055160000
   31      C       1.8468790000     1.5522320000    -3.0545300000
   32      C       2.3878970000     2.0094020000    -1.8625510000
   33      F       3.4087410000     2.8722640000    -1.8190880000
   34      C       2.1913000000     1.8387680000    -4.4560840000
   35      O       1.6066940000     1.3378060000    -5.4065100000
   36      O       3.2210620000     2.7125840000    -4.5692250000
   37      C       3.6036770000     3.0268170000    -5.9162070000
   38      H       4.4426230000     3.7398980000    -5.8330640000
   39      H       2.7589560000     3.4838750000    -6.4701680000
   40      H       3.9219690000     2.1140700000    -6.4592930000
   41      H       2.6046500000     2.1877900000     1.3064860000
   42      H      -0.7920840000    -9.1436230000     0.4564570000
   43      H       0.3529730000    -9.1494410000    -0.9274800000
   44      H      -0.6884770000    -1.4431750000     0.8320670000
 ----------------------------------------------------------------
 Nuclear Repulsion Energy =        3391.89598559 hartrees
 There are      120 alpha and      120 beta electrons
 Requested basis set is cc-pVTZ
 There are 388 shells and 1096 basis functions

 Total QAlloc Memory Limit 110000 MB
 Mega-Array Size       188 MB
 MEM_STATIC part       192 MB
 Discretize the solute cavity surface with Lebedev spheres
	Using 110 Lebedev grid points for each H atom
	Using 194 Lebedev grid points for other atoms
	Atomic van der Waals radii will be scaled by 1.20
 Remove points where switching function is < 1.0e-08
 Keep 2942 surface tesserae and discard 4334 interior tesserae
 Molecular Surface Area = 438.553 Angst**2
 Requested basis set is rimp2-cc-pVTZ
 There are 853 shells and 2963 basis functions
 A cutoff of  1.0D-10 yielded  33713 shell pairs
 There are    253985 function pairs (    328322 Cartesian)
 Smallest overlap matrix eigenvalue = 2.17E-05

 Scale SEOQF with 1.000000e-01/1.000000e-02/1.000000e-02

 Standard Electronic Orientation quadrupole field applied
 Nucleus-field energy     =     0.0000000422 hartrees
 Guess from superposition of atomic densities
 Warning:  Energy on first SCF cycle will be non-variational
 SAD guess density has 240.000000 electrons

 -----------------------------------------------------------------------
  General SCF calculation program by
  Eric Jon Sundstrom, Paul Horn, Yuezhi Mao, Dmitri Zuev, Alec White,
  David Stuck, Shaama M.S., Shane Yost, Joonho Lee, David Small,
  Daniel Levine, Susi Lehtola, Hugh Burton, Evgeny Epifanovsky,
  Bang C. Huynh
 -----------------------------------------------------------------------
 Hartree-Fock
 using 64 threads for integral computing
 -------------------------------------------------------
 OpenMP Integral computing Module                
 Release: version 1.0, May 2013, Q-Chem Inc. Pittsburgh 
 -------------------------------------------------------
 A restricted SCF calculation will be
 performed using DIIS
 SCF converges when DIIS error is below 1.0e-06
 ---------------------------------------
  Cycle       Energy         DIIS error
 ---------------------------------------
    1   -2767.1131386256      1.75e-02  
    2   -2754.8418268855      1.53e-03  
    3   -2755.1924847870      8.51e-04  
    4   -2755.2783092187      2.57e-04  
    5   -2755.2918931835      7.40e-05  
    6   -2755.2934422650      2.67e-05  
    7   -2755.2938574801      1.37e-05  
    8   -2755.2939991223      5.98e-06  
    9   -2755.2940333150      3.03e-06  
   10   -2755.2940417618      1.67e-06  
   11   -2755.2940445289      7.98e-07  Convergence criterion met
 ---------------------------------------
 SCF time:   CPU 7480.73s  wall 270.00s 

************** Final PCM Free Energy Summary **************
 G_electrostatic  =      -0.02218642 hartree =     -13.92218826 kcal/mol
 G_cavitation     =       0.00000000 hartree =       0.00000000 kcal/mol
 G_dispersion     =       0.00000000 hartree =       0.00000000 kcal/mol
 G_repulsion      =       0.00000000 hartree =       0.00000000 kcal/mol
 --------------------------------------------------
 Non-electrostatic Free Energy =       0.00000000 hartree =       0.00000000 kcal/mol
 Total                         =      -0.02218642 hartree =     -13.92218826 kcal/mol
 --------------------------------------------------
 SCF Energy (H0 + V/2)                       =   -2755.29404453 
 Solute Internal Energy (H0)                 =   -2755.27185811 
 Total Free Energy (H0 + V/2 + non-elec)     =   -2755.29404453 hartree
                                             = -1728973.10833176 kcal/mol
***********************************************************

 SCF   energy in the final basis set =    -2755.2940445289
 Total energy in the final basis set =    -2755.2940445289


 --------------------------------------------------------------
  Generalized many-body perturbation theory program
  by Joonho Lee, Fazle Rob, Xintian Feng, Evgeny Epifanovsky

 No regularization used 
 (reg. param. = 0.0000e+00)
  (P|Q)^-1/2 Time:  CPU 176.53 s  wall 2.96 s

 In RI-MP2 calculation: 
 # of frozen core orbitals: 45

 Components of the RIMP2 correlation energy:
        aaaa    correlation energy =        -0.6710358279 a.u.
        abab    correlation energy =        -3.7573217688 a.u.
        bbbb    correlation energy =        -0.6710358279 a.u.
        non-Brillouin singles      =        -0.0000000000 a.u.
        total same-spin energy     =        -1.3420716558 a.u.
        total opposite-spin energy =        -3.7573217688 a.u.

 Total  RIMP2   correlation energy =        -5.0993934245 a.u.
        RIMP2         total energy =     -2760.3934379534 a.u.

 RI-MP2 Energy Time:  CPU 4086.69 s  wall 65.97 s
 
 --------------------------------------------------------------
 
                    Orbital Energies (a.u.)
 --------------------------------------------------------------
 
 Alpha MOs
 -- Occupied --
-92.0153 -92.0074 -91.9728 -91.9551 -26.3460 -20.6159 -20.5856 -20.5838
-20.5624 -11.4109 -11.3865 -11.3301 -11.3126 -11.3071 -11.3014 -11.2993
-11.2896 -11.2879 -11.2831 -11.2814 -11.2792 -11.2766 -11.2731 -11.2712
-11.2684 -11.2551 -11.2515 -11.2464 -11.2294  -9.0149  -9.0071  -8.9754
 -8.9577  -6.6956  -6.6948  -6.6945  -6.6880  -6.6873  -6.6863  -6.6564
 -6.6555  -6.6542  -6.6390  -6.6380  -6.6370  -1.6630  -1.4684  -1.4079
 -1.4067  -1.3712  -1.2365  -1.2003  -1.1708  -1.1407  -1.0970  -1.0479
 -1.0430  -1.0277  -1.0017  -0.9938  -0.9655  -0.9594  -0.9463  -0.9396
 -0.8915  -0.8717  -0.8611  -0.8166  -0.7987  -0.7883  -0.7817  -0.7647
 -0.7579  -0.7372  -0.7277  -0.7172  -0.6962  -0.6883  -0.6856  -0.6786
 -0.6750  -0.6612  -0.6543  -0.6468  -0.6350  -0.6302  -0.6169  -0.6132
 -0.6109  -0.6021  -0.5902  -0.5775  -0.5692  -0.5628  -0.5562  -0.5539
 -0.5376  -0.5333  -0.5306  -0.5258  -0.5134  -0.5087  -0.5060  -0.4991
 -0.4858  -0.4830  -0.4764  -0.4748  -0.4727  -0.4664  -0.4540  -0.4433
 -0.4244  -0.3930  -0.3839  -0.3664  -0.3496  -0.3084  -0.2858  -0.2143
 -- Virtual --
  0.0232   0.0561   0.0786   0.1256   0.1424   0.1445   0.1512   0.1563
  0.1576   0.1594   0.1658   0.1742   0.1845   0.1846   0.1884   0.1941
  0.2029   0.2044   0.2079   0.2143   0.2185   0.2227   0.2251   0.2263
  0.2305   0.2338   0.2362   0.2447   0.2506   0.2579   0.2619   0.2654
  0.2741   0.2933   0.2983   0.3121   0.3276   0.3333   0.3375   0.3411
  0.3484   0.3574   0.3603   0.3637   0.3680   0.3729   0.3807   0.3848
  0.3865   0.3875   0.3929   0.3981   0.4067   0.4111   0.4145   0.4251
  0.4284   0.4285   0.4307   0.4340   0.4373   0.4440   0.4468   0.4483
  0.4573   0.4593   0.4621   0.4698   0.4757   0.4784   0.4828   0.4855
  0.4893   0.4932   0.4981   0.5009   0.5030   0.5089   0.5147   0.5207
  0.5231   0.5280   0.5305   0.5348   0.5358   0.5392   0.5423   0.5460
  0.5491   0.5506   0.5582   0.5598   0.5633   0.5661   0.5780   0.5814
  0.5823   0.5927   0.5946   0.5974   0.6001   0.6073   0.6075   0.6096
  0.6123   0.6165   0.6182   0.6197   0.6201   0.6253   0.6285   0.6315
  0.6363   0.6412   0.6427   0.6481   0.6512   0.6555   0.6596   0.6612
  0.6651   0.6671   0.6749   0.6775   0.6821   0.6868   0.6940   0.6991
  0.7058   0.7079   0.7140   0.7174   0.7189   0.7216   0.7233   0.7395
  0.7421   0.7499   0.7578   0.7597   0.7651   0.7690   0.7753   0.7818
  0.7875   0.7949   0.8031   0.8105   0.8140   0.8176   0.8204   0.8238
  0.8326   0.8355   0.8414   0.8463   0.8484   0.8586   0.8685   0.8727
  0.8778   0.8800   0.8818   0.8952   0.8981   0.9030   0.9097   0.9173
  0.9209   0.9286   0.9340   0.9384   0.9430   0.9485   0.9515   0.9541
  0.9564   0.9705   0.9726   0.9767   0.9786   0.9845   0.9861   0.9949
  0.9972   1.0045   1.0055   1.0114   1.0169   1.0212   1.0253   1.0320
  1.0351   1.0393   1.0453   1.0547   1.0575   1.0602   1.0638   1.0720
  1.0737   1.0781   1.0879   1.0909   1.0987   1.1021   1.1053   1.1089
  1.1134   1.1155   1.1214   1.1243   1.1279   1.1358   1.1393   1.1475
  1.1524   1.1613   1.1682   1.1696   1.1719   1.1749   1.1798   1.1808
  1.1887   1.1938   1.1957   1.1991   1.2052   1.2107   1.2137   1.2183
  1.2223   1.2326   1.2357   1.2409   1.2453   1.2472   1.2530   1.2566
  1.2627   1.2649   1.2679   1.2756   1.2815   1.2840   1.2891   1.2915
  1.2953   1.3063   1.3095   1.3191   1.3228   1.3260   1.3376   1.3493
  1.3517   1.3563   1.3668   1.3747   1.3808   1.3901   1.3915   1.3967
  1.4073   1.4098   1.4171   1.4196   1.4281   1.4304   1.4390   1.4459
  1.4628   1.4683   1.4753   1.4875   1.4909   1.4965   1.4970   1.5020
  1.5040   1.5099   1.5127   1.5172   1.5247   1.5304   1.5368   1.5401
  1.5429   1.5446   1.5506   1.5542   1.5561   1.5639   1.5682   1.5740
  1.5835   1.5949   1.6040   1.6104   1.6201   1.6254   1.6310   1.6408
  1.6524   1.6541   1.6584   1.6622   1.6679   1.6726   1.6759   1.6876
  1.6908   1.6989   1.7074   1.7158   1.7246   1.7270   1.7330   1.7438
  1.7499   1.7579   1.7744   1.7790   1.7924   1.7976   1.8003   1.8083
  1.8139   1.8234   1.8305   1.8411   1.8446   1.8630   1.8715   1.8757
  1.8784   1.8887   1.8974   1.9054   1.9129   1.9183   1.9276   1.9337
  1.9439   1.9483   1.9546   1.9595   1.9667   1.9828   1.9907   1.9995
  2.0066   2.0100   2.0185   2.0252   2.0342   2.0410   2.0439   2.0598
  2.0670   2.0766   2.0824   2.0913   2.0963   2.1035   2.1254   2.1359
  2.1435   2.1492   2.1552   2.1613   2.1784   2.1839   2.1882   2.1921
  2.1938   2.1999   2.2182   2.2242   2.2275   2.2335   2.2346   2.2425
  2.2514   2.2537   2.2556   2.2661   2.2740   2.2821   2.2909   2.2934
  2.3057   2.3096   2.3197   2.3337   2.3396   2.3471   2.3602   2.3650
  2.3685   2.3801   2.3922   2.3995   2.4145   2.4182   2.4233   2.4261
  2.4311   2.4402   2.4534   2.4652   2.4822   2.4848   2.4878   2.4936
  2.5087   2.5144   2.5172   2.5253   2.5327   2.5487   2.5533   2.5668
  2.5695   2.5766   2.5840   2.5994   2.6186   2.6218   2.6235   2.6303
  2.6313   2.6363   2.6412   2.6435   2.6517   2.6561   2.6609   2.6680
  2.6709   2.6857   2.6908   2.6982   2.7005   2.7048   2.7093   2.7211
  2.7225   2.7308   2.7405   2.7440   2.7505   2.7658   2.7666   2.7767
  2.7801   2.7851   2.7933   2.8018   2.8032   2.8100   2.8223   2.8245
  2.8416   2.8481   2.8533   2.8543   2.8561   2.8664   2.8692   2.8806
  2.8821   2.8926   2.9006   2.9102   2.9209   2.9259   2.9334   2.9485
  2.9554   2.9594   2.9616   2.9639   2.9722   2.9818   2.9866   2.9916
  3.0034   3.0108   3.0213   3.0228   3.0318   3.0369   3.0404   3.0490
  3.0585   3.0623   3.0661   3.0760   3.0815   3.0859   3.0956   3.0969
  3.1007   3.1075   3.1126   3.1141   3.1243   3.1289   3.1416   3.1454
  3.1483   3.1531   3.1578   3.1602   3.1652   3.1693   3.1768   3.1826
  3.1895   3.1943   3.2033   3.2083   3.2124   3.2163   3.2188   3.2276
  3.2284   3.2416   3.2468   3.2494   3.2527   3.2592   3.2624   3.2667
  3.2688   3.2741   3.2803   3.2885   3.2940   3.2977   3.3030   3.3064
  3.3068   3.3153   3.3188   3.3273   3.3350   3.3406   3.3455   3.3492
  3.3513   3.3554   3.3566   3.3651   3.3666   3.3692   3.3715   3.3731
  3.3782   3.3852   3.3913   3.3974   3.4014   3.4036   3.4048   3.4097
  3.4150   3.4186   3.4229   3.4273   3.4332   3.4400   3.4430   3.4459
  3.4476   3.4549   3.4595   3.4656   3.4702   3.4744   3.4792   3.4822
  3.4840   3.4869   3.4993   3.5021   3.5138   3.5180   3.5336   3.5341
  3.5378   3.5447   3.5475   3.5548   3.5622   3.5675   3.5692   3.5779
  3.5802   3.5856   3.5922   3.5966   3.5996   3.6077   3.6123   3.6200
  3.6253   3.6306   3.6342   3.6390   3.6414   3.6460   3.6502   3.6567
  3.6633   3.6683   3.6752   3.6844   3.6852   3.6888   3.6937   3.7015
  3.7050   3.7075   3.7151   3.7182   3.7218   3.7277   3.7338   3.7346
  3.7395   3.7459   3.7520   3.7623   3.7709   3.7753   3.7772   3.7807
  3.7886   3.7947   3.7993   3.8005   3.8070   3.8083   3.8126   3.8152
  3.8202   3.8262   3.8342   3.8478   3.8502   3.8509   3.8578   3.8648
  3.8681   3.8734   3.8789   3.8874   3.8891   3.8977   3.9085   3.9145
  3.9214   3.9242   3.9334   3.9359   3.9450   3.9483   3.9556   3.9644
  3.9672   3.9708   3.9758   3.9874   3.9941   4.0071   4.0100   4.0191
  4.0233   4.0391   4.0435   4.0484   4.0546   4.0605   4.0676   4.0701
  4.0728   4.0741   4.0784   4.0934   4.1112   4.1161   4.1236   4.1309
  4.1395   4.1469   4.1537   4.1571   4.1598   4.1640   4.1656   4.1747
  4.1814   4.1905   4.1992   4.2048   4.2128   4.2185   4.2278   4.2332
  4.2441   4.2496   4.2587   4.2701   4.2843   4.2911   4.3019   4.3036
  4.3186   4.3356   4.3411   4.3448   4.3512   4.3543   4.3574   4.3656
  4.3738   4.3742   4.3802   4.3903   4.4004   4.4081   4.4109   4.4134
  4.4222   4.4245   4.4300   4.4350   4.4378   4.4482   4.4511   4.4608
  4.4650   4.4725   4.4822   4.5006   4.5133   4.5161   4.5228   4.5281
  4.5405   4.5464   4.5571   4.5651   4.5705   4.5735   4.5829   4.5842
  4.5954   4.6031   4.6224   4.6255   4.6316   4.6415   4.6429   4.6523
  4.6640   4.6656   4.6812   4.6832   4.6895   4.6981   4.7195   4.7332
  4.7465   4.7540   4.7616   4.7719   4.7811   4.7893   4.8001   4.8175
  4.8257   4.8314   4.8489   4.8538   4.8633   4.8724   4.8821   4.8865
  4.9065   4.9163   4.9321   4.9410   4.9486   4.9570   4.9663   4.9762
  4.9813   4.9990   5.0082   5.0153   5.0232   5.0319   5.0386   5.0463
  5.0623   5.0883   5.0926   5.1113   5.1135   5.1228   5.1515   5.1659
  5.1791   5.1961   5.1997   5.2066   5.2218   5.2344   5.2404   5.2503
  5.2555   5.2573   5.2733   5.2899   5.2965   5.3121   5.3184   5.3289
  5.3350   5.3502   5.3531   5.3642   5.3659   5.3906   5.3999   5.4042
  5.4076   5.4164   5.4255   5.4435   5.4469   5.4769   5.4843   5.5047
  5.5097   5.5145   5.5230   5.5341   5.5661   5.5728   5.5798   5.5858
  5.5972   5.6126   5.6206   5.6317   5.6554   5.6607   5.6694   5.6958
  5.7165   5.7341   5.7565   5.7587   5.7674   5.8065   5.8159   5.8450
  5.8615   5.8790   5.9027   5.9103   5.9281   5.9598   5.9895   6.0342
  6.0397   6.0460   6.0631   6.1279   6.1494   6.1497   6.1698   6.1769
  6.1818   6.1846   6.2250   6.2475   6.2538   6.2605   6.2628   6.2731
  6.2887   6.2967   6.3516   6.3769   6.4389   6.4490   6.4831   6.5383
  6.5491   6.5687   6.5991   6.6497   6.6602   6.6700   6.7149   6.7438
  6.8095   6.8283   6.8567   6.8583   6.9007   6.9771   7.1336   7.1476
  7.2029   7.2041   7.2253   7.2410   7.3088   7.3291   7.3432   7.3607
  7.3616   7.4036   7.4123   7.4831   7.4899   7.4978   7.5181   7.5493
  7.6144   7.7403   7.7704   7.7884   7.8049   7.8956   7.9285   7.9565
  7.9676   8.1315   8.2442   8.4598   8.9195   9.0280   9.3607   9.4844
  9.6722  10.2585  11.2170  11.3904  11.7705  12.0151  12.1236  12.3658
 12.4268  12.5078  12.9446  12.9942  13.0212  13.3835  13.4284  13.4931
 13.6485  13.8048  13.8724  13.9381  14.0409  14.3121  14.8240  15.2131
 --------------------------------------------------------------
 
          Ground-State Mulliken Net Atomic Charges

     Atom                 Charge (a.u.)
  ----------------------------------------
      1 C                    -0.068940
      2 C                    -0.281345
      3 S                    -0.142181
      4 C                    -0.039422
      5 H                     0.190523
      6 C                    -0.054777
      7 C                     0.222897
      8 C                     0.215098
      9 C                    -0.078702
     10 C                    -0.054628
     11 O                    -0.336302
     12 O                    -0.343771
     13 C                    -0.082549
     14 H                     0.119671
     15 H                     0.091746
     16 H                     0.092865
     17 C                    -0.086732
     18 H                     0.122627
     19 H                     0.090383
     20 H                     0.088919
     21 C                    -0.271704
     22 S                    -0.084957
     23 C                     0.031744
     24 H                     0.209577
     25 C                    -0.154784
     26 S                     0.094329
     27 C                    -0.132545
     28 C                     0.099405
     29 C                    -0.117111
     30 S                     0.042333
     31 C                    -0.154308
     32 C                     0.397663
     33 F                    -0.204698
     34 C                     0.447176
     35 O                    -0.461462
     36 O                    -0.301159
     37 C                    -0.058253
     38 H                     0.121594
     39 H                     0.095231
     40 H                     0.095521
     41 H                     0.221811
     42 H                     0.114302
     43 H                     0.112119
     44 H                     0.192797
  ----------------------------------------
  Sum of atomic charges =     0.000000

 -----------------------------------------------------------------
                    Cartesian Multipole Moments
 -----------------------------------------------------------------
    Charge (ESU x 10^10)
                 0.0000
    Dipole Moment (Debye)
         X       2.6980      Y       4.2478      Z       3.0875
       Tot       5.9039
    Quadrupole Moments (Debye-Ang)
        XX    -186.8042     XY       6.6166     YY    -195.4418
        XZ       2.4131     YZ      -6.7006     ZZ    -191.0115
    Octopole Moments (Debye-Ang^2)
       XXX    -359.0734    XXY     454.2895    XYY     -85.9385
       YYY    1223.3307    XXZ     151.3215    XYZ     -67.3484
       YYZ     174.1843    XZZ     -61.7403    YZZ     446.6674
       ZZZ     586.5815
    Hexadecapole Moments (Debye-Ang^3)
      XXXX   -3488.7112   XXXY   -1188.5369   XXYY   -4074.9352
      XYYY   -1406.6317   YYYY  -19394.6313   XXXZ     538.1374
      XXYZ      77.1649   XYYZ     252.3683   YYYZ     398.9901
      XXZZ   -1213.7970   XYZZ     -90.1491   YYZZ   -4141.7697
      XZZZ     296.5801   YZZZ     273.9462   ZZZZ   -6487.0892
 -----------------------------------------------------------------
 Total job time:  340.01s(wall), 11668.22s(cpu) 
 Tue Jan  9 11:00:19 2024

        *************************************************************
        *                                                           *
        *  Thank you very much for using Q-Chem.  Have a nice day.  *
        *                                                           *
        *************************************************************


0 sent ACK to 0 
now end server 0 ... 
cleanup process ... done
remove work dirs ./qchem3762314.0 -- ./qchem3762314.0
rm -rf ./qchem3762314.0
rm -rf ./qchem3762314
