You are running Q-Chem version: 5.4.0

#
# job setting
#
local host:  exp-6-38
current dir: /home/rramji/project-csd799/aromodel/ptb7fout-qchem/hydrogenated-rotation-run
input file:  Dimethoxy_Benzodithiophene_Phi_50_Theta_100_Methylcarbonyl_3_Fluoro_Thienothiophene_Hydrogenated.qcin
output file: 
nprocs     : 1
nthreads   : 64
#
# qchem installation setting
#
QC:          /cm/shared/apps/spack/cpu/opt/spack/linux-centos8-zen2/gcc-10.2.0/qchem-5.4-akfmr7b3t57bfs6qan3padb2wnb2i7cl
QCAUX:       /cm/shared/apps/spack/cpu/opt/spack/linux-centos8-zen2/gcc-10.2.0/qchem-5.4-akfmr7b3t57bfs6qan3padb2wnb2i7cl/qcaux
QCPROG:      /cm/shared/apps/spack/cpu/opt/spack/linux-centos8-zen2/gcc-10.2.0/qchem-5.4-akfmr7b3t57bfs6qan3padb2wnb2i7cl/exe/qcprog.exe
QCPROG_S:    /cm/shared/apps/spack/cpu/opt/spack/linux-centos8-zen2/gcc-10.2.0/qchem-5.4-akfmr7b3t57bfs6qan3padb2wnb2i7cl/exe/qcprog.exe_s
PARALLEL:    -DPARALLEL
QCMPI:       mpich
#
# qchem directory setting
#
qcrun:       qchem3758983
QCSCRATCH:   .
QCLOCALSCR:  
QCTMPDIR:    .
QCFILEPREF:  ./qchem3758983
QCSAVEDIR:   
workdirs:    ./qchem3758983
workdir0:    ./qchem3758983
partmpdirs =  
#
# parallel setting
#
QCRSH:           ssh
QCMPI:           mpich
QCMPIRUN:        /cm/shared/apps/spack/cpu/opt/spack/linux-centos8-zen2/gcc-10.2.0/qchem-5.4-akfmr7b3t57bfs6qan3padb2wnb2i7cl/bin/mpi/mpirun_qchem
QCMACHINEFILE:   ./qchem3758983/hostfile
exp-6-38

#
# env setting
#
exported envs:   QC QCAUX QCSCRATCH QCRUNNAME QCFILEPREF QCPROG QCPROG_S GUIFILE

Running Job 1 of 1 Dimethoxy_Benzodithiophene_Phi_50_Theta_100_Methylcarbonyl_3_Fluoro_Thienothiophene_Hydrogenated.qcin
qchem Dimethoxy_Benzodithiophene_Phi_50_Theta_100_Methylcarbonyl_3_Fluoro_Thienothiophene_Hydrogenated.qcin_3758983.0 ./qchem3758983/ 1
/cm/shared/apps/spack/cpu/opt/spack/linux-centos8-zen2/gcc-10.2.0/qchem-5.4-akfmr7b3t57bfs6qan3padb2wnb2i7cl/bin/mpi/mpirun_qchem -machinefile ./qchem3758983/hostfile -np 1 /cm/shared/apps/spack/cpu/opt/spack/linux-centos8-zen2/gcc-10.2.0/qchem-5.4-akfmr7b3t57bfs6qan3padb2wnb2i7cl/exe/qcprog.exe Dimethoxy_Benzodithiophene_Phi_50_Theta_100_Methylcarbonyl_3_Fluoro_Thienothiophene_Hydrogenated.qcin_3758983.0 ./qchem3758983/

Process 0 of 1 is on exp-6-38 - thread support 0
initial socket setup ...start
initial socket setup ...done 
now start server 0 ... 
                  Welcome to Q-Chem
     A Quantum Leap Into The Future Of Chemistry


 Q-Chem 5.4, Q-Chem, Inc., Pleasanton, CA (2021)

 License issued to: University of California, San Diego (site)

 E. Epifanovsky,  A. T. B. Gilbert,  Xintian Feng,  Joonho Lee,  Yuezhi Mao,  
 N. Mardirossian,  P. Pokhilko,  A. White,  M. Wormit,  M. P. Coons,  
 A. L. Dempwolff,  Zhengting Gan,  D. Hait,  P. R. Horn,  L. D. Jacobson,  
 I. Kaliman,  J. Kussmann,  A. W. Lange,  Ka Un Lao,  D. S. Levine,  Jie Liu,  
 S. C. McKenzie,  A. F. Morrison,  K. Nanda,  F. Plasser,  D. R. Rehn,  
 M. L. Vidal,  Zhi-Qiang You,  Ying Zhu,  B. Alam,  B. Albrecht,  
 A. Aldossary,  E. Alguire,  J. H. Andersen,  D. Barton,  K. Begam,  A. Behn,  
 Y. A. Bernard,  E. J. Berquist,  H. Burton,  A. Carreras,  K. Carter-Fenk,  
 R. Chakraborty,  A. D. Chien,  K. D. Closser,  V. Cofer-Shabica,  
 S. Dasgupta,  Jia Deng,  M. de Wergifosse,  M. Diedenhofen,  Hainam Do,  
 S. Ehlert,  Po-Tung Fang,  S. Fatehi,  Qingguo Feng,  J. Gayvert,  
 Qinghui Ge,  G. Gidofalvi,  M. Goldey,  J. Gomes,  C. Gonzalez-Espinoza,  
 S. Gulania,  A. Gunina,  M. W. D. Hanson-Heine,  P. H. P. Harbach,  
 A. W. Hauser,  M. F. Herbst,  M. Hernandez Vera,  M. Hodecker,  
 Z. C. Holden,  S. Houck,  Xunkun Huang,  Kerwin Hui,  B. C. Huynh,  
 M. Ivanov,  Hyunjun Ji,  Hanjie Jiang,  B. Kaduk,  S. Kaehler,  
 K. Khistyaev,  Jaehoon Kim,  P. Klunzinger,  Z. Koczor-Benda,  
 Joong Hoon Koh,  D. Kosenkov,  L. Koulias,  T. Kowalczyk,  C. M. Krauter,  
 K. Kue,  A. Kunitsa,  T. Kus,  A. Landau,  K. V. Lawler,  D. Lefrancois,  
 S. Lehtola,  Rain Li,  Yi-Pei Li,  Jiashu Liang,  M. Liebenthal,  
 Hung-Hsuan Lin,  You-Sheng Lin,  Fenglai Liu,  Kuan-Yu Liu,  
 M. Loipersberger,  A. Luenser,  A. Manjanath,  P. Manohar,  E. Mansoor,  
 S. F. Manzer,  Shan-Ping Mao,  A. V. Marenich,  T. Markovich,  S. Mason,  
 S. A. Maurer,  P. F. McLaughlin,  M. F. S. J. Menger,  J.-M. Mewes,  
 S. A. Mewes,  P. Morgante,  J. W. Mullinax,  T. S. Nguyen-Beck,  
 K. J. Oosterbaan,  G. Paran,  Alexander C. Paul,  Suranjan K. Paul,  
 F. Pavosevic,  Zheng Pei,  S. Prager,  E. I. Proynov,  E. Ramos,  B. Rana,  
 A. E. Rask,  A. Rettig,  R. M. Richard,  F. Rob,  E. Rossomme,  T. Scheele,  
 M. Scheurer,  M. Schneider,  N. Sergueev,  S. M. Sharada,  W. Skomorowski,  
 D. W. Small,  C. J. Stein,  Yu-Chuan Su,  E. J. Sundstrom,  Zhen Tao,  
 J. Thirman,  T. Tsuchimochi,  N. M. Tubman,  S. P. Veccham,  O. Vydrov,  
 J. Wenzel,  J. Witte,  A. Yamada,  Kun Yao,  S. Yeganeh,  S. R. Yost,  
 A. Zech,  Igor Ying Zhang,  Xing Zhang,  Yu Zhang,  D. Zuev,  
 A. Aspuru-Guzik,  A. T. Bell,  N. A. Besley,  K. B. Bravaya,  B. R. Brooks,  
 D. Casanova,  Jeng-Da Chai,  S. Coriani,  C. J. Cramer,  
 A. E. DePrince, III,  R. A. DiStasio Jr.,  A. Dreuw,  B. D. Dunietz,  
 T. R. Furlani,  W. A. Goddard III,  S. Grimme,  S. Hammes-Schiffer,  
 T. Head-Gordon,  W. J. Hehre,  Chao-Ping Hsu,  T.-C. Jagau,  Yousung Jung,  
 A. Klamt,  Jing Kong,  D. S. Lambrecht,  WanZhen Liang,  N. J. Mayhall,  
 C. W. McCurdy,  J. B. Neaton,  C. Ochsenfeld,  J. A. Parkhill,  R. Peverati,  
 V. A. Rassolov,  Yihan Shao,  L. V. Slipchenko,  T. Stauch,  R. P. Steele,  
 J. E. Subotnik,  A. J. W. Thom,  A. Tkatchenko,  D. G. Truhlar,  
 T. Van Voorhis,  T. A. Wesolowski,  K. B. Whaley,  H. L. Woodcock III,  
 P. M. Zimmerman,  S. Faraji,  P. M. W. Gill,  M. Head-Gordon,  
 J. M. Herbert,  A. I. Krylov

 Contributors to earlier versions of Q-Chem not listed above: 
 R. D. Adamson,  B. Austin,  R. Baer,  J. Baker,  G. J. O. Beran,  
 K. Brandhorst,  S. T. Brown,  E. F. C. Byrd,  A. K. Chakraborty,  
 G. K. L. Chan,  Chun-Min Chang,  Yunqing Chen,  C.-L. Cheng,  
 Siu Hung Chien,  D. M. Chipman,  D. L. Crittenden,  H. Dachsel,  
 R. J. Doerksen,  A. D. Dutoi,  R. G. Edgar,  J. Fosso-Tande,  
 L. Fusti-Molnar,  D. Ghosh,  A. Ghysels,  A. Golubeva-Zadorozhnaya,  
 J. Gonthier,  M. S. Gordon,  S. R. Gwaltney,  G. Hawkins,  J. E. Herr,  
 A. Heyden,  S. Hirata,  E. G. Hohenstein,  G. Kedziora,  F. J. Keil,  
 C. Kelley,  Jihan Kim,  R. A. King,  R. Z. Khaliullin,  P. P. Korambath,  
 W. Kurlancheek,  A. Laurent,  A. M. Lee,  M. S. Lee,  S. V. Levchenko,  
 Ching Yeh Lin,  D. Liotard,  E. Livshits,  R. C. Lochan,  I. Lotan,  
 L. A. Martinez-Martinez,  P. E. Maslen,  N. Nair,  D. P. O'Neill,  
 D. Neuhauser,  E. Neuscamman,  C. M. Oana,  R. Olivares-Amaya,  R. Olson,  
 T. M. Perrine,  B. Peters,  P. A. Pieniazek,  A. Prociuk,  Y. M. Rhee,  
 J. Ritchie,  M. A. Rohrdanz,  E. Rosta,  N. J. Russ,  H. F. Schaefer III,  
 M. W. Schmidt,  N. E. Schultz,  S. Sharma,  N. Shenvi,  C. D. Sherrill,  
 A. C. Simmonett,  A. Sodt,  T. Stein,  D. Stuck,  K. S. Thanthiriwatte,  
 V. Vanovschi,  L. Vogt,  Tao Wang,  A. Warshel,  M. A. Watson,  
 C. F. Williams,  Q. Wu,  X. Xu,  Jun Yang,  W. Zhang,  Yan Zhao

 Please cite Q-Chem as follows:
 Y. Shao et al., Mol. Phys. 113, 184-215 (2015)
 DOI: 10.1080/00268976.2014.952696

 Q-Chem 5.4.0 for Intel X86 EM64T Linux

 Parts of Q-Chem use Armadillo 9.800.1 (Horizon Scraper).
 http://arma.sourceforge.net/

 Q-Chem begins on Tue Jan  9 10:38:06 2024  

 Host: 
0

     Scratch files written to ./qchem3758983//
 May1621 |scratch|qcdevops|jenkins|workspace|build_RNUM    
 Parallel job on  1  processors
 Processing $rem in /cm/shared/apps/spack/cpu/opt/spack/linux-centos8-zen2/gcc-10.2.0/qchem-5.4-akfmr7b3t57bfs6qan3padb2wnb2i7cl/config/preferences:
 Processing $rem in /home/rramji/.qchemrc:
 Symmetry turned off for PCM/SM12/SMD calculation
 Core orbitals will be frozen

 Checking the input file for inconsistencies... 	...done.

 Q-Chem warning in module forms1/BasisType.C, line 2236:

 You are not using the predefined 5D/6D in this basis set.


--------------------------------------------------------------
User input:
--------------------------------------------------------------
$molecule
0 1
C	-0.306235	-8.517702	-0.095966
C	0.754415	-7.641575	0.082807
S	-1.833702	-7.638634	-0.348635
C	0.383675	-6.264785	0.017401
H	1.787757	-7.966081	0.259008
C	-1.020885	-6.072714	-0.231913
C	-1.579097	-4.787049	-0.305044
C	1.268082	-5.162801	0.196549
C	0.708796	-3.874817	0.127606
C	-0.696769	-3.683952	-0.124792
O	2.572378	-5.499772	0.397867
O	-2.889532	-4.459055	-0.506103
C	-3.718420	-5.329063	-1.267335
H	-4.635204	-4.755694	-1.502804
H	-4.010790	-6.238095	-0.697471
H	-3.226506	-5.637262	-2.215194
C	3.467415	-4.572261	0.999238
H	4.388648	-5.139743	1.230649
H	3.052323	-4.153131	1.940905
H	3.730819	-3.739531	0.311543
C	-1.064366	-2.306654	-0.187323
S	1.521154	-2.306501	0.257128
C	0.000000	-1.435185	0.000000
H	-2.095939	-1.978138	-0.365903
C	0.000000	0.000000	0.000000
S	0.693394	0.581209	1.507541
C	1.897536	1.592607	0.718873
C	0.693330	0.580791	-1.067872
C	1.756758	1.476132	-0.686410
S	0.508573	0.422041	-2.805516
C	1.846879	1.552232	-3.054530
C	2.387897	2.009402	-1.862551
F	3.408741	2.872264	-1.819088
C	2.191300	1.838768	-4.456084
O	1.606694	1.337806	-5.406510
O	3.221062	2.712584	-4.569225
C	3.603677	3.026817	-5.916207
H	4.442623	3.739898	-5.833064
H	2.758956	3.483875	-6.470168
H	3.921969	2.114070	-6.459293
H	2.604650	2.187790	1.306486
H	-0.457736	-9.143623	0.791346
H	-0.158056	-9.149441	-0.979708
H	-0.180205	-1.443175	1.064830
$end

$rem
JOBTYPE		SP
EXCHANGE	HF
CORRELATION	pRIMP2
BASIS		cc-pvtz
METHOD		rimp2
AUX_BASIS	rimp2-cc-pvtz
SOLVENT_METHOD	PCM
PURECART	11111
SYMMETRY	false
MEM_TOTAL	110000
SCF_CONVERGENCE = 6
THRESH=10
GUI = 2
$end



$solvent
dielectric 4.90
$end
--------------------------------------------------------------
 ----------------------------------------------------------------
             Standard Nuclear Orientation (Angstroms)
    I     Atom           X                Y                Z
 ----------------------------------------------------------------
    1      C      -0.3062350000    -8.5177020000    -0.0959660000
    2      C       0.7544150000    -7.6415750000     0.0828070000
    3      S      -1.8337020000    -7.6386340000    -0.3486350000
    4      C       0.3836750000    -6.2647850000     0.0174010000
    5      H       1.7877570000    -7.9660810000     0.2590080000
    6      C      -1.0208850000    -6.0727140000    -0.2319130000
    7      C      -1.5790970000    -4.7870490000    -0.3050440000
    8      C       1.2680820000    -5.1628010000     0.1965490000
    9      C       0.7087960000    -3.8748170000     0.1276060000
   10      C      -0.6967690000    -3.6839520000    -0.1247920000
   11      O       2.5723780000    -5.4997720000     0.3978670000
   12      O      -2.8895320000    -4.4590550000    -0.5061030000
   13      C      -3.7184200000    -5.3290630000    -1.2673350000
   14      H      -4.6352040000    -4.7556940000    -1.5028040000
   15      H      -4.0107900000    -6.2380950000    -0.6974710000
   16      H      -3.2265060000    -5.6372620000    -2.2151940000
   17      C       3.4674150000    -4.5722610000     0.9992380000
   18      H       4.3886480000    -5.1397430000     1.2306490000
   19      H       3.0523230000    -4.1531310000     1.9409050000
   20      H       3.7308190000    -3.7395310000     0.3115430000
   21      C      -1.0643660000    -2.3066540000    -0.1873230000
   22      S       1.5211540000    -2.3065010000     0.2571280000
   23      C       0.0000000000    -1.4351850000     0.0000000000
   24      H      -2.0959390000    -1.9781380000    -0.3659030000
   25      C       0.0000000000     0.0000000000     0.0000000000
   26      S       0.6933940000     0.5812090000     1.5075410000
   27      C       1.8975360000     1.5926070000     0.7188730000
   28      C       0.6933300000     0.5807910000    -1.0678720000
   29      C       1.7567580000     1.4761320000    -0.6864100000
   30      S       0.5085730000     0.4220410000    -2.8055160000
   31      C       1.8468790000     1.5522320000    -3.0545300000
   32      C       2.3878970000     2.0094020000    -1.8625510000
   33      F       3.4087410000     2.8722640000    -1.8190880000
   34      C       2.1913000000     1.8387680000    -4.4560840000
   35      O       1.6066940000     1.3378060000    -5.4065100000
   36      O       3.2210620000     2.7125840000    -4.5692250000
   37      C       3.6036770000     3.0268170000    -5.9162070000
   38      H       4.4426230000     3.7398980000    -5.8330640000
   39      H       2.7589560000     3.4838750000    -6.4701680000
   40      H       3.9219690000     2.1140700000    -6.4592930000
   41      H       2.6046500000     2.1877900000     1.3064860000
   42      H      -0.4577360000    -9.1436230000     0.7913460000
   43      H      -0.1580560000    -9.1494410000    -0.9797080000
   44      H      -0.1802050000    -1.4431750000     1.0648300000
 ----------------------------------------------------------------
 Nuclear Repulsion Energy =        3392.27140088 hartrees
 There are      120 alpha and      120 beta electrons
 Requested basis set is cc-pVTZ
 There are 388 shells and 1096 basis functions

 Total QAlloc Memory Limit 110000 MB
 Mega-Array Size       188 MB
 MEM_STATIC part       192 MB
 Discretize the solute cavity surface with Lebedev spheres
	Using 110 Lebedev grid points for each H atom
	Using 194 Lebedev grid points for other atoms
	Atomic van der Waals radii will be scaled by 1.20
 Remove points where switching function is < 1.0e-08
 Keep 2961 surface tesserae and discard 4315 interior tesserae
 Molecular Surface Area = 440.406 Angst**2
 Requested basis set is rimp2-cc-pVTZ
 There are 853 shells and 2963 basis functions
 A cutoff of  1.0D-10 yielded  33758 shell pairs
 There are    254174 function pairs (    328661 Cartesian)
 Smallest overlap matrix eigenvalue = 2.16E-05

 Scale SEOQF with 1.000000e-01/1.000000e-02/1.000000e-02

 Standard Electronic Orientation quadrupole field applied
 Nucleus-field energy     =     0.0000000526 hartrees
 Guess from superposition of atomic densities
 Warning:  Energy on first SCF cycle will be non-variational
 SAD guess density has 240.000000 electrons

 -----------------------------------------------------------------------
  General SCF calculation program by
  Eric Jon Sundstrom, Paul Horn, Yuezhi Mao, Dmitri Zuev, Alec White,
  David Stuck, Shaama M.S., Shane Yost, Joonho Lee, David Small,
  Daniel Levine, Susi Lehtola, Hugh Burton, Evgeny Epifanovsky,
  Bang C. Huynh
 -----------------------------------------------------------------------
 Hartree-Fock
 using 64 threads for integral computing
 -------------------------------------------------------
 OpenMP Integral computing Module                
 Release: version 1.0, May 2013, Q-Chem Inc. Pittsburgh 
 -------------------------------------------------------
 A restricted SCF calculation will be
 performed using DIIS
 SCF converges when DIIS error is below 1.0e-06
 ---------------------------------------
  Cycle       Energy         DIIS error
 ---------------------------------------
    1   -2767.1146238746      1.75e-02  
    2   -2754.8483579290      1.53e-03  
    3   -2755.1978521836      8.50e-04  
    4   -2755.2832230740      2.57e-04  
    5   -2755.2967351905      7.33e-05  
    6   -2755.2982233183      2.62e-05  
    7   -2755.2986049717      1.32e-05  
    8   -2755.2987291253      5.68e-06  
    9   -2755.2987578565      2.83e-06  
   10   -2755.2987648115      1.53e-06  
   11   -2755.2987670090      7.09e-07  Convergence criterion met
 ---------------------------------------
 SCF time:   CPU 7594.77s  wall 276.00s 

************** Final PCM Free Energy Summary **************
 G_electrostatic  =      -0.02229473 hartree =     -13.99015683 kcal/mol
 G_cavitation     =       0.00000000 hartree =       0.00000000 kcal/mol
 G_dispersion     =       0.00000000 hartree =       0.00000000 kcal/mol
 G_repulsion      =       0.00000000 hartree =       0.00000000 kcal/mol
 --------------------------------------------------
 Non-electrostatic Free Energy =       0.00000000 hartree =       0.00000000 kcal/mol
 Total                         =      -0.02229473 hartree =     -13.99015683 kcal/mol
 --------------------------------------------------
 SCF Energy (H0 + V/2)                       =   -2755.29876701 
 Solute Internal Energy (H0)                 =   -2755.27647227 
 Total Free Energy (H0 + V/2 + non-elec)     =   -2755.29876701 hartree
                                             = -1728976.07173278 kcal/mol
***********************************************************

 SCF   energy in the final basis set =    -2755.2987670090
 Total energy in the final basis set =    -2755.2987670090


 --------------------------------------------------------------
  Generalized many-body perturbation theory program
  by Joonho Lee, Fazle Rob, Xintian Feng, Evgeny Epifanovsky

 No regularization used 
 (reg. param. = 0.0000e+00)
  (P|Q)^-1/2 Time:  CPU 163.83 s  wall 2.95 s

 In RI-MP2 calculation: 
 # of frozen core orbitals: 45

 Components of the RIMP2 correlation energy:
        aaaa    correlation energy =        -0.6705628762 a.u.
        abab    correlation energy =        -3.7560936247 a.u.
        bbbb    correlation energy =        -0.6705628762 a.u.
        non-Brillouin singles      =        -0.0000000000 a.u.
        total same-spin energy     =        -1.3411257523 a.u.
        total opposite-spin energy =        -3.7560936247 a.u.

 Total  RIMP2   correlation energy =        -5.0972193770 a.u.
        RIMP2         total energy =     -2760.3959863861 a.u.

 RI-MP2 Energy Time:  CPU 2955.63 s  wall 47.90 s
 
 --------------------------------------------------------------
 
                    Orbital Energies (a.u.)
 --------------------------------------------------------------
 
 Alpha MOs
 -- Occupied --
-92.0149 -92.0071 -91.9714 -91.9554 -26.3460 -20.6156 -20.5858 -20.5845
-20.5620 -11.4105 -11.3865 -11.3305 -11.3134 -11.3072 -11.3030 -11.2987
-11.2894 -11.2875 -11.2832 -11.2816 -11.2805 -11.2759 -11.2736 -11.2689
-11.2685 -11.2557 -11.2509 -11.2470 -11.2313  -9.0144  -9.0069  -8.9741
 -8.9580  -6.6951  -6.6942  -6.6939  -6.6878  -6.6871  -6.6860  -6.6552
 -6.6543  -6.6531  -6.6392  -6.6383  -6.6373  -1.6630  -1.4681  -1.4083
 -1.4072  -1.3708  -1.2371  -1.2001  -1.1714  -1.1407  -1.0971  -1.0483
 -1.0427  -1.0278  -1.0014  -0.9936  -0.9656  -0.9589  -0.9468  -0.9399
 -0.8912  -0.8719  -0.8605  -0.8184  -0.7976  -0.7873  -0.7825  -0.7655
 -0.7576  -0.7379  -0.7277  -0.7181  -0.6960  -0.6881  -0.6854  -0.6780
 -0.6747  -0.6613  -0.6545  -0.6470  -0.6335  -0.6300  -0.6175  -0.6139
 -0.6110  -0.6017  -0.5904  -0.5759  -0.5705  -0.5620  -0.5576  -0.5531
 -0.5369  -0.5325  -0.5313  -0.5244  -0.5120  -0.5090  -0.5057  -0.4989
 -0.4859  -0.4833  -0.4757  -0.4753  -0.4718  -0.4645  -0.4581  -0.4441
 -0.4198  -0.3971  -0.3853  -0.3675  -0.3478  -0.3099  -0.2864  -0.2171
 -- Virtual --
  0.0238   0.0546   0.0791   0.1219   0.1426   0.1471   0.1521   0.1563
  0.1575   0.1608   0.1659   0.1788   0.1809   0.1837   0.1868   0.1960
  0.1998   0.2044   0.2065   0.2145   0.2188   0.2222   0.2256   0.2270
  0.2314   0.2331   0.2357   0.2456   0.2477   0.2546   0.2615   0.2644
  0.2723   0.2866   0.3010   0.3093   0.3249   0.3287   0.3370   0.3377
  0.3470   0.3537   0.3594   0.3605   0.3647   0.3725   0.3789   0.3849
  0.3865   0.3891   0.3936   0.3985   0.4025   0.4091   0.4126   0.4219
  0.4255   0.4310   0.4319   0.4340   0.4362   0.4445   0.4484   0.4502
  0.4535   0.4596   0.4631   0.4674   0.4757   0.4781   0.4813   0.4865
  0.4902   0.4919   0.4945   0.5013   0.5036   0.5088   0.5186   0.5202
  0.5257   0.5276   0.5320   0.5333   0.5354   0.5412   0.5432   0.5466
  0.5484   0.5528   0.5560   0.5599   0.5646   0.5662   0.5747   0.5791
  0.5831   0.5894   0.5917   0.5971   0.6018   0.6033   0.6070   0.6092
  0.6121   0.6166   0.6183   0.6202   0.6205   0.6234   0.6289   0.6309
  0.6353   0.6428   0.6456   0.6472   0.6496   0.6514   0.6572   0.6611
  0.6635   0.6676   0.6761   0.6803   0.6813   0.6843   0.6948   0.6999
  0.7082   0.7115   0.7159   0.7167   0.7192   0.7224   0.7246   0.7400
  0.7421   0.7463   0.7497   0.7597   0.7637   0.7713   0.7739   0.7839
  0.7884   0.7991   0.8027   0.8062   0.8086   0.8182   0.8206   0.8216
  0.8236   0.8376   0.8397   0.8416   0.8488   0.8576   0.8670   0.8731
  0.8747   0.8817   0.8900   0.8962   0.8979   0.9014   0.9048   0.9154
  0.9193   0.9263   0.9387   0.9401   0.9424   0.9434   0.9472   0.9558
  0.9612   0.9651   0.9711   0.9769   0.9787   0.9863   0.9894   0.9910
  0.9940   1.0016   1.0050   1.0093   1.0144   1.0208   1.0242   1.0293
  1.0336   1.0430   1.0466   1.0538   1.0552   1.0609   1.0621   1.0686
  1.0707   1.0804   1.0842   1.0861   1.0967   1.1021   1.1077   1.1098
  1.1106   1.1171   1.1202   1.1280   1.1289   1.1371   1.1385   1.1432
  1.1533   1.1583   1.1605   1.1651   1.1734   1.1762   1.1780   1.1856
  1.1899   1.1904   1.1928   1.1976   1.2045   1.2115   1.2143   1.2224
  1.2229   1.2307   1.2369   1.2401   1.2450   1.2500   1.2502   1.2528
  1.2589   1.2634   1.2668   1.2710   1.2792   1.2840   1.2870   1.2924
  1.2951   1.3077   1.3163   1.3190   1.3262   1.3283   1.3355   1.3441
  1.3509   1.3565   1.3649   1.3718   1.3811   1.3903   1.3949   1.3995
  1.4099   1.4133   1.4178   1.4277   1.4283   1.4301   1.4469   1.4526
  1.4561   1.4681   1.4755   1.4872   1.4896   1.4932   1.4981   1.5024
  1.5041   1.5076   1.5127   1.5182   1.5232   1.5310   1.5374   1.5392
  1.5442   1.5463   1.5519   1.5530   1.5561   1.5628   1.5659   1.5757
  1.5780   1.5942   1.6055   1.6134   1.6162   1.6193   1.6336   1.6415
  1.6486   1.6531   1.6613   1.6653   1.6696   1.6763   1.6807   1.6857
  1.6942   1.7006   1.7121   1.7187   1.7213   1.7228   1.7366   1.7371
  1.7515   1.7554   1.7688   1.7732   1.7906   1.7933   1.8017   1.8122
  1.8186   1.8192   1.8247   1.8412   1.8459   1.8610   1.8682   1.8766
  1.8832   1.8912   1.8968   1.9092   1.9157   1.9210   1.9245   1.9310
  1.9389   1.9528   1.9575   1.9610   1.9725   1.9766   1.9920   1.9963
  1.9988   2.0051   2.0134   2.0219   2.0333   2.0426   2.0471   2.0622
  2.0711   2.0793   2.0868   2.0910   2.0963   2.1098   2.1113   2.1355
  2.1427   2.1520   2.1566   2.1640   2.1701   2.1826   2.1852   2.1898
  2.1940   2.1997   2.2086   2.2158   2.2185   2.2280   2.2378   2.2443
  2.2508   2.2525   2.2605   2.2649   2.2684   2.2851   2.2987   2.3002
  2.3051   2.3115   2.3236   2.3311   2.3347   2.3523   2.3593   2.3639
  2.3685   2.3865   2.3962   2.3978   2.4139   2.4161   2.4252   2.4304
  2.4354   2.4427   2.4487   2.4615   2.4706   2.4809   2.4866   2.4941
  2.5035   2.5111   2.5139   2.5291   2.5347   2.5437   2.5570   2.5624
  2.5663   2.5845   2.5960   2.6019   2.6124   2.6210   2.6232   2.6279
  2.6339   2.6397   2.6417   2.6490   2.6511   2.6597   2.6686   2.6731
  2.6783   2.6822   2.6952   2.6985   2.7042   2.7059   2.7121   2.7203
  2.7257   2.7352   2.7427   2.7478   2.7553   2.7648   2.7736   2.7756
  2.7776   2.7870   2.7910   2.8042   2.8092   2.8156   2.8240   2.8350
  2.8422   2.8495   2.8517   2.8563   2.8641   2.8694   2.8761   2.8801
  2.8859   2.8918   2.8990   2.9081   2.9286   2.9325   2.9454   2.9467
  2.9502   2.9584   2.9605   2.9691   2.9736   2.9824   2.9865   2.9948
  2.9954   3.0126   3.0170   3.0213   3.0229   3.0393   3.0411   3.0449
  3.0529   3.0565   3.0655   3.0767   3.0811   3.0861   3.0928   3.0995
  3.1056   3.1079   3.1108   3.1160   3.1244   3.1323   3.1366   3.1425
  3.1469   3.1499   3.1582   3.1629   3.1640   3.1700   3.1745   3.1837
  3.1858   3.1922   3.2069   3.2072   3.2136   3.2168   3.2175   3.2281
  3.2319   3.2344   3.2456   3.2475   3.2512   3.2555   3.2620   3.2685
  3.2697   3.2748   3.2812   3.2893   3.2906   3.2953   3.3012   3.3029
  3.3109   3.3146   3.3194   3.3257   3.3291   3.3397   3.3424   3.3472
  3.3491   3.3529   3.3566   3.3616   3.3656   3.3695   3.3704   3.3718
  3.3772   3.3807   3.3907   3.3932   3.4001   3.4036   3.4068   3.4124
  3.4156   3.4208   3.4222   3.4319   3.4342   3.4359   3.4429   3.4471
  3.4502   3.4549   3.4592   3.4651   3.4706   3.4751   3.4783   3.4833
  3.4843   3.4921   3.4936   3.5075   3.5190   3.5253   3.5284   3.5329
  3.5377   3.5466   3.5513   3.5539   3.5604   3.5659   3.5720   3.5746
  3.5815   3.5875   3.5938   3.5971   3.5996   3.6050   3.6105   3.6238
  3.6251   3.6283   3.6333   3.6360   3.6403   3.6474   3.6495   3.6556
  3.6605   3.6701   3.6722   3.6764   3.6802   3.6866   3.6916   3.6971
  3.7031   3.7053   3.7089   3.7196   3.7252   3.7295   3.7330   3.7384
  3.7448   3.7493   3.7551   3.7614   3.7647   3.7707   3.7743   3.7800
  3.7888   3.7929   3.7954   3.8005   3.8062   3.8079   3.8118   3.8143
  3.8225   3.8248   3.8385   3.8426   3.8472   3.8507   3.8563   3.8635
  3.8693   3.8745   3.8794   3.8853   3.8912   3.8960   3.9054   3.9102
  3.9221   3.9284   3.9376   3.9393   3.9438   3.9532   3.9551   3.9614
  3.9645   3.9687   3.9745   3.9896   3.9945   4.0029   4.0097   4.0166
  4.0211   4.0353   4.0461   4.0501   4.0567   4.0590   4.0688   4.0702
  4.0714   4.0839   4.0906   4.0984   4.1086   4.1171   4.1229   4.1325
  4.1415   4.1502   4.1568   4.1579   4.1614   4.1657   4.1696   4.1749
  4.1796   4.1910   4.1955   4.2084   4.2133   4.2182   4.2313   4.2329
  4.2393   4.2485   4.2534   4.2729   4.2837   4.2886   4.2996   4.3032
  4.3259   4.3362   4.3375   4.3413   4.3472   4.3495   4.3565   4.3584
  4.3674   4.3721   4.3786   4.3839   4.3914   4.4022   4.4129   4.4178
  4.4199   4.4250   4.4271   4.4361   4.4375   4.4427   4.4506   4.4548
  4.4715   4.4746   4.4838   4.4956   4.5082   4.5144   4.5226   4.5254
  4.5380   4.5466   4.5536   4.5661   4.5665   4.5753   4.5826   4.5861
  4.6000   4.6031   4.6186   4.6200   4.6351   4.6403   4.6469   4.6537
  4.6610   4.6720   4.6793   4.6821   4.6909   4.7112   4.7256   4.7312
  4.7411   4.7526   4.7664   4.7770   4.7855   4.7884   4.7949   4.8186
  4.8247   4.8351   4.8483   4.8543   4.8653   4.8760   4.8854   4.8894
  4.9056   4.9190   4.9322   4.9457   4.9521   4.9567   4.9686   4.9737
  4.9884   4.9985   5.0083   5.0121   5.0191   5.0294   5.0428   5.0556
  5.0708   5.0922   5.1054   5.1073   5.1217   5.1478   5.1627   5.1701
  5.1764   5.1973   5.2015   5.2049   5.2200   5.2354   5.2429   5.2463
  5.2519   5.2568   5.2686   5.2893   5.2961   5.3149   5.3172   5.3282
  5.3371   5.3509   5.3537   5.3624   5.3739   5.3854   5.3957   5.4030
  5.4047   5.4055   5.4257   5.4452   5.4473   5.4590   5.4845   5.5061
  5.5119   5.5140   5.5241   5.5340   5.5661   5.5698   5.5762   5.5809
  5.6011   5.6114   5.6189   5.6209   5.6478   5.6577   5.6783   5.6947
  5.7249   5.7362   5.7546   5.7631   5.7766   5.8068   5.8158   5.8425
  5.8610   5.8793   5.8993   5.9099   5.9285   5.9593   5.9821   6.0014
  6.0355   6.0415   6.0519   6.1286   6.1449   6.1499   6.1665   6.1769
  6.1806   6.1842   6.2217   6.2437   6.2535   6.2608   6.2668   6.2750
  6.2896   6.3012   6.3515   6.3715   6.4385   6.4493   6.4819   6.5383
  6.5492   6.5682   6.5989   6.6485   6.6603   6.6705   6.7148   6.7438
  6.8090   6.8285   6.8582   6.8588   6.9014   6.9774   7.1323   7.1478
  7.2032   7.2046   7.2245   7.2409   7.3092   7.3284   7.3425   7.3607
  7.3616   7.4040   7.4126   7.4831   7.4890   7.4982   7.5178   7.5493
  7.6139   7.7389   7.7704   7.7892   7.8043   7.8972   7.9274   7.9572
  7.9706   8.1310   8.2791   8.4405   8.9195   9.0278   9.3607   9.4838
  9.6718  10.2638  11.2286  11.3895  11.7657  12.0113  12.1230  12.3562
 12.4235  12.5045  12.9189  12.9868  13.0180  13.3857  13.4338  13.4872
 13.7103  13.7871  13.8741  13.9397  14.0352  14.3127  14.8012  15.2094
 --------------------------------------------------------------
 
          Ground-State Mulliken Net Atomic Charges

     Atom                 Charge (a.u.)
  ----------------------------------------
      1 C                    -0.069452
      2 C                    -0.275124
      3 S                    -0.141810
      4 C                    -0.041343
      5 H                     0.191232
      6 C                    -0.055865
      7 C                     0.224671
      8 C                     0.221194
      9 C                    -0.073598
     10 C                    -0.054693
     11 O                    -0.335786
     12 O                    -0.343140
     13 C                    -0.082553
     14 H                     0.119496
     15 H                     0.091755
     16 H                     0.092884
     17 C                    -0.086426
     18 H                     0.122678
     19 H                     0.090532
     20 H                     0.089614
     21 C                    -0.265373
     22 S                    -0.087160
     23 C                     0.013650
     24 H                     0.206210
     25 C                    -0.124824
     26 S                     0.103319
     27 C                    -0.135605
     28 C                     0.053204
     29 C                    -0.102677
     30 S                     0.045822
     31 C                    -0.153397
     32 C                     0.395829
     33 F                    -0.204542
     34 C                     0.447574
     35 O                    -0.461740
     36 O                    -0.301267
     37 C                    -0.058229
     38 H                     0.121446
     39 H                     0.095206
     40 H                     0.095462
     41 H                     0.221196
     42 H                     0.114960
     43 H                     0.112880
     44 H                     0.183788
  ----------------------------------------
  Sum of atomic charges =     0.000000

 -----------------------------------------------------------------
                    Cartesian Multipole Moments
 -----------------------------------------------------------------
    Charge (ESU x 10^10)
                 0.0000
    Dipole Moment (Debye)
         X       2.9540      Y       3.9481      Z       3.1669
       Tot       5.8603
    Quadrupole Moments (Debye-Ang)
        XX    -177.8461     XY       5.6315     YY    -192.9351
        XZ       2.2759     YZ      -5.2164     ZZ    -200.1809
    Octopole Moments (Debye-Ang^2)
       XXX    -346.4811    XXY     410.9402    XYY     -75.3330
       YYY    1203.1145    XXZ     138.6567    XYZ     -68.2875
       YYZ     153.1382    XZZ     -55.8023    YZZ     488.7074
       ZZZ     569.7674
    Hexadecapole Moments (Debye-Ang^3)
      XXXX   -4266.7504   XXXY   -1323.1796   XXYY   -4051.8736
      XYYY   -1613.0286   YYYY  -19230.1400   XXXZ     917.7728
      XXYZ     183.6907   XYYZ     382.2934   YYYZ     771.2304
      XXZZ   -1294.1796   XYZZ    -154.4547   YYZZ   -4157.6321
      XZZZ     522.6939   YZZZ     500.8629   ZZZZ   -5555.5835
 -----------------------------------------------------------------
 Total job time:  329.00s(wall), 10715.99s(cpu) 
 Tue Jan  9 10:43:35 2024

        *************************************************************
        *                                                           *
        *  Thank you very much for using Q-Chem.  Have a nice day.  *
        *                                                           *
        *************************************************************


0 sent ACK to 0 
now end server 0 ... 
cleanup process ... done
remove work dirs ./qchem3758983.0 -- ./qchem3758983.0
rm -rf ./qchem3758983.0
rm -rf ./qchem3758983
