You are running Q-Chem version: 5.4.0

#
# job setting
#
local host:  exp-3-51
current dir: /home/rramji/project-csd799/aromodel/ptb7fout-qchem/hydrogenated-rotation-run
input file:  Dimethoxy_Benzodithiophene_Phi_15_Theta_150_Methylcarbonyl_3_Fluoro_Thienothiophene_Hydrogenated.qcin
output file: 
nprocs     : 1
nthreads   : 64
#
# qchem installation setting
#
QC:          /cm/shared/apps/spack/cpu/opt/spack/linux-centos8-zen2/gcc-10.2.0/qchem-5.4-akfmr7b3t57bfs6qan3padb2wnb2i7cl
QCAUX:       /cm/shared/apps/spack/cpu/opt/spack/linux-centos8-zen2/gcc-10.2.0/qchem-5.4-akfmr7b3t57bfs6qan3padb2wnb2i7cl/qcaux
QCPROG:      /cm/shared/apps/spack/cpu/opt/spack/linux-centos8-zen2/gcc-10.2.0/qchem-5.4-akfmr7b3t57bfs6qan3padb2wnb2i7cl/exe/qcprog.exe
QCPROG_S:    /cm/shared/apps/spack/cpu/opt/spack/linux-centos8-zen2/gcc-10.2.0/qchem-5.4-akfmr7b3t57bfs6qan3padb2wnb2i7cl/exe/qcprog.exe_s
PARALLEL:    -DPARALLEL
QCMPI:       mpich
#
# qchem directory setting
#
qcrun:       qchem785472
QCSCRATCH:   .
QCLOCALSCR:  
QCTMPDIR:    .
QCFILEPREF:  ./qchem785472
QCSAVEDIR:   
workdirs:    ./qchem785472
workdir0:    ./qchem785472
partmpdirs =  
#
# parallel setting
#
QCRSH:           ssh
QCMPI:           mpich
QCMPIRUN:        /cm/shared/apps/spack/cpu/opt/spack/linux-centos8-zen2/gcc-10.2.0/qchem-5.4-akfmr7b3t57bfs6qan3padb2wnb2i7cl/bin/mpi/mpirun_qchem
QCMACHINEFILE:   ./qchem785472/hostfile
exp-3-51

#
# env setting
#
exported envs:   QC QCAUX QCSCRATCH QCRUNNAME QCFILEPREF QCPROG QCPROG_S GUIFILE

Running Job 1 of 1 Dimethoxy_Benzodithiophene_Phi_15_Theta_150_Methylcarbonyl_3_Fluoro_Thienothiophene_Hydrogenated.qcin
qchem Dimethoxy_Benzodithiophene_Phi_15_Theta_150_Methylcarbonyl_3_Fluoro_Thienothiophene_Hydrogenated.qcin_785472.0 ./qchem785472/ 1
/cm/shared/apps/spack/cpu/opt/spack/linux-centos8-zen2/gcc-10.2.0/qchem-5.4-akfmr7b3t57bfs6qan3padb2wnb2i7cl/bin/mpi/mpirun_qchem -machinefile ./qchem785472/hostfile -np 1 /cm/shared/apps/spack/cpu/opt/spack/linux-centos8-zen2/gcc-10.2.0/qchem-5.4-akfmr7b3t57bfs6qan3padb2wnb2i7cl/exe/qcprog.exe Dimethoxy_Benzodithiophene_Phi_15_Theta_150_Methylcarbonyl_3_Fluoro_Thienothiophene_Hydrogenated.qcin_785472.0 ./qchem785472/

Process 0 of 1 is on exp-3-51 - thread support 0
initial socket setup ...start
initial socket setup ...done 
now start server 0 ... 
                  Welcome to Q-Chem
     A Quantum Leap Into The Future Of Chemistry


 Q-Chem 5.4, Q-Chem, Inc., Pleasanton, CA (2021)

 License issued to: University of California, San Diego (site)

 E. Epifanovsky,  A. T. B. Gilbert,  Xintian Feng,  Joonho Lee,  Yuezhi Mao,  
 N. Mardirossian,  P. Pokhilko,  A. White,  M. Wormit,  M. P. Coons,  
 A. L. Dempwolff,  Zhengting Gan,  D. Hait,  P. R. Horn,  L. D. Jacobson,  
 I. Kaliman,  J. Kussmann,  A. W. Lange,  Ka Un Lao,  D. S. Levine,  Jie Liu,  
 S. C. McKenzie,  A. F. Morrison,  K. Nanda,  F. Plasser,  D. R. Rehn,  
 M. L. Vidal,  Zhi-Qiang You,  Ying Zhu,  B. Alam,  B. Albrecht,  
 A. Aldossary,  E. Alguire,  J. H. Andersen,  D. Barton,  K. Begam,  A. Behn,  
 Y. A. Bernard,  E. J. Berquist,  H. Burton,  A. Carreras,  K. Carter-Fenk,  
 R. Chakraborty,  A. D. Chien,  K. D. Closser,  V. Cofer-Shabica,  
 S. Dasgupta,  Jia Deng,  M. de Wergifosse,  M. Diedenhofen,  Hainam Do,  
 S. Ehlert,  Po-Tung Fang,  S. Fatehi,  Qingguo Feng,  J. Gayvert,  
 Qinghui Ge,  G. Gidofalvi,  M. Goldey,  J. Gomes,  C. Gonzalez-Espinoza,  
 S. Gulania,  A. Gunina,  M. W. D. Hanson-Heine,  P. H. P. Harbach,  
 A. W. Hauser,  M. F. Herbst,  M. Hernandez Vera,  M. Hodecker,  
 Z. C. Holden,  S. Houck,  Xunkun Huang,  Kerwin Hui,  B. C. Huynh,  
 M. Ivanov,  Hyunjun Ji,  Hanjie Jiang,  B. Kaduk,  S. Kaehler,  
 K. Khistyaev,  Jaehoon Kim,  P. Klunzinger,  Z. Koczor-Benda,  
 Joong Hoon Koh,  D. Kosenkov,  L. Koulias,  T. Kowalczyk,  C. M. Krauter,  
 K. Kue,  A. Kunitsa,  T. Kus,  A. Landau,  K. V. Lawler,  D. Lefrancois,  
 S. Lehtola,  Rain Li,  Yi-Pei Li,  Jiashu Liang,  M. Liebenthal,  
 Hung-Hsuan Lin,  You-Sheng Lin,  Fenglai Liu,  Kuan-Yu Liu,  
 M. Loipersberger,  A. Luenser,  A. Manjanath,  P. Manohar,  E. Mansoor,  
 S. F. Manzer,  Shan-Ping Mao,  A. V. Marenich,  T. Markovich,  S. Mason,  
 S. A. Maurer,  P. F. McLaughlin,  M. F. S. J. Menger,  J.-M. Mewes,  
 S. A. Mewes,  P. Morgante,  J. W. Mullinax,  T. S. Nguyen-Beck,  
 K. J. Oosterbaan,  G. Paran,  Alexander C. Paul,  Suranjan K. Paul,  
 F. Pavosevic,  Zheng Pei,  S. Prager,  E. I. Proynov,  E. Ramos,  B. Rana,  
 A. E. Rask,  A. Rettig,  R. M. Richard,  F. Rob,  E. Rossomme,  T. Scheele,  
 M. Scheurer,  M. Schneider,  N. Sergueev,  S. M. Sharada,  W. Skomorowski,  
 D. W. Small,  C. J. Stein,  Yu-Chuan Su,  E. J. Sundstrom,  Zhen Tao,  
 J. Thirman,  T. Tsuchimochi,  N. M. Tubman,  S. P. Veccham,  O. Vydrov,  
 J. Wenzel,  J. Witte,  A. Yamada,  Kun Yao,  S. Yeganeh,  S. R. Yost,  
 A. Zech,  Igor Ying Zhang,  Xing Zhang,  Yu Zhang,  D. Zuev,  
 A. Aspuru-Guzik,  A. T. Bell,  N. A. Besley,  K. B. Bravaya,  B. R. Brooks,  
 D. Casanova,  Jeng-Da Chai,  S. Coriani,  C. J. Cramer,  
 A. E. DePrince, III,  R. A. DiStasio Jr.,  A. Dreuw,  B. D. Dunietz,  
 T. R. Furlani,  W. A. Goddard III,  S. Grimme,  S. Hammes-Schiffer,  
 T. Head-Gordon,  W. J. Hehre,  Chao-Ping Hsu,  T.-C. Jagau,  Yousung Jung,  
 A. Klamt,  Jing Kong,  D. S. Lambrecht,  WanZhen Liang,  N. J. Mayhall,  
 C. W. McCurdy,  J. B. Neaton,  C. Ochsenfeld,  J. A. Parkhill,  R. Peverati,  
 V. A. Rassolov,  Yihan Shao,  L. V. Slipchenko,  T. Stauch,  R. P. Steele,  
 J. E. Subotnik,  A. J. W. Thom,  A. Tkatchenko,  D. G. Truhlar,  
 T. Van Voorhis,  T. A. Wesolowski,  K. B. Whaley,  H. L. Woodcock III,  
 P. M. Zimmerman,  S. Faraji,  P. M. W. Gill,  M. Head-Gordon,  
 J. M. Herbert,  A. I. Krylov

 Contributors to earlier versions of Q-Chem not listed above: 
 R. D. Adamson,  B. Austin,  R. Baer,  J. Baker,  G. J. O. Beran,  
 K. Brandhorst,  S. T. Brown,  E. F. C. Byrd,  A. K. Chakraborty,  
 G. K. L. Chan,  Chun-Min Chang,  Yunqing Chen,  C.-L. Cheng,  
 Siu Hung Chien,  D. M. Chipman,  D. L. Crittenden,  H. Dachsel,  
 R. J. Doerksen,  A. D. Dutoi,  R. G. Edgar,  J. Fosso-Tande,  
 L. Fusti-Molnar,  D. Ghosh,  A. Ghysels,  A. Golubeva-Zadorozhnaya,  
 J. Gonthier,  M. S. Gordon,  S. R. Gwaltney,  G. Hawkins,  J. E. Herr,  
 A. Heyden,  S. Hirata,  E. G. Hohenstein,  G. Kedziora,  F. J. Keil,  
 C. Kelley,  Jihan Kim,  R. A. King,  R. Z. Khaliullin,  P. P. Korambath,  
 W. Kurlancheek,  A. Laurent,  A. M. Lee,  M. S. Lee,  S. V. Levchenko,  
 Ching Yeh Lin,  D. Liotard,  E. Livshits,  R. C. Lochan,  I. Lotan,  
 L. A. Martinez-Martinez,  P. E. Maslen,  N. Nair,  D. P. O'Neill,  
 D. Neuhauser,  E. Neuscamman,  C. M. Oana,  R. Olivares-Amaya,  R. Olson,  
 T. M. Perrine,  B. Peters,  P. A. Pieniazek,  A. Prociuk,  Y. M. Rhee,  
 J. Ritchie,  M. A. Rohrdanz,  E. Rosta,  N. J. Russ,  H. F. Schaefer III,  
 M. W. Schmidt,  N. E. Schultz,  S. Sharma,  N. Shenvi,  C. D. Sherrill,  
 A. C. Simmonett,  A. Sodt,  T. Stein,  D. Stuck,  K. S. Thanthiriwatte,  
 V. Vanovschi,  L. Vogt,  Tao Wang,  A. Warshel,  M. A. Watson,  
 C. F. Williams,  Q. Wu,  X. Xu,  Jun Yang,  W. Zhang,  Yan Zhao

 Please cite Q-Chem as follows:
 Y. Shao et al., Mol. Phys. 113, 184-215 (2015)
 DOI: 10.1080/00268976.2014.952696

 Q-Chem 5.4.0 for Intel X86 EM64T Linux

 Parts of Q-Chem use Armadillo 9.800.1 (Horizon Scraper).
 http://arma.sourceforge.net/

 Q-Chem begins on Tue Jan  9 11:15:03 2024  

 Host: 
0

     Scratch files written to ./qchem785472//
 May1621 |scratch|qcdevops|jenkins|workspace|build_RNUM    
 Parallel job on  1  processors
 Processing $rem in /cm/shared/apps/spack/cpu/opt/spack/linux-centos8-zen2/gcc-10.2.0/qchem-5.4-akfmr7b3t57bfs6qan3padb2wnb2i7cl/config/preferences:
 Processing $rem in /home/rramji/.qchemrc:
 Symmetry turned off for PCM/SM12/SMD calculation
 Core orbitals will be frozen

 Checking the input file for inconsistencies... 	...done.

 Q-Chem warning in module forms1/BasisType.C, line 2236:

 You are not using the predefined 5D/6D in this basis set.


--------------------------------------------------------------
User input:
--------------------------------------------------------------
$molecule
0 1
C	-0.123330	-8.517702	-0.296276
C	0.421494	-7.641575	0.631143
S	-0.911611	-7.638634	-1.628795
C	0.233291	-6.264785	0.305097
H	0.950737	-7.966081	1.535988
C	-0.478557	-6.072714	-0.931114
C	-0.781346	-4.787049	-1.405737
C	0.664542	-5.162801	1.097747
C	0.357854	-3.874817	0.624993
C	-0.352278	-3.683952	-0.613970
O	1.348709	-5.499772	2.226300
O	-1.469658	-4.459055	-2.538827
C	-1.419319	-5.329063	-3.663102
H	-1.828237	-4.755694	-4.516756
H	-2.043793	-6.238095	-3.520769
H	-0.377021	-5.637262	-3.895546
C	1.463351	-4.572261	3.298492
H	1.878237	-5.139743	4.152945
H	0.475176	-4.153131	3.585804
H	2.159469	-3.739531	3.058230
C	-0.540664	-2.306654	-0.935761
S	0.780808	-2.306501	1.330550
C	0.000000	-1.435185	0.000000
H	-1.066946	-1.978138	-1.840780
C	0.000000	0.000000	0.000000
S	0.234628	0.873813	1.507541
C	0.640889	2.392969	0.718873
C	0.234815	0.873434	-1.067872
C	0.592377	2.216811	-0.686410
S	0.174526	0.637422	-2.805516
C	0.622551	2.330840	-3.054530
C	0.803505	3.015647	-1.862551
F	1.144815	4.307994	-1.819088
C	0.740334	2.763108	-4.456084
O	0.548793	2.017428	-5.406510
O	1.082665	4.069544	-4.569225
C	1.215848	4.546407	-5.916207
H	1.494066	5.611729	-5.833064
H	0.261736	4.436296	-6.470168
H	2.000108	3.981294	-6.459293
H	0.878739	3.286099	1.306486
H	-0.900433	-9.143623	0.158021
H	0.648903	-9.149441	-0.750822
H	-0.931540	-1.443175	0.546415
$end

$rem
JOBTYPE		SP
EXCHANGE	HF
CORRELATION	pRIMP2
BASIS		cc-pvtz
METHOD		rimp2
AUX_BASIS	rimp2-cc-pvtz
SOLVENT_METHOD	PCM
PURECART	11111
SYMMETRY	false
MEM_TOTAL	110000
SCF_CONVERGENCE = 6
THRESH=10
GUI = 2
$end



$solvent
dielectric 4.90
$end
--------------------------------------------------------------
 ----------------------------------------------------------------
             Standard Nuclear Orientation (Angstroms)
    I     Atom           X                Y                Z
 ----------------------------------------------------------------
    1      C      -0.1233300000    -8.5177020000    -0.2962760000
    2      C       0.4214940000    -7.6415750000     0.6311430000
    3      S      -0.9116110000    -7.6386340000    -1.6287950000
    4      C       0.2332910000    -6.2647850000     0.3050970000
    5      H       0.9507370000    -7.9660810000     1.5359880000
    6      C      -0.4785570000    -6.0727140000    -0.9311140000
    7      C      -0.7813460000    -4.7870490000    -1.4057370000
    8      C       0.6645420000    -5.1628010000     1.0977470000
    9      C       0.3578540000    -3.8748170000     0.6249930000
   10      C      -0.3522780000    -3.6839520000    -0.6139700000
   11      O       1.3487090000    -5.4997720000     2.2263000000
   12      O      -1.4696580000    -4.4590550000    -2.5388270000
   13      C      -1.4193190000    -5.3290630000    -3.6631020000
   14      H      -1.8282370000    -4.7556940000    -4.5167560000
   15      H      -2.0437930000    -6.2380950000    -3.5207690000
   16      H      -0.3770210000    -5.6372620000    -3.8955460000
   17      C       1.4633510000    -4.5722610000     3.2984920000
   18      H       1.8782370000    -5.1397430000     4.1529450000
   19      H       0.4751760000    -4.1531310000     3.5858040000
   20      H       2.1594690000    -3.7395310000     3.0582300000
   21      C      -0.5406640000    -2.3066540000    -0.9357610000
   22      S       0.7808080000    -2.3065010000     1.3305500000
   23      C       0.0000000000    -1.4351850000     0.0000000000
   24      H      -1.0669460000    -1.9781380000    -1.8407800000
   25      C       0.0000000000     0.0000000000     0.0000000000
   26      S       0.2346280000     0.8738130000     1.5075410000
   27      C       0.6408890000     2.3929690000     0.7188730000
   28      C       0.2348150000     0.8734340000    -1.0678720000
   29      C       0.5923770000     2.2168110000    -0.6864100000
   30      S       0.1745260000     0.6374220000    -2.8055160000
   31      C       0.6225510000     2.3308400000    -3.0545300000
   32      C       0.8035050000     3.0156470000    -1.8625510000
   33      F       1.1448150000     4.3079940000    -1.8190880000
   34      C       0.7403340000     2.7631080000    -4.4560840000
   35      O       0.5487930000     2.0174280000    -5.4065100000
   36      O       1.0826650000     4.0695440000    -4.5692250000
   37      C       1.2158480000     4.5464070000    -5.9162070000
   38      H       1.4940660000     5.6117290000    -5.8330640000
   39      H       0.2617360000     4.4362960000    -6.4701680000
   40      H       2.0001080000     3.9812940000    -6.4592930000
   41      H       0.8787390000     3.2860990000     1.3064860000
   42      H      -0.9004330000    -9.1436230000     0.1580210000
   43      H       0.6489030000    -9.1494410000    -0.7508220000
   44      H      -0.9315400000    -1.4431750000     0.5464150000
 ----------------------------------------------------------------
 Nuclear Repulsion Energy =        3342.00289291 hartrees
 There are      120 alpha and      120 beta electrons
 Requested basis set is cc-pVTZ
 There are 388 shells and 1096 basis functions

 Total QAlloc Memory Limit 110000 MB
 Mega-Array Size       188 MB
 MEM_STATIC part       192 MB
 Discretize the solute cavity surface with Lebedev spheres
	Using 110 Lebedev grid points for each H atom
	Using 194 Lebedev grid points for other atoms
	Atomic van der Waals radii will be scaled by 1.20
 Remove points where switching function is < 1.0e-08
 Keep 2971 surface tesserae and discard 4305 interior tesserae
 Molecular Surface Area = 439.502 Angst**2
 Requested basis set is rimp2-cc-pVTZ
 There are 853 shells and 2963 basis functions
 A cutoff of  1.0D-10 yielded  33019 shell pairs
 There are    249219 function pairs (    322385 Cartesian)
 Smallest overlap matrix eigenvalue = 2.18E-05

 Scale SEOQF with 1.000000e-01/1.000000e-02/1.000000e-02

 Standard Electronic Orientation quadrupole field applied
 Nucleus-field energy     =     0.0000000221 hartrees
 Guess from superposition of atomic densities
 Warning:  Energy on first SCF cycle will be non-variational
 SAD guess density has 240.000000 electrons

 -----------------------------------------------------------------------
  General SCF calculation program by
  Eric Jon Sundstrom, Paul Horn, Yuezhi Mao, Dmitri Zuev, Alec White,
  David Stuck, Shaama M.S., Shane Yost, Joonho Lee, David Small,
  Daniel Levine, Susi Lehtola, Hugh Burton, Evgeny Epifanovsky,
  Bang C. Huynh
 -----------------------------------------------------------------------
 Hartree-Fock
 using 64 threads for integral computing
 -------------------------------------------------------
 OpenMP Integral computing Module                
 Release: version 1.0, May 2013, Q-Chem Inc. Pittsburgh 
 -------------------------------------------------------
 A restricted SCF calculation will be
 performed using DIIS
 SCF converges when DIIS error is below 1.0e-06
 ---------------------------------------
  Cycle       Energy         DIIS error
 ---------------------------------------
    1   -2767.0302642004      1.75e-02  
    2   -2754.8863618453      1.53e-03  
    3   -2755.2356764272      8.55e-04  
    4   -2755.3226849268      2.56e-04  
    5   -2755.3363414301      7.44e-05  
    6   -2755.3379140995      2.63e-05  
    7   -2755.3383354908      1.39e-05  
    8   -2755.3384762953      5.88e-06  
    9   -2755.3385108414      3.10e-06  
   10   -2755.3385194577      1.60e-06  
   11   -2755.3385223992      8.70e-07  Convergence criterion met
 ---------------------------------------
 SCF time:   CPU 7948.24s  wall 309.00s 

************** Final PCM Free Energy Summary **************
 G_electrostatic  =      -0.02053940 hartree =     -12.88867032 kcal/mol
 G_cavitation     =       0.00000000 hartree =       0.00000000 kcal/mol
 G_dispersion     =       0.00000000 hartree =       0.00000000 kcal/mol
 G_repulsion      =       0.00000000 hartree =       0.00000000 kcal/mol
 --------------------------------------------------
 Non-electrostatic Free Energy =       0.00000000 hartree =       0.00000000 kcal/mol
 Total                         =      -0.02053940 hartree =     -12.88867032 kcal/mol
 --------------------------------------------------
 SCF Energy (H0 + V/2)                       =   -2755.33852240 
 Solute Internal Energy (H0)                 =   -2755.31798300 
 Total Free Energy (H0 + V/2 + non-elec)     =   -2755.33852240 hartree
                                             = -1729001.01861666 kcal/mol
***********************************************************

 SCF   energy in the final basis set =    -2755.3385223992
 Total energy in the final basis set =    -2755.3385223992


 --------------------------------------------------------------
  Generalized many-body perturbation theory program
  by Joonho Lee, Fazle Rob, Xintian Feng, Evgeny Epifanovsky

 No regularization used 
 (reg. param. = 0.0000e+00)
  (P|Q)^-1/2 Time:  CPU 183.86 s  wall 3.39 s

 In RI-MP2 calculation: 
 # of frozen core orbitals: 45

 Components of the RIMP2 correlation energy:
        aaaa    correlation energy =        -0.6690387139 a.u.
        abab    correlation energy =        -3.7522418053 a.u.
        bbbb    correlation energy =        -0.6690387139 a.u.
        non-Brillouin singles      =        -0.0000000000 a.u.
        total same-spin energy     =        -1.3380774279 a.u.
        total opposite-spin energy =        -3.7522418053 a.u.

 Total  RIMP2   correlation energy =        -5.0903192332 a.u.
        RIMP2         total energy =     -2760.4288416324 a.u.

 RI-MP2 Energy Time:  CPU 3086.90 s  wall 50.74 s
 
 --------------------------------------------------------------
 
                    Orbital Energies (a.u.)
 --------------------------------------------------------------
 
 Alpha MOs
 -- Occupied --
-92.0155 -91.9970 -91.9810 -91.9584 -26.3431 -20.6151 -20.5880 -20.5871
-20.5617 -11.4096 -11.3820 -11.3094 -11.3089 -11.3062 -11.3058 -11.2983
-11.2951 -11.2890 -11.2854 -11.2849 -11.2844 -11.2824 -11.2815 -11.2741
-11.2733 -11.2590 -11.2587 -11.2500 -11.2376  -9.0143  -8.9972  -8.9833
 -8.9610  -6.6951  -6.6945  -6.6940  -6.6782  -6.6775  -6.6764  -6.6644
 -6.6635  -6.6622  -6.6423  -6.6413  -6.6403  -1.6602  -1.4675  -1.4114
 -1.4090  -1.3702  -1.2297  -1.2031  -1.1743  -1.1377  -1.1005  -1.0471
 -1.0447  -1.0241  -1.0044  -0.9982  -0.9630  -0.9593  -0.9489  -0.9405
 -0.8947  -0.8694  -0.8660  -0.8107  -0.8013  -0.7893  -0.7845  -0.7681
 -0.7567  -0.7379  -0.7251  -0.7150  -0.6985  -0.6879  -0.6848  -0.6805
 -0.6740  -0.6619  -0.6568  -0.6489  -0.6375  -0.6313  -0.6203  -0.6151
 -0.6122  -0.5989  -0.5928  -0.5762  -0.5716  -0.5649  -0.5592  -0.5526
 -0.5486  -0.5345  -0.5312  -0.5294  -0.5142  -0.5083  -0.5082  -0.5013
 -0.4853  -0.4810  -0.4773  -0.4743  -0.4723  -0.4683  -0.4599  -0.4466
 -0.4312  -0.3953  -0.3865  -0.3707  -0.3512  -0.2992  -0.2888  -0.2180
 -- Virtual --
  0.0332   0.0517   0.1089   0.1273   0.1393   0.1449   0.1529   0.1563
  0.1587   0.1598   0.1655   0.1732   0.1819   0.1843   0.1903   0.1956
  0.2002   0.2032   0.2049   0.2150   0.2203   0.2225   0.2231   0.2274
  0.2290   0.2363   0.2418   0.2443   0.2494   0.2579   0.2625   0.2730
  0.2781   0.2941   0.3038   0.3230   0.3356   0.3389   0.3410   0.3457
  0.3507   0.3574   0.3596   0.3671   0.3714   0.3829   0.3838   0.3850
  0.3888   0.3936   0.4016   0.4041   0.4113   0.4131   0.4179   0.4244
  0.4285   0.4294   0.4340   0.4363   0.4393   0.4458   0.4492   0.4506
  0.4561   0.4616   0.4662   0.4708   0.4727   0.4752   0.4809   0.4881
  0.4892   0.4962   0.4995   0.5018   0.5077   0.5126   0.5148   0.5168
  0.5254   0.5256   0.5306   0.5312   0.5368   0.5424   0.5425   0.5477
  0.5524   0.5538   0.5576   0.5613   0.5634   0.5694   0.5714   0.5803
  0.5851   0.5882   0.5913   0.5927   0.5986   0.6015   0.6070   0.6130
  0.6134   0.6140   0.6169   0.6197   0.6214   0.6245   0.6247   0.6288
  0.6334   0.6344   0.6410   0.6460   0.6499   0.6521   0.6541   0.6578
  0.6633   0.6677   0.6735   0.6791   0.6816   0.6883   0.6955   0.6993
  0.7069   0.7079   0.7164   0.7187   0.7204   0.7233   0.7280   0.7381
  0.7390   0.7478   0.7558   0.7615   0.7671   0.7712   0.7826   0.7842
  0.7912   0.7945   0.7998   0.8051   0.8142   0.8198   0.8200   0.8213
  0.8373   0.8405   0.8514   0.8519   0.8604   0.8669   0.8699   0.8730
  0.8768   0.8800   0.8901   0.8927   0.8982   0.9049   0.9081   0.9126
  0.9227   0.9297   0.9352   0.9385   0.9411   0.9466   0.9515   0.9548
  0.9574   0.9638   0.9716   0.9758   0.9808   0.9822   0.9887   0.9898
  0.9976   1.0042   1.0063   1.0112   1.0183   1.0190   1.0258   1.0291
  1.0325   1.0375   1.0437   1.0519   1.0547   1.0584   1.0647   1.0694
  1.0754   1.0799   1.0830   1.0874   1.0973   1.0992   1.1031   1.1106
  1.1127   1.1164   1.1195   1.1285   1.1300   1.1363   1.1422   1.1482
  1.1541   1.1634   1.1656   1.1720   1.1737   1.1772   1.1818   1.1842
  1.1858   1.1873   1.1960   1.2009   1.2047   1.2101   1.2149   1.2207
  1.2240   1.2274   1.2348   1.2403   1.2426   1.2461   1.2539   1.2553
  1.2604   1.2670   1.2708   1.2744   1.2811   1.2840   1.2895   1.2936
  1.2990   1.3029   1.3092   1.3203   1.3215   1.3317   1.3335   1.3406
  1.3417   1.3563   1.3636   1.3702   1.3783   1.3846   1.3916   1.3982
  1.4025   1.4096   1.4104   1.4224   1.4298   1.4353   1.4396   1.4525
  1.4558   1.4716   1.4769   1.4821   1.4854   1.4910   1.5008   1.5021
  1.5040   1.5094   1.5122   1.5163   1.5216   1.5314   1.5350   1.5380
  1.5395   1.5422   1.5486   1.5513   1.5541   1.5605   1.5679   1.5760
  1.5867   1.5942   1.6025   1.6096   1.6177   1.6195   1.6322   1.6348
  1.6400   1.6570   1.6589   1.6605   1.6658   1.6768   1.6806   1.6875
  1.6902   1.7001   1.7142   1.7151   1.7199   1.7247   1.7320   1.7538
  1.7601   1.7696   1.7780   1.7811   1.7835   1.7969   1.8073   1.8135
  1.8182   1.8237   1.8259   1.8488   1.8530   1.8545   1.8749   1.8774
  1.8822   1.8861   1.8991   1.9079   1.9177   1.9218   1.9318   1.9343
  1.9443   1.9464   1.9547   1.9670   1.9774   1.9891   1.9922   2.0002
  2.0068   2.0098   2.0158   2.0199   2.0297   2.0373   2.0401   2.0533
  2.0615   2.0704   2.0872   2.0928   2.0994   2.1075   2.1118   2.1351
  2.1398   2.1494   2.1615   2.1699   2.1791   2.1831   2.1857   2.1944
  2.1966   2.1985   2.2089   2.2128   2.2240   2.2299   2.2364   2.2398
  2.2473   2.2506   2.2521   2.2653   2.2757   2.2860   2.2891   2.3001
  2.3078   2.3127   2.3194   2.3277   2.3389   2.3488   2.3528   2.3568
  2.3656   2.3742   2.3830   2.3954   2.4015   2.4141   2.4209   2.4216
  2.4335   2.4415   2.4498   2.4655   2.4678   2.4807   2.4894   2.4968
  2.5053   2.5062   2.5131   2.5320   2.5415   2.5448   2.5534   2.5588
  2.5657   2.5840   2.5969   2.5983   2.6144   2.6199   2.6238   2.6266
  2.6287   2.6358   2.6402   2.6432   2.6472   2.6492   2.6625   2.6700
  2.6755   2.6827   2.6857   2.6917   2.6982   2.7040   2.7096   2.7186
  2.7237   2.7290   2.7349   2.7414   2.7531   2.7572   2.7651   2.7734
  2.7828   2.7870   2.7941   2.7999   2.8096   2.8141   2.8176   2.8393
  2.8414   2.8429   2.8497   2.8535   2.8564   2.8629   2.8691   2.8715
  2.8797   2.8825   2.8919   2.9025   2.9062   2.9112   2.9272   2.9464
  2.9519   2.9585   2.9611   2.9632   2.9743   2.9816   2.9859   2.9910
  2.9984   3.0018   3.0147   3.0211   3.0233   3.0303   3.0370   3.0455
  3.0504   3.0573   3.0665   3.0690   3.0786   3.0881   3.0934   3.0957
  3.0991   3.1055   3.1099   3.1166   3.1259   3.1311   3.1376   3.1427
  3.1499   3.1512   3.1541   3.1573   3.1624   3.1680   3.1713   3.1771
  3.1820   3.1944   3.1966   3.2036   3.2093   3.2171   3.2192   3.2261
  3.2290   3.2426   3.2464   3.2518   3.2539   3.2596   3.2650   3.2683
  3.2708   3.2741   3.2777   3.2823   3.2886   3.2926   3.2968   3.3035
  3.3077   3.3125   3.3158   3.3181   3.3253   3.3340   3.3364   3.3401
  3.3473   3.3488   3.3506   3.3541   3.3572   3.3642   3.3677   3.3700
  3.3723   3.3808   3.3896   3.3940   3.3946   3.3994   3.4009   3.4064
  3.4119   3.4154   3.4250   3.4283   3.4325   3.4368   3.4437   3.4488
  3.4495   3.4537   3.4577   3.4593   3.4705   3.4752   3.4766   3.4813
  3.4859   3.4908   3.4963   3.5002   3.5054   3.5105   3.5233   3.5254
  3.5360   3.5437   3.5471   3.5561   3.5605   3.5618   3.5662   3.5687
  3.5760   3.5834   3.5860   3.5921   3.5993   3.6031   3.6097   3.6117
  3.6178   3.6207   3.6287   3.6316   3.6326   3.6370   3.6436   3.6510
  3.6567   3.6608   3.6676   3.6724   3.6786   3.6827   3.6874   3.6954
  3.7003   3.7012   3.7060   3.7086   3.7136   3.7160   3.7187   3.7269
  3.7378   3.7391   3.7494   3.7543   3.7622   3.7644   3.7702   3.7773
  3.7836   3.7872   3.7945   3.7994   3.8045   3.8074   3.8133   3.8145
  3.8176   3.8236   3.8274   3.8345   3.8415   3.8469   3.8498   3.8520
  3.8594   3.8670   3.8701   3.8783   3.8824   3.8872   3.8983   3.9044
  3.9103   3.9223   3.9252   3.9325   3.9416   3.9500   3.9535   3.9605
  3.9612   3.9634   3.9703   3.9761   3.9919   3.9935   4.0054   4.0102
  4.0207   4.0221   4.0336   4.0448   4.0503   4.0539   4.0635   4.0673
  4.0686   4.0742   4.0843   4.0995   4.1055   4.1140   4.1198   4.1256
  4.1347   4.1356   4.1478   4.1567   4.1606   4.1660   4.1708   4.1722
  4.1759   4.1793   4.1873   4.2008   4.2097   4.2148   4.2202   4.2334
  4.2431   4.2485   4.2490   4.2679   4.2729   4.2846   4.2920   4.3061
  4.3183   4.3283   4.3315   4.3417   4.3492   4.3520   4.3572   4.3593
  4.3648   4.3727   4.3786   4.3865   4.3970   4.4058   4.4086   4.4138
  4.4173   4.4247   4.4290   4.4332   4.4347   4.4416   4.4447   4.4553
  4.4632   4.4730   4.4952   4.4999   4.5083   4.5121   4.5180   4.5209
  4.5280   4.5494   4.5579   4.5621   4.5668   4.5701   4.5765   4.5852
  4.5892   4.5978   4.6117   4.6217   4.6356   4.6434   4.6485   4.6532
  4.6649   4.6685   4.6753   4.6901   4.6931   4.7116   4.7176   4.7279
  4.7394   4.7480   4.7543   4.7745   4.7792   4.7925   4.8114   4.8144
  4.8258   4.8301   4.8462   4.8546   4.8612   4.8705   4.8802   4.8909
  4.9002   4.9157   4.9295   4.9331   4.9485   4.9542   4.9653   4.9723
  4.9873   5.0011   5.0071   5.0089   5.0207   5.0310   5.0395   5.0492
  5.0660   5.0832   5.0907   5.1083   5.1216   5.1299   5.1614   5.1650
  5.1807   5.1948   5.2013   5.2055   5.2206   5.2315   5.2512   5.2557
  5.2583   5.2642   5.2709   5.2907   5.2924   5.3139   5.3220   5.3250
  5.3303   5.3500   5.3515   5.3636   5.3693   5.3900   5.3936   5.4026
  5.4103   5.4184   5.4261   5.4420   5.4461   5.4849   5.4979   5.5076
  5.5140   5.5203   5.5285   5.5415   5.5637   5.5659   5.5826   5.5832
  5.6003   5.6040   5.6144   5.6214   5.6501   5.6608   5.6686   5.6905
  5.7060   5.7412   5.7467   5.7652   5.7737   5.8073   5.8149   5.8469
  5.8580   5.8790   5.9036   5.9160   5.9289   5.9550   5.9936   6.0320
  6.0409   6.0427   6.0920   6.1288   6.1503   6.1557   6.1721   6.1768
  6.1825   6.2007   6.2337   6.2457   6.2592   6.2612   6.2762   6.2889
  6.2912   6.3075   6.3463   6.4145   6.4490   6.4499   6.5003   6.5392
  6.5486   6.5678   6.6055   6.6484   6.6615   6.6709   6.7130   6.7467
  6.8073   6.8302   6.8561   6.8592   6.8977   6.9780   7.1314   7.1441
  7.2037   7.2072   7.2214   7.2397   7.3096   7.3278   7.3411   7.3634
  7.3644   7.4058   7.4130   7.4857   7.4858   7.4972   7.5263   7.5513
  7.6171   7.7368   7.7732   7.7898   7.8022   7.9017   7.9269   7.9535
  7.9736   8.1355   8.2739   8.5966   8.9221   9.0281   9.3632   9.4862
  9.6745  10.2339  11.1689  11.4564  11.7499  11.9026  12.1233  12.3816
 12.4250  12.5139  12.9178  13.0173  13.0904  13.2473  13.3855  13.4807
 13.7602  13.7772  13.8847  13.9408  14.0313  14.3095  14.9760  15.2167
 --------------------------------------------------------------
 
          Ground-State Mulliken Net Atomic Charges

     Atom                 Charge (a.u.)
  ----------------------------------------
      1 C                    -0.070248
      2 C                    -0.258901
      3 S                    -0.134642
      4 C                    -0.045245
      5 H                     0.193539
      6 C                    -0.052009
      7 C                     0.224630
      8 C                     0.224262
      9 C                    -0.075194
     10 C                    -0.049532
     11 O                    -0.334090
     12 O                    -0.343750
     13 C                    -0.082792
     14 H                     0.120932
     15 H                     0.091997
     16 H                     0.093114
     17 C                    -0.088071
     18 H                     0.124075
     19 H                     0.092509
     20 H                     0.090112
     21 C                    -0.276771
     22 S                    -0.083884
     23 C                     0.102949
     24 H                     0.206107
     25 C                    -0.096633
     26 S                     0.069524
     27 C                    -0.188899
     28 C                     0.046227
     29 C                    -0.123304
     30 S                    -0.002449
     31 C                    -0.157978
     32 C                     0.402040
     33 F                    -0.207150
     34 C                     0.444826
     35 O                    -0.460303
     36 O                    -0.300634
     37 C                    -0.058519
     38 H                     0.121461
     39 H                     0.095084
     40 H                     0.095219
     41 H                     0.218435
     42 H                     0.117514
     43 H                     0.115335
     44 H                     0.201106
  ----------------------------------------
  Sum of atomic charges =     0.000000

 -----------------------------------------------------------------
                    Cartesian Multipole Moments
 -----------------------------------------------------------------
    Charge (ESU x 10^10)
                 0.0000
    Dipole Moment (Debye)
         X       0.2032      Y       2.3204      Z       3.4901
       Tot       4.1960
    Quadrupole Moments (Debye-Ang)
        XX    -200.1718     XY       1.9728     YY    -174.4677
        XZ       1.6427     YZ     -10.8282     ZZ    -188.3944
    Octopole Moments (Debye-Ang^2)
       XXX    -124.2611    XXY     386.6370    XYY      -6.5672
       YYY     968.1116    XXZ     189.9789    XYZ     -32.0358
       YYZ     153.8574    XZZ     -17.5534    YZZ     390.9653
       ZZZ     600.8840
    Hexadecapole Moments (Debye-Ang^3)
      XXXX   -1006.6593   XXXY    -671.9908   XXYY   -4045.6850
      XYYY    -765.9357   YYYY  -20190.8196   XXXZ     -82.3949
      XXYZ     305.2632   XYYZ     -48.0580   YYYZ     510.4826
      XXZZ   -1303.3486   XYZZ     -62.7947   YYZZ   -4142.7191
      XZZZ     -87.9082   YZZZ     518.4160   ZZZZ   -7127.9417
 -----------------------------------------------------------------
 Total job time:  371.41s(wall), 11167.69s(cpu) 
 Tue Jan  9 11:21:14 2024

        *************************************************************
        *                                                           *
        *  Thank you very much for using Q-Chem.  Have a nice day.  *
        *                                                           *
        *************************************************************


0 sent ACK to 0 
now end server 0 ... 
cleanup process ... done
remove work dirs ./qchem785472.0 -- ./qchem785472.0
rm -rf ./qchem785472.0
rm -rf ./qchem785472
