You are running Q-Chem version: 5.4.0

#
# job setting
#
local host:  exp-6-39
current dir: /home/rramji/project-csd799/aromodel/ptb7fout-qchem/hydrogenated-rotation-run
input file:  Dimethoxy_Benzodithiophene_Phi_60_Theta_10_Methylcarbonyl_3_Fluoro_Thienothiophene_Hydrogenated.qcin
output file: 
nprocs     : 1
nthreads   : 64
#
# qchem installation setting
#
QC:          /cm/shared/apps/spack/cpu/opt/spack/linux-centos8-zen2/gcc-10.2.0/qchem-5.4-akfmr7b3t57bfs6qan3padb2wnb2i7cl
QCAUX:       /cm/shared/apps/spack/cpu/opt/spack/linux-centos8-zen2/gcc-10.2.0/qchem-5.4-akfmr7b3t57bfs6qan3padb2wnb2i7cl/qcaux
QCPROG:      /cm/shared/apps/spack/cpu/opt/spack/linux-centos8-zen2/gcc-10.2.0/qchem-5.4-akfmr7b3t57bfs6qan3padb2wnb2i7cl/exe/qcprog.exe
QCPROG_S:    /cm/shared/apps/spack/cpu/opt/spack/linux-centos8-zen2/gcc-10.2.0/qchem-5.4-akfmr7b3t57bfs6qan3padb2wnb2i7cl/exe/qcprog.exe_s
PARALLEL:    -DPARALLEL
QCMPI:       mpich
#
# qchem directory setting
#
qcrun:       qchem2034380
QCSCRATCH:   .
QCLOCALSCR:  
QCTMPDIR:    .
QCFILEPREF:  ./qchem2034380
QCSAVEDIR:   
workdirs:    ./qchem2034380
workdir0:    ./qchem2034380
partmpdirs =  
#
# parallel setting
#
QCRSH:           ssh
QCMPI:           mpich
QCMPIRUN:        /cm/shared/apps/spack/cpu/opt/spack/linux-centos8-zen2/gcc-10.2.0/qchem-5.4-akfmr7b3t57bfs6qan3padb2wnb2i7cl/bin/mpi/mpirun_qchem
QCMACHINEFILE:   ./qchem2034380/hostfile
exp-6-39

#
# env setting
#
exported envs:   QC QCAUX QCSCRATCH QCRUNNAME QCFILEPREF QCPROG QCPROG_S GUIFILE

Running Job 1 of 1 Dimethoxy_Benzodithiophene_Phi_60_Theta_10_Methylcarbonyl_3_Fluoro_Thienothiophene_Hydrogenated.qcin
qchem Dimethoxy_Benzodithiophene_Phi_60_Theta_10_Methylcarbonyl_3_Fluoro_Thienothiophene_Hydrogenated.qcin_2034380.0 ./qchem2034380/ 1
/cm/shared/apps/spack/cpu/opt/spack/linux-centos8-zen2/gcc-10.2.0/qchem-5.4-akfmr7b3t57bfs6qan3padb2wnb2i7cl/bin/mpi/mpirun_qchem -machinefile ./qchem2034380/hostfile -np 1 /cm/shared/apps/spack/cpu/opt/spack/linux-centos8-zen2/gcc-10.2.0/qchem-5.4-akfmr7b3t57bfs6qan3padb2wnb2i7cl/exe/qcprog.exe Dimethoxy_Benzodithiophene_Phi_60_Theta_10_Methylcarbonyl_3_Fluoro_Thienothiophene_Hydrogenated.qcin_2034380.0 ./qchem2034380/

Process 0 of 1 is on exp-6-39 - thread support 0
initial socket setup ...start
initial socket setup ...done 
now start server 0 ... 
                  Welcome to Q-Chem
     A Quantum Leap Into The Future Of Chemistry


 Q-Chem 5.4, Q-Chem, Inc., Pleasanton, CA (2021)

 License issued to: University of California, San Diego (site)

 E. Epifanovsky,  A. T. B. Gilbert,  Xintian Feng,  Joonho Lee,  Yuezhi Mao,  
 N. Mardirossian,  P. Pokhilko,  A. White,  M. Wormit,  M. P. Coons,  
 A. L. Dempwolff,  Zhengting Gan,  D. Hait,  P. R. Horn,  L. D. Jacobson,  
 I. Kaliman,  J. Kussmann,  A. W. Lange,  Ka Un Lao,  D. S. Levine,  Jie Liu,  
 S. C. McKenzie,  A. F. Morrison,  K. Nanda,  F. Plasser,  D. R. Rehn,  
 M. L. Vidal,  Zhi-Qiang You,  Ying Zhu,  B. Alam,  B. Albrecht,  
 A. Aldossary,  E. Alguire,  J. H. Andersen,  D. Barton,  K. Begam,  A. Behn,  
 Y. A. Bernard,  E. J. Berquist,  H. Burton,  A. Carreras,  K. Carter-Fenk,  
 R. Chakraborty,  A. D. Chien,  K. D. Closser,  V. Cofer-Shabica,  
 S. Dasgupta,  Jia Deng,  M. de Wergifosse,  M. Diedenhofen,  Hainam Do,  
 S. Ehlert,  Po-Tung Fang,  S. Fatehi,  Qingguo Feng,  J. Gayvert,  
 Qinghui Ge,  G. Gidofalvi,  M. Goldey,  J. Gomes,  C. Gonzalez-Espinoza,  
 S. Gulania,  A. Gunina,  M. W. D. Hanson-Heine,  P. H. P. Harbach,  
 A. W. Hauser,  M. F. Herbst,  M. Hernandez Vera,  M. Hodecker,  
 Z. C. Holden,  S. Houck,  Xunkun Huang,  Kerwin Hui,  B. C. Huynh,  
 M. Ivanov,  Hyunjun Ji,  Hanjie Jiang,  B. Kaduk,  S. Kaehler,  
 K. Khistyaev,  Jaehoon Kim,  P. Klunzinger,  Z. Koczor-Benda,  
 Joong Hoon Koh,  D. Kosenkov,  L. Koulias,  T. Kowalczyk,  C. M. Krauter,  
 K. Kue,  A. Kunitsa,  T. Kus,  A. Landau,  K. V. Lawler,  D. Lefrancois,  
 S. Lehtola,  Rain Li,  Yi-Pei Li,  Jiashu Liang,  M. Liebenthal,  
 Hung-Hsuan Lin,  You-Sheng Lin,  Fenglai Liu,  Kuan-Yu Liu,  
 M. Loipersberger,  A. Luenser,  A. Manjanath,  P. Manohar,  E. Mansoor,  
 S. F. Manzer,  Shan-Ping Mao,  A. V. Marenich,  T. Markovich,  S. Mason,  
 S. A. Maurer,  P. F. McLaughlin,  M. F. S. J. Menger,  J.-M. Mewes,  
 S. A. Mewes,  P. Morgante,  J. W. Mullinax,  T. S. Nguyen-Beck,  
 K. J. Oosterbaan,  G. Paran,  Alexander C. Paul,  Suranjan K. Paul,  
 F. Pavosevic,  Zheng Pei,  S. Prager,  E. I. Proynov,  E. Ramos,  B. Rana,  
 A. E. Rask,  A. Rettig,  R. M. Richard,  F. Rob,  E. Rossomme,  T. Scheele,  
 M. Scheurer,  M. Schneider,  N. Sergueev,  S. M. Sharada,  W. Skomorowski,  
 D. W. Small,  C. J. Stein,  Yu-Chuan Su,  E. J. Sundstrom,  Zhen Tao,  
 J. Thirman,  T. Tsuchimochi,  N. M. Tubman,  S. P. Veccham,  O. Vydrov,  
 J. Wenzel,  J. Witte,  A. Yamada,  Kun Yao,  S. Yeganeh,  S. R. Yost,  
 A. Zech,  Igor Ying Zhang,  Xing Zhang,  Yu Zhang,  D. Zuev,  
 A. Aspuru-Guzik,  A. T. Bell,  N. A. Besley,  K. B. Bravaya,  B. R. Brooks,  
 D. Casanova,  Jeng-Da Chai,  S. Coriani,  C. J. Cramer,  
 A. E. DePrince, III,  R. A. DiStasio Jr.,  A. Dreuw,  B. D. Dunietz,  
 T. R. Furlani,  W. A. Goddard III,  S. Grimme,  S. Hammes-Schiffer,  
 T. Head-Gordon,  W. J. Hehre,  Chao-Ping Hsu,  T.-C. Jagau,  Yousung Jung,  
 A. Klamt,  Jing Kong,  D. S. Lambrecht,  WanZhen Liang,  N. J. Mayhall,  
 C. W. McCurdy,  J. B. Neaton,  C. Ochsenfeld,  J. A. Parkhill,  R. Peverati,  
 V. A. Rassolov,  Yihan Shao,  L. V. Slipchenko,  T. Stauch,  R. P. Steele,  
 J. E. Subotnik,  A. J. W. Thom,  A. Tkatchenko,  D. G. Truhlar,  
 T. Van Voorhis,  T. A. Wesolowski,  K. B. Whaley,  H. L. Woodcock III,  
 P. M. Zimmerman,  S. Faraji,  P. M. W. Gill,  M. Head-Gordon,  
 J. M. Herbert,  A. I. Krylov

 Contributors to earlier versions of Q-Chem not listed above: 
 R. D. Adamson,  B. Austin,  R. Baer,  J. Baker,  G. J. O. Beran,  
 K. Brandhorst,  S. T. Brown,  E. F. C. Byrd,  A. K. Chakraborty,  
 G. K. L. Chan,  Chun-Min Chang,  Yunqing Chen,  C.-L. Cheng,  
 Siu Hung Chien,  D. M. Chipman,  D. L. Crittenden,  H. Dachsel,  
 R. J. Doerksen,  A. D. Dutoi,  R. G. Edgar,  J. Fosso-Tande,  
 L. Fusti-Molnar,  D. Ghosh,  A. Ghysels,  A. Golubeva-Zadorozhnaya,  
 J. Gonthier,  M. S. Gordon,  S. R. Gwaltney,  G. Hawkins,  J. E. Herr,  
 A. Heyden,  S. Hirata,  E. G. Hohenstein,  G. Kedziora,  F. J. Keil,  
 C. Kelley,  Jihan Kim,  R. A. King,  R. Z. Khaliullin,  P. P. Korambath,  
 W. Kurlancheek,  A. Laurent,  A. M. Lee,  M. S. Lee,  S. V. Levchenko,  
 Ching Yeh Lin,  D. Liotard,  E. Livshits,  R. C. Lochan,  I. Lotan,  
 L. A. Martinez-Martinez,  P. E. Maslen,  N. Nair,  D. P. O'Neill,  
 D. Neuhauser,  E. Neuscamman,  C. M. Oana,  R. Olivares-Amaya,  R. Olson,  
 T. M. Perrine,  B. Peters,  P. A. Pieniazek,  A. Prociuk,  Y. M. Rhee,  
 J. Ritchie,  M. A. Rohrdanz,  E. Rosta,  N. J. Russ,  H. F. Schaefer III,  
 M. W. Schmidt,  N. E. Schultz,  S. Sharma,  N. Shenvi,  C. D. Sherrill,  
 A. C. Simmonett,  A. Sodt,  T. Stein,  D. Stuck,  K. S. Thanthiriwatte,  
 V. Vanovschi,  L. Vogt,  Tao Wang,  A. Warshel,  M. A. Watson,  
 C. F. Williams,  Q. Wu,  X. Xu,  Jun Yang,  W. Zhang,  Yan Zhao

 Please cite Q-Chem as follows:
 Y. Shao et al., Mol. Phys. 113, 184-215 (2015)
 DOI: 10.1080/00268976.2014.952696

 Q-Chem 5.4.0 for Intel X86 EM64T Linux

 Parts of Q-Chem use Armadillo 9.800.1 (Horizon Scraper).
 http://arma.sourceforge.net/

 Q-Chem begins on Tue Jan  9 09:48:11 2024  

 Host: 
0

     Scratch files written to ./qchem2034380//
 May1621 |scratch|qcdevops|jenkins|workspace|build_RNUM    
 Parallel job on  1  processors
 Processing $rem in /cm/shared/apps/spack/cpu/opt/spack/linux-centos8-zen2/gcc-10.2.0/qchem-5.4-akfmr7b3t57bfs6qan3padb2wnb2i7cl/config/preferences:
 Processing $rem in /home/rramji/.qchemrc:
 Symmetry turned off for PCM/SM12/SMD calculation
 Core orbitals will be frozen

 Checking the input file for inconsistencies... 	...done.

 Q-Chem warning in module forms1/BasisType.C, line 2236:

 You are not using the predefined 5D/6D in this basis set.


--------------------------------------------------------------
User input:
--------------------------------------------------------------
$molecule
0 1
C	-0.095966	-8.517702	0.306235
C	0.082807	-7.641575	-0.754415
S	-0.348635	-7.638634	1.833702
C	0.017401	-6.264785	-0.383675
H	0.259008	-7.966081	-1.787757
C	-0.231913	-6.072714	1.020885
C	-0.305044	-4.787049	1.579097
C	0.196549	-5.162801	-1.268082
C	0.127606	-3.874817	-0.708796
C	-0.124792	-3.683952	0.696769
O	0.397867	-5.499772	-2.572378
O	-0.506103	-4.459055	2.889532
C	-1.267335	-5.329063	3.718420
H	-1.502804	-4.755694	4.635204
H	-0.697471	-6.238095	4.010790
H	-2.215194	-5.637262	3.226506
C	0.999238	-4.572261	-3.467415
H	1.230649	-5.139743	-4.388648
H	1.940905	-4.153131	-3.052323
H	0.311543	-3.739531	-3.730819
C	-0.187323	-2.306654	1.064366
S	0.257128	-2.306501	-1.521154
C	0.000000	-1.435185	0.000000
H	-0.365903	-1.978138	2.095939
C	0.000000	0.000000	0.000000
S	0.783786	0.451972	1.507541
C	2.145261	1.238908	0.718873
C	0.783650	0.451572	-1.067872
C	1.986396	1.148648	-0.686410
S	0.574133	0.327317	-2.805516
C	2.088363	1.207943	-3.054530
C	2.700548	1.564221	-1.862551
F	3.855718	2.236706	-1.819088
C	2.477307	1.430318	-4.456084
O	1.814592	1.038482	-5.406510
O	3.643162	2.112042	-4.569225
C	4.074530	2.355061	-5.916207
H	5.024556	2.911627	-5.833064
H	3.322010	2.951860	-6.470168
H	4.229490	1.400910	-6.459293
H	2.944986	1.702260	1.306486
H	0.791346	-9.143623	0.457736
H	-0.979708	-9.149441	0.158056
H	1.064830	-1.443175	0.180205
$end

$rem
JOBTYPE		SP
EXCHANGE	HF
CORRELATION	pRIMP2
BASIS		cc-pvtz
METHOD		rimp2
AUX_BASIS	rimp2-cc-pvtz
SOLVENT_METHOD	PCM
PURECART	11111
SYMMETRY	false
MEM_TOTAL	110000
SCF_CONVERGENCE = 6
THRESH=10
GUI = 2
$end



$solvent
dielectric 4.90
$end
--------------------------------------------------------------
 ----------------------------------------------------------------
             Standard Nuclear Orientation (Angstroms)
    I     Atom           X                Y                Z
 ----------------------------------------------------------------
    1      C      -0.0959660000    -8.5177020000     0.3062350000
    2      C       0.0828070000    -7.6415750000    -0.7544150000
    3      S      -0.3486350000    -7.6386340000     1.8337020000
    4      C       0.0174010000    -6.2647850000    -0.3836750000
    5      H       0.2590080000    -7.9660810000    -1.7877570000
    6      C      -0.2319130000    -6.0727140000     1.0208850000
    7      C      -0.3050440000    -4.7870490000     1.5790970000
    8      C       0.1965490000    -5.1628010000    -1.2680820000
    9      C       0.1276060000    -3.8748170000    -0.7087960000
   10      C      -0.1247920000    -3.6839520000     0.6967690000
   11      O       0.3978670000    -5.4997720000    -2.5723780000
   12      O      -0.5061030000    -4.4590550000     2.8895320000
   13      C      -1.2673350000    -5.3290630000     3.7184200000
   14      H      -1.5028040000    -4.7556940000     4.6352040000
   15      H      -0.6974710000    -6.2380950000     4.0107900000
   16      H      -2.2151940000    -5.6372620000     3.2265060000
   17      C       0.9992380000    -4.5722610000    -3.4674150000
   18      H       1.2306490000    -5.1397430000    -4.3886480000
   19      H       1.9409050000    -4.1531310000    -3.0523230000
   20      H       0.3115430000    -3.7395310000    -3.7308190000
   21      C      -0.1873230000    -2.3066540000     1.0643660000
   22      S       0.2571280000    -2.3065010000    -1.5211540000
   23      C       0.0000000000    -1.4351850000     0.0000000000
   24      H      -0.3659030000    -1.9781380000     2.0959390000
   25      C       0.0000000000     0.0000000000     0.0000000000
   26      S       0.7837860000     0.4519720000     1.5075410000
   27      C       2.1452610000     1.2389080000     0.7188730000
   28      C       0.7836500000     0.4515720000    -1.0678720000
   29      C       1.9863960000     1.1486480000    -0.6864100000
   30      S       0.5741330000     0.3273170000    -2.8055160000
   31      C       2.0883630000     1.2079430000    -3.0545300000
   32      C       2.7005480000     1.5642210000    -1.8625510000
   33      F       3.8557180000     2.2367060000    -1.8190880000
   34      C       2.4773070000     1.4303180000    -4.4560840000
   35      O       1.8145920000     1.0384820000    -5.4065100000
   36      O       3.6431620000     2.1120420000    -4.5692250000
   37      C       4.0745300000     2.3550610000    -5.9162070000
   38      H       5.0245560000     2.9116270000    -5.8330640000
   39      H       3.3220100000     2.9518600000    -6.4701680000
   40      H       4.2294900000     1.4009100000    -6.4592930000
   41      H       2.9449860000     1.7022600000     1.3064860000
   42      H       0.7913460000    -9.1436230000     0.4577360000
   43      H      -0.9797080000    -9.1494410000     0.1580560000
   44      H       1.0648300000    -1.4431750000     0.1802050000
 ----------------------------------------------------------------
 Nuclear Repulsion Energy =        3436.93471461 hartrees
 There are      120 alpha and      120 beta electrons
 Requested basis set is cc-pVTZ
 There are 388 shells and 1096 basis functions

 Total QAlloc Memory Limit 110000 MB
 Mega-Array Size       188 MB
 MEM_STATIC part       192 MB
 Discretize the solute cavity surface with Lebedev spheres
	Using 110 Lebedev grid points for each H atom
	Using 194 Lebedev grid points for other atoms
	Atomic van der Waals radii will be scaled by 1.20
 Remove points where switching function is < 1.0e-08
 Keep 2929 surface tesserae and discard 4347 interior tesserae
 Molecular Surface Area = 431.339 Angst**2
 Requested basis set is rimp2-cc-pVTZ
 There are 853 shells and 2963 basis functions
 A cutoff of  1.0D-10 yielded  34657 shell pairs
 There are    259823 function pairs (    335447 Cartesian)
 Smallest overlap matrix eigenvalue = 2.16E-05

 Scale SEOQF with 1.000000e-01/1.000000e-02/1.000000e-02

 Standard Electronic Orientation quadrupole field applied
 Nucleus-field energy     =     0.0000000344 hartrees
 Guess from superposition of atomic densities
 Warning:  Energy on first SCF cycle will be non-variational
 SAD guess density has 240.000000 electrons

 -----------------------------------------------------------------------
  General SCF calculation program by
  Eric Jon Sundstrom, Paul Horn, Yuezhi Mao, Dmitri Zuev, Alec White,
  David Stuck, Shaama M.S., Shane Yost, Joonho Lee, David Small,
  Daniel Levine, Susi Lehtola, Hugh Burton, Evgeny Epifanovsky,
  Bang C. Huynh
 -----------------------------------------------------------------------
 Hartree-Fock
 using 64 threads for integral computing
 -------------------------------------------------------
 OpenMP Integral computing Module                
 Release: version 1.0, May 2013, Q-Chem Inc. Pittsburgh 
 -------------------------------------------------------
 A restricted SCF calculation will be
 performed using DIIS
 SCF converges when DIIS error is below 1.0e-06
 ---------------------------------------
  Cycle       Energy         DIIS error
 ---------------------------------------
    1   -2767.2523046781      1.76e-02  
    2   -2754.8095122165      1.53e-03  
    3   -2755.1601021597      8.53e-04  
    4   -2755.2472225731      2.57e-04  
    5   -2755.2613749150      7.37e-05  
    6   -2755.2630246322      2.71e-05  
    7   -2755.2634791245      1.36e-05  
    8   -2755.2636173501      5.50e-06  
    9   -2755.2636438785      2.56e-06  
   10   -2755.2636496258      1.46e-06  
   11   -2755.2636515170      7.02e-07  Convergence criterion met
 ---------------------------------------
 SCF time:   CPU 7852.86s  wall 282.00s 

************** Final PCM Free Energy Summary **************
 G_electrostatic  =      -0.02129644 hartree =     -13.36371479 kcal/mol
 G_cavitation     =       0.00000000 hartree =       0.00000000 kcal/mol
 G_dispersion     =       0.00000000 hartree =       0.00000000 kcal/mol
 G_repulsion      =       0.00000000 hartree =       0.00000000 kcal/mol
 --------------------------------------------------
 Non-electrostatic Free Energy =       0.00000000 hartree =       0.00000000 kcal/mol
 Total                         =      -0.02129644 hartree =     -13.36371479 kcal/mol
 --------------------------------------------------
 SCF Energy (H0 + V/2)                       =   -2755.26365152 
 Solute Internal Energy (H0)                 =   -2755.24235508 
 Total Free Energy (H0 + V/2 + non-elec)     =   -2755.26365152 hartree
                                             = -1728954.03642898 kcal/mol
***********************************************************

 SCF   energy in the final basis set =    -2755.2636515170
 Total energy in the final basis set =    -2755.2636515170


 --------------------------------------------------------------
  Generalized many-body perturbation theory program
  by Joonho Lee, Fazle Rob, Xintian Feng, Evgeny Epifanovsky

 No regularization used 
 (reg. param. = 0.0000e+00)
  (P|Q)^-1/2 Time:  CPU 138.48 s  wall 2.35 s

 In RI-MP2 calculation: 
 # of frozen core orbitals: 45

 Components of the RIMP2 correlation energy:
        aaaa    correlation energy =        -0.6739145559 a.u.
        abab    correlation energy =        -3.7647017334 a.u.
        bbbb    correlation energy =        -0.6739145559 a.u.
        non-Brillouin singles      =        -0.0000000000 a.u.
        total same-spin energy     =        -1.3478291117 a.u.
        total opposite-spin energy =        -3.7647017334 a.u.

 Total  RIMP2   correlation energy =        -5.1125308451 a.u.
        RIMP2         total energy =     -2760.3761823622 a.u.

 RI-MP2 Energy Time:  CPU 2991.73 s  wall 48.72 s
 
 --------------------------------------------------------------
 
                    Orbital Energies (a.u.)
 --------------------------------------------------------------
 
 Alpha MOs
 -- Occupied --
-92.0085 -92.0038 -91.9712 -91.9576 -26.3452 -20.6161 -20.5866 -20.5859
-20.5627 -11.4111 -11.3849 -11.3290 -11.3100 -11.3078 -11.3064 -11.2995
-11.2897 -11.2897 -11.2830 -11.2826 -11.2826 -11.2780 -11.2775 -11.2716
-11.2663 -11.2573 -11.2551 -11.2494 -11.2367  -9.0090  -9.0040  -8.9742
 -8.9603  -6.6896  -6.6887  -6.6885  -6.6849  -6.6841  -6.6831  -6.6550
 -6.6543  -6.6528  -6.6415  -6.6406  -6.6395  -1.6624  -1.4686  -1.4094
 -1.4082  -1.3713  -1.2460  -1.1989  -1.1738  -1.1422  -1.0987  -1.0510
 -1.0438  -1.0298  -1.0013  -0.9940  -0.9675  -0.9552  -0.9499  -0.9423
 -0.8924  -0.8726  -0.8567  -0.8209  -0.7946  -0.7872  -0.7808  -0.7680
 -0.7574  -0.7380  -0.7273  -0.7148  -0.6972  -0.6950  -0.6860  -0.6821
 -0.6751  -0.6674  -0.6547  -0.6478  -0.6365  -0.6312  -0.6196  -0.6149
 -0.6101  -0.6030  -0.5921  -0.5798  -0.5704  -0.5682  -0.5589  -0.5551
 -0.5423  -0.5335  -0.5307  -0.5252  -0.5158  -0.5117  -0.5069  -0.4998
 -0.4844  -0.4826  -0.4781  -0.4736  -0.4688  -0.4612  -0.4529  -0.4452
 -0.4272  -0.3909  -0.3792  -0.3682  -0.3528  -0.3049  -0.2854  -0.2147
 -- Virtual --
  0.0179   0.0575   0.0788   0.1302   0.1416   0.1460   0.1528   0.1546
  0.1561   0.1581   0.1672   0.1768   0.1816   0.1843   0.1881   0.1910
  0.1987   0.2020   0.2051   0.2143   0.2149   0.2206   0.2252   0.2262
  0.2295   0.2360   0.2419   0.2468   0.2555   0.2596   0.2638   0.2742
  0.2805   0.2985   0.3075   0.3145   0.3242   0.3321   0.3379   0.3427
  0.3463   0.3574   0.3586   0.3630   0.3698   0.3794   0.3835   0.3837
  0.3861   0.3926   0.3997   0.3999   0.4051   0.4105   0.4174   0.4241
  0.4278   0.4287   0.4364   0.4377   0.4406   0.4417   0.4457   0.4508
  0.4574   0.4608   0.4649   0.4693   0.4717   0.4760   0.4847   0.4854
  0.4912   0.4941   0.4970   0.4998   0.5054   0.5119   0.5137   0.5168
  0.5227   0.5267   0.5325   0.5336   0.5364   0.5415   0.5446   0.5481
  0.5493   0.5549   0.5556   0.5588   0.5674   0.5746   0.5748   0.5849
  0.5899   0.5922   0.5952   0.5979   0.6005   0.6042   0.6084   0.6119
  0.6151   0.6174   0.6201   0.6218   0.6262   0.6271   0.6327   0.6366
  0.6392   0.6427   0.6457   0.6466   0.6515   0.6534   0.6585   0.6617
  0.6657   0.6693   0.6778   0.6809   0.6864   0.6896   0.6957   0.7028
  0.7052   0.7136   0.7153   0.7178   0.7183   0.7213   0.7331   0.7398
  0.7427   0.7481   0.7545   0.7583   0.7614   0.7755   0.7826   0.7874
  0.7922   0.7964   0.7992   0.8084   0.8114   0.8189   0.8238   0.8267
  0.8290   0.8330   0.8442   0.8486   0.8597   0.8628   0.8661   0.8795
  0.8866   0.8877   0.8909   0.8944   0.9024   0.9070   0.9137   0.9189
  0.9220   0.9262   0.9300   0.9416   0.9450   0.9505   0.9557   0.9590
  0.9625   0.9659   0.9663   0.9761   0.9838   0.9849   0.9887   0.9940
  0.9957   1.0036   1.0064   1.0152   1.0220   1.0233   1.0286   1.0376
  1.0404   1.0444   1.0509   1.0521   1.0555   1.0580   1.0645   1.0739
  1.0753   1.0794   1.0870   1.0884   1.0961   1.1046   1.1068   1.1079
  1.1104   1.1179   1.1196   1.1278   1.1326   1.1379   1.1468   1.1538
  1.1564   1.1637   1.1647   1.1681   1.1782   1.1791   1.1811   1.1867
  1.1895   1.1937   1.1968   1.1990   1.2031   1.2077   1.2115   1.2227
  1.2245   1.2291   1.2343   1.2413   1.2439   1.2498   1.2524   1.2582
  1.2609   1.2676   1.2726   1.2749   1.2783   1.2854   1.2917   1.2960
  1.2998   1.3042   1.3133   1.3147   1.3250   1.3342   1.3396   1.3427
  1.3490   1.3560   1.3614   1.3724   1.3777   1.3878   1.3913   1.4060
  1.4077   1.4121   1.4194   1.4230   1.4352   1.4363   1.4442   1.4564
  1.4636   1.4715   1.4765   1.4815   1.4862   1.4945   1.4962   1.5028
  1.5047   1.5094   1.5113   1.5155   1.5243   1.5291   1.5356   1.5381
  1.5423   1.5453   1.5477   1.5585   1.5659   1.5702   1.5753   1.5807
  1.5853   1.5923   1.6009   1.6035   1.6164   1.6270   1.6310   1.6366
  1.6432   1.6483   1.6498   1.6573   1.6638   1.6689   1.6759   1.6863
  1.6920   1.6998   1.7044   1.7155   1.7172   1.7281   1.7347   1.7386
  1.7536   1.7598   1.7627   1.7667   1.7818   1.7945   1.8036   1.8091
  1.8162   1.8200   1.8314   1.8418   1.8486   1.8627   1.8650   1.8713
  1.8842   1.8928   1.8984   1.9034   1.9088   1.9352   1.9402   1.9449
  1.9466   1.9577   1.9679   1.9721   1.9883   1.9931   1.9998   2.0042
  2.0138   2.0191   2.0257   2.0316   2.0398   2.0482   2.0575   2.0648
  2.0682   2.0753   2.0833   2.0951   2.0981   2.1123   2.1185   2.1306
  2.1389   2.1460   2.1611   2.1674   2.1748   2.1798   2.1881   2.1890
  2.1945   2.2107   2.2224   2.2262   2.2304   2.2369   2.2395   2.2494
  2.2534   2.2640   2.2700   2.2739   2.2826   2.2867   2.2922   2.3041
  2.3146   2.3219   2.3276   2.3328   2.3415   2.3490   2.3601   2.3688
  2.3749   2.3878   2.3936   2.4006   2.4075   2.4161   2.4241   2.4304
  2.4364   2.4454   2.4467   2.4599   2.4704   2.4804   2.4870   2.4932
  2.5003   2.5154   2.5194   2.5246   2.5323   2.5441   2.5527   2.5556
  2.5648   2.5738   2.5993   2.6048   2.6101   2.6156   2.6245   2.6262
  2.6330   2.6410   2.6425   2.6454   2.6498   2.6557   2.6583   2.6750
  2.6800   2.6892   2.6922   2.6958   2.7059   2.7076   2.7123   2.7175
  2.7261   2.7361   2.7457   2.7523   2.7531   2.7620   2.7663   2.7707
  2.7802   2.7886   2.7939   2.8026   2.8118   2.8163   2.8214   2.8268
  2.8410   2.8456   2.8503   2.8537   2.8625   2.8694   2.8778   2.8795
  2.8844   2.8897   2.8958   2.9066   2.9118   2.9295   2.9458   2.9483
  2.9548   2.9591   2.9605   2.9739   2.9775   2.9855   2.9858   2.9944
  3.0050   3.0108   3.0177   3.0231   3.0268   3.0334   3.0425   3.0459
  3.0526   3.0669   3.0692   3.0763   3.0826   3.0957   3.0995   3.1015
  3.1067   3.1119   3.1150   3.1224   3.1248   3.1380   3.1403   3.1451
  3.1479   3.1500   3.1590   3.1655   3.1693   3.1718   3.1778   3.1864
  3.1901   3.1952   3.2058   3.2135   3.2147   3.2184   3.2202   3.2271
  3.2320   3.2422   3.2432   3.2469   3.2499   3.2526   3.2642   3.2666
  3.2674   3.2728   3.2815   3.2866   3.2916   3.2929   3.3025   3.3068
  3.3086   3.3160   3.3166   3.3242   3.3318   3.3416   3.3431   3.3470
  3.3504   3.3533   3.3557   3.3615   3.3652   3.3693   3.3727   3.3757
  3.3812   3.3852   3.3900   3.3990   3.4014   3.4036   3.4073   3.4116
  3.4143   3.4199   3.4233   3.4271   3.4319   3.4364   3.4412   3.4504
  3.4543   3.4562   3.4576   3.4654   3.4721   3.4754   3.4788   3.4814
  3.4906   3.4952   3.4993   3.5023   3.5125   3.5250   3.5292   3.5333
  3.5400   3.5461   3.5545   3.5578   3.5620   3.5679   3.5707   3.5845
  3.5881   3.5935   3.5966   3.5989   3.6015   3.6048   3.6087   3.6173
  3.6249   3.6261   3.6345   3.6367   3.6427   3.6449   3.6492   3.6594
  3.6633   3.6689   3.6775   3.6811   3.6837   3.6856   3.6989   3.7024
  3.7050   3.7076   3.7140   3.7201   3.7259   3.7300   3.7350   3.7434
  3.7469   3.7534   3.7574   3.7626   3.7708   3.7774   3.7814   3.7867
  3.7890   3.7934   3.7998   3.8047   3.8061   3.8095   3.8142   3.8174
  3.8186   3.8317   3.8443   3.8486   3.8522   3.8599   3.8623   3.8635
  3.8708   3.8816   3.8849   3.8887   3.8920   3.8962   3.9084   3.9121
  3.9214   3.9277   3.9338   3.9443   3.9454   3.9485   3.9584   3.9672
  3.9737   3.9870   3.9883   3.9930   3.9983   4.0063   4.0169   4.0299
  4.0326   4.0366   4.0464   4.0588   4.0659   4.0673   4.0693   4.0756
  4.0776   4.0889   4.0997   4.1041   4.1161   4.1260   4.1344   4.1388
  4.1444   4.1511   4.1566   4.1619   4.1658   4.1664   4.1669   4.1768
  4.1801   4.1918   4.1990   4.2032   4.2138   4.2181   4.2293   4.2396
  4.2482   4.2499   4.2629   4.2660   4.2753   4.2872   4.2991   4.3153
  4.3293   4.3366   4.3411   4.3433   4.3507   4.3580   4.3602   4.3634
  4.3700   4.3782   4.3889   4.3984   4.4066   4.4132   4.4178   4.4220
  4.4237   4.4256   4.4317   4.4371   4.4456   4.4521   4.4571   4.4603
  4.4709   4.4826   4.4895   4.5046   4.5149   4.5193   4.5315   4.5333
  4.5441   4.5540   4.5606   4.5699   4.5761   4.5778   4.5834   4.5918
  4.6083   4.6095   4.6177   4.6248   4.6434   4.6469   4.6539   4.6564
  4.6612   4.6729   4.6770   4.6905   4.7007   4.7119   4.7302   4.7335
  4.7517   4.7615   4.7664   4.7716   4.7792   4.7944   4.8042   4.8199
  4.8206   4.8310   4.8440   4.8541   4.8569   4.8750   4.8862   4.8930
  4.9058   4.9225   4.9344   4.9466   4.9572   4.9602   4.9682   4.9769
  4.9870   5.0049   5.0081   5.0164   5.0177   5.0387   5.0455   5.0561
  5.0685   5.0873   5.0954   5.1141   5.1270   5.1482   5.1615   5.1699
  5.1826   5.1946   5.1986   5.2146   5.2248   5.2312   5.2415   5.2530
  5.2563   5.2581   5.2751   5.2936   5.2979   5.3086   5.3165   5.3290
  5.3388   5.3510   5.3541   5.3632   5.3717   5.3870   5.3957   5.4038
  5.4092   5.4253   5.4316   5.4390   5.4436   5.4636   5.4844   5.5038
  5.5135   5.5160   5.5212   5.5346   5.5655   5.5691   5.5794   5.5847
  5.5960   5.6116   5.6205   5.6406   5.6573   5.6599   5.6770   5.6921
  5.7116   5.7244   5.7499   5.7560   5.7673   5.8064   5.8135   5.8442
  5.8603   5.8798   5.8999   5.9164   5.9280   5.9544   5.9855   6.0220
  6.0394   6.0441   6.0512   6.1346   6.1495   6.1617   6.1753   6.1772
  6.1819   6.2022   6.2309   6.2513   6.2602   6.2619   6.2696   6.2861
  6.2910   6.3059   6.3618   6.3891   6.4473   6.4489   6.5124   6.5402
  6.5496   6.5743   6.6000   6.6496   6.6639   6.6700   6.7156   6.7462
  6.8105   6.8300   6.8577   6.8600   6.9024   6.9772   7.1345   7.1479
  7.2028   7.2038   7.2243   7.2409   7.3091   7.3286   7.3425   7.3614
  7.3620   7.4044   7.4122   7.4838   7.4888   7.4979   7.5171   7.5495
  7.6148   7.7433   7.7712   7.7886   7.8041   7.8964   7.9284   7.9565
  7.9711   8.1320   8.2600   8.4570   8.9205   9.0307   9.3617   9.4852
  9.6705  10.2610  11.2371  11.4513  11.7723  12.0597  12.1254  12.3845
 12.4507  12.5086  12.9659  12.9921  13.0255  13.3826  13.4097  13.5106
 13.7781  13.8669  13.9283  14.0004  14.0843  14.3237  14.9701  15.2343
 --------------------------------------------------------------
 
          Ground-State Mulliken Net Atomic Charges

     Atom                 Charge (a.u.)
  ----------------------------------------
      1 C                    -0.070353
      2 C                    -0.258992
      3 S                    -0.137290
      4 C                    -0.047628
      5 H                     0.193552
      6 C                    -0.051255
      7 C                     0.219267
      8 C                     0.226355
      9 C                    -0.068383
     10 C                    -0.034983
     11 O                    -0.335019
     12 O                    -0.343711
     13 C                    -0.082926
     14 H                     0.119537
     15 H                     0.091824
     16 H                     0.092943
     17 C                    -0.087627
     18 H                     0.123599
     19 H                     0.091102
     20 H                     0.092100
     21 C                    -0.304188
     22 S                    -0.103350
     23 C                     0.107115
     24 H                     0.196958
     25 C                    -0.132101
     26 S                     0.079798
     27 C                    -0.142060
     28 C                     0.028599
     29 C                    -0.105882
     30 S                     0.049558
     31 C                    -0.152137
     32 C                     0.393499
     33 F                    -0.205978
     34 C                     0.448144
     35 O                    -0.460673
     36 O                    -0.300678
     37 C                    -0.058284
     38 H                     0.121687
     39 H                     0.095478
     40 H                     0.095143
     41 H                     0.220352
     42 H                     0.117255
     43 H                     0.115023
     44 H                     0.164610
  ----------------------------------------
  Sum of atomic charges =     0.000000

 -----------------------------------------------------------------
                    Cartesian Multipole Moments
 -----------------------------------------------------------------
    Charge (ESU x 10^10)
                -0.0000
    Dipole Moment (Debye)
         X       3.8255      Y       1.9707      Z       2.2785
       Tot       4.8693
    Quadrupole Moments (Debye-Ang)
        XX    -184.5034     XY       7.3108     YY    -187.4262
        XZ     -14.4580     YZ       0.5884     ZZ    -190.2152
    Octopole Moments (Debye-Ang^2)
       XXX    -422.3301    XXY     476.3960    XYY    -141.4666
       YYY    1204.1811    XXZ     111.3985    XYZ      10.8351
       YYZ     107.8285    XZZ     -76.7619    YZZ     455.8305
       ZZZ     495.2414
    Hexadecapole Moments (Debye-Ang^3)
      XXXX   -2879.9612   XXXY    -835.9714   XXYY   -3854.4171
      XYYY    -901.7625   YYYY  -18126.9704   XXXZ    1447.8309
      XXYZ     314.5598   XYYZ     306.3608   YYYZ    1580.7212
      XXZZ   -1284.9811   XYZZ     -13.7182   YYZZ   -4342.2143
      XZZZ    1060.1848   YZZZ    1068.2649   ZZZZ   -7440.9062
 -----------------------------------------------------------------
 Total job time:  336.21s(wall), 10972.55s(cpu) 
 Tue Jan  9 09:53:47 2024

        *************************************************************
        *                                                           *
        *  Thank you very much for using Q-Chem.  Have a nice day.  *
        *                                                           *
        *************************************************************


0 sent ACK to 0 
now end server 0 ... 
cleanup process ... done
remove work dirs ./qchem2034380.0 -- ./qchem2034380.0
rm -rf ./qchem2034380.0
rm -rf ./qchem2034380
