You are running Q-Chem version: 5.4.0

#
# job setting
#
local host:  exp-3-50
current dir: /home/rramji/project-csd799/aromodel/ptb7fout-qchem/hydrogenated-rotation-run
input file:  Dimethoxy_Benzodithiophene_Phi_10_Theta_260_Methylcarbonyl_3_Fluoro_Thienothiophene_Hydrogenated.qcin
output file: 
nprocs     : 1
nthreads   : 64
#
# qchem installation setting
#
QC:          /cm/shared/apps/spack/cpu/opt/spack/linux-centos8-zen2/gcc-10.2.0/qchem-5.4-akfmr7b3t57bfs6qan3padb2wnb2i7cl
QCAUX:       /cm/shared/apps/spack/cpu/opt/spack/linux-centos8-zen2/gcc-10.2.0/qchem-5.4-akfmr7b3t57bfs6qan3padb2wnb2i7cl/qcaux
QCPROG:      /cm/shared/apps/spack/cpu/opt/spack/linux-centos8-zen2/gcc-10.2.0/qchem-5.4-akfmr7b3t57bfs6qan3padb2wnb2i7cl/exe/qcprog.exe
QCPROG_S:    /cm/shared/apps/spack/cpu/opt/spack/linux-centos8-zen2/gcc-10.2.0/qchem-5.4-akfmr7b3t57bfs6qan3padb2wnb2i7cl/exe/qcprog.exe_s
PARALLEL:    -DPARALLEL
QCMPI:       mpich
#
# qchem directory setting
#
qcrun:       qchem1311532
QCSCRATCH:   .
QCLOCALSCR:  
QCTMPDIR:    .
QCFILEPREF:  ./qchem1311532
QCSAVEDIR:   
workdirs:    ./qchem1311532
workdir0:    ./qchem1311532
partmpdirs =  
#
# parallel setting
#
QCRSH:           ssh
QCMPI:           mpich
QCMPIRUN:        /cm/shared/apps/spack/cpu/opt/spack/linux-centos8-zen2/gcc-10.2.0/qchem-5.4-akfmr7b3t57bfs6qan3padb2wnb2i7cl/bin/mpi/mpirun_qchem
QCMACHINEFILE:   ./qchem1311532/hostfile
exp-3-50

#
# env setting
#
exported envs:   QC QCAUX QCSCRATCH QCRUNNAME QCFILEPREF QCPROG QCPROG_S GUIFILE

Running Job 1 of 1 Dimethoxy_Benzodithiophene_Phi_10_Theta_260_Methylcarbonyl_3_Fluoro_Thienothiophene_Hydrogenated.qcin
qchem Dimethoxy_Benzodithiophene_Phi_10_Theta_260_Methylcarbonyl_3_Fluoro_Thienothiophene_Hydrogenated.qcin_1311532.0 ./qchem1311532/ 1
/cm/shared/apps/spack/cpu/opt/spack/linux-centos8-zen2/gcc-10.2.0/qchem-5.4-akfmr7b3t57bfs6qan3padb2wnb2i7cl/bin/mpi/mpirun_qchem -machinefile ./qchem1311532/hostfile -np 1 /cm/shared/apps/spack/cpu/opt/spack/linux-centos8-zen2/gcc-10.2.0/qchem-5.4-akfmr7b3t57bfs6qan3padb2wnb2i7cl/exe/qcprog.exe Dimethoxy_Benzodithiophene_Phi_10_Theta_260_Methylcarbonyl_3_Fluoro_Thienothiophene_Hydrogenated.qcin_1311532.0 ./qchem1311532/

Process 0 of 1 is on exp-3-50 - thread support 0
initial socket setup ...start
initial socket setup ...done 
now start server 0 ... 
                  Welcome to Q-Chem
     A Quantum Leap Into The Future Of Chemistry


 Q-Chem 5.4, Q-Chem, Inc., Pleasanton, CA (2021)

 License issued to: University of California, San Diego (site)

 E. Epifanovsky,  A. T. B. Gilbert,  Xintian Feng,  Joonho Lee,  Yuezhi Mao,  
 N. Mardirossian,  P. Pokhilko,  A. White,  M. Wormit,  M. P. Coons,  
 A. L. Dempwolff,  Zhengting Gan,  D. Hait,  P. R. Horn,  L. D. Jacobson,  
 I. Kaliman,  J. Kussmann,  A. W. Lange,  Ka Un Lao,  D. S. Levine,  Jie Liu,  
 S. C. McKenzie,  A. F. Morrison,  K. Nanda,  F. Plasser,  D. R. Rehn,  
 M. L. Vidal,  Zhi-Qiang You,  Ying Zhu,  B. Alam,  B. Albrecht,  
 A. Aldossary,  E. Alguire,  J. H. Andersen,  D. Barton,  K. Begam,  A. Behn,  
 Y. A. Bernard,  E. J. Berquist,  H. Burton,  A. Carreras,  K. Carter-Fenk,  
 R. Chakraborty,  A. D. Chien,  K. D. Closser,  V. Cofer-Shabica,  
 S. Dasgupta,  Jia Deng,  M. de Wergifosse,  M. Diedenhofen,  Hainam Do,  
 S. Ehlert,  Po-Tung Fang,  S. Fatehi,  Qingguo Feng,  J. Gayvert,  
 Qinghui Ge,  G. Gidofalvi,  M. Goldey,  J. Gomes,  C. Gonzalez-Espinoza,  
 S. Gulania,  A. Gunina,  M. W. D. Hanson-Heine,  P. H. P. Harbach,  
 A. W. Hauser,  M. F. Herbst,  M. Hernandez Vera,  M. Hodecker,  
 Z. C. Holden,  S. Houck,  Xunkun Huang,  Kerwin Hui,  B. C. Huynh,  
 M. Ivanov,  Hyunjun Ji,  Hanjie Jiang,  B. Kaduk,  S. Kaehler,  
 K. Khistyaev,  Jaehoon Kim,  P. Klunzinger,  Z. Koczor-Benda,  
 Joong Hoon Koh,  D. Kosenkov,  L. Koulias,  T. Kowalczyk,  C. M. Krauter,  
 K. Kue,  A. Kunitsa,  T. Kus,  A. Landau,  K. V. Lawler,  D. Lefrancois,  
 S. Lehtola,  Rain Li,  Yi-Pei Li,  Jiashu Liang,  M. Liebenthal,  
 Hung-Hsuan Lin,  You-Sheng Lin,  Fenglai Liu,  Kuan-Yu Liu,  
 M. Loipersberger,  A. Luenser,  A. Manjanath,  P. Manohar,  E. Mansoor,  
 S. F. Manzer,  Shan-Ping Mao,  A. V. Marenich,  T. Markovich,  S. Mason,  
 S. A. Maurer,  P. F. McLaughlin,  M. F. S. J. Menger,  J.-M. Mewes,  
 S. A. Mewes,  P. Morgante,  J. W. Mullinax,  T. S. Nguyen-Beck,  
 K. J. Oosterbaan,  G. Paran,  Alexander C. Paul,  Suranjan K. Paul,  
 F. Pavosevic,  Zheng Pei,  S. Prager,  E. I. Proynov,  E. Ramos,  B. Rana,  
 A. E. Rask,  A. Rettig,  R. M. Richard,  F. Rob,  E. Rossomme,  T. Scheele,  
 M. Scheurer,  M. Schneider,  N. Sergueev,  S. M. Sharada,  W. Skomorowski,  
 D. W. Small,  C. J. Stein,  Yu-Chuan Su,  E. J. Sundstrom,  Zhen Tao,  
 J. Thirman,  T. Tsuchimochi,  N. M. Tubman,  S. P. Veccham,  O. Vydrov,  
 J. Wenzel,  J. Witte,  A. Yamada,  Kun Yao,  S. Yeganeh,  S. R. Yost,  
 A. Zech,  Igor Ying Zhang,  Xing Zhang,  Yu Zhang,  D. Zuev,  
 A. Aspuru-Guzik,  A. T. Bell,  N. A. Besley,  K. B. Bravaya,  B. R. Brooks,  
 D. Casanova,  Jeng-Da Chai,  S. Coriani,  C. J. Cramer,  
 A. E. DePrince, III,  R. A. DiStasio Jr.,  A. Dreuw,  B. D. Dunietz,  
 T. R. Furlani,  W. A. Goddard III,  S. Grimme,  S. Hammes-Schiffer,  
 T. Head-Gordon,  W. J. Hehre,  Chao-Ping Hsu,  T.-C. Jagau,  Yousung Jung,  
 A. Klamt,  Jing Kong,  D. S. Lambrecht,  WanZhen Liang,  N. J. Mayhall,  
 C. W. McCurdy,  J. B. Neaton,  C. Ochsenfeld,  J. A. Parkhill,  R. Peverati,  
 V. A. Rassolov,  Yihan Shao,  L. V. Slipchenko,  T. Stauch,  R. P. Steele,  
 J. E. Subotnik,  A. J. W. Thom,  A. Tkatchenko,  D. G. Truhlar,  
 T. Van Voorhis,  T. A. Wesolowski,  K. B. Whaley,  H. L. Woodcock III,  
 P. M. Zimmerman,  S. Faraji,  P. M. W. Gill,  M. Head-Gordon,  
 J. M. Herbert,  A. I. Krylov

 Contributors to earlier versions of Q-Chem not listed above: 
 R. D. Adamson,  B. Austin,  R. Baer,  J. Baker,  G. J. O. Beran,  
 K. Brandhorst,  S. T. Brown,  E. F. C. Byrd,  A. K. Chakraborty,  
 G. K. L. Chan,  Chun-Min Chang,  Yunqing Chen,  C.-L. Cheng,  
 Siu Hung Chien,  D. M. Chipman,  D. L. Crittenden,  H. Dachsel,  
 R. J. Doerksen,  A. D. Dutoi,  R. G. Edgar,  J. Fosso-Tande,  
 L. Fusti-Molnar,  D. Ghosh,  A. Ghysels,  A. Golubeva-Zadorozhnaya,  
 J. Gonthier,  M. S. Gordon,  S. R. Gwaltney,  G. Hawkins,  J. E. Herr,  
 A. Heyden,  S. Hirata,  E. G. Hohenstein,  G. Kedziora,  F. J. Keil,  
 C. Kelley,  Jihan Kim,  R. A. King,  R. Z. Khaliullin,  P. P. Korambath,  
 W. Kurlancheek,  A. Laurent,  A. M. Lee,  M. S. Lee,  S. V. Levchenko,  
 Ching Yeh Lin,  D. Liotard,  E. Livshits,  R. C. Lochan,  I. Lotan,  
 L. A. Martinez-Martinez,  P. E. Maslen,  N. Nair,  D. P. O'Neill,  
 D. Neuhauser,  E. Neuscamman,  C. M. Oana,  R. Olivares-Amaya,  R. Olson,  
 T. M. Perrine,  B. Peters,  P. A. Pieniazek,  A. Prociuk,  Y. M. Rhee,  
 J. Ritchie,  M. A. Rohrdanz,  E. Rosta,  N. J. Russ,  H. F. Schaefer III,  
 M. W. Schmidt,  N. E. Schultz,  S. Sharma,  N. Shenvi,  C. D. Sherrill,  
 A. C. Simmonett,  A. Sodt,  T. Stein,  D. Stuck,  K. S. Thanthiriwatte,  
 V. Vanovschi,  L. Vogt,  Tao Wang,  A. Warshel,  M. A. Watson,  
 C. F. Williams,  Q. Wu,  X. Xu,  Jun Yang,  W. Zhang,  Yan Zhao

 Please cite Q-Chem as follows:
 Y. Shao et al., Mol. Phys. 113, 184-215 (2015)
 DOI: 10.1080/00268976.2014.952696

 Q-Chem 5.4.0 for Intel X86 EM64T Linux

 Parts of Q-Chem use Armadillo 9.800.1 (Horizon Scraper).
 http://arma.sourceforge.net/

 Q-Chem begins on Tue Jan  9 12:25:26 2024  

 Host: 
0

     Scratch files written to ./qchem1311532//
 May1621 |scratch|qcdevops|jenkins|workspace|build_RNUM    
 Parallel job on  1  processors
 Processing $rem in /cm/shared/apps/spack/cpu/opt/spack/linux-centos8-zen2/gcc-10.2.0/qchem-5.4-akfmr7b3t57bfs6qan3padb2wnb2i7cl/config/preferences:
 Processing $rem in /home/rramji/.qchemrc:
 Symmetry turned off for PCM/SM12/SMD calculation
 Core orbitals will be frozen

 Checking the input file for inconsistencies... 	...done.

 Q-Chem warning in module forms1/BasisType.C, line 2236:

 You are not using the predefined 5D/6D in this basis set.


--------------------------------------------------------------
User input:
--------------------------------------------------------------
$molecule
0 1
C	0.320589	-8.517702	-0.014560
C	-0.737240	-7.641575	0.180211
S	1.842356	-7.638634	-0.299553
C	-0.366488	-6.264785	0.114873
H	-1.768528	-7.966081	0.368061
C	1.038637	-6.072714	-0.131236
C	1.588197	-4.787049	-0.253435
C	-1.258831	-5.162801	0.249014
C	-0.709695	-3.874817	0.122513
C	0.697430	-3.683952	-0.121043
O	-2.553323	-5.499772	0.505933
O	2.888369	-4.459055	-0.512697
C	3.927625	-5.329063	-0.080869
H	4.869656	-4.755694	-0.173159
H	4.007459	-6.238095	-0.716363
H	3.789565	-5.637262	0.978072
C	-3.600064	-4.572261	0.246949
H	-4.544887	-5.139743	0.344574
H	-3.532074	-4.153131	-0.779898
H	-3.612378	-3.739531	0.983261
C	1.064246	-2.306654	-0.188009
S	-1.517360	-2.306501	0.278644
C	-0.000000	-1.435185	-0.000000
H	2.094685	-1.978138	-0.373017
C	0.000000	0.000000	0.000000
S	0.157577	0.890937	1.507541
C	0.429889	2.439720	0.718873
C	0.157797	0.890576	-1.067872
C	0.396915	2.260004	-0.686410
S	0.118307	0.650207	-2.805516
C	0.417036	2.376229	-3.054530
C	0.537616	3.074202	-1.862551
F	0.764992	4.391378	-1.819088
C	0.496696	2.817118	-4.456084
O	0.370874	2.057582	-5.406510
O	0.723861	4.148418	-4.569225
C	0.814976	4.635075	-5.916207
H	0.999286	5.720591	-5.833064
H	-0.125909	4.442226	-6.470168
H	1.645504	4.140465	-6.459293
H	0.588993	3.350182	1.306486
H	0.159475	-9.143623	-0.900177
H	0.483604	-9.149441	0.866566
H	-0.194856	-1.443175	-1.062246
$end

$rem
JOBTYPE		SP
EXCHANGE	HF
CORRELATION	pRIMP2
BASIS		cc-pvtz
METHOD		rimp2
AUX_BASIS	rimp2-cc-pvtz
SOLVENT_METHOD	PCM
PURECART	11111
SYMMETRY	false
MEM_TOTAL	110000
SCF_CONVERGENCE = 6
THRESH=10
GUI = 2
$end



$solvent
dielectric 4.90
$end
--------------------------------------------------------------
 ----------------------------------------------------------------
             Standard Nuclear Orientation (Angstroms)
    I     Atom           X                Y                Z
 ----------------------------------------------------------------
    1      C       0.3205890000    -8.5177020000    -0.0145600000
    2      C      -0.7372400000    -7.6415750000     0.1802110000
    3      S       1.8423560000    -7.6386340000    -0.2995530000
    4      C      -0.3664880000    -6.2647850000     0.1148730000
    5      H      -1.7685280000    -7.9660810000     0.3680610000
    6      C       1.0386370000    -6.0727140000    -0.1312360000
    7      C       1.5881970000    -4.7870490000    -0.2534350000
    8      C      -1.2588310000    -5.1628010000     0.2490140000
    9      C      -0.7096950000    -3.8748170000     0.1225130000
   10      C       0.6974300000    -3.6839520000    -0.1210430000
   11      O      -2.5533230000    -5.4997720000     0.5059330000
   12      O       2.8883690000    -4.4590550000    -0.5126970000
   13      C       3.9276250000    -5.3290630000    -0.0808690000
   14      H       4.8696560000    -4.7556940000    -0.1731590000
   15      H       4.0074590000    -6.2380950000    -0.7163630000
   16      H       3.7895650000    -5.6372620000     0.9780720000
   17      C      -3.6000640000    -4.5722610000     0.2469490000
   18      H      -4.5448870000    -5.1397430000     0.3445740000
   19      H      -3.5320740000    -4.1531310000    -0.7798980000
   20      H      -3.6123780000    -3.7395310000     0.9832610000
   21      C       1.0642460000    -2.3066540000    -0.1880090000
   22      S      -1.5173600000    -2.3065010000     0.2786440000
   23      C       0.0000000000    -1.4351850000     0.0000000000
   24      H       2.0946850000    -1.9781380000    -0.3730170000
   25      C       0.0000000000     0.0000000000     0.0000000000
   26      S       0.1575770000     0.8909370000     1.5075410000
   27      C       0.4298890000     2.4397200000     0.7188730000
   28      C       0.1577970000     0.8905760000    -1.0678720000
   29      C       0.3969150000     2.2600040000    -0.6864100000
   30      S       0.1183070000     0.6502070000    -2.8055160000
   31      C       0.4170360000     2.3762290000    -3.0545300000
   32      C       0.5376160000     3.0742020000    -1.8625510000
   33      F       0.7649920000     4.3913780000    -1.8190880000
   34      C       0.4966960000     2.8171180000    -4.4560840000
   35      O       0.3708740000     2.0575820000    -5.4065100000
   36      O       0.7238610000     4.1484180000    -4.5692250000
   37      C       0.8149760000     4.6350750000    -5.9162070000
   38      H       0.9992860000     5.7205910000    -5.8330640000
   39      H      -0.1259090000     4.4422260000    -6.4701680000
   40      H       1.6455040000     4.1404650000    -6.4592930000
   41      H       0.5889930000     3.3501820000     1.3064860000
   42      H       0.1594750000    -9.1436230000    -0.9001770000
   43      H       0.4836040000    -9.1494410000     0.8665660000
   44      H      -0.1948560000    -1.4431750000    -1.0622460000
 ----------------------------------------------------------------
 Nuclear Repulsion Energy =        3330.21115258 hartrees
 There are      120 alpha and      120 beta electrons
 Requested basis set is cc-pVTZ
 There are 388 shells and 1096 basis functions

 Total QAlloc Memory Limit 110000 MB
 Mega-Array Size       188 MB
 MEM_STATIC part       192 MB
 Discretize the solute cavity surface with Lebedev spheres
	Using 110 Lebedev grid points for each H atom
	Using 194 Lebedev grid points for other atoms
	Atomic van der Waals radii will be scaled by 1.20
 Remove points where switching function is < 1.0e-08
 Keep 2986 surface tesserae and discard 4290 interior tesserae
 Molecular Surface Area = 445.440 Angst**2
 Requested basis set is rimp2-cc-pVTZ
 There are 853 shells and 2963 basis functions
 A cutoff of  1.0D-10 yielded  32917 shell pairs
 There are    249051 function pairs (    322358 Cartesian)
 Smallest overlap matrix eigenvalue = 2.19E-05

 Scale SEOQF with 1.000000e-01/1.000000e-02/1.000000e-02

 Standard Electronic Orientation quadrupole field applied
 Nucleus-field energy     =     0.0000000410 hartrees
 Guess from superposition of atomic densities
 Warning:  Energy on first SCF cycle will be non-variational
 SAD guess density has 240.000000 electrons

 -----------------------------------------------------------------------
  General SCF calculation program by
  Eric Jon Sundstrom, Paul Horn, Yuezhi Mao, Dmitri Zuev, Alec White,
  David Stuck, Shaama M.S., Shane Yost, Joonho Lee, David Small,
  Daniel Levine, Susi Lehtola, Hugh Burton, Evgeny Epifanovsky,
  Bang C. Huynh
 -----------------------------------------------------------------------
 Hartree-Fock
 using 64 threads for integral computing
 -------------------------------------------------------
 OpenMP Integral computing Module                
 Release: version 1.0, May 2013, Q-Chem Inc. Pittsburgh 
 -------------------------------------------------------
 A restricted SCF calculation will be
 performed using DIIS
 SCF converges when DIIS error is below 1.0e-06
 ---------------------------------------
  Cycle       Energy         DIIS error
 ---------------------------------------
    1   -2767.0178058443      1.75e-02  
    2   -2754.8986210960      1.53e-03  
    3   -2755.2459757770      8.51e-04  
    4   -2755.3315866950      2.56e-04  
    5   -2755.3449483670      7.29e-05  
    6   -2755.3463882842      2.52e-05  
    7   -2755.3467481399      1.30e-05  
    8   -2755.3468622278      5.38e-06  
    9   -2755.3468885772      2.64e-06  
   10   -2755.3468946085      1.37e-06  
   11   -2755.3468964514      6.77e-07  Convergence criterion met
 ---------------------------------------
 SCF time:   CPU 7852.19s  wall 304.00s 

************** Final PCM Free Energy Summary **************
 G_electrostatic  =      -0.02053890 hartree =     -12.88835605 kcal/mol
 G_cavitation     =       0.00000000 hartree =       0.00000000 kcal/mol
 G_dispersion     =       0.00000000 hartree =       0.00000000 kcal/mol
 G_repulsion      =       0.00000000 hartree =       0.00000000 kcal/mol
 --------------------------------------------------
 Non-electrostatic Free Energy =       0.00000000 hartree =       0.00000000 kcal/mol
 Total                         =      -0.02053890 hartree =     -12.88835605 kcal/mol
 --------------------------------------------------
 SCF Energy (H0 + V/2)                       =   -2755.34689645 
 Solute Internal Energy (H0)                 =   -2755.32635755 
 Total Free Energy (H0 + V/2 + non-elec)     =   -2755.34689645 hartree
                                             = -1729006.27341368 kcal/mol
***********************************************************

 SCF   energy in the final basis set =    -2755.3468964514
 Total energy in the final basis set =    -2755.3468964514


 --------------------------------------------------------------
  Generalized many-body perturbation theory program
  by Joonho Lee, Fazle Rob, Xintian Feng, Evgeny Epifanovsky

 No regularization used 
 (reg. param. = 0.0000e+00)
  (P|Q)^-1/2 Time:  CPU 195.13 s  wall 3.54 s

 In RI-MP2 calculation: 
 # of frozen core orbitals: 45

 Components of the RIMP2 correlation energy:
        aaaa    correlation energy =        -0.6685401072 a.u.
        abab    correlation energy =        -3.7508246794 a.u.
        bbbb    correlation energy =        -0.6685401072 a.u.
        non-Brillouin singles      =        -0.0000000000 a.u.
        total same-spin energy     =        -1.3370802143 a.u.
        total opposite-spin energy =        -3.7508246794 a.u.

 Total  RIMP2   correlation energy =        -5.0879048937 a.u.
        RIMP2         total energy =     -2760.4348013450 a.u.

 RI-MP2 Energy Time:  CPU 3019.06 s  wall 49.82 s
 
 --------------------------------------------------------------
 
                    Orbital Energies (a.u.)
 --------------------------------------------------------------
 
 Alpha MOs
 -- Occupied --
-92.0113 -92.0004 -91.9766 -91.9581 -26.3446 -20.6154 -20.5871 -20.5867
-20.5619 -11.4101 -11.3842 -11.3120 -11.3089 -11.3069 -11.3048 -11.3008
-11.2987 -11.2892 -11.2853 -11.2842 -11.2827 -11.2825 -11.2802 -11.2729
-11.2717 -11.2580 -11.2576 -11.2496 -11.2369  -9.0102  -9.0005  -8.9788
 -8.9607  -6.6910  -6.6904  -6.6899  -6.6816  -6.6808  -6.6797  -6.6599
 -6.6590  -6.6577  -6.6419  -6.6410  -6.6400  -1.6616  -1.4678  -1.4102
 -1.4088  -1.3706  -1.2297  -1.2024  -1.1733  -1.1370  -1.1008  -1.0466
 -1.0455  -1.0236  -1.0033  -0.9969  -0.9626  -0.9587  -0.9485  -0.9414
 -0.8931  -0.8712  -0.8648  -0.8130  -0.7963  -0.7901  -0.7844  -0.7679
 -0.7589  -0.7353  -0.7264  -0.7102  -0.7010  -0.6949  -0.6853  -0.6797
 -0.6744  -0.6650  -0.6554  -0.6484  -0.6350  -0.6303  -0.6199  -0.6148
 -0.6114  -0.5991  -0.5923  -0.5777  -0.5705  -0.5653  -0.5576  -0.5539
 -0.5486  -0.5316  -0.5299  -0.5259  -0.5129  -0.5087  -0.5070  -0.5016
 -0.4853  -0.4813  -0.4761  -0.4746  -0.4704  -0.4680  -0.4605  -0.4461
 -0.4219  -0.4011  -0.3850  -0.3700  -0.3507  -0.3025  -0.2892  -0.2209
 -- Virtual --
  0.0345   0.0524   0.1071   0.1254   0.1388   0.1461   0.1503   0.1547
  0.1568   0.1598   0.1691   0.1783   0.1832   0.1854   0.1907   0.1927
  0.2012   0.2044   0.2072   0.2126   0.2146   0.2207   0.2243   0.2274
  0.2290   0.2351   0.2385   0.2430   0.2505   0.2544   0.2616   0.2670
  0.2737   0.2961   0.3047   0.3228   0.3308   0.3327   0.3386   0.3435
  0.3460   0.3570   0.3601   0.3647   0.3689   0.3747   0.3838   0.3842
  0.3868   0.3922   0.3960   0.4008   0.4037   0.4110   0.4160   0.4222
  0.4256   0.4263   0.4322   0.4337   0.4396   0.4431   0.4454   0.4471
  0.4544   0.4562   0.4639   0.4662   0.4676   0.4758   0.4781   0.4793
  0.4877   0.4965   0.5002   0.5011   0.5041   0.5088   0.5110   0.5179
  0.5235   0.5287   0.5314   0.5334   0.5415   0.5434   0.5452   0.5485
  0.5511   0.5522   0.5558   0.5575   0.5618   0.5714   0.5715   0.5773
  0.5809   0.5840   0.5871   0.5950   0.5999   0.6046   0.6089   0.6112
  0.6139   0.6151   0.6181   0.6216   0.6220   0.6232   0.6274   0.6297
  0.6340   0.6383   0.6430   0.6458   0.6480   0.6511   0.6527   0.6548
  0.6614   0.6647   0.6742   0.6790   0.6815   0.6860   0.6946   0.6984
  0.6994   0.7081   0.7118   0.7148   0.7160   0.7219   0.7244   0.7399
  0.7420   0.7525   0.7557   0.7601   0.7659   0.7727   0.7758   0.7823
  0.7903   0.7943   0.7981   0.8093   0.8127   0.8179   0.8225   0.8248
  0.8290   0.8383   0.8441   0.8527   0.8601   0.8616   0.8689   0.8741
  0.8800   0.8809   0.8900   0.8936   0.8959   0.9009   0.9029   0.9125
  0.9171   0.9252   0.9334   0.9361   0.9392   0.9469   0.9488   0.9538
  0.9552   0.9617   0.9701   0.9713   0.9786   0.9850   0.9860   0.9878
  0.9932   1.0012   1.0056   1.0093   1.0144   1.0185   1.0221   1.0301
  1.0375   1.0413   1.0432   1.0503   1.0546   1.0576   1.0627   1.0692
  1.0746   1.0797   1.0823   1.0872   1.0918   1.0978   1.1020   1.1056
  1.1120   1.1137   1.1150   1.1210   1.1255   1.1365   1.1440   1.1499
  1.1505   1.1575   1.1622   1.1663   1.1724   1.1742   1.1766   1.1814
  1.1838   1.1884   1.1958   1.2004   1.2053   1.2104   1.2132   1.2173
  1.2203   1.2250   1.2323   1.2373   1.2421   1.2464   1.2499   1.2533
  1.2567   1.2635   1.2646   1.2701   1.2803   1.2822   1.2848   1.2925
  1.2951   1.3017   1.3031   1.3111   1.3235   1.3309   1.3328   1.3391
  1.3521   1.3592   1.3623   1.3712   1.3795   1.3844   1.3947   1.3966
  1.4089   1.4109   1.4136   1.4217   1.4251   1.4355   1.4501   1.4556
  1.4586   1.4678   1.4726   1.4753   1.4883   1.4922   1.4945   1.5023
  1.5062   1.5082   1.5109   1.5131   1.5220   1.5315   1.5373   1.5387
  1.5404   1.5436   1.5462   1.5530   1.5556   1.5622   1.5723   1.5777
  1.5851   1.5981   1.5999   1.6039   1.6138   1.6193   1.6316   1.6333
  1.6428   1.6507   1.6585   1.6610   1.6702   1.6795   1.6810   1.6839
  1.6906   1.6928   1.6992   1.7090   1.7183   1.7246   1.7350   1.7476
  1.7548   1.7594   1.7809   1.7832   1.7904   1.7979   1.8073   1.8158
  1.8201   1.8242   1.8299   1.8441   1.8494   1.8678   1.8702   1.8727
  1.8796   1.8919   1.9074   1.9138   1.9194   1.9217   1.9257   1.9413
  1.9457   1.9481   1.9546   1.9689   1.9731   1.9818   1.9930   2.0004
  2.0058   2.0100   2.0218   2.0254   2.0344   2.0441   2.0451   2.0489
  2.0631   2.0750   2.0792   2.0926   2.0944   2.0999   2.1125   2.1245
  2.1383   2.1429   2.1569   2.1632   2.1738   2.1778   2.1923   2.1938
  2.1946   2.2005   2.2053   2.2167   2.2231   2.2321   2.2416   2.2474
  2.2504   2.2535   2.2590   2.2662   2.2720   2.2801   2.2902   2.3000
  2.3036   2.3053   2.3186   2.3281   2.3367   2.3519   2.3559   2.3604
  2.3659   2.3716   2.3904   2.3947   2.4008   2.4151   2.4161   2.4173
  2.4334   2.4420   2.4504   2.4651   2.4737   2.4821   2.4836   2.4902
  2.5054   2.5120   2.5158   2.5335   2.5380   2.5442   2.5540   2.5599
  2.5656   2.5787   2.5990   2.6011   2.6178   2.6207   2.6243   2.6262
  2.6292   2.6335   2.6411   2.6452   2.6504   2.6534   2.6682   2.6729
  2.6765   2.6790   2.6847   2.6944   2.6976   2.7031   2.7056   2.7133
  2.7152   2.7228   2.7345   2.7440   2.7521   2.7638   2.7672   2.7740
  2.7797   2.7852   2.7908   2.7976   2.8025   2.8112   2.8141   2.8200
  2.8300   2.8431   2.8458   2.8535   2.8588   2.8671   2.8702   2.8731
  2.8815   2.8840   2.8938   2.9017   2.9086   2.9141   2.9215   2.9367
  2.9439   2.9543   2.9596   2.9621   2.9739   2.9788   2.9850   2.9874
  2.9913   2.9982   3.0145   3.0174   3.0231   3.0276   3.0366   3.0455
  3.0541   3.0613   3.0708   3.0739   3.0822   3.0893   3.0935   3.0965
  3.1018   3.1055   3.1098   3.1210   3.1300   3.1317   3.1364   3.1423
  3.1462   3.1470   3.1557   3.1607   3.1649   3.1682   3.1743   3.1781
  3.1851   3.1921   3.1980   3.2080   3.2148   3.2171   3.2214   3.2224
  3.2333   3.2407   3.2429   3.2454   3.2501   3.2549   3.2602   3.2660
  3.2700   3.2721   3.2787   3.2818   3.2901   3.2937   3.2959   3.2976
  3.3083   3.3098   3.3107   3.3194   3.3267   3.3272   3.3389   3.3418
  3.3451   3.3497   3.3547   3.3559   3.3627   3.3646   3.3667   3.3674
  3.3697   3.3813   3.3844   3.3965   3.4006   3.4017   3.4038   3.4066
  3.4111   3.4139   3.4172   3.4280   3.4312   3.4339   3.4390   3.4471
  3.4493   3.4552   3.4592   3.4639   3.4656   3.4671   3.4763   3.4800
  3.4841   3.4874   3.4984   3.4991   3.5061   3.5167   3.5277   3.5300
  3.5392   3.5424   3.5491   3.5536   3.5636   3.5639   3.5678   3.5747
  3.5787   3.5833   3.5896   3.5904   3.6000   3.6070   3.6135   3.6159
  3.6174   3.6231   3.6295   3.6312   3.6367   3.6401   3.6507   3.6558
  3.6599   3.6664   3.6732   3.6773   3.6837   3.6893   3.6900   3.6928
  3.6984   3.7028   3.7055   3.7128   3.7157   3.7189   3.7196   3.7271
  3.7364   3.7411   3.7483   3.7536   3.7597   3.7631   3.7705   3.7781
  3.7851   3.7896   3.7933   3.7967   3.8030   3.8097   3.8126   3.8153
  3.8183   3.8214   3.8257   3.8330   3.8439   3.8479   3.8551   3.8596
  3.8620   3.8637   3.8713   3.8749   3.8828   3.8889   3.8948   3.8978
  3.9071   3.9175   3.9243   3.9327   3.9380   3.9490   3.9551   3.9595
  3.9632   3.9735   3.9811   3.9820   3.9942   3.9963   4.0038   4.0056
  4.0181   4.0250   4.0381   4.0458   4.0465   4.0578   4.0646   4.0678
  4.0680   4.0713   4.0870   4.0958   4.1044   4.1126   4.1148   4.1204
  4.1349   4.1418   4.1478   4.1536   4.1639   4.1661   4.1702   4.1741
  4.1769   4.1824   4.1966   4.2061   4.2107   4.2132   4.2196   4.2367
  4.2452   4.2460   4.2538   4.2640   4.2707   4.2806   4.2866   4.2969
  4.3131   4.3197   4.3366   4.3401   4.3415   4.3501   4.3506   4.3572
  4.3646   4.3682   4.3755   4.3834   4.3950   4.4035   4.4090   4.4155
  4.4208   4.4270   4.4274   4.4289   4.4322   4.4397   4.4480   4.4560
  4.4579   4.4749   4.4857   4.4908   4.5053   4.5178   4.5221   4.5325
  4.5341   4.5373   4.5557   4.5655   4.5689   4.5738   4.5748   4.5809
  4.5870   4.6049   4.6150   4.6185   4.6326   4.6428   4.6460   4.6559
  4.6646   4.6684   4.6808   4.6957   4.7046   4.7172   4.7249   4.7280
  4.7445   4.7474   4.7688   4.7783   4.7831   4.7922   4.8030   4.8209
  4.8235   4.8332   4.8486   4.8578   4.8649   4.8810   4.8845   4.8863
  4.9068   4.9141   4.9317   4.9412   4.9448   4.9541   4.9652   4.9707
  4.9830   5.0000   5.0077   5.0085   5.0137   5.0295   5.0412   5.0485
  5.0533   5.0779   5.0931   5.1083   5.1219   5.1267   5.1355   5.1636
  5.1755   5.1947   5.2016   5.2089   5.2130   5.2340   5.2507   5.2514
  5.2576   5.2583   5.2731   5.2832   5.2944   5.3071   5.3218   5.3271
  5.3385   5.3434   5.3501   5.3660   5.3722   5.3878   5.3926   5.4023
  5.4074   5.4257   5.4265   5.4419   5.4487   5.4846   5.4923   5.5039
  5.5101   5.5128   5.5244   5.5335   5.5623   5.5691   5.5808   5.5849
  5.5936   5.6106   5.6185   5.6211   5.6418   5.6637   5.6911   5.6994
  5.7152   5.7409   5.7554   5.7655   5.7956   5.8070   5.8417   5.8471
  5.8592   5.8818   5.9039   5.9131   5.9286   5.9542   5.9749   6.0002
  6.0397   6.0426   6.0889   6.1243   6.1501   6.1532   6.1730   6.1762
  6.1816   6.1999   6.2345   6.2464   6.2609   6.2613   6.2720   6.2842
  6.2949   6.3058   6.3410   6.3834   6.4366   6.4496   6.4874   6.5381
  6.5464   6.5689   6.6024   6.6463   6.6605   6.6706   6.7139   6.7458
  6.8073   6.8295   6.8558   6.8589   6.8992   6.9777   7.1312   7.1469
  7.2034   7.2070   7.2222   7.2396   7.3093   7.3268   7.3416   7.3620
  7.3632   7.4062   7.4127   7.4844   7.4867   7.4971   7.5235   7.5514
  7.6161   7.7383   7.7717   7.7895   7.8029   7.9006   7.9270   7.9561
  7.9744   8.1334   8.3037   8.5198   8.9207   9.0246   9.3617   9.4801
  9.6748  10.2072  11.1742  11.4355  11.7533  11.9405  12.1224  12.3612
 12.4167  12.4885  12.9230  12.9960  13.0435  13.3014  13.3847  13.4808
 13.6780  13.7862  13.8750  13.9392  14.0335  14.3112  14.9768  15.2066
 --------------------------------------------------------------
 
          Ground-State Mulliken Net Atomic Charges

     Atom                 Charge (a.u.)
  ----------------------------------------
      1 C                    -0.070368
      2 C                    -0.259471
      3 S                    -0.135280
      4 C                    -0.044578
      5 H                     0.193425
      6 C                    -0.052455
      7 C                     0.224246
      8 C                     0.229262
      9 C                    -0.084782
     10 C                    -0.058876
     11 O                    -0.335364
     12 O                    -0.343169
     13 C                    -0.082677
     14 H                     0.120030
     15 H                     0.092136
     16 H                     0.092572
     17 C                    -0.086323
     18 H                     0.122849
     19 H                     0.092644
     20 H                     0.090234
     21 C                    -0.232914
     22 S                    -0.070191
     23 C                     0.059518
     24 H                     0.206793
     25 C                    -0.086916
     26 S                     0.088127
     27 C                    -0.178018
     28 C                     0.009383
     29 C                    -0.108727
     30 S                     0.002681
     31 C                    -0.159620
     32 C                     0.399359
     33 F                    -0.205673
     34 C                     0.444922
     35 O                    -0.461202
     36 O                    -0.300811
     37 C                    -0.058596
     38 H                     0.121500
     39 H                     0.095271
     40 H                     0.095206
     41 H                     0.217596
     42 H                     0.117455
     43 H                     0.114981
     44 H                     0.185816
  ----------------------------------------
  Sum of atomic charges =     0.000000

 -----------------------------------------------------------------
                    Cartesian Multipole Moments
 -----------------------------------------------------------------
    Charge (ESU x 10^10)
                -0.0000
    Dipole Moment (Debye)
         X       0.2975      Y       2.9520      Z       2.3838
       Tot       3.8060
    Quadrupole Moments (Debye-Ang)
        XX    -183.3816     XY       6.4626     YY    -174.9126
        XZ       1.6136     YZ      -8.2391     ZZ    -205.9816
    Octopole Moments (Debye-Ang^2)
       XXX    -146.8097    XXY     299.2473    XYY     -68.5867
       YYY     973.7942    XXZ     176.1991    XYZ     -26.0982
       YYZ     121.5039    XZZ     -35.8447    YZZ     473.6593
       ZZZ     553.8276
    Hexadecapole Moments (Debye-Ang^3)
      XXXX   -2420.4720   XXXY     247.6616   XXYY   -4006.7786
      XYYY     563.8753   YYYY  -20364.2800   XXXZ     406.6059
      XXYZ     489.4963   XYYZ     157.5531   YYYZ    1138.0914
      XXZZ   -1365.2385   XYZZ     206.1648   YYZZ   -4200.6223
      XZZZ     328.2403   YZZZ     999.4272   ZZZZ   -5470.2282
 -----------------------------------------------------------------
 Total job time:  359.43s(wall), 10998.43s(cpu) 
 Tue Jan  9 12:31:25 2024

        *************************************************************
        *                                                           *
        *  Thank you very much for using Q-Chem.  Have a nice day.  *
        *                                                           *
        *************************************************************


0 sent ACK to 0 
now end server 0 ... 
cleanup process ... done
remove work dirs ./qchem1311532.0 -- ./qchem1311532.0
rm -rf ./qchem1311532.0
rm -rf ./qchem1311532
