You are running Q-Chem version: 5.4.0

#
# job setting
#
local host:  exp-6-39
current dir: /home/rramji/project-csd799/aromodel/ptb7fout-qchem/hydrogenated-rotation-run
input file:  Dimethoxy_Benzodithiophene_Phi_60_Theta_220_Methylcarbonyl_3_Fluoro_Thienothiophene_Hydrogenated.qcin
output file: 
nprocs     : 1
nthreads   : 64
#
# qchem installation setting
#
QC:          /cm/shared/apps/spack/cpu/opt/spack/linux-centos8-zen2/gcc-10.2.0/qchem-5.4-akfmr7b3t57bfs6qan3padb2wnb2i7cl
QCAUX:       /cm/shared/apps/spack/cpu/opt/spack/linux-centos8-zen2/gcc-10.2.0/qchem-5.4-akfmr7b3t57bfs6qan3padb2wnb2i7cl/qcaux
QCPROG:      /cm/shared/apps/spack/cpu/opt/spack/linux-centos8-zen2/gcc-10.2.0/qchem-5.4-akfmr7b3t57bfs6qan3padb2wnb2i7cl/exe/qcprog.exe
QCPROG_S:    /cm/shared/apps/spack/cpu/opt/spack/linux-centos8-zen2/gcc-10.2.0/qchem-5.4-akfmr7b3t57bfs6qan3padb2wnb2i7cl/exe/qcprog.exe_s
PARALLEL:    -DPARALLEL
QCMPI:       mpich
#
# qchem directory setting
#
qcrun:       qchem2056380
QCSCRATCH:   .
QCLOCALSCR:  
QCTMPDIR:    .
QCFILEPREF:  ./qchem2056380
QCSAVEDIR:   
workdirs:    ./qchem2056380
workdir0:    ./qchem2056380
partmpdirs =  
#
# parallel setting
#
QCRSH:           ssh
QCMPI:           mpich
QCMPIRUN:        /cm/shared/apps/spack/cpu/opt/spack/linux-centos8-zen2/gcc-10.2.0/qchem-5.4-akfmr7b3t57bfs6qan3padb2wnb2i7cl/bin/mpi/mpirun_qchem
QCMACHINEFILE:   ./qchem2056380/hostfile
exp-6-39

#
# env setting
#
exported envs:   QC QCAUX QCSCRATCH QCRUNNAME QCFILEPREF QCPROG QCPROG_S GUIFILE

Running Job 1 of 1 Dimethoxy_Benzodithiophene_Phi_60_Theta_220_Methylcarbonyl_3_Fluoro_Thienothiophene_Hydrogenated.qcin
qchem Dimethoxy_Benzodithiophene_Phi_60_Theta_220_Methylcarbonyl_3_Fluoro_Thienothiophene_Hydrogenated.qcin_2056380.0 ./qchem2056380/ 1
/cm/shared/apps/spack/cpu/opt/spack/linux-centos8-zen2/gcc-10.2.0/qchem-5.4-akfmr7b3t57bfs6qan3padb2wnb2i7cl/bin/mpi/mpirun_qchem -machinefile ./qchem2056380/hostfile -np 1 /cm/shared/apps/spack/cpu/opt/spack/linux-centos8-zen2/gcc-10.2.0/qchem-5.4-akfmr7b3t57bfs6qan3padb2wnb2i7cl/exe/qcprog.exe Dimethoxy_Benzodithiophene_Phi_60_Theta_220_Methylcarbonyl_3_Fluoro_Thienothiophene_Hydrogenated.qcin_2056380.0 ./qchem2056380/

Process 0 of 1 is on exp-6-39 - thread support 0
initial socket setup ...start
initial socket setup ...done 
now start server 0 ... 
                  Welcome to Q-Chem
     A Quantum Leap Into The Future Of Chemistry


 Q-Chem 5.4, Q-Chem, Inc., Pleasanton, CA (2021)

 License issued to: University of California, San Diego (site)

 E. Epifanovsky,  A. T. B. Gilbert,  Xintian Feng,  Joonho Lee,  Yuezhi Mao,  
 N. Mardirossian,  P. Pokhilko,  A. White,  M. Wormit,  M. P. Coons,  
 A. L. Dempwolff,  Zhengting Gan,  D. Hait,  P. R. Horn,  L. D. Jacobson,  
 I. Kaliman,  J. Kussmann,  A. W. Lange,  Ka Un Lao,  D. S. Levine,  Jie Liu,  
 S. C. McKenzie,  A. F. Morrison,  K. Nanda,  F. Plasser,  D. R. Rehn,  
 M. L. Vidal,  Zhi-Qiang You,  Ying Zhu,  B. Alam,  B. Albrecht,  
 A. Aldossary,  E. Alguire,  J. H. Andersen,  D. Barton,  K. Begam,  A. Behn,  
 Y. A. Bernard,  E. J. Berquist,  H. Burton,  A. Carreras,  K. Carter-Fenk,  
 R. Chakraborty,  A. D. Chien,  K. D. Closser,  V. Cofer-Shabica,  
 S. Dasgupta,  Jia Deng,  M. de Wergifosse,  M. Diedenhofen,  Hainam Do,  
 S. Ehlert,  Po-Tung Fang,  S. Fatehi,  Qingguo Feng,  J. Gayvert,  
 Qinghui Ge,  G. Gidofalvi,  M. Goldey,  J. Gomes,  C. Gonzalez-Espinoza,  
 S. Gulania,  A. Gunina,  M. W. D. Hanson-Heine,  P. H. P. Harbach,  
 A. W. Hauser,  M. F. Herbst,  M. Hernandez Vera,  M. Hodecker,  
 Z. C. Holden,  S. Houck,  Xunkun Huang,  Kerwin Hui,  B. C. Huynh,  
 M. Ivanov,  Hyunjun Ji,  Hanjie Jiang,  B. Kaduk,  S. Kaehler,  
 K. Khistyaev,  Jaehoon Kim,  P. Klunzinger,  Z. Koczor-Benda,  
 Joong Hoon Koh,  D. Kosenkov,  L. Koulias,  T. Kowalczyk,  C. M. Krauter,  
 K. Kue,  A. Kunitsa,  T. Kus,  A. Landau,  K. V. Lawler,  D. Lefrancois,  
 S. Lehtola,  Rain Li,  Yi-Pei Li,  Jiashu Liang,  M. Liebenthal,  
 Hung-Hsuan Lin,  You-Sheng Lin,  Fenglai Liu,  Kuan-Yu Liu,  
 M. Loipersberger,  A. Luenser,  A. Manjanath,  P. Manohar,  E. Mansoor,  
 S. F. Manzer,  Shan-Ping Mao,  A. V. Marenich,  T. Markovich,  S. Mason,  
 S. A. Maurer,  P. F. McLaughlin,  M. F. S. J. Menger,  J.-M. Mewes,  
 S. A. Mewes,  P. Morgante,  J. W. Mullinax,  T. S. Nguyen-Beck,  
 K. J. Oosterbaan,  G. Paran,  Alexander C. Paul,  Suranjan K. Paul,  
 F. Pavosevic,  Zheng Pei,  S. Prager,  E. I. Proynov,  E. Ramos,  B. Rana,  
 A. E. Rask,  A. Rettig,  R. M. Richard,  F. Rob,  E. Rossomme,  T. Scheele,  
 M. Scheurer,  M. Schneider,  N. Sergueev,  S. M. Sharada,  W. Skomorowski,  
 D. W. Small,  C. J. Stein,  Yu-Chuan Su,  E. J. Sundstrom,  Zhen Tao,  
 J. Thirman,  T. Tsuchimochi,  N. M. Tubman,  S. P. Veccham,  O. Vydrov,  
 J. Wenzel,  J. Witte,  A. Yamada,  Kun Yao,  S. Yeganeh,  S. R. Yost,  
 A. Zech,  Igor Ying Zhang,  Xing Zhang,  Yu Zhang,  D. Zuev,  
 A. Aspuru-Guzik,  A. T. Bell,  N. A. Besley,  K. B. Bravaya,  B. R. Brooks,  
 D. Casanova,  Jeng-Da Chai,  S. Coriani,  C. J. Cramer,  
 A. E. DePrince, III,  R. A. DiStasio Jr.,  A. Dreuw,  B. D. Dunietz,  
 T. R. Furlani,  W. A. Goddard III,  S. Grimme,  S. Hammes-Schiffer,  
 T. Head-Gordon,  W. J. Hehre,  Chao-Ping Hsu,  T.-C. Jagau,  Yousung Jung,  
 A. Klamt,  Jing Kong,  D. S. Lambrecht,  WanZhen Liang,  N. J. Mayhall,  
 C. W. McCurdy,  J. B. Neaton,  C. Ochsenfeld,  J. A. Parkhill,  R. Peverati,  
 V. A. Rassolov,  Yihan Shao,  L. V. Slipchenko,  T. Stauch,  R. P. Steele,  
 J. E. Subotnik,  A. J. W. Thom,  A. Tkatchenko,  D. G. Truhlar,  
 T. Van Voorhis,  T. A. Wesolowski,  K. B. Whaley,  H. L. Woodcock III,  
 P. M. Zimmerman,  S. Faraji,  P. M. W. Gill,  M. Head-Gordon,  
 J. M. Herbert,  A. I. Krylov

 Contributors to earlier versions of Q-Chem not listed above: 
 R. D. Adamson,  B. Austin,  R. Baer,  J. Baker,  G. J. O. Beran,  
 K. Brandhorst,  S. T. Brown,  E. F. C. Byrd,  A. K. Chakraborty,  
 G. K. L. Chan,  Chun-Min Chang,  Yunqing Chen,  C.-L. Cheng,  
 Siu Hung Chien,  D. M. Chipman,  D. L. Crittenden,  H. Dachsel,  
 R. J. Doerksen,  A. D. Dutoi,  R. G. Edgar,  J. Fosso-Tande,  
 L. Fusti-Molnar,  D. Ghosh,  A. Ghysels,  A. Golubeva-Zadorozhnaya,  
 J. Gonthier,  M. S. Gordon,  S. R. Gwaltney,  G. Hawkins,  J. E. Herr,  
 A. Heyden,  S. Hirata,  E. G. Hohenstein,  G. Kedziora,  F. J. Keil,  
 C. Kelley,  Jihan Kim,  R. A. King,  R. Z. Khaliullin,  P. P. Korambath,  
 W. Kurlancheek,  A. Laurent,  A. M. Lee,  M. S. Lee,  S. V. Levchenko,  
 Ching Yeh Lin,  D. Liotard,  E. Livshits,  R. C. Lochan,  I. Lotan,  
 L. A. Martinez-Martinez,  P. E. Maslen,  N. Nair,  D. P. O'Neill,  
 D. Neuhauser,  E. Neuscamman,  C. M. Oana,  R. Olivares-Amaya,  R. Olson,  
 T. M. Perrine,  B. Peters,  P. A. Pieniazek,  A. Prociuk,  Y. M. Rhee,  
 J. Ritchie,  M. A. Rohrdanz,  E. Rosta,  N. J. Russ,  H. F. Schaefer III,  
 M. W. Schmidt,  N. E. Schultz,  S. Sharma,  N. Shenvi,  C. D. Sherrill,  
 A. C. Simmonett,  A. Sodt,  T. Stein,  D. Stuck,  K. S. Thanthiriwatte,  
 V. Vanovschi,  L. Vogt,  Tao Wang,  A. Warshel,  M. A. Watson,  
 C. F. Williams,  Q. Wu,  X. Xu,  Jun Yang,  W. Zhang,  Yan Zhao

 Please cite Q-Chem as follows:
 Y. Shao et al., Mol. Phys. 113, 184-215 (2015)
 DOI: 10.1080/00268976.2014.952696

 Q-Chem 5.4.0 for Intel X86 EM64T Linux

 Parts of Q-Chem use Armadillo 9.800.1 (Horizon Scraper).
 http://arma.sourceforge.net/

 Q-Chem begins on Tue Jan  9 11:47:01 2024  

 Host: 
0

     Scratch files written to ./qchem2056380//
 May1621 |scratch|qcdevops|jenkins|workspace|build_RNUM    
 Parallel job on  1  processors
 Processing $rem in /cm/shared/apps/spack/cpu/opt/spack/linux-centos8-zen2/gcc-10.2.0/qchem-5.4-akfmr7b3t57bfs6qan3padb2wnb2i7cl/config/preferences:
 Processing $rem in /home/rramji/.qchemrc:
 Symmetry turned off for PCM/SM12/SMD calculation
 Core orbitals will be frozen

 Checking the input file for inconsistencies... 	...done.

 Q-Chem warning in module forms1/BasisType.C, line 2236:

 You are not using the predefined 5D/6D in this basis set.


--------------------------------------------------------------
User input:
--------------------------------------------------------------
$molecule
0 1
C	0.236226	-8.517702	-0.217225
C	-0.448921	-7.641575	0.611939
S	1.218777	-7.638634	-1.413715
C	-0.206907	-6.264785	0.323572
H	-1.118185	-7.966081	1.418739
C	0.711285	-6.072714	-0.768156
C	1.053725	-4.787049	-1.215016
C	-0.804258	-5.162801	0.999917
C	-0.464908	-3.874817	0.550033
C	0.456457	-3.683952	-0.541024
O	-1.630752	-5.499772	2.028811
O	1.883064	-4.459055	-2.249357
C	2.956754	-5.329063	-2.586579
H	3.619069	-4.755694	-3.262802
H	2.609423	-6.238095	-3.124711
H	3.531667	-5.637262	-1.686639
C	-2.599073	-4.572261	2.503251
H	-3.260097	-5.139743	3.185356
H	-3.207034	-4.153131	1.672937
H	-2.135214	-3.739531	3.075213
C	0.694410	-2.306654	-0.828107
S	-0.983256	-2.306501	1.188794
C	-0.000000	-1.435185	-0.000000
H	1.364851	-1.978138	-1.632185
C	0.000000	0.000000	0.000000
S	0.783786	0.451972	1.507541
C	2.145261	1.238908	0.718873
C	0.783650	0.451572	-1.067872
C	1.986396	1.148648	-0.686410
S	0.574133	0.327317	-2.805516
C	2.088363	1.207943	-3.054530
C	2.700548	1.564221	-1.862551
F	3.855718	2.236706	-1.819088
C	2.477307	1.430318	-4.456084
O	1.814592	1.038482	-5.406510
O	3.643162	2.112042	-4.569225
C	4.074530	2.355061	-5.916207
H	5.024556	2.911627	-5.833064
H	3.322010	2.951860	-6.470168
H	4.229490	1.400910	-6.459293
H	2.944986	1.702260	1.306486
H	-0.456457	-9.143623	-0.792084
H	0.927480	-9.149441	0.352973
H	-0.832067	-1.443175	-0.688477
$end

$rem
JOBTYPE		SP
EXCHANGE	HF
CORRELATION	pRIMP2
BASIS		cc-pvtz
METHOD		rimp2
AUX_BASIS	rimp2-cc-pvtz
SOLVENT_METHOD	PCM
PURECART	11111
SYMMETRY	false
MEM_TOTAL	110000
SCF_CONVERGENCE = 6
THRESH=10
GUI = 2
$end



$solvent
dielectric 4.90
$end
--------------------------------------------------------------
 ----------------------------------------------------------------
             Standard Nuclear Orientation (Angstroms)
    I     Atom           X                Y                Z
 ----------------------------------------------------------------
    1      C       0.2362260000    -8.5177020000    -0.2172250000
    2      C      -0.4489210000    -7.6415750000     0.6119390000
    3      S       1.2187770000    -7.6386340000    -1.4137150000
    4      C      -0.2069070000    -6.2647850000     0.3235720000
    5      H      -1.1181850000    -7.9660810000     1.4187390000
    6      C       0.7112850000    -6.0727140000    -0.7681560000
    7      C       1.0537250000    -4.7870490000    -1.2150160000
    8      C      -0.8042580000    -5.1628010000     0.9999170000
    9      C      -0.4649080000    -3.8748170000     0.5500330000
   10      C       0.4564570000    -3.6839520000    -0.5410240000
   11      O      -1.6307520000    -5.4997720000     2.0288110000
   12      O       1.8830640000    -4.4590550000    -2.2493570000
   13      C       2.9567540000    -5.3290630000    -2.5865790000
   14      H       3.6190690000    -4.7556940000    -3.2628020000
   15      H       2.6094230000    -6.2380950000    -3.1247110000
   16      H       3.5316670000    -5.6372620000    -1.6866390000
   17      C      -2.5990730000    -4.5722610000     2.5032510000
   18      H      -3.2600970000    -5.1397430000     3.1853560000
   19      H      -3.2070340000    -4.1531310000     1.6729370000
   20      H      -2.1352140000    -3.7395310000     3.0752130000
   21      C       0.6944100000    -2.3066540000    -0.8281070000
   22      S      -0.9832560000    -2.3065010000     1.1887940000
   23      C       0.0000000000    -1.4351850000     0.0000000000
   24      H       1.3648510000    -1.9781380000    -1.6321850000
   25      C       0.0000000000     0.0000000000     0.0000000000
   26      S       0.7837860000     0.4519720000     1.5075410000
   27      C       2.1452610000     1.2389080000     0.7188730000
   28      C       0.7836500000     0.4515720000    -1.0678720000
   29      C       1.9863960000     1.1486480000    -0.6864100000
   30      S       0.5741330000     0.3273170000    -2.8055160000
   31      C       2.0883630000     1.2079430000    -3.0545300000
   32      C       2.7005480000     1.5642210000    -1.8625510000
   33      F       3.8557180000     2.2367060000    -1.8190880000
   34      C       2.4773070000     1.4303180000    -4.4560840000
   35      O       1.8145920000     1.0384820000    -5.4065100000
   36      O       3.6431620000     2.1120420000    -4.5692250000
   37      C       4.0745300000     2.3550610000    -5.9162070000
   38      H       5.0245560000     2.9116270000    -5.8330640000
   39      H       3.3220100000     2.9518600000    -6.4701680000
   40      H       4.2294900000     1.4009100000    -6.4592930000
   41      H       2.9449860000     1.7022600000     1.3064860000
   42      H      -0.4564570000    -9.1436230000    -0.7920840000
   43      H       0.9274800000    -9.1494410000     0.3529730000
   44      H      -0.8320670000    -1.4431750000    -0.6884770000
 ----------------------------------------------------------------
 Nuclear Repulsion Energy =        3420.24616755 hartrees
 There are      120 alpha and      120 beta electrons
 Requested basis set is cc-pVTZ
 There are 388 shells and 1096 basis functions

 Total QAlloc Memory Limit 110000 MB
 Mega-Array Size       188 MB
 MEM_STATIC part       192 MB
 Discretize the solute cavity surface with Lebedev spheres
	Using 110 Lebedev grid points for each H atom
	Using 194 Lebedev grid points for other atoms
	Atomic van der Waals radii will be scaled by 1.20
 Remove points where switching function is < 1.0e-08
 Keep 2924 surface tesserae and discard 4352 interior tesserae
 Molecular Surface Area = 436.538 Angst**2
 Requested basis set is rimp2-cc-pVTZ
 There are 853 shells and 2963 basis functions
 A cutoff of  1.0D-10 yielded  34710 shell pairs
 There are    260022 function pairs (    335636 Cartesian)
 Smallest overlap matrix eigenvalue = 2.14E-05

 Scale SEOQF with 1.000000e-01/1.000000e-02/1.000000e-02

 Standard Electronic Orientation quadrupole field applied
 Nucleus-field energy     =     0.0000000449 hartrees
 Guess from superposition of atomic densities
 Warning:  Energy on first SCF cycle will be non-variational
 SAD guess density has 240.000000 electrons

 -----------------------------------------------------------------------
  General SCF calculation program by
  Eric Jon Sundstrom, Paul Horn, Yuezhi Mao, Dmitri Zuev, Alec White,
  David Stuck, Shaama M.S., Shane Yost, Joonho Lee, David Small,
  Daniel Levine, Susi Lehtola, Hugh Burton, Evgeny Epifanovsky,
  Bang C. Huynh
 -----------------------------------------------------------------------
 Hartree-Fock
 using 64 threads for integral computing
 -------------------------------------------------------
 OpenMP Integral computing Module                
 Release: version 1.0, May 2013, Q-Chem Inc. Pittsburgh 
 -------------------------------------------------------
 A restricted SCF calculation will be
 performed using DIIS
 SCF converges when DIIS error is below 1.0e-06
 ---------------------------------------
  Cycle       Energy         DIIS error
 ---------------------------------------
    1   -2767.1550134552      1.75e-02  
    2   -2754.8192790282      1.54e-03  
    3   -2755.1692266227      8.61e-04  
    4   -2755.2574135240      2.58e-04  
    5   -2755.2711559704      7.35e-05  
    6   -2755.2726994890      2.64e-05  
    7   -2755.2731041915      1.36e-05  
    8   -2755.2732376073      5.82e-06  
    9   -2755.2732683515      2.86e-06  
   10   -2755.2732758886      1.60e-06  
   11   -2755.2732782827      7.59e-07  Convergence criterion met
 ---------------------------------------
 SCF time:   CPU 7660.63s  wall 276.00s 

************** Final PCM Free Energy Summary **************
 G_electrostatic  =      -0.02214980 hartree =     -13.89920839 kcal/mol
 G_cavitation     =       0.00000000 hartree =       0.00000000 kcal/mol
 G_dispersion     =       0.00000000 hartree =       0.00000000 kcal/mol
 G_repulsion      =       0.00000000 hartree =       0.00000000 kcal/mol
 --------------------------------------------------
 Non-electrostatic Free Energy =       0.00000000 hartree =       0.00000000 kcal/mol
 Total                         =      -0.02214980 hartree =     -13.89920839 kcal/mol
 --------------------------------------------------
 SCF Energy (H0 + V/2)                       =   -2755.27327828 
 Solute Internal Energy (H0)                 =   -2755.25112848 
 Total Free Energy (H0 + V/2 + non-elec)     =   -2755.27327828 hartree
                                             = -1728960.07731564 kcal/mol
***********************************************************

 SCF   energy in the final basis set =    -2755.2732782827
 Total energy in the final basis set =    -2755.2732782827


 --------------------------------------------------------------
  Generalized many-body perturbation theory program
  by Joonho Lee, Fazle Rob, Xintian Feng, Evgeny Epifanovsky

 No regularization used 
 (reg. param. = 0.0000e+00)
  (P|Q)^-1/2 Time:  CPU 169.18 s  wall 2.68 s

 In RI-MP2 calculation: 
 # of frozen core orbitals: 45

 Components of the RIMP2 correlation energy:
        aaaa    correlation energy =        -0.6723730732 a.u.
        abab    correlation energy =        -3.7605225631 a.u.
        bbbb    correlation energy =        -0.6723730732 a.u.
        non-Brillouin singles      =        -0.0000000000 a.u.
        total same-spin energy     =        -1.3447461464 a.u.
        total opposite-spin energy =        -3.7605225631 a.u.

 Total  RIMP2   correlation energy =        -5.1052687095 a.u.
        RIMP2         total energy =     -2760.3785469922 a.u.

 RI-MP2 Energy Time:  CPU 2949.66 s  wall 48.21 s
 
 --------------------------------------------------------------
 
                    Orbital Energies (a.u.)
 --------------------------------------------------------------
 
 Alpha MOs
 -- Occupied --
-92.0117 -92.0089 -91.9741 -91.9550 -26.3481 -20.6169 -20.5860 -20.5841
-20.5635 -11.4122 -11.3892 -11.3347 -11.3219 -11.3076 -11.3023 -11.3011
-11.2907 -11.2903 -11.2829 -11.2819 -11.2808 -11.2738 -11.2710 -11.2707
-11.2680 -11.2553 -11.2510 -11.2464 -11.2294  -9.0115  -9.0089  -8.9763
 -8.9576  -6.6924  -6.6917  -6.6907  -6.6896  -6.6885  -6.6884  -6.6575
 -6.6566  -6.6554  -6.6389  -6.6380  -6.6369  -1.6650  -1.4695  -1.4082
 -1.4070  -1.3722  -1.2427  -1.2001  -1.1709  -1.1419  -1.0991  -1.0513
 -1.0433  -1.0283  -1.0009  -0.9947  -0.9657  -0.9598  -0.9475  -0.9415
 -0.8915  -0.8739  -0.8593  -0.8147  -0.8005  -0.7915  -0.7810  -0.7646
 -0.7600  -0.7358  -0.7296  -0.7137  -0.7001  -0.6931  -0.6869  -0.6809
 -0.6759  -0.6654  -0.6547  -0.6471  -0.6391  -0.6305  -0.6171  -0.6150
 -0.6112  -0.6032  -0.5918  -0.5786  -0.5730  -0.5667  -0.5568  -0.5552
 -0.5375  -0.5327  -0.5264  -0.5229  -0.5130  -0.5097  -0.5058  -0.4995
 -0.4879  -0.4808  -0.4778  -0.4748  -0.4681  -0.4628  -0.4548  -0.4432
 -0.4238  -0.3955  -0.3795  -0.3664  -0.3530  -0.3107  -0.2863  -0.2133
 -- Virtual --
  0.0220   0.0555   0.0710   0.1284   0.1329   0.1443   0.1512   0.1546
  0.1572   0.1610   0.1677   0.1718   0.1839   0.1877   0.1908   0.1959
  0.1986   0.2040   0.2065   0.2139   0.2221   0.2225   0.2255   0.2267
  0.2302   0.2311   0.2391   0.2455   0.2522   0.2551   0.2601   0.2684
  0.2749   0.2797   0.2955   0.2983   0.3304   0.3368   0.3390   0.3449
  0.3478   0.3561   0.3581   0.3606   0.3690   0.3767   0.3823   0.3845
  0.3886   0.3897   0.3951   0.4044   0.4048   0.4170   0.4208   0.4215
  0.4240   0.4308   0.4331   0.4365   0.4383   0.4417   0.4460   0.4505
  0.4546   0.4613   0.4657   0.4685   0.4732   0.4779   0.4801   0.4819
  0.4877   0.4905   0.4933   0.4960   0.5022   0.5036   0.5094   0.5154
  0.5253   0.5293   0.5314   0.5349   0.5374   0.5390   0.5413   0.5439
  0.5478   0.5505   0.5578   0.5625   0.5646   0.5734   0.5758   0.5813
  0.5843   0.5883   0.5941   0.5975   0.6004   0.6025   0.6104   0.6117
  0.6144   0.6164   0.6170   0.6228   0.6238   0.6259   0.6305   0.6323
  0.6357   0.6400   0.6452   0.6472   0.6501   0.6537   0.6561   0.6620
  0.6692   0.6704   0.6792   0.6820   0.6883   0.6915   0.6994   0.7019
  0.7051   0.7081   0.7155   0.7162   0.7194   0.7227   0.7346   0.7387
  0.7444   0.7507   0.7542   0.7625   0.7641   0.7727   0.7751   0.7808
  0.7891   0.7991   0.8022   0.8073   0.8099   0.8144   0.8212   0.8257
  0.8323   0.8370   0.8446   0.8488   0.8571   0.8632   0.8639   0.8748
  0.8782   0.8847   0.8883   0.8960   0.9015   0.9038   0.9092   0.9160
  0.9247   0.9285   0.9351   0.9367   0.9427   0.9504   0.9542   0.9573
  0.9615   0.9650   0.9707   0.9750   0.9783   0.9845   0.9933   0.9961
  0.9975   0.9987   1.0041   1.0179   1.0203   1.0224   1.0243   1.0361
  1.0423   1.0454   1.0477   1.0533   1.0553   1.0607   1.0642   1.0746
  1.0780   1.0822   1.0841   1.0941   1.0991   1.1038   1.1080   1.1124
  1.1156   1.1177   1.1196   1.1258   1.1304   1.1361   1.1457   1.1513
  1.1569   1.1641   1.1691   1.1702   1.1749   1.1792   1.1845   1.1859
  1.1894   1.1936   1.1952   1.2054   1.2088   1.2133   1.2170   1.2246
  1.2270   1.2279   1.2380   1.2403   1.2466   1.2532   1.2545   1.2599
  1.2649   1.2687   1.2723   1.2747   1.2814   1.2877   1.2895   1.2945
  1.3014   1.3047   1.3074   1.3101   1.3289   1.3340   1.3411   1.3476
  1.3513   1.3560   1.3641   1.3720   1.3814   1.3920   1.3961   1.4061
  1.4078   1.4162   1.4208   1.4262   1.4322   1.4365   1.4544   1.4573
  1.4636   1.4659   1.4713   1.4819   1.4903   1.4940   1.4967   1.4978
  1.5016   1.5079   1.5095   1.5146   1.5276   1.5349   1.5355   1.5361
  1.5420   1.5447   1.5485   1.5521   1.5642   1.5700   1.5725   1.5805
  1.5868   1.5886   1.6014   1.6107   1.6153   1.6192   1.6272   1.6322
  1.6472   1.6535   1.6567   1.6648   1.6694   1.6797   1.6810   1.6836
  1.6901   1.6982   1.7053   1.7144   1.7225   1.7258   1.7341   1.7430
  1.7531   1.7637   1.7668   1.7906   1.7937   1.7969   1.8050   1.8167
  1.8172   1.8237   1.8348   1.8385   1.8511   1.8524   1.8729   1.8767
  1.8800   1.8970   1.9039   1.9163   1.9187   1.9229   1.9363   1.9407
  1.9502   1.9550   1.9567   1.9674   1.9821   1.9930   1.9948   1.9985
  2.0088   2.0155   2.0239   2.0334   2.0402   2.0411   2.0491   2.0639
  2.0698   2.0782   2.0799   2.0937   2.0980   2.1037   2.1084   2.1146
  2.1369   2.1465   2.1541   2.1678   2.1720   2.1785   2.1860   2.1905
  2.1971   2.2010   2.2071   2.2192   2.2246   2.2275   2.2328   2.2366
  2.2441   2.2522   2.2589   2.2713   2.2785   2.2879   2.2948   2.2985
  2.3090   2.3130   2.3254   2.3323   2.3388   2.3506   2.3563   2.3660
  2.3771   2.3815   2.3909   2.4043   2.4069   2.4129   2.4203   2.4241
  2.4289   2.4401   2.4413   2.4523   2.4619   2.4758   2.4835   2.4858
  2.4944   2.5031   2.5159   2.5248   2.5368   2.5424   2.5565   2.5593
  2.5671   2.5752   2.5895   2.6023   2.6070   2.6191   2.6223   2.6302
  2.6355   2.6383   2.6411   2.6473   2.6540   2.6572   2.6689   2.6747
  2.6819   2.6892   2.6944   2.6978   2.7048   2.7082   2.7099   2.7283
  2.7303   2.7366   2.7436   2.7494   2.7587   2.7732   2.7779   2.7811
  2.7828   2.7929   2.7957   2.8024   2.8147   2.8214   2.8261   2.8361
  2.8473   2.8512   2.8557   2.8613   2.8650   2.8689   2.8765   2.8845
  2.8862   2.8908   2.8992   2.9232   2.9278   2.9321   2.9401   2.9506
  2.9541   2.9604   2.9614   2.9712   2.9743   2.9848   2.9882   2.9980
  3.0020   3.0151   3.0193   3.0225   3.0263   3.0369   3.0374   3.0473
  3.0554   3.0588   3.0666   3.0712   3.0778   3.0911   3.0951   3.0997
  3.1036   3.1064   3.1107   3.1162   3.1262   3.1287   3.1397   3.1449
  3.1462   3.1501   3.1551   3.1627   3.1660   3.1749   3.1792   3.1831
  3.1868   3.1925   3.2058   3.2096   3.2147   3.2196   3.2214   3.2259
  3.2350   3.2358   3.2428   3.2512   3.2533   3.2567   3.2650   3.2725
  3.2732   3.2768   3.2805   3.2874   3.2898   3.2973   3.3016   3.3075
  3.3095   3.3155   3.3243   3.3271   3.3352   3.3395   3.3442   3.3476
  3.3508   3.3550   3.3571   3.3608   3.3622   3.3666   3.3741   3.3789
  3.3806   3.3871   3.3909   3.3946   3.3982   3.4049   3.4067   3.4099
  3.4125   3.4164   3.4230   3.4297   3.4311   3.4367   3.4368   3.4524
  3.4555   3.4597   3.4640   3.4684   3.4726   3.4777   3.4789   3.4868
  3.4893   3.4944   3.4965   3.5024   3.5105   3.5170   3.5236   3.5328
  3.5425   3.5462   3.5508   3.5559   3.5584   3.5663   3.5762   3.5806
  3.5868   3.5906   3.5936   3.5985   3.6028   3.6046   3.6148   3.6160
  3.6223   3.6296   3.6312   3.6345   3.6401   3.6464   3.6551   3.6589
  3.6629   3.6704   3.6765   3.6807   3.6828   3.6899   3.6955   3.6985
  3.7038   3.7049   3.7147   3.7166   3.7184   3.7292   3.7350   3.7390
  3.7433   3.7552   3.7564   3.7695   3.7723   3.7733   3.7803   3.7859
  3.7915   3.7990   3.8023   3.8072   3.8091   3.8113   3.8158   3.8214
  3.8230   3.8317   3.8374   3.8456   3.8519   3.8587   3.8613   3.8676
  3.8689   3.8767   3.8794   3.8832   3.8916   3.8951   3.9072   3.9129
  3.9156   3.9270   3.9299   3.9325   3.9418   3.9517   3.9618   3.9628
  3.9678   3.9714   3.9891   3.9950   4.0010   4.0089   4.0122   4.0166
  4.0272   4.0353   4.0401   4.0486   4.0543   4.0650   4.0677   4.0697
  4.0755   4.0867   4.0999   4.1026   4.1183   4.1223   4.1341   4.1355
  4.1447   4.1546   4.1606   4.1626   4.1670   4.1695   4.1749   4.1805
  4.1858   4.1926   4.1951   4.2027   4.2151   4.2233   4.2273   4.2317
  4.2469   4.2548   4.2654   4.2713   4.2775   4.2904   4.3045   4.3213
  4.3293   4.3385   4.3405   4.3453   4.3572   4.3585   4.3654   4.3671
  4.3741   4.3757   4.3864   4.3941   4.4031   4.4077   4.4186   4.4218
  4.4259   4.4265   4.4313   4.4348   4.4396   4.4477   4.4521   4.4632
  4.4757   4.4854   4.4900   4.5015   4.5120   4.5215   4.5286   4.5324
  4.5393   4.5484   4.5542   4.5707   4.5735   4.5753   4.5822   4.5860
  4.5997   4.6091   4.6169   4.6244   4.6388   4.6460   4.6571   4.6578
  4.6679   4.6792   4.6839   4.6962   4.7098   4.7222   4.7265   4.7350
  4.7388   4.7590   4.7668   4.7713   4.7914   4.7985   4.8131   4.8189
  4.8284   4.8352   4.8425   4.8445   4.8644   4.8737   4.8778   4.8865
  4.9158   4.9285   4.9366   4.9416   4.9504   4.9549   4.9698   4.9831
  4.9907   5.0054   5.0075   5.0149   5.0191   5.0315   5.0382   5.0548
  5.0702   5.0908   5.0933   5.1007   5.1093   5.1406   5.1493   5.1676
  5.1779   5.1976   5.2074   5.2099   5.2326   5.2363   5.2480   5.2504
  5.2554   5.2592   5.2797   5.2931   5.2973   5.3171   5.3259   5.3288
  5.3336   5.3458   5.3488   5.3716   5.3772   5.3813   5.3978   5.4036
  5.4110   5.4184   5.4248   5.4374   5.4466   5.4701   5.4838   5.5066
  5.5123   5.5140   5.5239   5.5332   5.5665   5.5777   5.5831   5.5929
  5.5970   5.6137   5.6143   5.6197   5.6476   5.6576   5.6671   5.6952
  5.7198   5.7281   5.7532   5.7688   5.7723   5.8056   5.8195   5.8485
  5.8617   5.8792   5.9047   5.9200   5.9275   5.9612   5.9821   6.0060
  6.0400   6.0411   6.0585   6.1295   6.1489   6.1577   6.1748   6.1778
  6.1811   6.1959   6.2400   6.2494   6.2594   6.2597   6.2723   6.2821
  6.2915   6.3142   6.3545   6.3756   6.4480   6.4496   6.5134   6.5404
  6.5511   6.5785   6.6000   6.6493   6.6620   6.6694   6.7252   6.7436
  6.8135   6.8281   6.8574   6.8603   6.9024   6.9763   7.1342   7.1490
  7.2020   7.2045   7.2249   7.2417   7.3081   7.3318   7.3448   7.3590
  7.3603   7.4034   7.4115   7.4812   7.4892   7.4977   7.5178   7.5486
  7.6128   7.7424   7.7687   7.7887   7.8054   7.8983   7.9288   7.9567
  7.9730   8.1302   8.2617   8.5426   8.9179   9.0327   9.3593   9.4848
  9.6702  10.2851  11.2371  11.4310  11.7679  12.0739  12.1305  12.3552
 12.4432  12.5318  12.9398  12.9562  13.0056  13.3772  13.4144  13.4860
 13.7444  13.8387  13.8808  13.9428  14.0476  14.3187  15.0778  15.2201
 --------------------------------------------------------------
 
          Ground-State Mulliken Net Atomic Charges

     Atom                 Charge (a.u.)
  ----------------------------------------
      1 C                    -0.068610
      2 C                    -0.281704
      3 S                    -0.143810
      4 C                    -0.040065
      5 H                     0.190615
      6 C                    -0.055067
      7 C                     0.229965
      8 C                     0.223581
      9 C                    -0.069237
     10 C                    -0.060970
     11 O                    -0.336041
     12 O                    -0.344335
     13 C                    -0.082833
     14 H                     0.119431
     15 H                     0.092574
     16 H                     0.092356
     17 C                    -0.086774
     18 H                     0.123308
     19 H                     0.091622
     20 H                     0.089173
     21 C                    -0.275581
     22 S                    -0.109150
     23 C                     0.086613
     24 H                     0.208827
     25 C                    -0.210895
     26 S                     0.107499
     27 C                    -0.122919
     28 C                     0.045776
     29 C                    -0.105708
     30 S                     0.059582
     31 C                    -0.154392
     32 C                     0.402984
     33 F                    -0.203624
     34 C                     0.448648
     35 O                    -0.461745
     36 O                    -0.301206
     37 C                    -0.058022
     38 H                     0.121858
     39 H                     0.095560
     40 H                     0.095515
     41 H                     0.219641
     42 H                     0.114398
     43 H                     0.112030
     44 H                     0.201131
  ----------------------------------------
  Sum of atomic charges =     0.000000

 -----------------------------------------------------------------
                    Cartesian Multipole Moments
 -----------------------------------------------------------------
    Charge (ESU x 10^10)
                 0.0000
    Dipole Moment (Debye)
         X       3.2720      Y       3.7466      Z       1.9641
       Tot       5.3480
    Quadrupole Moments (Debye-Ang)
        XX    -174.7438     XY      10.3460     YY    -198.0501
        XZ     -14.4628     YZ      -6.3742     ZZ    -199.4135
    Octopole Moments (Debye-Ang^2)
       XXX    -473.8314    XXY     436.7084    XYY    -174.6808
       YYY    1295.4355    XXZ     133.8270    XYZ       8.9395
       YYZ     193.8915    XZZ     -92.9814    YZZ     504.1270
       ZZZ     584.4034
    Hexadecapole Moments (Debye-Ang^3)
      XXXX   -3803.5821   XXXY    -268.4387   XXYY   -3848.1464
      XYYY    -173.9807   YYYY  -18862.0495   XXXZ    1670.7579
      XXYZ      24.7724   XYYZ     436.0322   YYYZ     155.1024
      XXZZ   -1204.3853   XYZZ     157.7436   YYZZ   -4386.2366
      XZZZ    1437.2636   YZZZ     104.7276   ZZZZ   -6663.1166
 -----------------------------------------------------------------
 Total job time:  344.49s(wall), 10729.30s(cpu) 
 Tue Jan  9 11:52:45 2024

        *************************************************************
        *                                                           *
        *  Thank you very much for using Q-Chem.  Have a nice day.  *
        *                                                           *
        *************************************************************


0 sent ACK to 0 
now end server 0 ... 
cleanup process ... done
remove work dirs ./qchem2056380.0 -- ./qchem2056380.0
rm -rf ./qchem2056380.0
rm -rf ./qchem2056380
