You are running Q-Chem version: 5.4.0

#
# job setting
#
local host:  exp-6-38
current dir: /home/rramji/project-csd799/aromodel/ptb7fout-qchem/hydrogenated-rotation-run
input file:  Dimethoxy_Benzodithiophene_Phi_5_Theta_100_Methylcarbonyl_3_Fluoro_Thienothiophene_Hydrogenated.qcin
output file: 
nprocs     : 1
nthreads   : 64
#
# qchem installation setting
#
QC:          /cm/shared/apps/spack/cpu/opt/spack/linux-centos8-zen2/gcc-10.2.0/qchem-5.4-akfmr7b3t57bfs6qan3padb2wnb2i7cl
QCAUX:       /cm/shared/apps/spack/cpu/opt/spack/linux-centos8-zen2/gcc-10.2.0/qchem-5.4-akfmr7b3t57bfs6qan3padb2wnb2i7cl/qcaux
QCPROG:      /cm/shared/apps/spack/cpu/opt/spack/linux-centos8-zen2/gcc-10.2.0/qchem-5.4-akfmr7b3t57bfs6qan3padb2wnb2i7cl/exe/qcprog.exe
QCPROG_S:    /cm/shared/apps/spack/cpu/opt/spack/linux-centos8-zen2/gcc-10.2.0/qchem-5.4-akfmr7b3t57bfs6qan3padb2wnb2i7cl/exe/qcprog.exe_s
PARALLEL:    -DPARALLEL
QCMPI:       mpich
#
# qchem directory setting
#
qcrun:       qchem3758714
QCSCRATCH:   .
QCLOCALSCR:  
QCTMPDIR:    .
QCFILEPREF:  ./qchem3758714
QCSAVEDIR:   
workdirs:    ./qchem3758714
workdir0:    ./qchem3758714
partmpdirs =  
#
# parallel setting
#
QCRSH:           ssh
QCMPI:           mpich
QCMPIRUN:        /cm/shared/apps/spack/cpu/opt/spack/linux-centos8-zen2/gcc-10.2.0/qchem-5.4-akfmr7b3t57bfs6qan3padb2wnb2i7cl/bin/mpi/mpirun_qchem
QCMACHINEFILE:   ./qchem3758714/hostfile
exp-6-38

#
# env setting
#
exported envs:   QC QCAUX QCSCRATCH QCRUNNAME QCFILEPREF QCPROG QCPROG_S GUIFILE

Running Job 1 of 1 Dimethoxy_Benzodithiophene_Phi_5_Theta_100_Methylcarbonyl_3_Fluoro_Thienothiophene_Hydrogenated.qcin
qchem Dimethoxy_Benzodithiophene_Phi_5_Theta_100_Methylcarbonyl_3_Fluoro_Thienothiophene_Hydrogenated.qcin_3758714.0 ./qchem3758714/ 1
/cm/shared/apps/spack/cpu/opt/spack/linux-centos8-zen2/gcc-10.2.0/qchem-5.4-akfmr7b3t57bfs6qan3padb2wnb2i7cl/bin/mpi/mpirun_qchem -machinefile ./qchem3758714/hostfile -np 1 /cm/shared/apps/spack/cpu/opt/spack/linux-centos8-zen2/gcc-10.2.0/qchem-5.4-akfmr7b3t57bfs6qan3padb2wnb2i7cl/exe/qcprog.exe Dimethoxy_Benzodithiophene_Phi_5_Theta_100_Methylcarbonyl_3_Fluoro_Thienothiophene_Hydrogenated.qcin_3758714.0 ./qchem3758714/

Process 0 of 1 is on exp-6-38 - thread support 0
initial socket setup ...start
initial socket setup ...done 
now start server 0 ... 
                  Welcome to Q-Chem
     A Quantum Leap Into The Future Of Chemistry


 Q-Chem 5.4, Q-Chem, Inc., Pleasanton, CA (2021)

 License issued to: University of California, San Diego (site)

 E. Epifanovsky,  A. T. B. Gilbert,  Xintian Feng,  Joonho Lee,  Yuezhi Mao,  
 N. Mardirossian,  P. Pokhilko,  A. White,  M. Wormit,  M. P. Coons,  
 A. L. Dempwolff,  Zhengting Gan,  D. Hait,  P. R. Horn,  L. D. Jacobson,  
 I. Kaliman,  J. Kussmann,  A. W. Lange,  Ka Un Lao,  D. S. Levine,  Jie Liu,  
 S. C. McKenzie,  A. F. Morrison,  K. Nanda,  F. Plasser,  D. R. Rehn,  
 M. L. Vidal,  Zhi-Qiang You,  Ying Zhu,  B. Alam,  B. Albrecht,  
 A. Aldossary,  E. Alguire,  J. H. Andersen,  D. Barton,  K. Begam,  A. Behn,  
 Y. A. Bernard,  E. J. Berquist,  H. Burton,  A. Carreras,  K. Carter-Fenk,  
 R. Chakraborty,  A. D. Chien,  K. D. Closser,  V. Cofer-Shabica,  
 S. Dasgupta,  Jia Deng,  M. de Wergifosse,  M. Diedenhofen,  Hainam Do,  
 S. Ehlert,  Po-Tung Fang,  S. Fatehi,  Qingguo Feng,  J. Gayvert,  
 Qinghui Ge,  G. Gidofalvi,  M. Goldey,  J. Gomes,  C. Gonzalez-Espinoza,  
 S. Gulania,  A. Gunina,  M. W. D. Hanson-Heine,  P. H. P. Harbach,  
 A. W. Hauser,  M. F. Herbst,  M. Hernandez Vera,  M. Hodecker,  
 Z. C. Holden,  S. Houck,  Xunkun Huang,  Kerwin Hui,  B. C. Huynh,  
 M. Ivanov,  Hyunjun Ji,  Hanjie Jiang,  B. Kaduk,  S. Kaehler,  
 K. Khistyaev,  Jaehoon Kim,  P. Klunzinger,  Z. Koczor-Benda,  
 Joong Hoon Koh,  D. Kosenkov,  L. Koulias,  T. Kowalczyk,  C. M. Krauter,  
 K. Kue,  A. Kunitsa,  T. Kus,  A. Landau,  K. V. Lawler,  D. Lefrancois,  
 S. Lehtola,  Rain Li,  Yi-Pei Li,  Jiashu Liang,  M. Liebenthal,  
 Hung-Hsuan Lin,  You-Sheng Lin,  Fenglai Liu,  Kuan-Yu Liu,  
 M. Loipersberger,  A. Luenser,  A. Manjanath,  P. Manohar,  E. Mansoor,  
 S. F. Manzer,  Shan-Ping Mao,  A. V. Marenich,  T. Markovich,  S. Mason,  
 S. A. Maurer,  P. F. McLaughlin,  M. F. S. J. Menger,  J.-M. Mewes,  
 S. A. Mewes,  P. Morgante,  J. W. Mullinax,  T. S. Nguyen-Beck,  
 K. J. Oosterbaan,  G. Paran,  Alexander C. Paul,  Suranjan K. Paul,  
 F. Pavosevic,  Zheng Pei,  S. Prager,  E. I. Proynov,  E. Ramos,  B. Rana,  
 A. E. Rask,  A. Rettig,  R. M. Richard,  F. Rob,  E. Rossomme,  T. Scheele,  
 M. Scheurer,  M. Schneider,  N. Sergueev,  S. M. Sharada,  W. Skomorowski,  
 D. W. Small,  C. J. Stein,  Yu-Chuan Su,  E. J. Sundstrom,  Zhen Tao,  
 J. Thirman,  T. Tsuchimochi,  N. M. Tubman,  S. P. Veccham,  O. Vydrov,  
 J. Wenzel,  J. Witte,  A. Yamada,  Kun Yao,  S. Yeganeh,  S. R. Yost,  
 A. Zech,  Igor Ying Zhang,  Xing Zhang,  Yu Zhang,  D. Zuev,  
 A. Aspuru-Guzik,  A. T. Bell,  N. A. Besley,  K. B. Bravaya,  B. R. Brooks,  
 D. Casanova,  Jeng-Da Chai,  S. Coriani,  C. J. Cramer,  
 A. E. DePrince, III,  R. A. DiStasio Jr.,  A. Dreuw,  B. D. Dunietz,  
 T. R. Furlani,  W. A. Goddard III,  S. Grimme,  S. Hammes-Schiffer,  
 T. Head-Gordon,  W. J. Hehre,  Chao-Ping Hsu,  T.-C. Jagau,  Yousung Jung,  
 A. Klamt,  Jing Kong,  D. S. Lambrecht,  WanZhen Liang,  N. J. Mayhall,  
 C. W. McCurdy,  J. B. Neaton,  C. Ochsenfeld,  J. A. Parkhill,  R. Peverati,  
 V. A. Rassolov,  Yihan Shao,  L. V. Slipchenko,  T. Stauch,  R. P. Steele,  
 J. E. Subotnik,  A. J. W. Thom,  A. Tkatchenko,  D. G. Truhlar,  
 T. Van Voorhis,  T. A. Wesolowski,  K. B. Whaley,  H. L. Woodcock III,  
 P. M. Zimmerman,  S. Faraji,  P. M. W. Gill,  M. Head-Gordon,  
 J. M. Herbert,  A. I. Krylov

 Contributors to earlier versions of Q-Chem not listed above: 
 R. D. Adamson,  B. Austin,  R. Baer,  J. Baker,  G. J. O. Beran,  
 K. Brandhorst,  S. T. Brown,  E. F. C. Byrd,  A. K. Chakraborty,  
 G. K. L. Chan,  Chun-Min Chang,  Yunqing Chen,  C.-L. Cheng,  
 Siu Hung Chien,  D. M. Chipman,  D. L. Crittenden,  H. Dachsel,  
 R. J. Doerksen,  A. D. Dutoi,  R. G. Edgar,  J. Fosso-Tande,  
 L. Fusti-Molnar,  D. Ghosh,  A. Ghysels,  A. Golubeva-Zadorozhnaya,  
 J. Gonthier,  M. S. Gordon,  S. R. Gwaltney,  G. Hawkins,  J. E. Herr,  
 A. Heyden,  S. Hirata,  E. G. Hohenstein,  G. Kedziora,  F. J. Keil,  
 C. Kelley,  Jihan Kim,  R. A. King,  R. Z. Khaliullin,  P. P. Korambath,  
 W. Kurlancheek,  A. Laurent,  A. M. Lee,  M. S. Lee,  S. V. Levchenko,  
 Ching Yeh Lin,  D. Liotard,  E. Livshits,  R. C. Lochan,  I. Lotan,  
 L. A. Martinez-Martinez,  P. E. Maslen,  N. Nair,  D. P. O'Neill,  
 D. Neuhauser,  E. Neuscamman,  C. M. Oana,  R. Olivares-Amaya,  R. Olson,  
 T. M. Perrine,  B. Peters,  P. A. Pieniazek,  A. Prociuk,  Y. M. Rhee,  
 J. Ritchie,  M. A. Rohrdanz,  E. Rosta,  N. J. Russ,  H. F. Schaefer III,  
 M. W. Schmidt,  N. E. Schultz,  S. Sharma,  N. Shenvi,  C. D. Sherrill,  
 A. C. Simmonett,  A. Sodt,  T. Stein,  D. Stuck,  K. S. Thanthiriwatte,  
 V. Vanovschi,  L. Vogt,  Tao Wang,  A. Warshel,  M. A. Watson,  
 C. F. Williams,  Q. Wu,  X. Xu,  Jun Yang,  W. Zhang,  Yan Zhao

 Please cite Q-Chem as follows:
 Y. Shao et al., Mol. Phys. 113, 184-215 (2015)
 DOI: 10.1080/00268976.2014.952696

 Q-Chem 5.4.0 for Intel X86 EM64T Linux

 Parts of Q-Chem use Armadillo 9.800.1 (Horizon Scraper).
 http://arma.sourceforge.net/

 Q-Chem begins on Tue Jan  9 10:37:11 2024  

 Host: 
0

     Scratch files written to ./qchem3758714//
 May1621 |scratch|qcdevops|jenkins|workspace|build_RNUM    
 Parallel job on  1  processors
 Processing $rem in /cm/shared/apps/spack/cpu/opt/spack/linux-centos8-zen2/gcc-10.2.0/qchem-5.4-akfmr7b3t57bfs6qan3padb2wnb2i7cl/config/preferences:
 Processing $rem in /home/rramji/.qchemrc:
 Symmetry turned off for PCM/SM12/SMD calculation
 Core orbitals will be frozen

 Checking the input file for inconsistencies... 	...done.

 Q-Chem warning in module forms1/BasisType.C, line 2236:

 You are not using the predefined 5D/6D in this basis set.


--------------------------------------------------------------
User input:
--------------------------------------------------------------
$molecule
0 1
C	-0.306235	-8.517702	-0.095966
C	0.754415	-7.641575	0.082807
S	-1.833702	-7.638634	-0.348635
C	0.383675	-6.264785	0.017401
H	1.787757	-7.966081	0.259008
C	-1.020885	-6.072714	-0.231913
C	-1.579097	-4.787049	-0.305044
C	1.268082	-5.162801	0.196549
C	0.708796	-3.874817	0.127606
C	-0.696769	-3.683952	-0.124792
O	2.572378	-5.499772	0.397867
O	-2.889532	-4.459055	-0.506103
C	-3.718420	-5.329063	-1.267335
H	-4.635204	-4.755694	-1.502804
H	-4.010790	-6.238095	-0.697471
H	-3.226506	-5.637262	-2.215194
C	3.467415	-4.572261	0.999238
H	4.388648	-5.139743	1.230649
H	3.052323	-4.153131	1.940905
H	3.730819	-3.739531	0.311543
C	-1.064366	-2.306654	-0.187323
S	1.521154	-2.306501	0.257128
C	-0.000000	-1.435185	-0.000000
H	-2.095939	-1.978138	-0.365903
C	0.000000	0.000000	0.000000
S	0.079327	0.901280	1.507541
C	0.215617	2.467903	0.718873
C	0.079577	0.900940	-1.067872
C	0.198433	2.285998	-0.686410
S	0.061187	0.658044	-2.805516
C	0.208347	2.403534	-3.054530
C	0.267636	3.109360	-1.862551
F	0.379347	4.441341	-1.819088
C	0.249278	2.849688	-4.456084
O	0.190132	2.082076	-5.406510
O	0.359548	4.195721	-4.569225
C	0.407901	4.688467	-5.916207
H	0.496901	5.785916	-5.833064
H	-0.512596	4.414348	-6.470168
H	1.278377	4.268124	-6.459293
H	0.294764	3.388767	1.306486
H	-0.457736	-9.143623	0.791346
H	-0.158056	-9.149441	-0.979708
H	-0.180205	-1.443175	1.064830
$end

$rem
JOBTYPE		SP
EXCHANGE	HF
CORRELATION	pRIMP2
BASIS		cc-pvtz
METHOD		rimp2
AUX_BASIS	rimp2-cc-pvtz
SOLVENT_METHOD	PCM
PURECART	11111
SYMMETRY	false
MEM_TOTAL	110000
SCF_CONVERGENCE = 6
THRESH=10
GUI = 2
$end



$solvent
dielectric 4.90
$end
--------------------------------------------------------------
 ----------------------------------------------------------------
             Standard Nuclear Orientation (Angstroms)
    I     Atom           X                Y                Z
 ----------------------------------------------------------------
    1      C      -0.3062350000    -8.5177020000    -0.0959660000
    2      C       0.7544150000    -7.6415750000     0.0828070000
    3      S      -1.8337020000    -7.6386340000    -0.3486350000
    4      C       0.3836750000    -6.2647850000     0.0174010000
    5      H       1.7877570000    -7.9660810000     0.2590080000
    6      C      -1.0208850000    -6.0727140000    -0.2319130000
    7      C      -1.5790970000    -4.7870490000    -0.3050440000
    8      C       1.2680820000    -5.1628010000     0.1965490000
    9      C       0.7087960000    -3.8748170000     0.1276060000
   10      C      -0.6967690000    -3.6839520000    -0.1247920000
   11      O       2.5723780000    -5.4997720000     0.3978670000
   12      O      -2.8895320000    -4.4590550000    -0.5061030000
   13      C      -3.7184200000    -5.3290630000    -1.2673350000
   14      H      -4.6352040000    -4.7556940000    -1.5028040000
   15      H      -4.0107900000    -6.2380950000    -0.6974710000
   16      H      -3.2265060000    -5.6372620000    -2.2151940000
   17      C       3.4674150000    -4.5722610000     0.9992380000
   18      H       4.3886480000    -5.1397430000     1.2306490000
   19      H       3.0523230000    -4.1531310000     1.9409050000
   20      H       3.7308190000    -3.7395310000     0.3115430000
   21      C      -1.0643660000    -2.3066540000    -0.1873230000
   22      S       1.5211540000    -2.3065010000     0.2571280000
   23      C       0.0000000000    -1.4351850000     0.0000000000
   24      H      -2.0959390000    -1.9781380000    -0.3659030000
   25      C       0.0000000000     0.0000000000     0.0000000000
   26      S       0.0793270000     0.9012800000     1.5075410000
   27      C       0.2156170000     2.4679030000     0.7188730000
   28      C       0.0795770000     0.9009400000    -1.0678720000
   29      C       0.1984330000     2.2859980000    -0.6864100000
   30      S       0.0611870000     0.6580440000    -2.8055160000
   31      C       0.2083470000     2.4035340000    -3.0545300000
   32      C       0.2676360000     3.1093600000    -1.8625510000
   33      F       0.3793470000     4.4413410000    -1.8190880000
   34      C       0.2492780000     2.8496880000    -4.4560840000
   35      O       0.1901320000     2.0820760000    -5.4065100000
   36      O       0.3595480000     4.1957210000    -4.5692250000
   37      C       0.4079010000     4.6884670000    -5.9162070000
   38      H       0.4969010000     5.7859160000    -5.8330640000
   39      H      -0.5125960000     4.4143480000    -6.4701680000
   40      H       1.2783770000     4.2681240000    -6.4592930000
   41      H       0.2947640000     3.3887670000     1.3064860000
   42      H      -0.4577360000    -9.1436230000     0.7913460000
   43      H      -0.1580560000    -9.1494410000    -0.9797080000
   44      H      -0.1802050000    -1.4431750000     1.0648300000
 ----------------------------------------------------------------
 Nuclear Repulsion Energy =        3329.62135822 hartrees
 There are      120 alpha and      120 beta electrons
 Requested basis set is cc-pVTZ
 There are 388 shells and 1096 basis functions

 Total QAlloc Memory Limit 110000 MB
 Mega-Array Size       188 MB
 MEM_STATIC part       192 MB
 Discretize the solute cavity surface with Lebedev spheres
	Using 110 Lebedev grid points for each H atom
	Using 194 Lebedev grid points for other atoms
	Atomic van der Waals radii will be scaled by 1.20
 Remove points where switching function is < 1.0e-08
 Keep 3003 surface tesserae and discard 4273 interior tesserae
 Molecular Surface Area = 445.553 Angst**2
 Requested basis set is rimp2-cc-pVTZ
 There are 853 shells and 2963 basis functions
 A cutoff of  1.0D-10 yielded  32817 shell pairs
 There are    248093 function pairs (    321076 Cartesian)
 Smallest overlap matrix eigenvalue = 2.22E-05

 Scale SEOQF with 1.000000e-01/1.000000e-02/1.000000e-02

 Standard Electronic Orientation quadrupole field applied
 Nucleus-field energy     =     0.0000000393 hartrees
 Guess from superposition of atomic densities
 Warning:  Energy on first SCF cycle will be non-variational
 SAD guess density has 240.000000 electrons

 -----------------------------------------------------------------------
  General SCF calculation program by
  Eric Jon Sundstrom, Paul Horn, Yuezhi Mao, Dmitri Zuev, Alec White,
  David Stuck, Shaama M.S., Shane Yost, Joonho Lee, David Small,
  Daniel Levine, Susi Lehtola, Hugh Burton, Evgeny Epifanovsky,
  Bang C. Huynh
 -----------------------------------------------------------------------
 Hartree-Fock
 using 64 threads for integral computing
 -------------------------------------------------------
 OpenMP Integral computing Module                
 Release: version 1.0, May 2013, Q-Chem Inc. Pittsburgh 
 -------------------------------------------------------
 A restricted SCF calculation will be
 performed using DIIS
 SCF converges when DIIS error is below 1.0e-06
 ---------------------------------------
  Cycle       Energy         DIIS error
 ---------------------------------------
    1   -2767.0186150308      1.75e-02  
    2   -2754.8964272111      1.53e-03  
    3   -2755.2445394474      8.49e-04  
    4   -2755.3296408887      2.57e-04  
    5   -2755.3430240755      7.33e-05  
    6   -2755.3444979847      2.56e-05  
    7   -2755.3448757393      1.33e-05  
    8   -2755.3449993910      5.60e-06  
    9   -2755.3450294056      2.84e-06  
   10   -2755.3450365815      1.47e-06  
   11   -2755.3450388576      7.49e-07  Convergence criterion met
 ---------------------------------------
 SCF time:   CPU 7428.26s  wall 281.00s 

************** Final PCM Free Energy Summary **************
 G_electrostatic  =      -0.02137218 hartree =     -13.41124469 kcal/mol
 G_cavitation     =       0.00000000 hartree =       0.00000000 kcal/mol
 G_dispersion     =       0.00000000 hartree =       0.00000000 kcal/mol
 G_repulsion      =       0.00000000 hartree =       0.00000000 kcal/mol
 --------------------------------------------------
 Non-electrostatic Free Energy =       0.00000000 hartree =       0.00000000 kcal/mol
 Total                         =      -0.02137218 hartree =     -13.41124469 kcal/mol
 --------------------------------------------------
 SCF Energy (H0 + V/2)                       =   -2755.34503886 
 Solute Internal Energy (H0)                 =   -2755.32366668 
 Total Free Energy (H0 + V/2 + non-elec)     =   -2755.34503886 hartree
                                             = -1729005.10775598 kcal/mol
***********************************************************

 SCF   energy in the final basis set =    -2755.3450388576
 Total energy in the final basis set =    -2755.3450388576


 --------------------------------------------------------------
  Generalized many-body perturbation theory program
  by Joonho Lee, Fazle Rob, Xintian Feng, Evgeny Epifanovsky

 No regularization used 
 (reg. param. = 0.0000e+00)
  (P|Q)^-1/2 Time:  CPU 136.66 s  wall 2.47 s

 In RI-MP2 calculation: 
 # of frozen core orbitals: 45

 Components of the RIMP2 correlation energy:
        aaaa    correlation energy =        -0.6682147506 a.u.
        abab    correlation energy =        -3.7502988235 a.u.
        bbbb    correlation energy =        -0.6682147506 a.u.
        non-Brillouin singles      =        -0.0000000000 a.u.
        total same-spin energy     =        -1.3364295013 a.u.
        total opposite-spin energy =        -3.7502988235 a.u.

 Total  RIMP2   correlation energy =        -5.0867283248 a.u.
        RIMP2         total energy =     -2760.4317671824 a.u.

 RI-MP2 Energy Time:  CPU 2867.84 s  wall 46.47 s
 
 --------------------------------------------------------------
 
                    Orbital Energies (a.u.)
 --------------------------------------------------------------
 
 Alpha MOs
 -- Occupied --
-92.0179 -91.9982 -91.9764 -91.9577 -26.3435 -20.6150 -20.5869 -20.5864
-20.5615 -11.4095 -11.3826 -11.3118 -11.3087 -11.3063 -11.2998 -11.2985
-11.2980 -11.2889 -11.2851 -11.2842 -11.2825 -11.2825 -11.2790 -11.2723
-11.2720 -11.2577 -11.2567 -11.2492 -11.2358  -9.0164  -8.9983  -8.9787
 -8.9603  -6.6971  -6.6966  -6.6960  -6.6793  -6.6786  -6.6775  -6.6598
 -6.6589  -6.6576  -6.6415  -6.6406  -6.6396  -1.6606  -1.4674  -1.4099
 -1.4086  -1.3701  -1.2284  -1.2024  -1.1731  -1.1377  -1.0993  -1.0455
 -1.0441  -1.0246  -1.0033  -0.9965  -0.9628  -0.9587  -0.9480  -0.9404
 -0.8928  -0.8686  -0.8665  -0.8136  -0.7987  -0.7887  -0.7844  -0.7674
 -0.7567  -0.7376  -0.7255  -0.7170  -0.6971  -0.6860  -0.6846  -0.6794
 -0.6740  -0.6603  -0.6558  -0.6482  -0.6334  -0.6301  -0.6195  -0.6148
 -0.6112  -0.5991  -0.5914  -0.5766  -0.5714  -0.5642  -0.5583  -0.5538
 -0.5486  -0.5323  -0.5310  -0.5252  -0.5127  -0.5075  -0.5068  -0.5012
 -0.4855  -0.4816  -0.4765  -0.4740  -0.4714  -0.4679  -0.4607  -0.4459
 -0.4228  -0.3999  -0.3847  -0.3698  -0.3508  -0.3015  -0.2889  -0.2205
 -- Virtual --
  0.0343   0.0528   0.1072   0.1167   0.1399   0.1487   0.1532   0.1556
  0.1576   0.1609   0.1685   0.1741   0.1815   0.1837   0.1879   0.1953
  0.1994   0.2038   0.2052   0.2149   0.2194   0.2214   0.2255   0.2275
  0.2313   0.2326   0.2387   0.2464   0.2495   0.2548   0.2633   0.2688
  0.2727   0.2885   0.3005   0.3260   0.3297   0.3333   0.3378   0.3415
  0.3474   0.3542   0.3582   0.3618   0.3677   0.3811   0.3837   0.3853
  0.3891   0.3910   0.3927   0.4002   0.4054   0.4103   0.4149   0.4206
  0.4248   0.4268   0.4304   0.4360   0.4378   0.4415   0.4481   0.4504
  0.4553   0.4572   0.4637   0.4656   0.4687   0.4753   0.4785   0.4812
  0.4927   0.4961   0.4977   0.5038   0.5050   0.5083   0.5161   0.5196
  0.5199   0.5297   0.5332   0.5350   0.5400   0.5418   0.5443   0.5487
  0.5497   0.5547   0.5570   0.5592   0.5611   0.5670   0.5737   0.5782
  0.5807   0.5856   0.5888   0.5941   0.5983   0.6047   0.6086   0.6111
  0.6139   0.6185   0.6193   0.6197   0.6228   0.6246   0.6252   0.6295
  0.6338   0.6352   0.6416   0.6451   0.6474   0.6500   0.6530   0.6578
  0.6611   0.6661   0.6688   0.6740   0.6789   0.6864   0.6931   0.6956
  0.7026   0.7079   0.7124   0.7150   0.7188   0.7207   0.7234   0.7316
  0.7414   0.7461   0.7567   0.7586   0.7598   0.7710   0.7760   0.7840
  0.7925   0.7972   0.8014   0.8043   0.8138   0.8166   0.8192   0.8264
  0.8312   0.8370   0.8442   0.8466   0.8597   0.8626   0.8699   0.8750
  0.8772   0.8841   0.8860   0.8922   0.8954   0.9011   0.9061   0.9091
  0.9128   0.9230   0.9316   0.9326   0.9406   0.9478   0.9498   0.9547
  0.9569   0.9629   0.9666   0.9737   0.9798   0.9834   0.9850   0.9889
  0.9939   0.9974   1.0053   1.0089   1.0128   1.0207   1.0248   1.0279
  1.0350   1.0442   1.0472   1.0486   1.0516   1.0584   1.0657   1.0696
  1.0718   1.0789   1.0809   1.0868   1.0912   1.0962   1.1007   1.1056
  1.1098   1.1105   1.1149   1.1236   1.1290   1.1362   1.1426   1.1483
  1.1540   1.1568   1.1620   1.1653   1.1719   1.1748   1.1797   1.1858
  1.1872   1.1918   1.1979   1.2006   1.2076   1.2128   1.2150   1.2228
  1.2241   1.2276   1.2329   1.2390   1.2405   1.2475   1.2502   1.2533
  1.2602   1.2628   1.2650   1.2723   1.2755   1.2824   1.2894   1.2912
  1.3027   1.3042   1.3109   1.3142   1.3253   1.3287   1.3334   1.3430
  1.3546   1.3592   1.3671   1.3732   1.3816   1.3851   1.3934   1.4010
  1.4041   1.4071   1.4142   1.4198   1.4280   1.4336   1.4442   1.4539
  1.4561   1.4693   1.4792   1.4810   1.4882   1.4965   1.4983   1.5006
  1.5034   1.5058   1.5113   1.5168   1.5222   1.5322   1.5359   1.5387
  1.5407   1.5441   1.5499   1.5535   1.5550   1.5670   1.5755   1.5788
  1.5879   1.5895   1.6031   1.6046   1.6183   1.6250   1.6275   1.6383
  1.6430   1.6520   1.6579   1.6614   1.6653   1.6715   1.6853   1.6857
  1.6917   1.7016   1.7073   1.7122   1.7202   1.7216   1.7281   1.7474
  1.7602   1.7649   1.7795   1.7814   1.7930   1.7995   1.8014   1.8122
  1.8190   1.8207   1.8315   1.8475   1.8494   1.8564   1.8681   1.8777
  1.8807   1.8897   1.8968   1.9014   1.9177   1.9258   1.9300   1.9377
  1.9398   1.9479   1.9576   1.9671   1.9714   1.9780   1.9943   1.9975
  2.0039   2.0146   2.0201   2.0237   2.0280   2.0369   2.0434   2.0523
  2.0645   2.0711   2.0795   2.0898   2.0956   2.0992   2.1068   2.1088
  2.1425   2.1502   2.1543   2.1616   2.1773   2.1827   2.1870   2.1937
  2.1989   2.2065   2.2093   2.2140   2.2249   2.2276   2.2301   2.2417
  2.2467   2.2549   2.2596   2.2629   2.2695   2.2785   2.2918   2.3039
  2.3100   2.3134   2.3230   2.3302   2.3450   2.3508   2.3567   2.3658
  2.3700   2.3842   2.3917   2.4021   2.4092   2.4129   2.4204   2.4273
  2.4307   2.4343   2.4579   2.4646   2.4688   2.4810   2.4909   2.4959
  2.4991   2.5135   2.5188   2.5330   2.5366   2.5448   2.5577   2.5615
  2.5677   2.5793   2.6001   2.6038   2.6148   2.6177   2.6233   2.6257
  2.6272   2.6302   2.6425   2.6467   2.6482   2.6525   2.6637   2.6742
  2.6765   2.6812   2.6858   2.6883   2.7024   2.7038   2.7060   2.7092
  2.7171   2.7261   2.7397   2.7475   2.7534   2.7560   2.7616   2.7718
  2.7808   2.7860   2.7901   2.8021   2.8061   2.8114   2.8148   2.8257
  2.8332   2.8435   2.8476   2.8524   2.8572   2.8653   2.8716   2.8736
  2.8795   2.8845   2.8897   2.9031   2.9122   2.9142   2.9260   2.9442
  2.9471   2.9531   2.9595   2.9609   2.9696   2.9802   2.9855   2.9879
  2.9920   3.0078   3.0184   3.0233   3.0235   3.0345   3.0398   3.0455
  3.0514   3.0586   3.0680   3.0813   3.0824   3.0924   3.0944   3.0992
  3.1029   3.1087   3.1126   3.1233   3.1275   3.1315   3.1413   3.1427
  3.1458   3.1509   3.1557   3.1600   3.1653   3.1696   3.1747   3.1811
  3.1901   3.1963   3.2025   3.2073   3.2110   3.2172   3.2240   3.2276
  3.2317   3.2362   3.2437   3.2519   3.2546   3.2579   3.2607   3.2661
  3.2692   3.2723   3.2793   3.2830   3.2877   3.2926   3.2967   3.2991
  3.3048   3.3105   3.3182   3.3237   3.3279   3.3335   3.3362   3.3402
  3.3452   3.3508   3.3513   3.3564   3.3633   3.3644   3.3674   3.3725
  3.3762   3.3779   3.3884   3.3910   3.3967   3.4010   3.4026   3.4055
  3.4063   3.4182   3.4233   3.4296   3.4315   3.4340   3.4385   3.4461
  3.4474   3.4534   3.4585   3.4618   3.4655   3.4716   3.4719   3.4759
  3.4858   3.4894   3.4935   3.4979   3.5069   3.5118   3.5210   3.5255
  3.5367   3.5437   3.5484   3.5530   3.5568   3.5671   3.5699   3.5720
  3.5767   3.5837   3.5872   3.5917   3.5953   3.6023   3.6081   3.6172
  3.6208   3.6241   3.6286   3.6303   3.6348   3.6414   3.6480   3.6538
  3.6578   3.6637   3.6745   3.6771   3.6812   3.6833   3.6878   3.6920
  3.6949   3.7041   3.7057   3.7090   3.7184   3.7203   3.7223   3.7304
  3.7338   3.7398   3.7501   3.7543   3.7544   3.7651   3.7683   3.7729
  3.7817   3.7867   3.7891   3.7953   3.8036   3.8072   3.8095   3.8150
  3.8174   3.8204   3.8221   3.8292   3.8462   3.8497   3.8518   3.8536
  3.8644   3.8672   3.8725   3.8798   3.8870   3.8897   3.8977   3.9038
  3.9104   3.9159   3.9243   3.9375   3.9449   3.9491   3.9543   3.9579
  3.9638   3.9698   3.9775   3.9817   3.9905   4.0020   4.0028   4.0162
  4.0177   4.0190   4.0314   4.0372   4.0505   4.0647   4.0671   4.0677
  4.0724   4.0835   4.0841   4.1022   4.1073   4.1159   4.1243   4.1312
  4.1337   4.1395   4.1516   4.1581   4.1639   4.1658   4.1691   4.1727
  4.1795   4.1843   4.1928   4.2071   4.2105   4.2128   4.2254   4.2310
  4.2400   4.2469   4.2522   4.2705   4.2780   4.2845   4.2950   4.3033
  4.3117   4.3198   4.3244   4.3406   4.3420   4.3452   4.3536   4.3588
  4.3644   4.3740   4.3806   4.3850   4.3904   4.4066   4.4103   4.4175
  4.4230   4.4271   4.4318   4.4340   4.4359   4.4409   4.4500   4.4544
  4.4611   4.4737   4.4873   4.5003   4.5078   4.5173   4.5215   4.5266
  4.5335   4.5442   4.5572   4.5652   4.5679   4.5686   4.5809   4.5821
  4.5849   4.5992   4.6049   4.6184   4.6263   4.6391   4.6426   4.6549
  4.6648   4.6738   4.6769   4.6848   4.6957   4.7065   4.7204   4.7281
  4.7380   4.7471   4.7696   4.7763   4.7787   4.7800   4.8037   4.8112
  4.8231   4.8335   4.8493   4.8542   4.8667   4.8809   4.8862   4.8980
  4.9126   4.9243   4.9333   4.9423   4.9508   4.9617   4.9653   4.9733
  4.9819   4.9928   5.0088   5.0110   5.0160   5.0268   5.0405   5.0477
  5.0565   5.0821   5.0935   5.1127   5.1234   5.1277   5.1526   5.1641
  5.1766   5.1957   5.2038   5.2103   5.2231   5.2351   5.2508   5.2535
  5.2582   5.2674   5.2794   5.2874   5.2937   5.3123   5.3179   5.3279
  5.3364   5.3502   5.3510   5.3670   5.3720   5.3892   5.3918   5.4024
  5.4081   5.4152   5.4261   5.4434   5.4563   5.4849   5.4989   5.5037
  5.5107   5.5216   5.5245   5.5392   5.5667   5.5691   5.5823   5.5847
  5.5965   5.6118   5.6215   5.6369   5.6513   5.6585   5.6908   5.6968
  5.7211   5.7309   5.7614   5.7631   5.7810   5.8074   5.8190   5.8463
  5.8593   5.8793   5.9012   5.9158   5.9290   5.9486   5.9739   5.9975
  6.0399   6.0434   6.0871   6.1234   6.1504   6.1540   6.1730   6.1778
  6.1808   6.2005   6.2292   6.2415   6.2613   6.2624   6.2778   6.2851
  6.2901   6.3272   6.3382   6.3870   6.4310   6.4500   6.4834   6.5384
  6.5464   6.5665   6.6032   6.6471   6.6610   6.6710   6.7131   6.7459
  6.8073   6.8298   6.8562   6.8593   6.8992   6.9781   7.1312   7.1459
  7.2038   7.2075   7.2225   7.2395   7.3097   7.3268   7.3418   7.3629
  7.3638   7.4062   7.4131   7.4853   7.4869   7.4971   7.5242   7.5509
  7.6155   7.7384   7.7727   7.7898   7.8031   7.9017   7.9268   7.9550
  7.9715   8.1336   8.2894   8.5562   8.9216   9.0262   9.3626   9.4851
  9.6736  10.2372  11.1713  11.4363  11.7540  11.9578  12.1209  12.3833
 12.4317  12.5030  12.9151  13.0158  13.0389  13.2459  13.3847  13.4806
 13.7668  13.7719  13.8823  13.9520  14.0332  14.3124  14.8637  15.2031
 --------------------------------------------------------------
 
          Ground-State Mulliken Net Atomic Charges

     Atom                 Charge (a.u.)
  ----------------------------------------
      1 C                    -0.070118
      2 C                    -0.262332
      3 S                    -0.136393
      4 C                    -0.042974
      5 H                     0.193055
      6 C                    -0.052988
      7 C                     0.227947
      8 C                     0.223204
      9 C                    -0.078238
     10 C                    -0.061760
     11 O                    -0.335143
     12 O                    -0.343509
     13 C                    -0.082551
     14 H                     0.120000
     15 H                     0.091769
     16 H                     0.093148
     17 C                    -0.086284
     18 H                     0.122865
     19 H                     0.091469
     20 H                     0.090631
     21 C                    -0.239528
     22 S                    -0.073993
     23 C                     0.071938
     24 H                     0.205716
     25 C                    -0.113774
     26 S                     0.093770
     27 C                    -0.188121
     28 C                     0.043006
     29 C                    -0.115451
     30 S                     0.008511
     31 C                    -0.158039
     32 C                     0.401886
     33 F                    -0.207167
     34 C                     0.443995
     35 O                    -0.460602
     36 O                    -0.300582
     37 C                    -0.058638
     38 H                     0.121357
     39 H                     0.095160
     40 H                     0.095208
     41 H                     0.219200
     42 H                     0.116828
     43 H                     0.114750
     44 H                     0.182770
  ----------------------------------------
  Sum of atomic charges =     0.000000

 -----------------------------------------------------------------
                    Cartesian Multipole Moments
 -----------------------------------------------------------------
    Charge (ESU x 10^10)
                 0.0000
    Dipole Moment (Debye)
         X       0.2331      Y       3.2253      Z       3.5142
       Tot       4.7756
    Quadrupole Moments (Debye-Ang)
        XX    -187.7578     XY      -2.1594     YY    -176.3557
        XZ       7.2320     YZ      -7.9456     ZZ    -201.7945
    Octopole Moments (Debye-Ang^2)
       XXX       2.7194    XXY     315.7666    XYY      36.5944
       YYY     982.0707    XXZ     175.2818    XYZ     -43.6888
       YYZ     115.4492    XZZ       6.0037    YZZ     453.5941
       ZZZ     574.6643
    Hexadecapole Moments (Debye-Ang^3)
      XXXX   -2329.4449   XXXY    -696.3954   XXYY   -4093.6303
      XYYY    -933.1454   YYYY  -20542.6106   XXXZ     -17.4481
      XXYZ     499.3705   XYYZ     100.1903   YYYZ    1091.1354
      XXZZ   -1319.5128   XYZZ    -171.2480   YYZZ   -4126.9715
      XZZZ    -187.0411   YZZZ     876.3504   ZZZZ   -5575.5794
 -----------------------------------------------------------------
 Total job time:  332.38s(wall), 10416.31s(cpu) 
 Tue Jan  9 10:42:44 2024

        *************************************************************
        *                                                           *
        *  Thank you very much for using Q-Chem.  Have a nice day.  *
        *                                                           *
        *************************************************************


0 sent ACK to 0 
now end server 0 ... 
cleanup process ... done
remove work dirs ./qchem3758714.0 -- ./qchem3758714.0
rm -rf ./qchem3758714.0
rm -rf ./qchem3758714
