You are running Q-Chem version: 5.4.0

#
# job setting
#
local host:  exp-3-50
current dir: /home/rramji/project-csd799/aromodel/ptb7fout-qchem/hydrogenated-rotation-run
input file:  Dimethoxy_Benzodithiophene_Phi_10_Theta_290_Methylcarbonyl_3_Fluoro_Thienothiophene_Hydrogenated.qcin
output file: 
nprocs     : 1
nthreads   : 64
#
# qchem installation setting
#
QC:          /cm/shared/apps/spack/cpu/opt/spack/linux-centos8-zen2/gcc-10.2.0/qchem-5.4-akfmr7b3t57bfs6qan3padb2wnb2i7cl
QCAUX:       /cm/shared/apps/spack/cpu/opt/spack/linux-centos8-zen2/gcc-10.2.0/qchem-5.4-akfmr7b3t57bfs6qan3padb2wnb2i7cl/qcaux
QCPROG:      /cm/shared/apps/spack/cpu/opt/spack/linux-centos8-zen2/gcc-10.2.0/qchem-5.4-akfmr7b3t57bfs6qan3padb2wnb2i7cl/exe/qcprog.exe
QCPROG_S:    /cm/shared/apps/spack/cpu/opt/spack/linux-centos8-zen2/gcc-10.2.0/qchem-5.4-akfmr7b3t57bfs6qan3padb2wnb2i7cl/exe/qcprog.exe_s
PARALLEL:    -DPARALLEL
QCMPI:       mpich
#
# qchem directory setting
#
qcrun:       qchem1317185
QCSCRATCH:   .
QCLOCALSCR:  
QCTMPDIR:    .
QCFILEPREF:  ./qchem1317185
QCSAVEDIR:   
workdirs:    ./qchem1317185
workdir0:    ./qchem1317185
partmpdirs =  
#
# parallel setting
#
QCRSH:           ssh
QCMPI:           mpich
QCMPIRUN:        /cm/shared/apps/spack/cpu/opt/spack/linux-centos8-zen2/gcc-10.2.0/qchem-5.4-akfmr7b3t57bfs6qan3padb2wnb2i7cl/bin/mpi/mpirun_qchem
QCMACHINEFILE:   ./qchem1317185/hostfile
exp-3-50

#
# env setting
#
exported envs:   QC QCAUX QCSCRATCH QCRUNNAME QCFILEPREF QCPROG QCPROG_S GUIFILE

Running Job 1 of 1 Dimethoxy_Benzodithiophene_Phi_10_Theta_290_Methylcarbonyl_3_Fluoro_Thienothiophene_Hydrogenated.qcin
qchem Dimethoxy_Benzodithiophene_Phi_10_Theta_290_Methylcarbonyl_3_Fluoro_Thienothiophene_Hydrogenated.qcin_1317185.0 ./qchem1317185/ 1
/cm/shared/apps/spack/cpu/opt/spack/linux-centos8-zen2/gcc-10.2.0/qchem-5.4-akfmr7b3t57bfs6qan3padb2wnb2i7cl/bin/mpi/mpirun_qchem -machinefile ./qchem1317185/hostfile -np 1 /cm/shared/apps/spack/cpu/opt/spack/linux-centos8-zen2/gcc-10.2.0/qchem-5.4-akfmr7b3t57bfs6qan3padb2wnb2i7cl/exe/qcprog.exe Dimethoxy_Benzodithiophene_Phi_10_Theta_290_Methylcarbonyl_3_Fluoro_Thienothiophene_Hydrogenated.qcin_1317185.0 ./qchem1317185/

Process 0 of 1 is on exp-3-50 - thread support 0
initial socket setup ...start
initial socket setup ...done 
now start server 0 ... 
                  Welcome to Q-Chem
     A Quantum Leap Into The Future Of Chemistry


 Q-Chem 5.4, Q-Chem, Inc., Pleasanton, CA (2021)

 License issued to: University of California, San Diego (site)

 E. Epifanovsky,  A. T. B. Gilbert,  Xintian Feng,  Joonho Lee,  Yuezhi Mao,  
 N. Mardirossian,  P. Pokhilko,  A. White,  M. Wormit,  M. P. Coons,  
 A. L. Dempwolff,  Zhengting Gan,  D. Hait,  P. R. Horn,  L. D. Jacobson,  
 I. Kaliman,  J. Kussmann,  A. W. Lange,  Ka Un Lao,  D. S. Levine,  Jie Liu,  
 S. C. McKenzie,  A. F. Morrison,  K. Nanda,  F. Plasser,  D. R. Rehn,  
 M. L. Vidal,  Zhi-Qiang You,  Ying Zhu,  B. Alam,  B. Albrecht,  
 A. Aldossary,  E. Alguire,  J. H. Andersen,  D. Barton,  K. Begam,  A. Behn,  
 Y. A. Bernard,  E. J. Berquist,  H. Burton,  A. Carreras,  K. Carter-Fenk,  
 R. Chakraborty,  A. D. Chien,  K. D. Closser,  V. Cofer-Shabica,  
 S. Dasgupta,  Jia Deng,  M. de Wergifosse,  M. Diedenhofen,  Hainam Do,  
 S. Ehlert,  Po-Tung Fang,  S. Fatehi,  Qingguo Feng,  J. Gayvert,  
 Qinghui Ge,  G. Gidofalvi,  M. Goldey,  J. Gomes,  C. Gonzalez-Espinoza,  
 S. Gulania,  A. Gunina,  M. W. D. Hanson-Heine,  P. H. P. Harbach,  
 A. W. Hauser,  M. F. Herbst,  M. Hernandez Vera,  M. Hodecker,  
 Z. C. Holden,  S. Houck,  Xunkun Huang,  Kerwin Hui,  B. C. Huynh,  
 M. Ivanov,  Hyunjun Ji,  Hanjie Jiang,  B. Kaduk,  S. Kaehler,  
 K. Khistyaev,  Jaehoon Kim,  P. Klunzinger,  Z. Koczor-Benda,  
 Joong Hoon Koh,  D. Kosenkov,  L. Koulias,  T. Kowalczyk,  C. M. Krauter,  
 K. Kue,  A. Kunitsa,  T. Kus,  A. Landau,  K. V. Lawler,  D. Lefrancois,  
 S. Lehtola,  Rain Li,  Yi-Pei Li,  Jiashu Liang,  M. Liebenthal,  
 Hung-Hsuan Lin,  You-Sheng Lin,  Fenglai Liu,  Kuan-Yu Liu,  
 M. Loipersberger,  A. Luenser,  A. Manjanath,  P. Manohar,  E. Mansoor,  
 S. F. Manzer,  Shan-Ping Mao,  A. V. Marenich,  T. Markovich,  S. Mason,  
 S. A. Maurer,  P. F. McLaughlin,  M. F. S. J. Menger,  J.-M. Mewes,  
 S. A. Mewes,  P. Morgante,  J. W. Mullinax,  T. S. Nguyen-Beck,  
 K. J. Oosterbaan,  G. Paran,  Alexander C. Paul,  Suranjan K. Paul,  
 F. Pavosevic,  Zheng Pei,  S. Prager,  E. I. Proynov,  E. Ramos,  B. Rana,  
 A. E. Rask,  A. Rettig,  R. M. Richard,  F. Rob,  E. Rossomme,  T. Scheele,  
 M. Scheurer,  M. Schneider,  N. Sergueev,  S. M. Sharada,  W. Skomorowski,  
 D. W. Small,  C. J. Stein,  Yu-Chuan Su,  E. J. Sundstrom,  Zhen Tao,  
 J. Thirman,  T. Tsuchimochi,  N. M. Tubman,  S. P. Veccham,  O. Vydrov,  
 J. Wenzel,  J. Witte,  A. Yamada,  Kun Yao,  S. Yeganeh,  S. R. Yost,  
 A. Zech,  Igor Ying Zhang,  Xing Zhang,  Yu Zhang,  D. Zuev,  
 A. Aspuru-Guzik,  A. T. Bell,  N. A. Besley,  K. B. Bravaya,  B. R. Brooks,  
 D. Casanova,  Jeng-Da Chai,  S. Coriani,  C. J. Cramer,  
 A. E. DePrince, III,  R. A. DiStasio Jr.,  A. Dreuw,  B. D. Dunietz,  
 T. R. Furlani,  W. A. Goddard III,  S. Grimme,  S. Hammes-Schiffer,  
 T. Head-Gordon,  W. J. Hehre,  Chao-Ping Hsu,  T.-C. Jagau,  Yousung Jung,  
 A. Klamt,  Jing Kong,  D. S. Lambrecht,  WanZhen Liang,  N. J. Mayhall,  
 C. W. McCurdy,  J. B. Neaton,  C. Ochsenfeld,  J. A. Parkhill,  R. Peverati,  
 V. A. Rassolov,  Yihan Shao,  L. V. Slipchenko,  T. Stauch,  R. P. Steele,  
 J. E. Subotnik,  A. J. W. Thom,  A. Tkatchenko,  D. G. Truhlar,  
 T. Van Voorhis,  T. A. Wesolowski,  K. B. Whaley,  H. L. Woodcock III,  
 P. M. Zimmerman,  S. Faraji,  P. M. W. Gill,  M. Head-Gordon,  
 J. M. Herbert,  A. I. Krylov

 Contributors to earlier versions of Q-Chem not listed above: 
 R. D. Adamson,  B. Austin,  R. Baer,  J. Baker,  G. J. O. Beran,  
 K. Brandhorst,  S. T. Brown,  E. F. C. Byrd,  A. K. Chakraborty,  
 G. K. L. Chan,  Chun-Min Chang,  Yunqing Chen,  C.-L. Cheng,  
 Siu Hung Chien,  D. M. Chipman,  D. L. Crittenden,  H. Dachsel,  
 R. J. Doerksen,  A. D. Dutoi,  R. G. Edgar,  J. Fosso-Tande,  
 L. Fusti-Molnar,  D. Ghosh,  A. Ghysels,  A. Golubeva-Zadorozhnaya,  
 J. Gonthier,  M. S. Gordon,  S. R. Gwaltney,  G. Hawkins,  J. E. Herr,  
 A. Heyden,  S. Hirata,  E. G. Hohenstein,  G. Kedziora,  F. J. Keil,  
 C. Kelley,  Jihan Kim,  R. A. King,  R. Z. Khaliullin,  P. P. Korambath,  
 W. Kurlancheek,  A. Laurent,  A. M. Lee,  M. S. Lee,  S. V. Levchenko,  
 Ching Yeh Lin,  D. Liotard,  E. Livshits,  R. C. Lochan,  I. Lotan,  
 L. A. Martinez-Martinez,  P. E. Maslen,  N. Nair,  D. P. O'Neill,  
 D. Neuhauser,  E. Neuscamman,  C. M. Oana,  R. Olivares-Amaya,  R. Olson,  
 T. M. Perrine,  B. Peters,  P. A. Pieniazek,  A. Prociuk,  Y. M. Rhee,  
 J. Ritchie,  M. A. Rohrdanz,  E. Rosta,  N. J. Russ,  H. F. Schaefer III,  
 M. W. Schmidt,  N. E. Schultz,  S. Sharma,  N. Shenvi,  C. D. Sherrill,  
 A. C. Simmonett,  A. Sodt,  T. Stein,  D. Stuck,  K. S. Thanthiriwatte,  
 V. Vanovschi,  L. Vogt,  Tao Wang,  A. Warshel,  M. A. Watson,  
 C. F. Williams,  Q. Wu,  X. Xu,  Jun Yang,  W. Zhang,  Yan Zhao

 Please cite Q-Chem as follows:
 Y. Shao et al., Mol. Phys. 113, 184-215 (2015)
 DOI: 10.1080/00268976.2014.952696

 Q-Chem 5.4.0 for Intel X86 EM64T Linux

 Parts of Q-Chem use Armadillo 9.800.1 (Horizon Scraper).
 http://arma.sourceforge.net/

 Q-Chem begins on Tue Jan  9 12:43:47 2024  

 Host: 
0

     Scratch files written to ./qchem1317185//
 May1621 |scratch|qcdevops|jenkins|workspace|build_RNUM    
 Parallel job on  1  processors
 Processing $rem in /cm/shared/apps/spack/cpu/opt/spack/linux-centos8-zen2/gcc-10.2.0/qchem-5.4-akfmr7b3t57bfs6qan3padb2wnb2i7cl/config/preferences:
 Processing $rem in /home/rramji/.qchemrc:
 Symmetry turned off for PCM/SM12/SMD calculation
 Core orbitals will be frozen

 Checking the input file for inconsistencies... 	...done.

 Q-Chem warning in module forms1/BasisType.C, line 2236:

 You are not using the predefined 5D/6D in this basis set.


--------------------------------------------------------------
User input:
--------------------------------------------------------------
$molecule
0 1
C	0.284919	-8.517702	0.147685
C	-0.728574	-7.641575	-0.212552
S	1.745304	-7.638634	0.661757
C	-0.374824	-6.264785	-0.083761
H	-1.715621	-7.966081	-0.565513
C	0.965104	-6.072714	0.405665
C	1.502136	-4.787049	0.574617
C	-1.214687	-5.162801	-0.413763
C	-0.675870	-3.874817	-0.248748
C	0.664513	-3.683952	0.243888
O	-2.464209	-5.499772	-0.838511
O	2.757750	-4.459055	1.000176
C	3.441858	-5.329063	1.893778
H	4.303826	-4.755694	2.284868
H	3.828743	-6.238095	1.383341
H	2.792824	-5.637262	2.741817
C	-3.241222	-4.572261	-1.586168
H	-4.108274	-5.139743	-1.974033
H	-2.668916	-4.153131	-2.441448
H	-3.620041	-3.739531	-0.954660
C	1.015668	-2.306654	0.369302
S	-1.453394	-2.306501	-0.517367
C	-0.000000	-1.435185	-0.000000
H	2.000559	-1.978138	0.724300
C	0.000000	0.000000	0.000000
S	0.157577	0.890937	1.507541
C	0.429889	2.439720	0.718873
C	0.157797	0.890576	-1.067872
C	0.396915	2.260004	-0.686410
S	0.118307	0.650207	-2.805516
C	0.417036	2.376229	-3.054530
C	0.537616	3.074202	-1.862551
F	0.764992	4.391378	-1.819088
C	0.496696	2.817118	-4.456084
O	0.370874	2.057582	-5.406510
O	0.723861	4.148418	-4.569225
C	0.814976	4.635075	-5.916207
H	0.999286	5.720591	-5.833064
H	-0.125909	4.442226	-6.470168
H	1.645504	4.140465	-6.459293
H	0.588993	3.350182	1.306486
H	0.588198	-9.143623	-0.699838
H	-0.014470	-9.149441	0.992270
H	0.362373	-1.443175	-1.017360
$end

$rem
JOBTYPE		SP
EXCHANGE	HF
CORRELATION	pRIMP2
BASIS		cc-pvtz
METHOD		rimp2
AUX_BASIS	rimp2-cc-pvtz
SOLVENT_METHOD	PCM
PURECART	11111
SYMMETRY	false
MEM_TOTAL	110000
SCF_CONVERGENCE = 6
THRESH=10
GUI = 2
$end



$solvent
dielectric 4.90
$end
--------------------------------------------------------------
 ----------------------------------------------------------------
             Standard Nuclear Orientation (Angstroms)
    I     Atom           X                Y                Z
 ----------------------------------------------------------------
    1      C       0.2849190000    -8.5177020000     0.1476850000
    2      C      -0.7285740000    -7.6415750000    -0.2125520000
    3      S       1.7453040000    -7.6386340000     0.6617570000
    4      C      -0.3748240000    -6.2647850000    -0.0837610000
    5      H      -1.7156210000    -7.9660810000    -0.5655130000
    6      C       0.9651040000    -6.0727140000     0.4056650000
    7      C       1.5021360000    -4.7870490000     0.5746170000
    8      C      -1.2146870000    -5.1628010000    -0.4137630000
    9      C      -0.6758700000    -3.8748170000    -0.2487480000
   10      C       0.6645130000    -3.6839520000     0.2438880000
   11      O      -2.4642090000    -5.4997720000    -0.8385110000
   12      O       2.7577500000    -4.4590550000     1.0001760000
   13      C       3.4418580000    -5.3290630000     1.8937780000
   14      H       4.3038260000    -4.7556940000     2.2848680000
   15      H       3.8287430000    -6.2380950000     1.3833410000
   16      H       2.7928240000    -5.6372620000     2.7418170000
   17      C      -3.2412220000    -4.5722610000    -1.5861680000
   18      H      -4.1082740000    -5.1397430000    -1.9740330000
   19      H      -2.6689160000    -4.1531310000    -2.4414480000
   20      H      -3.6200410000    -3.7395310000    -0.9546600000
   21      C       1.0156680000    -2.3066540000     0.3693020000
   22      S      -1.4533940000    -2.3065010000    -0.5173670000
   23      C       0.0000000000    -1.4351850000     0.0000000000
   24      H       2.0005590000    -1.9781380000     0.7243000000
   25      C       0.0000000000     0.0000000000     0.0000000000
   26      S       0.1575770000     0.8909370000     1.5075410000
   27      C       0.4298890000     2.4397200000     0.7188730000
   28      C       0.1577970000     0.8905760000    -1.0678720000
   29      C       0.3969150000     2.2600040000    -0.6864100000
   30      S       0.1183070000     0.6502070000    -2.8055160000
   31      C       0.4170360000     2.3762290000    -3.0545300000
   32      C       0.5376160000     3.0742020000    -1.8625510000
   33      F       0.7649920000     4.3913780000    -1.8190880000
   34      C       0.4966960000     2.8171180000    -4.4560840000
   35      O       0.3708740000     2.0575820000    -5.4065100000
   36      O       0.7238610000     4.1484180000    -4.5692250000
   37      C       0.8149760000     4.6350750000    -5.9162070000
   38      H       0.9992860000     5.7205910000    -5.8330640000
   39      H      -0.1259090000     4.4422260000    -6.4701680000
   40      H       1.6455040000     4.1404650000    -6.4592930000
   41      H       0.5889930000     3.3501820000     1.3064860000
   42      H       0.5881980000    -9.1436230000    -0.6998380000
   43      H      -0.0144700000    -9.1494410000     0.9922700000
   44      H       0.3623730000    -1.4431750000    -1.0173600000
 ----------------------------------------------------------------
 Nuclear Repulsion Energy =        3332.75373132 hartrees
 There are      120 alpha and      120 beta electrons
 Requested basis set is cc-pVTZ
 There are 388 shells and 1096 basis functions

 Total QAlloc Memory Limit 110000 MB
 Mega-Array Size       188 MB
 MEM_STATIC part       192 MB
 Discretize the solute cavity surface with Lebedev spheres
	Using 110 Lebedev grid points for each H atom
	Using 194 Lebedev grid points for other atoms
	Atomic van der Waals radii will be scaled by 1.20
 Remove points where switching function is < 1.0e-08
 Keep 2997 surface tesserae and discard 4279 interior tesserae
 Molecular Surface Area = 444.062 Angst**2
 Requested basis set is rimp2-cc-pVTZ
 There are 853 shells and 2963 basis functions
 A cutoff of  1.0D-10 yielded  32937 shell pairs
 There are    248947 function pairs (    322187 Cartesian)
 Smallest overlap matrix eigenvalue = 2.20E-05

 Scale SEOQF with 1.000000e-01/1.000000e-02/1.000000e-02

 Standard Electronic Orientation quadrupole field applied
 Nucleus-field energy     =     0.0000000372 hartrees
 Guess from superposition of atomic densities
 Warning:  Energy on first SCF cycle will be non-variational
 SAD guess density has 240.000000 electrons

 -----------------------------------------------------------------------
  General SCF calculation program by
  Eric Jon Sundstrom, Paul Horn, Yuezhi Mao, Dmitri Zuev, Alec White,
  David Stuck, Shaama M.S., Shane Yost, Joonho Lee, David Small,
  Daniel Levine, Susi Lehtola, Hugh Burton, Evgeny Epifanovsky,
  Bang C. Huynh
 -----------------------------------------------------------------------
 Hartree-Fock
 using 64 threads for integral computing
 -------------------------------------------------------
 OpenMP Integral computing Module                
 Release: version 1.0, May 2013, Q-Chem Inc. Pittsburgh 
 -------------------------------------------------------
 A restricted SCF calculation will be
 performed using DIIS
 SCF converges when DIIS error is below 1.0e-06
 ---------------------------------------
  Cycle       Energy         DIIS error
 ---------------------------------------
    1   -2767.0202165356      1.75e-02  
    2   -2754.8980312099      1.53e-03  
    3   -2755.2451945186      8.51e-04  
    4   -2755.3309436738      2.56e-04  
    5   -2755.3443504534      7.29e-05  
    6   -2755.3458102463      2.53e-05  
    7   -2755.3461821006      1.32e-05  
    8   -2755.3463014260      5.47e-06  
    9   -2755.3463292525      2.71e-06  
   10   -2755.3463355975      1.39e-06  
   11   -2755.3463375388      6.97e-07  Convergence criterion met
 ---------------------------------------
 SCF time:   CPU 7893.09s  wall 305.00s 

************** Final PCM Free Energy Summary **************
 G_electrostatic  =      -0.02044261 hartree =     -12.82793166 kcal/mol
 G_cavitation     =       0.00000000 hartree =       0.00000000 kcal/mol
 G_dispersion     =       0.00000000 hartree =       0.00000000 kcal/mol
 G_repulsion      =       0.00000000 hartree =       0.00000000 kcal/mol
 --------------------------------------------------
 Non-electrostatic Free Energy =       0.00000000 hartree =       0.00000000 kcal/mol
 Total                         =      -0.02044261 hartree =     -12.82793166 kcal/mol
 --------------------------------------------------
 SCF Energy (H0 + V/2)                       =   -2755.34633754 
 Solute Internal Energy (H0)                 =   -2755.32589493 
 Total Free Energy (H0 + V/2 + non-elec)     =   -2755.34633754 hartree
                                             = -1729005.92269079 kcal/mol
***********************************************************

 SCF   energy in the final basis set =    -2755.3463375388
 Total energy in the final basis set =    -2755.3463375388


 --------------------------------------------------------------
  Generalized many-body perturbation theory program
  by Joonho Lee, Fazle Rob, Xintian Feng, Evgeny Epifanovsky

 No regularization used 
 (reg. param. = 0.0000e+00)
  (P|Q)^-1/2 Time:  CPU 253.44 s  wall 4.67 s

 In RI-MP2 calculation: 
 # of frozen core orbitals: 45

 Components of the RIMP2 correlation energy:
        aaaa    correlation energy =        -0.6687268448 a.u.
        abab    correlation energy =        -3.7511470056 a.u.
        bbbb    correlation energy =        -0.6687268448 a.u.
        non-Brillouin singles      =        -0.0000000000 a.u.
        total same-spin energy     =        -1.3374536896 a.u.
        total opposite-spin energy =        -3.7511470056 a.u.

 Total  RIMP2   correlation energy =        -5.0886006953 a.u.
        RIMP2         total energy =     -2760.4349382341 a.u.

 RI-MP2 Energy Time:  CPU 3129.86 s  wall 51.91 s
 
 --------------------------------------------------------------
 
                    Orbital Energies (a.u.)
 --------------------------------------------------------------
 
 Alpha MOs
 -- Occupied --
-92.0124 -92.0002 -91.9758 -91.9584 -26.3444 -20.6153 -20.5873 -20.5866
-20.5618 -11.4100 -11.3840 -11.3107 -11.3090 -11.3069 -11.3032 -11.3017
-11.2986 -11.2892 -11.2853 -11.2839 -11.2830 -11.2825 -11.2801 -11.2734
-11.2720 -11.2583 -11.2582 -11.2499 -11.2372  -9.0112  -9.0004  -8.9781
 -8.9610  -6.6920  -6.6914  -6.6909  -6.6814  -6.6807  -6.6795  -6.6593
 -6.6584  -6.6571  -6.6423  -6.6413  -6.6403  -1.6614  -1.4678  -1.4101
 -1.4089  -1.3705  -1.2298  -1.2023  -1.1735  -1.1371  -1.1008  -1.0469
 -1.0453  -1.0237  -1.0034  -0.9970  -0.9632  -0.9580  -0.9485  -0.9415
 -0.8930  -0.8711  -0.8648  -0.8148  -0.7942  -0.7900  -0.7847  -0.7683
 -0.7588  -0.7353  -0.7262  -0.7100  -0.7009  -0.6946  -0.6853  -0.6799
 -0.6744  -0.6651  -0.6554  -0.6485  -0.6346  -0.6306  -0.6202  -0.6150
 -0.6109  -0.5993  -0.5927  -0.5773  -0.5705  -0.5645  -0.5579  -0.5553
 -0.5506  -0.5317  -0.5291  -0.5250  -0.5131  -0.5090  -0.5072  -0.5014
 -0.4858  -0.4806  -0.4765  -0.4744  -0.4723  -0.4672  -0.4602  -0.4459
 -0.4245  -0.3990  -0.3851  -0.3700  -0.3504  -0.3018  -0.2893  -0.2206
 -- Virtual --
  0.0349   0.0511   0.1066   0.1265   0.1409   0.1469   0.1496   0.1545
  0.1567   0.1600   0.1699   0.1781   0.1811   0.1845   0.1879   0.1950
  0.2012   0.2033   0.2062   0.2117   0.2147   0.2217   0.2233   0.2277
  0.2293   0.2344   0.2393   0.2442   0.2491   0.2551   0.2636   0.2679
  0.2749   0.2958   0.2983   0.3242   0.3299   0.3355   0.3382   0.3436
  0.3483   0.3575   0.3603   0.3657   0.3669   0.3774   0.3834   0.3842
  0.3876   0.3947   0.3960   0.4000   0.4062   0.4119   0.4160   0.4217
  0.4257   0.4275   0.4299   0.4330   0.4410   0.4437   0.4473   0.4515
  0.4541   0.4578   0.4615   0.4635   0.4701   0.4756   0.4803   0.4809
  0.4849   0.4956   0.5004   0.5019   0.5038   0.5071   0.5091   0.5143
  0.5255   0.5289   0.5327   0.5342   0.5413   0.5435   0.5444   0.5461
  0.5498   0.5539   0.5553   0.5583   0.5648   0.5695   0.5768   0.5786
  0.5815   0.5831   0.5875   0.5944   0.5964   0.6044   0.6051   0.6110
  0.6128   0.6142   0.6177   0.6212   0.6219   0.6250   0.6269   0.6289
  0.6333   0.6410   0.6421   0.6447   0.6469   0.6525   0.6539   0.6570
  0.6619   0.6631   0.6749   0.6831   0.6842   0.6889   0.6943   0.6953
  0.7041   0.7086   0.7120   0.7154   0.7170   0.7192   0.7226   0.7417
  0.7449   0.7460   0.7594   0.7618   0.7668   0.7697   0.7738   0.7864
  0.7873   0.7971   0.7998   0.8061   0.8087   0.8154   0.8221   0.8250
  0.8278   0.8338   0.8443   0.8457   0.8551   0.8664   0.8678   0.8732
  0.8757   0.8868   0.8896   0.8932   0.8992   0.9014   0.9062   0.9133
  0.9196   0.9252   0.9279   0.9317   0.9398   0.9434   0.9530   0.9572
  0.9607   0.9649   0.9731   0.9790   0.9811   0.9834   0.9871   0.9918
  0.9940   0.9978   1.0012   1.0124   1.0170   1.0202   1.0234   1.0283
  1.0356   1.0385   1.0465   1.0473   1.0521   1.0554   1.0598   1.0617
  1.0718   1.0807   1.0876   1.0906   1.0946   1.0992   1.1035   1.1067
  1.1110   1.1116   1.1132   1.1218   1.1254   1.1366   1.1427   1.1500
  1.1512   1.1595   1.1619   1.1681   1.1708   1.1741   1.1765   1.1840
  1.1871   1.1940   1.1959   1.2008   1.2087   1.2106   1.2137   1.2190
  1.2207   1.2219   1.2361   1.2410   1.2426   1.2445   1.2493   1.2544
  1.2585   1.2631   1.2664   1.2727   1.2785   1.2843   1.2872   1.2909
  1.2953   1.2980   1.3096   1.3142   1.3205   1.3274   1.3351   1.3399
  1.3496   1.3578   1.3621   1.3709   1.3856   1.3893   1.3935   1.3973
  1.4060   1.4106   1.4169   1.4183   1.4237   1.4351   1.4377   1.4559
  1.4565   1.4711   1.4716   1.4832   1.4879   1.4921   1.4995   1.5031
  1.5039   1.5080   1.5094   1.5178   1.5226   1.5313   1.5364   1.5388
  1.5392   1.5443   1.5474   1.5515   1.5578   1.5656   1.5748   1.5780
  1.5858   1.5905   1.6017   1.6070   1.6160   1.6188   1.6295   1.6398
  1.6412   1.6499   1.6568   1.6647   1.6685   1.6749   1.6792   1.6902
  1.6933   1.6980   1.7030   1.7057   1.7133   1.7229   1.7367   1.7506
  1.7571   1.7621   1.7756   1.7874   1.7962   1.7984   1.8053   1.8184
  1.8246   1.8281   1.8346   1.8417   1.8542   1.8595   1.8707   1.8747
  1.8799   1.8913   1.8939   1.9064   1.9086   1.9203   1.9312   1.9341
  1.9402   1.9509   1.9582   1.9719   1.9754   1.9837   1.9933   2.0011
  2.0051   2.0092   2.0178   2.0216   2.0252   2.0369   2.0425   2.0552
  2.0711   2.0747   2.0751   2.0918   2.0952   2.1028   2.1135   2.1326
  2.1386   2.1521   2.1600   2.1676   2.1780   2.1805   2.1915   2.1953
  2.1994   2.2042   2.2099   2.2109   2.2234   2.2286   2.2323   2.2489
  2.2517   2.2561   2.2630   2.2644   2.2712   2.2806   2.2894   2.3033
  2.3048   2.3151   2.3279   2.3303   2.3376   2.3520   2.3533   2.3632
  2.3698   2.3815   2.3855   2.3930   2.4036   2.4142   2.4198   2.4221
  2.4343   2.4409   2.4538   2.4636   2.4696   2.4820   2.4835   2.4958
  2.4997   2.5088   2.5130   2.5323   2.5435   2.5487   2.5573   2.5597
  2.5680   2.5797   2.5990   2.6017   2.6068   2.6216   2.6254   2.6275
  2.6286   2.6335   2.6409   2.6461   2.6500   2.6526   2.6656   2.6669
  2.6778   2.6792   2.6889   2.6973   2.6999   2.7040   2.7061   2.7124
  2.7206   2.7252   2.7397   2.7409   2.7561   2.7624   2.7687   2.7716
  2.7727   2.7847   2.7935   2.7952   2.8020   2.8092   2.8151   2.8273
  2.8332   2.8427   2.8445   2.8526   2.8591   2.8636   2.8718   2.8752
  2.8767   2.8867   2.8937   2.9031   2.9078   2.9196   2.9263   2.9342
  2.9494   2.9566   2.9594   2.9615   2.9635   2.9745   2.9814   2.9889
  2.9944   3.0016   3.0169   3.0191   3.0230   3.0352   3.0388   3.0470
  3.0484   3.0581   3.0715   3.0716   3.0855   3.0895   3.0904   3.0949
  3.1008   3.1055   3.1130   3.1203   3.1277   3.1322   3.1330   3.1398
  3.1459   3.1482   3.1527   3.1572   3.1639   3.1648   3.1756   3.1792
  3.1908   3.1933   3.1971   3.2054   3.2115   3.2172   3.2192   3.2232
  3.2262   3.2433   3.2452   3.2467   3.2504   3.2567   3.2606   3.2658
  3.2680   3.2738   3.2759   3.2813   3.2902   3.2929   3.2945   3.3029
  3.3058   3.3125   3.3174   3.3255   3.3302   3.3323   3.3389   3.3412
  3.3426   3.3490   3.3556   3.3569   3.3596   3.3634   3.3663   3.3698
  3.3729   3.3859   3.3889   3.3910   3.3948   3.3996   3.4039   3.4044
  3.4098   3.4190   3.4239   3.4278   3.4280   3.4317   3.4390   3.4451
  3.4479   3.4522   3.4569   3.4592   3.4649   3.4682   3.4746   3.4782
  3.4854   3.4897   3.4926   3.4995   3.5068   3.5183   3.5203   3.5288
  3.5350   3.5383   3.5438   3.5540   3.5590   3.5635   3.5703   3.5720
  3.5783   3.5858   3.5891   3.5917   3.5951   3.6043   3.6078   3.6132
  3.6151   3.6181   3.6247   3.6286   3.6371   3.6393   3.6464   3.6568
  3.6606   3.6701   3.6751   3.6761   3.6794   3.6824   3.6957   3.6990
  3.7009   3.7036   3.7058   3.7123   3.7157   3.7203   3.7252   3.7298
  3.7403   3.7441   3.7519   3.7603   3.7626   3.7690   3.7722   3.7815
  3.7848   3.7878   3.7889   3.7984   3.8023   3.8063   3.8107   3.8128
  3.8182   3.8198   3.8253   3.8291   3.8357   3.8485   3.8500   3.8573
  3.8623   3.8685   3.8750   3.8792   3.8798   3.8884   3.8912   3.8936
  3.9045   3.9210   3.9229   3.9364   3.9429   3.9510   3.9561   3.9598
  3.9606   3.9715   3.9786   3.9828   3.9932   3.9986   4.0044   4.0062
  4.0162   4.0231   4.0312   4.0442   4.0505   4.0523   4.0665   4.0677
  4.0688   4.0745   4.0913   4.0977   4.1029   4.1147   4.1184   4.1274
  4.1306   4.1446   4.1464   4.1573   4.1646   4.1671   4.1695   4.1706
  4.1749   4.1835   4.1915   4.2036   4.2127   4.2173   4.2273   4.2371
  4.2450   4.2503   4.2544   4.2643   4.2783   4.2808   4.2855   4.2990
  4.3177   4.3235   4.3339   4.3406   4.3415   4.3446   4.3533   4.3546
  4.3614   4.3686   4.3727   4.3823   4.3937   4.4029   4.4064   4.4173
  4.4198   4.4265   4.4284   4.4307   4.4345   4.4420   4.4457   4.4574
  4.4594   4.4715   4.4907   4.4939   4.5100   4.5189   4.5243   4.5296
  4.5384   4.5435   4.5576   4.5641   4.5691   4.5741   4.5760   4.5835
  4.5921   4.6025   4.6089   4.6203   4.6371   4.6405   4.6433   4.6530
  4.6610   4.6694   4.6758   4.6949   4.7096   4.7174   4.7245   4.7283
  4.7401   4.7505   4.7665   4.7777   4.7809   4.7917   4.8073   4.8179
  4.8272   4.8296   4.8481   4.8519   4.8677   4.8803   4.8855   4.8976
  4.9130   4.9239   4.9288   4.9339   4.9490   4.9526   4.9616   4.9704
  4.9843   5.0006   5.0079   5.0087   5.0172   5.0254   5.0409   5.0452
  5.0666   5.0742   5.0904   5.1040   5.1158   5.1222   5.1313   5.1636
  5.1744   5.1941   5.2066   5.2097   5.2147   5.2312   5.2500   5.2513
  5.2564   5.2599   5.2759   5.2798   5.2948   5.3000   5.3191   5.3275
  5.3401   5.3488   5.3496   5.3653   5.3745   5.3873   5.3959   5.4020
  5.4096   5.4182   5.4259   5.4422   5.4540   5.4846   5.4925   5.5051
  5.5107   5.5164   5.5229   5.5336   5.5621   5.5695   5.5800   5.5870
  5.6014   5.6052   5.6119   5.6212   5.6458   5.6609   5.6909   5.6968
  5.7147   5.7388   5.7619   5.7641   5.7826   5.8071   5.8243   5.8517
  5.8592   5.8816   5.9014   5.9170   5.9286   5.9553   5.9769   6.0039
  6.0403   6.0439   6.0839   6.1214   6.1501   6.1560   6.1723   6.1780
  6.1813   6.2030   6.2275   6.2431   6.2610   6.2620   6.2744   6.2848
  6.3011   6.3110   6.3335   6.3711   6.4323   6.4496   6.4726   6.5385
  6.5457   6.5646   6.6032   6.6459   6.6606   6.6707   6.7132   6.7457
  6.8064   6.8294   6.8560   6.8590   6.8997   6.9777   7.1320   7.1467
  7.2035   7.2074   7.2224   7.2394   7.3094   7.3266   7.3410   7.3622
  7.3632   7.4061   7.4128   7.4846   7.4869   7.4968   7.5236   7.5514
  7.6159   7.7383   7.7719   7.7896   7.8027   7.9008   7.9270   7.9556
  7.9733   8.1334   8.2914   8.5310   8.9209   9.0227   9.3618   9.4784
  9.6725  10.1959  11.1696  11.4248  11.7433  11.9150  12.1210  12.3513
 12.4150  12.4818  12.9340  12.9797  13.0609  13.2979  13.3858  13.4812
 13.6788  13.7926  13.8732  13.9362  14.0346  14.3097  14.9300  15.2122
 --------------------------------------------------------------
 
          Ground-State Mulliken Net Atomic Charges

     Atom                 Charge (a.u.)
  ----------------------------------------
      1 C                    -0.070358
      2 C                    -0.258453
      3 S                    -0.134703
      4 C                    -0.045355
      5 H                     0.193602
      6 C                    -0.051282
      7 C                     0.222564
      8 C                     0.229844
      9 C                    -0.082959
     10 C                    -0.058086
     11 O                    -0.335495
     12 O                    -0.343570
     13 C                    -0.082639
     14 H                     0.119938
     15 H                     0.092054
     16 H                     0.092688
     17 C                    -0.086634
     18 H                     0.122808
     19 H                     0.093026
     20 H                     0.090128
     21 C                    -0.236459
     22 S                    -0.070604
     23 C                     0.048213
     24 H                     0.208026
     25 C                    -0.072763
     26 S                     0.088519
     27 C                    -0.182433
     28 C                     0.007962
     29 C                    -0.109233
     30 S                     0.003120
     31 C                    -0.157698
     32 C                     0.397940
     33 F                    -0.205718
     34 C                     0.444297
     35 O                    -0.461078
     36 O                    -0.300787
     37 C                    -0.058598
     38 H                     0.121497
     39 H                     0.095246
     40 H                     0.095190
     41 H                     0.217267
     42 H                     0.117619
     43 H                     0.115094
     44 H                     0.188261
  ----------------------------------------
  Sum of atomic charges =     0.000000

 -----------------------------------------------------------------
                    Cartesian Multipole Moments
 -----------------------------------------------------------------
    Charge (ESU x 10^10)
                -0.0000
    Dipole Moment (Debye)
         X       0.5666      Y       2.8289      Z       2.3736
       Tot       3.7360
    Quadrupole Moments (Debye-Ang)
        XX    -190.3054     XY       6.2099     YY    -174.4128
        XZ       7.8119     YZ      -6.3715     ZZ    -199.0241
    Octopole Moments (Debye-Ang^2)
       XXX    -146.3894    XXY     332.8150    XYY     -67.6461
       YYY     968.0116    XXZ     166.0107    XYZ     -54.4902
       YYZ      96.7527    XZZ     -28.6309    YZZ     439.7936
       ZZZ     529.0997
    Hexadecapole Moments (Debye-Ang^3)
      XXXX   -2244.5380   XXXY     220.6003   XXYY   -4104.8469
      XYYY     509.1572   YYYY  -20320.7525   XXXZ     -31.5695
      XXYZ     584.4564   XYYZ      81.7510   YYYZ    1560.5403
      XXZZ   -1274.5525   XYZZ     162.1522   YYZZ   -4100.9653
      XZZZ    -241.4917   YZZZ    1284.9225   ZZZZ   -5827.2666
 -----------------------------------------------------------------
 Total job time:  365.53s(wall), 11238.94s(cpu) 
 Tue Jan  9 12:49:52 2024

        *************************************************************
        *                                                           *
        *  Thank you very much for using Q-Chem.  Have a nice day.  *
        *                                                           *
        *************************************************************


0 sent ACK to 0 
now end server 0 ... 
cleanup process ... done
remove work dirs ./qchem1317185.0 -- ./qchem1317185.0
rm -rf ./qchem1317185.0
rm -rf ./qchem1317185
