You are running Q-Chem version: 5.4.0

#
# job setting
#
local host:  exp-6-38
current dir: /home/rramji/project-csd799/aromodel/ptb7fout-qchem/hydrogenated-rotation-run
input file:  Dimethoxy_Benzodithiophene_Phi_5_Theta_40_Methylcarbonyl_3_Fluoro_Thienothiophene_Hydrogenated.qcin
output file: 
nprocs     : 1
nthreads   : 64
#
# qchem installation setting
#
QC:          /cm/shared/apps/spack/cpu/opt/spack/linux-centos8-zen2/gcc-10.2.0/qchem-5.4-akfmr7b3t57bfs6qan3padb2wnb2i7cl
QCAUX:       /cm/shared/apps/spack/cpu/opt/spack/linux-centos8-zen2/gcc-10.2.0/qchem-5.4-akfmr7b3t57bfs6qan3padb2wnb2i7cl/qcaux
QCPROG:      /cm/shared/apps/spack/cpu/opt/spack/linux-centos8-zen2/gcc-10.2.0/qchem-5.4-akfmr7b3t57bfs6qan3padb2wnb2i7cl/exe/qcprog.exe
QCPROG_S:    /cm/shared/apps/spack/cpu/opt/spack/linux-centos8-zen2/gcc-10.2.0/qchem-5.4-akfmr7b3t57bfs6qan3padb2wnb2i7cl/exe/qcprog.exe_s
PARALLEL:    -DPARALLEL
QCMPI:       mpich
#
# qchem directory setting
#
qcrun:       qchem3752558
QCSCRATCH:   .
QCLOCALSCR:  
QCTMPDIR:    .
QCFILEPREF:  ./qchem3752558
QCSAVEDIR:   
workdirs:    ./qchem3752558
workdir0:    ./qchem3752558
partmpdirs =  
#
# parallel setting
#
QCRSH:           ssh
QCMPI:           mpich
QCMPIRUN:        /cm/shared/apps/spack/cpu/opt/spack/linux-centos8-zen2/gcc-10.2.0/qchem-5.4-akfmr7b3t57bfs6qan3padb2wnb2i7cl/bin/mpi/mpirun_qchem
QCMACHINEFILE:   ./qchem3752558/hostfile
exp-6-38

#
# env setting
#
exported envs:   QC QCAUX QCSCRATCH QCRUNNAME QCFILEPREF QCPROG QCPROG_S GUIFILE

Running Job 1 of 1 Dimethoxy_Benzodithiophene_Phi_5_Theta_40_Methylcarbonyl_3_Fluoro_Thienothiophene_Hydrogenated.qcin
qchem Dimethoxy_Benzodithiophene_Phi_5_Theta_40_Methylcarbonyl_3_Fluoro_Thienothiophene_Hydrogenated.qcin_3752558.0 ./qchem3752558/ 1
/cm/shared/apps/spack/cpu/opt/spack/linux-centos8-zen2/gcc-10.2.0/qchem-5.4-akfmr7b3t57bfs6qan3padb2wnb2i7cl/bin/mpi/mpirun_qchem -machinefile ./qchem3752558/hostfile -np 1 /cm/shared/apps/spack/cpu/opt/spack/linux-centos8-zen2/gcc-10.2.0/qchem-5.4-akfmr7b3t57bfs6qan3padb2wnb2i7cl/exe/qcprog.exe Dimethoxy_Benzodithiophene_Phi_5_Theta_40_Methylcarbonyl_3_Fluoro_Thienothiophene_Hydrogenated.qcin_3752558.0 ./qchem3752558/

Process 0 of 1 is on exp-6-38 - thread support 0
initial socket setup ...start
initial socket setup ...done 
now start server 0 ... 
                  Welcome to Q-Chem
     A Quantum Leap Into The Future Of Chemistry


 Q-Chem 5.4, Q-Chem, Inc., Pleasanton, CA (2021)

 License issued to: University of California, San Diego (site)

 E. Epifanovsky,  A. T. B. Gilbert,  Xintian Feng,  Joonho Lee,  Yuezhi Mao,  
 N. Mardirossian,  P. Pokhilko,  A. White,  M. Wormit,  M. P. Coons,  
 A. L. Dempwolff,  Zhengting Gan,  D. Hait,  P. R. Horn,  L. D. Jacobson,  
 I. Kaliman,  J. Kussmann,  A. W. Lange,  Ka Un Lao,  D. S. Levine,  Jie Liu,  
 S. C. McKenzie,  A. F. Morrison,  K. Nanda,  F. Plasser,  D. R. Rehn,  
 M. L. Vidal,  Zhi-Qiang You,  Ying Zhu,  B. Alam,  B. Albrecht,  
 A. Aldossary,  E. Alguire,  J. H. Andersen,  D. Barton,  K. Begam,  A. Behn,  
 Y. A. Bernard,  E. J. Berquist,  H. Burton,  A. Carreras,  K. Carter-Fenk,  
 R. Chakraborty,  A. D. Chien,  K. D. Closser,  V. Cofer-Shabica,  
 S. Dasgupta,  Jia Deng,  M. de Wergifosse,  M. Diedenhofen,  Hainam Do,  
 S. Ehlert,  Po-Tung Fang,  S. Fatehi,  Qingguo Feng,  J. Gayvert,  
 Qinghui Ge,  G. Gidofalvi,  M. Goldey,  J. Gomes,  C. Gonzalez-Espinoza,  
 S. Gulania,  A. Gunina,  M. W. D. Hanson-Heine,  P. H. P. Harbach,  
 A. W. Hauser,  M. F. Herbst,  M. Hernandez Vera,  M. Hodecker,  
 Z. C. Holden,  S. Houck,  Xunkun Huang,  Kerwin Hui,  B. C. Huynh,  
 M. Ivanov,  Hyunjun Ji,  Hanjie Jiang,  B. Kaduk,  S. Kaehler,  
 K. Khistyaev,  Jaehoon Kim,  P. Klunzinger,  Z. Koczor-Benda,  
 Joong Hoon Koh,  D. Kosenkov,  L. Koulias,  T. Kowalczyk,  C. M. Krauter,  
 K. Kue,  A. Kunitsa,  T. Kus,  A. Landau,  K. V. Lawler,  D. Lefrancois,  
 S. Lehtola,  Rain Li,  Yi-Pei Li,  Jiashu Liang,  M. Liebenthal,  
 Hung-Hsuan Lin,  You-Sheng Lin,  Fenglai Liu,  Kuan-Yu Liu,  
 M. Loipersberger,  A. Luenser,  A. Manjanath,  P. Manohar,  E. Mansoor,  
 S. F. Manzer,  Shan-Ping Mao,  A. V. Marenich,  T. Markovich,  S. Mason,  
 S. A. Maurer,  P. F. McLaughlin,  M. F. S. J. Menger,  J.-M. Mewes,  
 S. A. Mewes,  P. Morgante,  J. W. Mullinax,  T. S. Nguyen-Beck,  
 K. J. Oosterbaan,  G. Paran,  Alexander C. Paul,  Suranjan K. Paul,  
 F. Pavosevic,  Zheng Pei,  S. Prager,  E. I. Proynov,  E. Ramos,  B. Rana,  
 A. E. Rask,  A. Rettig,  R. M. Richard,  F. Rob,  E. Rossomme,  T. Scheele,  
 M. Scheurer,  M. Schneider,  N. Sergueev,  S. M. Sharada,  W. Skomorowski,  
 D. W. Small,  C. J. Stein,  Yu-Chuan Su,  E. J. Sundstrom,  Zhen Tao,  
 J. Thirman,  T. Tsuchimochi,  N. M. Tubman,  S. P. Veccham,  O. Vydrov,  
 J. Wenzel,  J. Witte,  A. Yamada,  Kun Yao,  S. Yeganeh,  S. R. Yost,  
 A. Zech,  Igor Ying Zhang,  Xing Zhang,  Yu Zhang,  D. Zuev,  
 A. Aspuru-Guzik,  A. T. Bell,  N. A. Besley,  K. B. Bravaya,  B. R. Brooks,  
 D. Casanova,  Jeng-Da Chai,  S. Coriani,  C. J. Cramer,  
 A. E. DePrince, III,  R. A. DiStasio Jr.,  A. Dreuw,  B. D. Dunietz,  
 T. R. Furlani,  W. A. Goddard III,  S. Grimme,  S. Hammes-Schiffer,  
 T. Head-Gordon,  W. J. Hehre,  Chao-Ping Hsu,  T.-C. Jagau,  Yousung Jung,  
 A. Klamt,  Jing Kong,  D. S. Lambrecht,  WanZhen Liang,  N. J. Mayhall,  
 C. W. McCurdy,  J. B. Neaton,  C. Ochsenfeld,  J. A. Parkhill,  R. Peverati,  
 V. A. Rassolov,  Yihan Shao,  L. V. Slipchenko,  T. Stauch,  R. P. Steele,  
 J. E. Subotnik,  A. J. W. Thom,  A. Tkatchenko,  D. G. Truhlar,  
 T. Van Voorhis,  T. A. Wesolowski,  K. B. Whaley,  H. L. Woodcock III,  
 P. M. Zimmerman,  S. Faraji,  P. M. W. Gill,  M. Head-Gordon,  
 J. M. Herbert,  A. I. Krylov

 Contributors to earlier versions of Q-Chem not listed above: 
 R. D. Adamson,  B. Austin,  R. Baer,  J. Baker,  G. J. O. Beran,  
 K. Brandhorst,  S. T. Brown,  E. F. C. Byrd,  A. K. Chakraborty,  
 G. K. L. Chan,  Chun-Min Chang,  Yunqing Chen,  C.-L. Cheng,  
 Siu Hung Chien,  D. M. Chipman,  D. L. Crittenden,  H. Dachsel,  
 R. J. Doerksen,  A. D. Dutoi,  R. G. Edgar,  J. Fosso-Tande,  
 L. Fusti-Molnar,  D. Ghosh,  A. Ghysels,  A. Golubeva-Zadorozhnaya,  
 J. Gonthier,  M. S. Gordon,  S. R. Gwaltney,  G. Hawkins,  J. E. Herr,  
 A. Heyden,  S. Hirata,  E. G. Hohenstein,  G. Kedziora,  F. J. Keil,  
 C. Kelley,  Jihan Kim,  R. A. King,  R. Z. Khaliullin,  P. P. Korambath,  
 W. Kurlancheek,  A. Laurent,  A. M. Lee,  M. S. Lee,  S. V. Levchenko,  
 Ching Yeh Lin,  D. Liotard,  E. Livshits,  R. C. Lochan,  I. Lotan,  
 L. A. Martinez-Martinez,  P. E. Maslen,  N. Nair,  D. P. O'Neill,  
 D. Neuhauser,  E. Neuscamman,  C. M. Oana,  R. Olivares-Amaya,  R. Olson,  
 T. M. Perrine,  B. Peters,  P. A. Pieniazek,  A. Prociuk,  Y. M. Rhee,  
 J. Ritchie,  M. A. Rohrdanz,  E. Rosta,  N. J. Russ,  H. F. Schaefer III,  
 M. W. Schmidt,  N. E. Schultz,  S. Sharma,  N. Shenvi,  C. D. Sherrill,  
 A. C. Simmonett,  A. Sodt,  T. Stein,  D. Stuck,  K. S. Thanthiriwatte,  
 V. Vanovschi,  L. Vogt,  Tao Wang,  A. Warshel,  M. A. Watson,  
 C. F. Williams,  Q. Wu,  X. Xu,  Jun Yang,  W. Zhang,  Yan Zhao

 Please cite Q-Chem as follows:
 Y. Shao et al., Mol. Phys. 113, 184-215 (2015)
 DOI: 10.1080/00268976.2014.952696

 Q-Chem 5.4.0 for Intel X86 EM64T Linux

 Parts of Q-Chem use Armadillo 9.800.1 (Horizon Scraper).
 http://arma.sourceforge.net/

 Q-Chem begins on Tue Jan  9 10:04:34 2024  

 Host: 
0

     Scratch files written to ./qchem3752558//
 May1621 |scratch|qcdevops|jenkins|workspace|build_RNUM    
 Parallel job on  1  processors
 Processing $rem in /cm/shared/apps/spack/cpu/opt/spack/linux-centos8-zen2/gcc-10.2.0/qchem-5.4-akfmr7b3t57bfs6qan3padb2wnb2i7cl/config/preferences:
 Processing $rem in /home/rramji/.qchemrc:
 Symmetry turned off for PCM/SM12/SMD calculation
 Core orbitals will be frozen

 Checking the input file for inconsistencies... 	...done.

 Q-Chem warning in module forms1/BasisType.C, line 2236:

 You are not using the predefined 5D/6D in this basis set.


--------------------------------------------------------------
User input:
--------------------------------------------------------------
$molecule
0 1
C	-0.236226	-8.517702	0.217225
C	0.448921	-7.641575	-0.611939
S	-1.218777	-7.638634	1.413715
C	0.206907	-6.264785	-0.323572
H	1.118185	-7.966081	-1.418739
C	-0.711285	-6.072714	0.768156
C	-1.053725	-4.787049	1.215016
C	0.804258	-5.162801	-0.999917
C	0.464908	-3.874817	-0.550033
C	-0.456457	-3.683952	0.541024
O	1.630752	-5.499772	-2.028811
O	-1.883064	-4.459055	2.249357
C	-2.956754	-5.329063	2.586579
H	-3.619069	-4.755694	3.262802
H	-2.609423	-6.238095	3.124711
H	-3.531667	-5.637262	1.686639
C	2.599073	-4.572261	-2.503251
H	3.260097	-5.139743	-3.185356
H	3.207034	-4.153131	-1.672937
H	2.135214	-3.739531	-3.075213
C	-0.694410	-2.306654	0.828107
S	0.983256	-2.306501	-1.188794
C	-0.000000	-1.435185	-0.000000
H	-1.364851	-1.978138	1.632185
C	0.000000	0.000000	0.000000
S	0.079327	0.901280	1.507541
C	0.215617	2.467903	0.718873
C	0.079577	0.900940	-1.067872
C	0.198433	2.285998	-0.686410
S	0.061187	0.658044	-2.805516
C	0.208347	2.403534	-3.054530
C	0.267636	3.109360	-1.862551
F	0.379347	4.441341	-1.819088
C	0.249278	2.849688	-4.456084
O	0.190132	2.082076	-5.406510
O	0.359548	4.195721	-4.569225
C	0.407901	4.688467	-5.916207
H	0.496901	5.785916	-5.833064
H	-0.512596	4.414348	-6.470168
H	1.278377	4.268124	-6.459293
H	0.294764	3.388767	1.306486
H	0.456457	-9.143623	0.792084
H	-0.927480	-9.149441	-0.352973
H	0.832067	-1.443175	0.688477
$end

$rem
JOBTYPE		SP
EXCHANGE	HF
CORRELATION	pRIMP2
BASIS		cc-pvtz
METHOD		rimp2
AUX_BASIS	rimp2-cc-pvtz
SOLVENT_METHOD	PCM
PURECART	11111
SYMMETRY	false
MEM_TOTAL	110000
SCF_CONVERGENCE = 6
THRESH=10
GUI = 2
$end



$solvent
dielectric 4.90
$end
--------------------------------------------------------------
 ----------------------------------------------------------------
             Standard Nuclear Orientation (Angstroms)
    I     Atom           X                Y                Z
 ----------------------------------------------------------------
    1      C      -0.2362260000    -8.5177020000     0.2172250000
    2      C       0.4489210000    -7.6415750000    -0.6119390000
    3      S      -1.2187770000    -7.6386340000     1.4137150000
    4      C       0.2069070000    -6.2647850000    -0.3235720000
    5      H       1.1181850000    -7.9660810000    -1.4187390000
    6      C      -0.7112850000    -6.0727140000     0.7681560000
    7      C      -1.0537250000    -4.7870490000     1.2150160000
    8      C       0.8042580000    -5.1628010000    -0.9999170000
    9      C       0.4649080000    -3.8748170000    -0.5500330000
   10      C      -0.4564570000    -3.6839520000     0.5410240000
   11      O       1.6307520000    -5.4997720000    -2.0288110000
   12      O      -1.8830640000    -4.4590550000     2.2493570000
   13      C      -2.9567540000    -5.3290630000     2.5865790000
   14      H      -3.6190690000    -4.7556940000     3.2628020000
   15      H      -2.6094230000    -6.2380950000     3.1247110000
   16      H      -3.5316670000    -5.6372620000     1.6866390000
   17      C       2.5990730000    -4.5722610000    -2.5032510000
   18      H       3.2600970000    -5.1397430000    -3.1853560000
   19      H       3.2070340000    -4.1531310000    -1.6729370000
   20      H       2.1352140000    -3.7395310000    -3.0752130000
   21      C      -0.6944100000    -2.3066540000     0.8281070000
   22      S       0.9832560000    -2.3065010000    -1.1887940000
   23      C       0.0000000000    -1.4351850000     0.0000000000
   24      H      -1.3648510000    -1.9781380000     1.6321850000
   25      C       0.0000000000     0.0000000000     0.0000000000
   26      S       0.0793270000     0.9012800000     1.5075410000
   27      C       0.2156170000     2.4679030000     0.7188730000
   28      C       0.0795770000     0.9009400000    -1.0678720000
   29      C       0.1984330000     2.2859980000    -0.6864100000
   30      S       0.0611870000     0.6580440000    -2.8055160000
   31      C       0.2083470000     2.4035340000    -3.0545300000
   32      C       0.2676360000     3.1093600000    -1.8625510000
   33      F       0.3793470000     4.4413410000    -1.8190880000
   34      C       0.2492780000     2.8496880000    -4.4560840000
   35      O       0.1901320000     2.0820760000    -5.4065100000
   36      O       0.3595480000     4.1957210000    -4.5692250000
   37      C       0.4079010000     4.6884670000    -5.9162070000
   38      H       0.4969010000     5.7859160000    -5.8330640000
   39      H      -0.5125960000     4.4143480000    -6.4701680000
   40      H       1.2783770000     4.2681240000    -6.4592930000
   41      H       0.2947640000     3.3887670000     1.3064860000
   42      H       0.4564570000    -9.1436230000     0.7920840000
   43      H      -0.9274800000    -9.1494410000    -0.3529730000
   44      H       0.8320670000    -1.4431750000     0.6884770000
 ----------------------------------------------------------------
 Nuclear Repulsion Energy =        3340.49667148 hartrees
 There are      120 alpha and      120 beta electrons
 Requested basis set is cc-pVTZ
 There are 388 shells and 1096 basis functions

 Total QAlloc Memory Limit 110000 MB
 Mega-Array Size       188 MB
 MEM_STATIC part       192 MB
 Discretize the solute cavity surface with Lebedev spheres
	Using 110 Lebedev grid points for each H atom
	Using 194 Lebedev grid points for other atoms
	Atomic van der Waals radii will be scaled by 1.20
 Remove points where switching function is < 1.0e-08
 Keep 2962 surface tesserae and discard 4314 interior tesserae
 Molecular Surface Area = 440.753 Angst**2
 Requested basis set is rimp2-cc-pVTZ
 There are 853 shells and 2963 basis functions
 A cutoff of  1.0D-10 yielded  32859 shell pairs
 There are    248453 function pairs (    321558 Cartesian)
 Smallest overlap matrix eigenvalue = 2.14E-05

 Scale SEOQF with 1.000000e-01/1.000000e-02/1.000000e-02

 Standard Electronic Orientation quadrupole field applied
 Nucleus-field energy     =     0.0000000279 hartrees
 Guess from superposition of atomic densities
 Warning:  Energy on first SCF cycle will be non-variational
 SAD guess density has 240.000000 electrons

 -----------------------------------------------------------------------
  General SCF calculation program by
  Eric Jon Sundstrom, Paul Horn, Yuezhi Mao, Dmitri Zuev, Alec White,
  David Stuck, Shaama M.S., Shane Yost, Joonho Lee, David Small,
  Daniel Levine, Susi Lehtola, Hugh Burton, Evgeny Epifanovsky,
  Bang C. Huynh
 -----------------------------------------------------------------------
 Hartree-Fock
 using 64 threads for integral computing
 -------------------------------------------------------
 OpenMP Integral computing Module                
 Release: version 1.0, May 2013, Q-Chem Inc. Pittsburgh 
 -------------------------------------------------------
 A restricted SCF calculation will be
 performed using DIIS
 SCF converges when DIIS error is below 1.0e-06
 ---------------------------------------
  Cycle       Energy         DIIS error
 ---------------------------------------
    1   -2767.0247673086      1.75e-02  
    2   -2754.8930935711      1.53e-03  
    3   -2755.2419503733      8.54e-04  
    4   -2755.3286906753      2.56e-04  
    5   -2755.3422984966      7.41e-05  
    6   -2755.3438479697      2.62e-05  
    7   -2755.3442585252      1.37e-05  
    8   -2755.3443938906      5.76e-06  
    9   -2755.3444262066      3.00e-06  
   10   -2755.3444340871      1.54e-06  
   11   -2755.3444367788      8.33e-07  Convergence criterion met
 ---------------------------------------
 SCF time:   CPU 7356.63s  wall 267.00s 

************** Final PCM Free Energy Summary **************
 G_electrostatic  =      -0.02105132 hartree =     -13.20990375 kcal/mol
 G_cavitation     =       0.00000000 hartree =       0.00000000 kcal/mol
 G_dispersion     =       0.00000000 hartree =       0.00000000 kcal/mol
 G_repulsion      =       0.00000000 hartree =       0.00000000 kcal/mol
 --------------------------------------------------
 Non-electrostatic Free Energy =       0.00000000 hartree =       0.00000000 kcal/mol
 Total                         =      -0.02105132 hartree =     -13.20990375 kcal/mol
 --------------------------------------------------
 SCF Energy (H0 + V/2)                       =   -2755.34443678 
 Solute Internal Energy (H0)                 =   -2755.32338546 
 Total Free Energy (H0 + V/2 + non-elec)     =   -2755.34443678 hartree
                                             = -1729004.72994585 kcal/mol
***********************************************************

 SCF   energy in the final basis set =    -2755.3444367788
 Total energy in the final basis set =    -2755.3444367788


 --------------------------------------------------------------
  Generalized many-body perturbation theory program
  by Joonho Lee, Fazle Rob, Xintian Feng, Evgeny Epifanovsky

 No regularization used 
 (reg. param. = 0.0000e+00)
  (P|Q)^-1/2 Time:  CPU 140.94 s  wall 2.86 s

 In RI-MP2 calculation: 
 # of frozen core orbitals: 45

 Components of the RIMP2 correlation energy:
        aaaa    correlation energy =        -0.6686161208 a.u.
        abab    correlation energy =        -3.7511322632 a.u.
        bbbb    correlation energy =        -0.6686161208 a.u.
        non-Brillouin singles      =        -0.0000000000 a.u.
        total same-spin energy     =        -1.3372322415 a.u.
        total opposite-spin energy =        -3.7511322632 a.u.

 Total  RIMP2   correlation energy =        -5.0883645047 a.u.
        RIMP2         total energy =     -2760.4328012835 a.u.

 RI-MP2 Energy Time:  CPU 2897.72 s  wall 47.36 s
 
 --------------------------------------------------------------
 
                    Orbital Energies (a.u.)
 --------------------------------------------------------------
 
 Alpha MOs
 -- Occupied --
-92.0147 -91.9949 -91.9801 -91.9590 -26.3424 -20.6146 -20.5878 -20.5876
-20.5611 -11.4090 -11.3810 -11.3096 -11.3090 -11.3074 -11.3056 -11.2972
-11.2943 -11.2887 -11.2845 -11.2844 -11.2840 -11.2833 -11.2823 -11.2740
-11.2729 -11.2594 -11.2589 -11.2504 -11.2384  -9.0136  -8.9951  -8.9822
 -8.9616  -6.6944  -6.6939  -6.6932  -6.6761  -6.6754  -6.6742  -6.6633
 -6.6624  -6.6611  -6.6428  -6.6419  -6.6409  -1.6595  -1.4670  -1.4111
 -1.4096  -1.3697  -1.2293  -1.2028  -1.1746  -1.1372  -1.1006  -1.0475
 -1.0437  -1.0241  -1.0043  -0.9977  -0.9632  -0.9575  -0.9490  -0.9414
 -0.8943  -0.8683  -0.8665  -0.8147  -0.7943  -0.7898  -0.7849  -0.7691
 -0.7563  -0.7378  -0.7245  -0.7147  -0.6971  -0.6885  -0.6844  -0.6805
 -0.6736  -0.6621  -0.6564  -0.6491  -0.6376  -0.6305  -0.6207  -0.6156
 -0.6109  -0.5991  -0.5928  -0.5767  -0.5712  -0.5645  -0.5589  -0.5583
 -0.5500  -0.5329  -0.5311  -0.5256  -0.5134  -0.5102  -0.5078  -0.5018
 -0.4850  -0.4791  -0.4764  -0.4736  -0.4693  -0.4679  -0.4610  -0.4476
 -0.4295  -0.3958  -0.3864  -0.3707  -0.3514  -0.2979  -0.2894  -0.2194
 -- Virtual --
  0.0347   0.0508   0.1158   0.1314   0.1366   0.1470   0.1522   0.1543
  0.1572   0.1582   0.1671   0.1784   0.1817   0.1843   0.1887   0.1933
  0.1998   0.2018   0.2049   0.2142   0.2152   0.2200   0.2241   0.2282
  0.2295   0.2347   0.2364   0.2447   0.2518   0.2554   0.2638   0.2726
  0.2769   0.2907   0.3056   0.3253   0.3288   0.3397   0.3434   0.3453
  0.3500   0.3576   0.3603   0.3690   0.3755   0.3843   0.3854   0.3856
  0.3890   0.3954   0.4013   0.4060   0.4065   0.4128   0.4157   0.4228
  0.4257   0.4281   0.4328   0.4356   0.4386   0.4445   0.4504   0.4546
  0.4591   0.4644   0.4663   0.4678   0.4729   0.4786   0.4806   0.4852
  0.4915   0.4941   0.5015   0.5056   0.5065   0.5096   0.5146   0.5191
  0.5224   0.5264   0.5335   0.5344   0.5380   0.5403   0.5435   0.5503
  0.5517   0.5541   0.5563   0.5594   0.5635   0.5668   0.5763   0.5788
  0.5842   0.5871   0.5885   0.5945   0.5988   0.6006   0.6062   0.6115
  0.6123   0.6147   0.6167   0.6215   0.6223   0.6248   0.6277   0.6286
  0.6323   0.6369   0.6401   0.6455   0.6478   0.6516   0.6560   0.6565
  0.6616   0.6693   0.6706   0.6756   0.6848   0.6881   0.6917   0.6997
  0.7057   0.7092   0.7140   0.7170   0.7185   0.7240   0.7302   0.7367
  0.7412   0.7491   0.7553   0.7569   0.7661   0.7749   0.7813   0.7898
  0.7965   0.8029   0.8042   0.8091   0.8129   0.8175   0.8251   0.8252
  0.8300   0.8390   0.8475   0.8519   0.8585   0.8616   0.8727   0.8734
  0.8765   0.8812   0.8933   0.8959   0.8987   0.9047   0.9094   0.9147
  0.9185   0.9253   0.9286   0.9334   0.9430   0.9458   0.9506   0.9583
  0.9607   0.9635   0.9668   0.9778   0.9800   0.9854   0.9895   0.9940
  0.9991   1.0036   1.0066   1.0101   1.0170   1.0212   1.0231   1.0321
  1.0371   1.0420   1.0458   1.0532   1.0558   1.0602   1.0676   1.0703
  1.0720   1.0745   1.0822   1.0853   1.0988   1.1009   1.1057   1.1072
  1.1132   1.1159   1.1204   1.1241   1.1261   1.1343   1.1393   1.1525
  1.1549   1.1558   1.1674   1.1691   1.1721   1.1742   1.1779   1.1844
  1.1866   1.1939   1.1986   1.2029   1.2057   1.2121   1.2164   1.2218
  1.2274   1.2294   1.2330   1.2391   1.2421   1.2440   1.2542   1.2566
  1.2623   1.2650   1.2708   1.2723   1.2767   1.2849   1.2899   1.2927
  1.3014   1.3077   1.3146   1.3156   1.3232   1.3278   1.3361   1.3425
  1.3499   1.3548   1.3639   1.3698   1.3842   1.3891   1.3969   1.3982
  1.4071   1.4166   1.4174   1.4214   1.4278   1.4312   1.4462   1.4489
  1.4574   1.4649   1.4771   1.4797   1.4884   1.4935   1.4994   1.5024
  1.5058   1.5098   1.5125   1.5169   1.5236   1.5343   1.5374   1.5399
  1.5417   1.5469   1.5494   1.5549   1.5558   1.5657   1.5707   1.5758
  1.5867   1.5962   1.6033   1.6068   1.6137   1.6239   1.6260   1.6380
  1.6433   1.6445   1.6542   1.6596   1.6645   1.6719   1.6839   1.6895
  1.6946   1.7029   1.7068   1.7076   1.7184   1.7281   1.7379   1.7526
  1.7551   1.7667   1.7756   1.7799   1.7901   1.7986   1.8135   1.8149
  1.8208   1.8245   1.8317   1.8498   1.8560   1.8594   1.8659   1.8736
  1.8802   1.8824   1.8940   1.8991   1.9173   1.9247   1.9301   1.9370
  1.9493   1.9542   1.9638   1.9674   1.9794   1.9877   1.9956   1.9977
  2.0029   2.0151   2.0170   2.0231   2.0335   2.0368   2.0448   2.0528
  2.0578   2.0718   2.0807   2.0926   2.0959   2.1055   2.1177   2.1239
  2.1372   2.1602   2.1604   2.1630   2.1760   2.1875   2.1907   2.1970
  2.1994   2.2034   2.2080   2.2116   2.2245   2.2253   2.2425   2.2443
  2.2505   2.2556   2.2621   2.2716   2.2764   2.2878   2.2919   2.3041
  2.3132   2.3166   2.3249   2.3354   2.3371   2.3475   2.3506   2.3566
  2.3710   2.3759   2.3912   2.3997   2.4018   2.4122   2.4159   2.4235
  2.4317   2.4409   2.4487   2.4613   2.4726   2.4787   2.4888   2.4965
  2.5014   2.5127   2.5172   2.5324   2.5419   2.5468   2.5592   2.5681
  2.5758   2.5809   2.5963   2.6015   2.6139   2.6182   2.6230   2.6269
  2.6310   2.6332   2.6400   2.6442   2.6469   2.6497   2.6682   2.6726
  2.6824   2.6847   2.6859   2.6954   2.7013   2.7071   2.7124   2.7154
  2.7215   2.7218   2.7301   2.7422   2.7517   2.7587   2.7622   2.7695
  2.7750   2.7787   2.7848   2.7936   2.8011   2.8123   2.8148   2.8291
  2.8413   2.8427   2.8503   2.8511   2.8540   2.8615   2.8623   2.8699
  2.8796   2.8841   2.8870   2.8993   2.9078   2.9143   2.9234   2.9336
  2.9474   2.9537   2.9577   2.9599   2.9721   2.9767   2.9806   2.9880
  2.9896   2.9960   3.0129   3.0234   3.0247   3.0314   3.0377   3.0481
  3.0506   3.0619   3.0640   3.0752   3.0793   3.0911   3.0976   3.1005
  3.1047   3.1120   3.1144   3.1203   3.1301   3.1358   3.1371   3.1447
  3.1468   3.1496   3.1550   3.1569   3.1661   3.1689   3.1727   3.1787
  3.1825   3.1939   3.2029   3.2045   3.2117   3.2166   3.2178   3.2230
  3.2253   3.2340   3.2407   3.2461   3.2537   3.2583   3.2642   3.2655
  3.2680   3.2720   3.2757   3.2815   3.2846   3.2909   3.2963   3.3033
  3.3047   3.3086   3.3153   3.3189   3.3281   3.3334   3.3367   3.3405
  3.3418   3.3499   3.3517   3.3542   3.3636   3.3660   3.3674   3.3687
  3.3772   3.3845   3.3891   3.3900   3.3933   3.3967   3.4000   3.4067
  3.4087   3.4109   3.4194   3.4268   3.4322   3.4352   3.4382   3.4446
  3.4483   3.4510   3.4559   3.4566   3.4659   3.4700   3.4758   3.4790
  3.4858   3.4881   3.4934   3.4993   3.5048   3.5089   3.5135   3.5275
  3.5325   3.5410   3.5469   3.5532   3.5614   3.5658   3.5700   3.5733
  3.5777   3.5881   3.5924   3.5942   3.5991   3.6014   3.6080   3.6087
  3.6167   3.6186   3.6238   3.6286   3.6339   3.6366   3.6417   3.6576
  3.6606   3.6653   3.6724   3.6732   3.6805   3.6843   3.6883   3.6933
  3.6983   3.7056   3.7075   3.7146   3.7183   3.7204   3.7247   3.7356
  3.7412   3.7437   3.7495   3.7583   3.7604   3.7680   3.7686   3.7717
  3.7851   3.7876   3.7923   3.8016   3.8063   3.8081   3.8101   3.8139
  3.8174   3.8227   3.8307   3.8347   3.8460   3.8518   3.8541   3.8620
  3.8636   3.8693   3.8722   3.8806   3.8840   3.8925   3.9020   3.9080
  3.9097   3.9175   3.9262   3.9298   3.9370   3.9458   3.9495   3.9566
  3.9609   3.9697   3.9758   3.9820   3.9935   4.0019   4.0048   4.0079
  4.0149   4.0206   4.0377   4.0413   4.0461   4.0553   4.0633   4.0667
  4.0682   4.0753   4.0796   4.0956   4.0975   4.1115   4.1139   4.1305
  4.1432   4.1463   4.1555   4.1604   4.1652   4.1666   4.1697   4.1743
  4.1760   4.1873   4.1926   4.2018   4.2095   4.2108   4.2235   4.2342
  4.2394   4.2455   4.2601   4.2651   4.2810   4.2848   4.2917   4.3041
  4.3125   4.3220   4.3272   4.3384   4.3421   4.3497   4.3514   4.3578
  4.3628   4.3638   4.3732   4.3790   4.3896   4.4058   4.4144   4.4178
  4.4223   4.4235   4.4297   4.4305   4.4347   4.4373   4.4492   4.4620
  4.4637   4.4730   4.4789   4.4972   4.5026   4.5185   4.5223   4.5273
  4.5377   4.5455   4.5531   4.5561   4.5700   4.5758   4.5779   4.5827
  4.5857   4.6029   4.6081   4.6151   4.6173   4.6324   4.6486   4.6516
  4.6552   4.6606   4.6698   4.6793   4.6918   4.7054   4.7263   4.7271
  4.7357   4.7594   4.7629   4.7804   4.7840   4.7853   4.8053   4.8198
  4.8253   4.8350   4.8432   4.8479   4.8664   4.8719   4.8788   4.8926
  4.9022   4.9163   4.9267   4.9416   4.9493   4.9550   4.9653   4.9678
  4.9769   5.0023   5.0091   5.0131   5.0145   5.0175   5.0432   5.0539
  5.0813   5.0921   5.0956   5.1091   5.1215   5.1262   5.1613   5.1633
  5.1761   5.1929   5.2028   5.2055   5.2276   5.2382   5.2510   5.2533
  5.2585   5.2725   5.2849   5.2911   5.2926   5.3123   5.3156   5.3254
  5.3359   5.3523   5.3612   5.3641   5.3682   5.3767   5.3897   5.4015
  5.4058   5.4199   5.4264   5.4424   5.4523   5.4851   5.4981   5.5055
  5.5097   5.5208   5.5261   5.5405   5.5518   5.5682   5.5740   5.5819
  5.5896   5.6089   5.6097   5.6219   5.6341   5.6626   5.6779   5.6898
  5.6979   5.7314   5.7592   5.7638   5.7843   5.8078   5.8263   5.8570
  5.8607   5.8797   5.8995   5.9227   5.9294   5.9506   5.9817   6.0132
  6.0400   6.0448   6.0935   6.1296   6.1507   6.1578   6.1729   6.1767
  6.1812   6.2024   6.2304   6.2473   6.2616   6.2635   6.2758   6.2829
  6.3147   6.3338   6.3513   6.3815   6.4504   6.4596   6.4925   6.5399
  6.5483   6.5687   6.6078   6.6448   6.6616   6.6714   6.7165   6.7470
  6.8069   6.8304   6.8579   6.8597   6.8978   6.9789   7.1304   7.1457
  7.2042   7.2082   7.2215   7.2392   7.3101   7.3265   7.3419   7.3640
  7.3649   7.4069   7.4135   7.4857   7.4865   7.4961   7.5273   7.5523
  7.6168   7.7408   7.7739   7.7905   7.8019   7.9043   7.9258   7.9543
  7.9761   8.1353   8.3421   8.6153   8.9228   9.0306   9.3638   9.4857
  9.6773  10.2365  11.1660  11.4774  11.7285  11.8781  12.1227  12.3723
 12.4179  12.5011  12.9577  13.0018  13.0704  13.2816  13.3862  13.4811
 13.7652  13.8020  13.9042  13.9569  14.0332  14.3119  14.9180  15.2080
 --------------------------------------------------------------
 
          Ground-State Mulliken Net Atomic Charges

     Atom                 Charge (a.u.)
  ----------------------------------------
      1 C                    -0.070288
      2 C                    -0.255263
      3 S                    -0.134427
      4 C                    -0.048176
      5 H                     0.194157
      6 C                    -0.049964
      7 C                     0.220881
      8 C                     0.229387
      9 C                    -0.073551
     10 C                    -0.023956
     11 O                    -0.334488
     12 O                    -0.343644
     13 C                    -0.082825
     14 H                     0.120024
     15 H                     0.092157
     16 H                     0.093268
     17 C                    -0.088058
     18 H                     0.124015
     19 H                     0.092517
     20 H                     0.091852
     21 C                    -0.316856
     22 S                    -0.088263
     23 C                     0.148752
     24 H                     0.201810
     25 C                    -0.072232
     26 S                     0.083515
     27 C                    -0.197874
     28 C                    -0.023090
     29 C                    -0.110733
     30 S                     0.001835
     31 C                    -0.157945
     32 C                     0.402072
     33 F                    -0.208109
     34 C                     0.443135
     35 O                    -0.460086
     36 O                    -0.300505
     37 C                    -0.058784
     38 H                     0.121314
     39 H                     0.095228
     40 H                     0.095007
     41 H                     0.217430
     42 H                     0.117883
     43 H                     0.115781
     44 H                     0.197098
  ----------------------------------------
  Sum of atomic charges =     0.000000

 -----------------------------------------------------------------
                    Cartesian Multipole Moments
 -----------------------------------------------------------------
    Charge (ESU x 10^10)
                -0.0000
    Dipole Moment (Debye)
         X       0.8389      Y       2.1136      Z       3.2509
       Tot       3.9673
    Quadrupole Moments (Debye-Ang)
        XX    -188.0985     XY      -1.3351     YY    -172.4958
        XZ      -8.9437     YZ      -4.2440     ZZ    -201.5802
    Octopole Moments (Debye-Ang^2)
       XXX     -12.0276    XXY     313.2021    XYY      18.5967
       YYY     943.9496    XXZ     165.1829    XYZ      33.4595
       YYZ      69.6917    XZZ       6.7210    YZZ     451.0265
       ZZZ     517.6170
    Hexadecapole Moments (Debye-Ang^3)
      XXXX   -1366.7071   XXXY    -547.9357   XXYY   -3871.2541
      XYYY    -682.9344   YYYY  -20275.3339   XXXZ     641.3814
      XXYZ     644.5248   XYYZ      50.1412   YYYZ    1881.6752
      XXZZ   -1238.4754   XYZZ    -137.1885   YYZZ   -4330.1734
      XZZZ     627.8894   YZZZ    1459.9973   ZZZZ   -6700.9431
 -----------------------------------------------------------------
 Total job time:  318.70s(wall), 10368.61s(cpu) 
 Tue Jan  9 10:09:52 2024

        *************************************************************
        *                                                           *
        *  Thank you very much for using Q-Chem.  Have a nice day.  *
        *                                                           *
        *************************************************************


0 sent ACK to 0 
now end server 0 ... 
cleanup process ... done
remove work dirs ./qchem3752558.0 -- ./qchem3752558.0
rm -rf ./qchem3752558.0
rm -rf ./qchem3752558
