You are running Q-Chem version: 5.4.0

#
# job setting
#
local host:  exp-3-51
current dir: /home/rramji/project-csd799/aromodel/ptb7fout-qchem/hydrogenated-rotation-run
input file:  Dimethoxy_Benzodithiophene_Phi_15_Theta_140_Methylcarbonyl_3_Fluoro_Thienothiophene_Hydrogenated.qcin
output file: 
nprocs     : 1
nthreads   : 64
#
# qchem installation setting
#
QC:          /cm/shared/apps/spack/cpu/opt/spack/linux-centos8-zen2/gcc-10.2.0/qchem-5.4-akfmr7b3t57bfs6qan3padb2wnb2i7cl
QCAUX:       /cm/shared/apps/spack/cpu/opt/spack/linux-centos8-zen2/gcc-10.2.0/qchem-5.4-akfmr7b3t57bfs6qan3padb2wnb2i7cl/qcaux
QCPROG:      /cm/shared/apps/spack/cpu/opt/spack/linux-centos8-zen2/gcc-10.2.0/qchem-5.4-akfmr7b3t57bfs6qan3padb2wnb2i7cl/exe/qcprog.exe
QCPROG_S:    /cm/shared/apps/spack/cpu/opt/spack/linux-centos8-zen2/gcc-10.2.0/qchem-5.4-akfmr7b3t57bfs6qan3padb2wnb2i7cl/exe/qcprog.exe_s
PARALLEL:    -DPARALLEL
QCMPI:       mpich
#
# qchem directory setting
#
qcrun:       qchem784273
QCSCRATCH:   .
QCLOCALSCR:  
QCTMPDIR:    .
QCFILEPREF:  ./qchem784273
QCSAVEDIR:   
workdirs:    ./qchem784273
workdir0:    ./qchem784273
partmpdirs =  
#
# parallel setting
#
QCRSH:           ssh
QCMPI:           mpich
QCMPIRUN:        /cm/shared/apps/spack/cpu/opt/spack/linux-centos8-zen2/gcc-10.2.0/qchem-5.4-akfmr7b3t57bfs6qan3padb2wnb2i7cl/bin/mpi/mpirun_qchem
QCMACHINEFILE:   ./qchem784273/hostfile
exp-3-51

#
# env setting
#
exported envs:   QC QCAUX QCSCRATCH QCRUNNAME QCFILEPREF QCPROG QCPROG_S GUIFILE

Running Job 1 of 1 Dimethoxy_Benzodithiophene_Phi_15_Theta_140_Methylcarbonyl_3_Fluoro_Thienothiophene_Hydrogenated.qcin
qchem Dimethoxy_Benzodithiophene_Phi_15_Theta_140_Methylcarbonyl_3_Fluoro_Thienothiophene_Hydrogenated.qcin_784273.0 ./qchem784273/ 1
/cm/shared/apps/spack/cpu/opt/spack/linux-centos8-zen2/gcc-10.2.0/qchem-5.4-akfmr7b3t57bfs6qan3padb2wnb2i7cl/bin/mpi/mpirun_qchem -machinefile ./qchem784273/hostfile -np 1 /cm/shared/apps/spack/cpu/opt/spack/linux-centos8-zen2/gcc-10.2.0/qchem-5.4-akfmr7b3t57bfs6qan3padb2wnb2i7cl/exe/qcprog.exe Dimethoxy_Benzodithiophene_Phi_15_Theta_140_Methylcarbonyl_3_Fluoro_Thienothiophene_Hydrogenated.qcin_784273.0 ./qchem784273/

Process 0 of 1 is on exp-3-51 - thread support 0
initial socket setup ...start
initial socket setup ...done 
now start server 0 ... 
                  Welcome to Q-Chem
     A Quantum Leap Into The Future Of Chemistry


 Q-Chem 5.4, Q-Chem, Inc., Pleasanton, CA (2021)

 License issued to: University of California, San Diego (site)

 E. Epifanovsky,  A. T. B. Gilbert,  Xintian Feng,  Joonho Lee,  Yuezhi Mao,  
 N. Mardirossian,  P. Pokhilko,  A. White,  M. Wormit,  M. P. Coons,  
 A. L. Dempwolff,  Zhengting Gan,  D. Hait,  P. R. Horn,  L. D. Jacobson,  
 I. Kaliman,  J. Kussmann,  A. W. Lange,  Ka Un Lao,  D. S. Levine,  Jie Liu,  
 S. C. McKenzie,  A. F. Morrison,  K. Nanda,  F. Plasser,  D. R. Rehn,  
 M. L. Vidal,  Zhi-Qiang You,  Ying Zhu,  B. Alam,  B. Albrecht,  
 A. Aldossary,  E. Alguire,  J. H. Andersen,  D. Barton,  K. Begam,  A. Behn,  
 Y. A. Bernard,  E. J. Berquist,  H. Burton,  A. Carreras,  K. Carter-Fenk,  
 R. Chakraborty,  A. D. Chien,  K. D. Closser,  V. Cofer-Shabica,  
 S. Dasgupta,  Jia Deng,  M. de Wergifosse,  M. Diedenhofen,  Hainam Do,  
 S. Ehlert,  Po-Tung Fang,  S. Fatehi,  Qingguo Feng,  J. Gayvert,  
 Qinghui Ge,  G. Gidofalvi,  M. Goldey,  J. Gomes,  C. Gonzalez-Espinoza,  
 S. Gulania,  A. Gunina,  M. W. D. Hanson-Heine,  P. H. P. Harbach,  
 A. W. Hauser,  M. F. Herbst,  M. Hernandez Vera,  M. Hodecker,  
 Z. C. Holden,  S. Houck,  Xunkun Huang,  Kerwin Hui,  B. C. Huynh,  
 M. Ivanov,  Hyunjun Ji,  Hanjie Jiang,  B. Kaduk,  S. Kaehler,  
 K. Khistyaev,  Jaehoon Kim,  P. Klunzinger,  Z. Koczor-Benda,  
 Joong Hoon Koh,  D. Kosenkov,  L. Koulias,  T. Kowalczyk,  C. M. Krauter,  
 K. Kue,  A. Kunitsa,  T. Kus,  A. Landau,  K. V. Lawler,  D. Lefrancois,  
 S. Lehtola,  Rain Li,  Yi-Pei Li,  Jiashu Liang,  M. Liebenthal,  
 Hung-Hsuan Lin,  You-Sheng Lin,  Fenglai Liu,  Kuan-Yu Liu,  
 M. Loipersberger,  A. Luenser,  A. Manjanath,  P. Manohar,  E. Mansoor,  
 S. F. Manzer,  Shan-Ping Mao,  A. V. Marenich,  T. Markovich,  S. Mason,  
 S. A. Maurer,  P. F. McLaughlin,  M. F. S. J. Menger,  J.-M. Mewes,  
 S. A. Mewes,  P. Morgante,  J. W. Mullinax,  T. S. Nguyen-Beck,  
 K. J. Oosterbaan,  G. Paran,  Alexander C. Paul,  Suranjan K. Paul,  
 F. Pavosevic,  Zheng Pei,  S. Prager,  E. I. Proynov,  E. Ramos,  B. Rana,  
 A. E. Rask,  A. Rettig,  R. M. Richard,  F. Rob,  E. Rossomme,  T. Scheele,  
 M. Scheurer,  M. Schneider,  N. Sergueev,  S. M. Sharada,  W. Skomorowski,  
 D. W. Small,  C. J. Stein,  Yu-Chuan Su,  E. J. Sundstrom,  Zhen Tao,  
 J. Thirman,  T. Tsuchimochi,  N. M. Tubman,  S. P. Veccham,  O. Vydrov,  
 J. Wenzel,  J. Witte,  A. Yamada,  Kun Yao,  S. Yeganeh,  S. R. Yost,  
 A. Zech,  Igor Ying Zhang,  Xing Zhang,  Yu Zhang,  D. Zuev,  
 A. Aspuru-Guzik,  A. T. Bell,  N. A. Besley,  K. B. Bravaya,  B. R. Brooks,  
 D. Casanova,  Jeng-Da Chai,  S. Coriani,  C. J. Cramer,  
 A. E. DePrince, III,  R. A. DiStasio Jr.,  A. Dreuw,  B. D. Dunietz,  
 T. R. Furlani,  W. A. Goddard III,  S. Grimme,  S. Hammes-Schiffer,  
 T. Head-Gordon,  W. J. Hehre,  Chao-Ping Hsu,  T.-C. Jagau,  Yousung Jung,  
 A. Klamt,  Jing Kong,  D. S. Lambrecht,  WanZhen Liang,  N. J. Mayhall,  
 C. W. McCurdy,  J. B. Neaton,  C. Ochsenfeld,  J. A. Parkhill,  R. Peverati,  
 V. A. Rassolov,  Yihan Shao,  L. V. Slipchenko,  T. Stauch,  R. P. Steele,  
 J. E. Subotnik,  A. J. W. Thom,  A. Tkatchenko,  D. G. Truhlar,  
 T. Van Voorhis,  T. A. Wesolowski,  K. B. Whaley,  H. L. Woodcock III,  
 P. M. Zimmerman,  S. Faraji,  P. M. W. Gill,  M. Head-Gordon,  
 J. M. Herbert,  A. I. Krylov

 Contributors to earlier versions of Q-Chem not listed above: 
 R. D. Adamson,  B. Austin,  R. Baer,  J. Baker,  G. J. O. Beran,  
 K. Brandhorst,  S. T. Brown,  E. F. C. Byrd,  A. K. Chakraborty,  
 G. K. L. Chan,  Chun-Min Chang,  Yunqing Chen,  C.-L. Cheng,  
 Siu Hung Chien,  D. M. Chipman,  D. L. Crittenden,  H. Dachsel,  
 R. J. Doerksen,  A. D. Dutoi,  R. G. Edgar,  J. Fosso-Tande,  
 L. Fusti-Molnar,  D. Ghosh,  A. Ghysels,  A. Golubeva-Zadorozhnaya,  
 J. Gonthier,  M. S. Gordon,  S. R. Gwaltney,  G. Hawkins,  J. E. Herr,  
 A. Heyden,  S. Hirata,  E. G. Hohenstein,  G. Kedziora,  F. J. Keil,  
 C. Kelley,  Jihan Kim,  R. A. King,  R. Z. Khaliullin,  P. P. Korambath,  
 W. Kurlancheek,  A. Laurent,  A. M. Lee,  M. S. Lee,  S. V. Levchenko,  
 Ching Yeh Lin,  D. Liotard,  E. Livshits,  R. C. Lochan,  I. Lotan,  
 L. A. Martinez-Martinez,  P. E. Maslen,  N. Nair,  D. P. O'Neill,  
 D. Neuhauser,  E. Neuscamman,  C. M. Oana,  R. Olivares-Amaya,  R. Olson,  
 T. M. Perrine,  B. Peters,  P. A. Pieniazek,  A. Prociuk,  Y. M. Rhee,  
 J. Ritchie,  M. A. Rohrdanz,  E. Rosta,  N. J. Russ,  H. F. Schaefer III,  
 M. W. Schmidt,  N. E. Schultz,  S. Sharma,  N. Shenvi,  C. D. Sherrill,  
 A. C. Simmonett,  A. Sodt,  T. Stein,  D. Stuck,  K. S. Thanthiriwatte,  
 V. Vanovschi,  L. Vogt,  Tao Wang,  A. Warshel,  M. A. Watson,  
 C. F. Williams,  Q. Wu,  X. Xu,  Jun Yang,  W. Zhang,  Yan Zhao

 Please cite Q-Chem as follows:
 Y. Shao et al., Mol. Phys. 113, 184-215 (2015)
 DOI: 10.1080/00268976.2014.952696

 Q-Chem 5.4.0 for Intel X86 EM64T Linux

 Parts of Q-Chem use Armadillo 9.800.1 (Horizon Scraper).
 http://arma.sourceforge.net/

 Q-Chem begins on Tue Jan  9 11:08:24 2024  

 Host: 
0

     Scratch files written to ./qchem784273//
 May1621 |scratch|qcdevops|jenkins|workspace|build_RNUM    
 Parallel job on  1  processors
 Processing $rem in /cm/shared/apps/spack/cpu/opt/spack/linux-centos8-zen2/gcc-10.2.0/qchem-5.4-akfmr7b3t57bfs6qan3padb2wnb2i7cl/config/preferences:
 Processing $rem in /home/rramji/.qchemrc:
 Symmetry turned off for PCM/SM12/SMD calculation
 Core orbitals will be frozen

 Checking the input file for inconsistencies... 	...done.

 Q-Chem warning in module forms1/BasisType.C, line 2236:

 You are not using the predefined 5D/6D in this basis set.


--------------------------------------------------------------
User input:
--------------------------------------------------------------
$molecule
0 1
C	-0.172904	-8.517702	-0.270358
C	0.524688	-7.641575	0.548363
S	-1.180599	-7.638634	-1.445750
C	0.282727	-6.264785	0.259951
H	1.203014	-7.966081	1.347559
C	-0.632972	-6.072714	-0.833868
C	-1.013580	-4.787049	-1.248701
C	0.845068	-5.162801	0.965673
C	0.460946	-3.874817	0.553357
C	-0.453541	-3.683952	-0.543470
O	1.714812	-5.499772	1.958276
O	-1.888193	-4.459055	-2.245053
C	-2.033848	-5.329063	-3.360989
H	-2.584788	-4.755694	-4.130667
H	-2.624118	-6.238095	-3.112380
H	-1.047748	-5.637262	-3.770895
C	2.013896	-4.572261	2.994272
H	2.570853	-5.139743	3.763700
H	1.090625	-4.153131	3.448815
H	2.657717	-3.739531	2.636780
C	-0.694943	-2.306654	-0.827659
S	0.999993	-2.306501	1.174750
C	0.000000	-1.435185	0.000000
H	-1.370385	-1.978138	-1.627541
C	0.000000	0.000000	0.000000
S	0.234628	0.873813	1.507541
C	0.640889	2.392969	0.718873
C	0.234815	0.873434	-1.067872
C	0.592377	2.216811	-0.686410
S	0.174526	0.637422	-2.805516
C	0.622551	2.330840	-3.054530
C	0.803505	3.015647	-1.862551
F	1.144815	4.307994	-1.819088
C	0.740334	2.763108	-4.456084
O	0.548793	2.017428	-5.406510
O	1.082665	4.069544	-4.569225
C	1.215848	4.546407	-5.916207
H	1.494066	5.611729	-5.833064
H	0.261736	4.436296	-6.470168
H	2.000108	3.981294	-6.459293
H	0.878739	3.286099	1.306486
H	-0.859314	-9.143623	0.311979
H	0.508666	-9.149441	-0.852097
H	-0.822504	-1.443175	0.699874
$end

$rem
JOBTYPE		SP
EXCHANGE	HF
CORRELATION	pRIMP2
BASIS		cc-pvtz
METHOD		rimp2
AUX_BASIS	rimp2-cc-pvtz
SOLVENT_METHOD	PCM
PURECART	11111
SYMMETRY	false
MEM_TOTAL	110000
SCF_CONVERGENCE = 6
THRESH=10
GUI = 2
$end



$solvent
dielectric 4.90
$end
--------------------------------------------------------------
 ----------------------------------------------------------------
             Standard Nuclear Orientation (Angstroms)
    I     Atom           X                Y                Z
 ----------------------------------------------------------------
    1      C      -0.1729040000    -8.5177020000    -0.2703580000
    2      C       0.5246880000    -7.6415750000     0.5483630000
    3      S      -1.1805990000    -7.6386340000    -1.4457500000
    4      C       0.2827270000    -6.2647850000     0.2599510000
    5      H       1.2030140000    -7.9660810000     1.3475590000
    6      C      -0.6329720000    -6.0727140000    -0.8338680000
    7      C      -1.0135800000    -4.7870490000    -1.2487010000
    8      C       0.8450680000    -5.1628010000     0.9656730000
    9      C       0.4609460000    -3.8748170000     0.5533570000
   10      C      -0.4535410000    -3.6839520000    -0.5434700000
   11      O       1.7148120000    -5.4997720000     1.9582760000
   12      O      -1.8881930000    -4.4590550000    -2.2450530000
   13      C      -2.0338480000    -5.3290630000    -3.3609890000
   14      H      -2.5847880000    -4.7556940000    -4.1306670000
   15      H      -2.6241180000    -6.2380950000    -3.1123800000
   16      H      -1.0477480000    -5.6372620000    -3.7708950000
   17      C       2.0138960000    -4.5722610000     2.9942720000
   18      H       2.5708530000    -5.1397430000     3.7637000000
   19      H       1.0906250000    -4.1531310000     3.4488150000
   20      H       2.6577170000    -3.7395310000     2.6367800000
   21      C      -0.6949430000    -2.3066540000    -0.8276590000
   22      S       0.9999930000    -2.3065010000     1.1747500000
   23      C       0.0000000000    -1.4351850000     0.0000000000
   24      H      -1.3703850000    -1.9781380000    -1.6275410000
   25      C       0.0000000000     0.0000000000     0.0000000000
   26      S       0.2346280000     0.8738130000     1.5075410000
   27      C       0.6408890000     2.3929690000     0.7188730000
   28      C       0.2348150000     0.8734340000    -1.0678720000
   29      C       0.5923770000     2.2168110000    -0.6864100000
   30      S       0.1745260000     0.6374220000    -2.8055160000
   31      C       0.6225510000     2.3308400000    -3.0545300000
   32      C       0.8035050000     3.0156470000    -1.8625510000
   33      F       1.1448150000     4.3079940000    -1.8190880000
   34      C       0.7403340000     2.7631080000    -4.4560840000
   35      O       0.5487930000     2.0174280000    -5.4065100000
   36      O       1.0826650000     4.0695440000    -4.5692250000
   37      C       1.2158480000     4.5464070000    -5.9162070000
   38      H       1.4940660000     5.6117290000    -5.8330640000
   39      H       0.2617360000     4.4362960000    -6.4701680000
   40      H       2.0001080000     3.9812940000    -6.4592930000
   41      H       0.8787390000     3.2860990000     1.3064860000
   42      H      -0.8593140000    -9.1436230000     0.3119790000
   43      H       0.5086660000    -9.1494410000    -0.8520970000
   44      H      -0.8225040000    -1.4431750000     0.6998740000
 ----------------------------------------------------------------
 Nuclear Repulsion Energy =        3340.05649595 hartrees
 There are      120 alpha and      120 beta electrons
 Requested basis set is cc-pVTZ
 There are 388 shells and 1096 basis functions

 Total QAlloc Memory Limit 110000 MB
 Mega-Array Size       188 MB
 MEM_STATIC part       192 MB
 Discretize the solute cavity surface with Lebedev spheres
	Using 110 Lebedev grid points for each H atom
	Using 194 Lebedev grid points for other atoms
	Atomic van der Waals radii will be scaled by 1.20
 Remove points where switching function is < 1.0e-08
 Keep 2979 surface tesserae and discard 4297 interior tesserae
 Molecular Surface Area = 441.243 Angst**2
 Requested basis set is rimp2-cc-pVTZ
 There are 853 shells and 2963 basis functions
 A cutoff of  1.0D-10 yielded  32983 shell pairs
 There are    248979 function pairs (    322094 Cartesian)
 Smallest overlap matrix eigenvalue = 2.19E-05

 Scale SEOQF with 1.000000e-01/1.000000e-02/1.000000e-02

 Standard Electronic Orientation quadrupole field applied
 Nucleus-field energy     =     0.0000000259 hartrees
 Guess from superposition of atomic densities
 Warning:  Energy on first SCF cycle will be non-variational
 SAD guess density has 240.000000 electrons

 -----------------------------------------------------------------------
  General SCF calculation program by
  Eric Jon Sundstrom, Paul Horn, Yuezhi Mao, Dmitri Zuev, Alec White,
  David Stuck, Shaama M.S., Shane Yost, Joonho Lee, David Small,
  Daniel Levine, Susi Lehtola, Hugh Burton, Evgeny Epifanovsky,
  Bang C. Huynh
 -----------------------------------------------------------------------
 Hartree-Fock
 using 64 threads for integral computing
 -------------------------------------------------------
 OpenMP Integral computing Module                
 Release: version 1.0, May 2013, Q-Chem Inc. Pittsburgh 
 -------------------------------------------------------
 A restricted SCF calculation will be
 performed using DIIS
 SCF converges when DIIS error is below 1.0e-06
 ---------------------------------------
  Cycle       Energy         DIIS error
 ---------------------------------------
    1   -2767.0258892036      1.75e-02  
    2   -2754.8881933462      1.53e-03  
    3   -2755.2372601149      8.54e-04  
    4   -2755.3238168259      2.56e-04  
    5   -2755.3373963818      7.42e-05  
    6   -2755.3389477359      2.62e-05  
    7   -2755.3393607224      1.38e-05  
    8   -2755.3394988789      5.85e-06  
    9   -2755.3395329510      3.06e-06  
   10   -2755.3395413856      1.58e-06  
   11   -2755.3395441870      8.44e-07  Convergence criterion met
 ---------------------------------------
 SCF time:   CPU 8211.62s  wall 344.00s 

************** Final PCM Free Energy Summary **************
 G_electrostatic  =      -0.02077229 hartree =     -13.03480615 kcal/mol
 G_cavitation     =       0.00000000 hartree =       0.00000000 kcal/mol
 G_dispersion     =       0.00000000 hartree =       0.00000000 kcal/mol
 G_repulsion      =       0.00000000 hartree =       0.00000000 kcal/mol
 --------------------------------------------------
 Non-electrostatic Free Energy =       0.00000000 hartree =       0.00000000 kcal/mol
 Total                         =      -0.02077229 hartree =     -13.03480615 kcal/mol
 --------------------------------------------------
 SCF Energy (H0 + V/2)                       =   -2755.33954419 
 Solute Internal Energy (H0)                 =   -2755.31877190 
 Total Free Energy (H0 + V/2 + non-elec)     =   -2755.33954419 hartree
                                             = -1729001.65979816 kcal/mol
***********************************************************

 SCF   energy in the final basis set =    -2755.3395441870
 Total energy in the final basis set =    -2755.3395441870


 --------------------------------------------------------------
  Generalized many-body perturbation theory program
  by Joonho Lee, Fazle Rob, Xintian Feng, Evgeny Epifanovsky

 No regularization used 
 (reg. param. = 0.0000e+00)
  (P|Q)^-1/2 Time:  CPU 168.16 s  wall 3.07 s

 In RI-MP2 calculation: 
 # of frozen core orbitals: 45

 Components of the RIMP2 correlation energy:
        aaaa    correlation energy =        -0.6688339199 a.u.
        abab    correlation energy =        -3.7518356282 a.u.
        bbbb    correlation energy =        -0.6688339199 a.u.
        non-Brillouin singles      =        -0.0000000000 a.u.
        total same-spin energy     =        -1.3376678398 a.u.
        total opposite-spin energy =        -3.7518356282 a.u.

 Total  RIMP2   correlation energy =        -5.0895034680 a.u.
        RIMP2         total energy =     -2760.4290476550 a.u.

 RI-MP2 Energy Time:  CPU 2931.50 s  wall 48.01 s
 
 --------------------------------------------------------------
 
                    Orbital Energies (a.u.)
 --------------------------------------------------------------
 
 Alpha MOs
 -- Occupied --
-92.0159 -91.9975 -91.9798 -91.9581 -26.3433 -20.6151 -20.5874 -20.5870
-20.5617 -11.4097 -11.3823 -11.3091 -11.3086 -11.3079 -11.3036 -11.2983
-11.2966 -11.2890 -11.2850 -11.2850 -11.2838 -11.2823 -11.2806 -11.2735
-11.2728 -11.2583 -11.2582 -11.2496 -11.2367  -9.0147  -8.9976  -8.9820
 -8.9607  -6.6955  -6.6950  -6.6944  -6.6786  -6.6779  -6.6768  -6.6631
 -6.6622  -6.6609  -6.6419  -6.6410  -6.6400  -1.6604  -1.4675  -1.4108
 -1.4088  -1.3703  -1.2294  -1.2030  -1.1738  -1.1378  -1.1001  -1.0465
 -1.0447  -1.0242  -1.0041  -0.9977  -0.9629  -0.9593  -0.9485  -0.9404
 -0.8942  -0.8690  -0.8663  -0.8114  -0.8007  -0.7889  -0.7845  -0.7677
 -0.7567  -0.7378  -0.7253  -0.7157  -0.6981  -0.6870  -0.6848  -0.6802
 -0.6741  -0.6614  -0.6565  -0.6486  -0.6363  -0.6311  -0.6199  -0.6148
 -0.6120  -0.5991  -0.5924  -0.5760  -0.5716  -0.5648  -0.5587  -0.5522
 -0.5486  -0.5340  -0.5311  -0.5287  -0.5138  -0.5079  -0.5077  -0.5013
 -0.4852  -0.4807  -0.4770  -0.4745  -0.4728  -0.4686  -0.4599  -0.4462
 -0.4293  -0.3962  -0.3859  -0.3702  -0.3513  -0.2997  -0.2887  -0.2183
 -- Virtual --
  0.0331   0.0518   0.1072   0.1248   0.1401   0.1453   0.1529   0.1563
  0.1588   0.1599   0.1671   0.1740   0.1827   0.1841   0.1899   0.1965
  0.2008   0.2029   0.2050   0.2149   0.2183   0.2223   0.2229   0.2275
  0.2292   0.2349   0.2395   0.2439   0.2492   0.2573   0.2613   0.2719
  0.2760   0.2952   0.2965   0.3249   0.3360   0.3378   0.3395   0.3430
  0.3498   0.3574   0.3583   0.3658   0.3697   0.3825   0.3843   0.3853
  0.3880   0.3922   0.4002   0.4030   0.4107   0.4146   0.4171   0.4247
  0.4280   0.4297   0.4332   0.4362   0.4390   0.4456   0.4480   0.4506
  0.4553   0.4584   0.4640   0.4693   0.4728   0.4748   0.4807   0.4889
  0.4897   0.4949   0.4999   0.5028   0.5062   0.5091   0.5140   0.5175
  0.5254   0.5278   0.5299   0.5311   0.5368   0.5423   0.5434   0.5473
  0.5510   0.5542   0.5585   0.5595   0.5632   0.5684   0.5711   0.5808
  0.5834   0.5871   0.5922   0.5948   0.5977   0.6020   0.6067   0.6120
  0.6130   0.6145   0.6166   0.6197   0.6227   0.6240   0.6250   0.6286
  0.6318   0.6345   0.6409   0.6464   0.6497   0.6524   0.6541   0.6576
  0.6649   0.6655   0.6711   0.6771   0.6818   0.6871   0.6939   0.6992
  0.7066   0.7079   0.7148   0.7168   0.7188   0.7197   0.7277   0.7372
  0.7388   0.7465   0.7562   0.7610   0.7659   0.7693   0.7778   0.7841
  0.7889   0.7950   0.7994   0.8045   0.8136   0.8184   0.8193   0.8217
  0.8370   0.8386   0.8488   0.8548   0.8591   0.8658   0.8689   0.8729
  0.8769   0.8805   0.8889   0.8925   0.8970   0.9044   0.9104   0.9120
  0.9240   0.9281   0.9323   0.9357   0.9416   0.9461   0.9514   0.9522
  0.9584   0.9662   0.9684   0.9751   0.9806   0.9825   0.9887   0.9896
  0.9985   1.0035   1.0046   1.0136   1.0169   1.0182   1.0273   1.0278
  1.0320   1.0353   1.0429   1.0509   1.0526   1.0583   1.0657   1.0710
  1.0755   1.0801   1.0825   1.0882   1.0960   1.0991   1.1027   1.1098
  1.1120   1.1162   1.1190   1.1273   1.1297   1.1353   1.1383   1.1477
  1.1535   1.1622   1.1638   1.1697   1.1731   1.1768   1.1801   1.1851
  1.1871   1.1884   1.1963   1.2014   1.2081   1.2096   1.2155   1.2188
  1.2244   1.2270   1.2352   1.2384   1.2414   1.2452   1.2546   1.2559
  1.2612   1.2671   1.2700   1.2722   1.2817   1.2834   1.2919   1.2926
  1.2992   1.3037   1.3094   1.3130   1.3223   1.3305   1.3316   1.3425
  1.3429   1.3577   1.3617   1.3688   1.3771   1.3894   1.3944   1.3978
  1.4056   1.4093   1.4114   1.4229   1.4277   1.4390   1.4452   1.4505
  1.4563   1.4723   1.4819   1.4851   1.4886   1.4933   1.5003   1.5009
  1.5050   1.5057   1.5136   1.5172   1.5212   1.5260   1.5339   1.5379
  1.5394   1.5420   1.5475   1.5520   1.5551   1.5597   1.5694   1.5751
  1.5840   1.5944   1.6029   1.6046   1.6182   1.6209   1.6331   1.6345
  1.6410   1.6565   1.6588   1.6607   1.6669   1.6760   1.6792   1.6904
  1.6937   1.7019   1.7133   1.7142   1.7169   1.7250   1.7304   1.7497
  1.7587   1.7694   1.7795   1.7818   1.7888   1.7970   1.8076   1.8118
  1.8202   1.8239   1.8288   1.8453   1.8524   1.8576   1.8719   1.8768
  1.8799   1.8851   1.9005   1.9063   1.9159   1.9229   1.9304   1.9358
  1.9448   1.9464   1.9562   1.9676   1.9820   1.9910   1.9918   1.9978
  1.9999   2.0098   2.0163   2.0207   2.0338   2.0373   2.0393   2.0543
  2.0594   2.0688   2.0846   2.0902   2.0976   2.1078   2.1131   2.1227
  2.1429   2.1465   2.1608   2.1685   2.1800   2.1839   2.1868   2.1942
  2.1960   2.1978   2.2114   2.2156   2.2239   2.2287   2.2374   2.2396
  2.2479   2.2514   2.2536   2.2652   2.2767   2.2885   2.2903   2.3008
  2.3059   2.3083   2.3261   2.3288   2.3397   2.3463   2.3515   2.3588
  2.3693   2.3782   2.3861   2.3970   2.4015   2.4133   2.4201   2.4218
  2.4357   2.4395   2.4487   2.4648   2.4668   2.4814   2.4893   2.4984
  2.5029   2.5065   2.5135   2.5320   2.5414   2.5460   2.5531   2.5609
  2.5682   2.5822   2.5938   2.5996   2.6169   2.6224   2.6225   2.6256
  2.6299   2.6332   2.6392   2.6427   2.6479   2.6498   2.6640   2.6733
  2.6792   2.6827   2.6840   2.6915   2.6985   2.7044   2.7085   2.7185
  2.7240   2.7307   2.7340   2.7428   2.7529   2.7602   2.7652   2.7740
  2.7831   2.7878   2.7947   2.8048   2.8084   2.8130   2.8217   2.8369
  2.8378   2.8421   2.8488   2.8513   2.8582   2.8634   2.8686   2.8732
  2.8787   2.8844   2.8963   2.9041   2.9060   2.9128   2.9293   2.9439
  2.9499   2.9581   2.9619   2.9631   2.9706   2.9797   2.9859   2.9910
  2.9964   2.9996   3.0155   3.0225   3.0238   3.0315   3.0407   3.0460
  3.0473   3.0588   3.0679   3.0729   3.0807   3.0892   3.0921   3.0952
  3.0987   3.1062   3.1112   3.1170   3.1253   3.1314   3.1371   3.1422
  3.1486   3.1509   3.1558   3.1598   3.1624   3.1687   3.1732   3.1781
  3.1833   3.1951   3.1988   3.2019   3.2105   3.2168   3.2202   3.2264
  3.2292   3.2391   3.2453   3.2511   3.2548   3.2584   3.2646   3.2707
  3.2720   3.2741   3.2757   3.2825   3.2875   3.2937   3.2988   3.3040
  3.3077   3.3128   3.3155   3.3159   3.3235   3.3337   3.3351   3.3393
  3.3455   3.3484   3.3509   3.3537   3.3572   3.3655   3.3675   3.3692
  3.3719   3.3798   3.3875   3.3939   3.3963   3.4001   3.4023   3.4062
  3.4078   3.4149   3.4271   3.4279   3.4320   3.4383   3.4436   3.4477
  3.4495   3.4525   3.4582   3.4608   3.4718   3.4732   3.4759   3.4815
  3.4834   3.4901   3.4988   3.5029   3.5074   3.5136   3.5229   3.5277
  3.5361   3.5424   3.5471   3.5552   3.5583   3.5613   3.5672   3.5733
  3.5767   3.5810   3.5877   3.5922   3.5995   3.6040   3.6104   3.6125
  3.6149   3.6225   3.6301   3.6336   3.6358   3.6384   3.6436   3.6510
  3.6581   3.6646   3.6697   3.6746   3.6793   3.6854   3.6881   3.6937
  3.6998   3.7020   3.7058   3.7097   3.7136   3.7152   3.7199   3.7275
  3.7360   3.7376   3.7497   3.7535   3.7622   3.7658   3.7697   3.7769
  3.7808   3.7885   3.7936   3.8007   3.8039   3.8069   3.8115   3.8170
  3.8183   3.8220   3.8311   3.8323   3.8421   3.8455   3.8486   3.8495
  3.8571   3.8661   3.8718   3.8786   3.8832   3.8874   3.8984   3.9033
  3.9107   3.9183   3.9240   3.9330   3.9421   3.9515   3.9531   3.9570
  3.9627   3.9662   3.9683   3.9799   3.9878   3.9934   4.0074   4.0096
  4.0170   4.0228   4.0347   4.0437   4.0465   4.0534   4.0638   4.0677
  4.0686   4.0711   4.0825   4.1025   4.1077   4.1115   4.1231   4.1284
  4.1339   4.1364   4.1499   4.1563   4.1595   4.1661   4.1680   4.1722
  4.1748   4.1785   4.1854   4.1992   4.2102   4.2136   4.2198   4.2330
  4.2411   4.2472   4.2494   4.2673   4.2721   4.2846   4.2942   4.3051
  4.3162   4.3304   4.3308   4.3417   4.3456   4.3484   4.3550   4.3592
  4.3668   4.3729   4.3779   4.3881   4.3966   4.4058   4.4087   4.4154
  4.4195   4.4266   4.4298   4.4328   4.4345   4.4390   4.4458   4.4567
  4.4610   4.4719   4.4953   4.4960   4.5089   4.5136   4.5182   4.5216
  4.5282   4.5505   4.5588   4.5615   4.5667   4.5720   4.5755   4.5852
  4.5893   4.5955   4.6149   4.6261   4.6333   4.6415   4.6441   4.6529
  4.6638   4.6696   4.6736   4.6915   4.6938   4.7088   4.7182   4.7266
  4.7368   4.7508   4.7527   4.7739   4.7780   4.7926   4.8052   4.8147
  4.8254   4.8319   4.8467   4.8578   4.8589   4.8761   4.8811   4.8888
  4.9035   4.9083   4.9294   4.9366   4.9470   4.9575   4.9652   4.9723
  4.9822   4.9974   5.0083   5.0089   5.0211   5.0318   5.0354   5.0464
  5.0616   5.0833   5.0908   5.1099   5.1180   5.1265   5.1605   5.1640
  5.1805   5.1956   5.2029   5.2058   5.2205   5.2282   5.2510   5.2552
  5.2588   5.2679   5.2684   5.2906   5.2926   5.3140   5.3185   5.3257
  5.3310   5.3501   5.3513   5.3671   5.3682   5.3900   5.3979   5.4026
  5.4095   5.4213   5.4261   5.4426   5.4477   5.4848   5.4977   5.5075
  5.5155   5.5204   5.5288   5.5455   5.5654   5.5674   5.5820   5.5831
  5.6021   5.6073   5.6145   5.6214   5.6468   5.6658   5.6674   5.6911
  5.7044   5.7358   5.7496   5.7635   5.7736   5.8073   5.8151   5.8444
  5.8584   5.8788   5.9025   5.9156   5.9289   5.9553   5.9931   6.0277
  6.0405   6.0423   6.0894   6.1258   6.1503   6.1544   6.1725   6.1773
  6.1821   6.2016   6.2342   6.2433   6.2595   6.2612   6.2762   6.2886
  6.2936   6.3057   6.3419   6.4070   6.4436   6.4499   6.4879   6.5390
  6.5479   6.5663   6.6047   6.6486   6.6611   6.6708   6.7126   6.7464
  6.8069   6.8299   6.8557   6.8592   6.8978   6.9780   7.1314   7.1445
  7.2037   7.2074   7.2218   7.2396   7.3095   7.3273   7.3413   7.3632
  7.3641   7.4057   7.4130   7.4856   7.4862   7.4970   7.5257   7.5512
  7.6163   7.7378   7.7730   7.7897   7.8025   7.9014   7.9271   7.9538
  7.9726   8.1348   8.2796   8.5760   8.9219   9.0276   9.3630   9.4842
  9.6738  10.2293  11.1743  11.4475  11.7530  11.9224  12.1228  12.3808
 12.4236  12.5130  12.9192  13.0147  13.0857  13.2658  13.3856  13.4793
 13.7473  13.7763  13.8807  13.9421  14.0318  14.3092  14.9289  15.2097
 --------------------------------------------------------------
 
          Ground-State Mulliken Net Atomic Charges

     Atom                 Charge (a.u.)
  ----------------------------------------
      1 C                    -0.070087
      2 C                    -0.261342
      3 S                    -0.135272
      4 C                    -0.044068
      5 H                     0.193279
      6 C                    -0.051875
      7 C                     0.223750
      8 C                     0.223297
      9 C                    -0.075881
     10 C                    -0.050669
     11 O                    -0.334422
     12 O                    -0.343646
     13 C                    -0.082810
     14 H                     0.120619
     15 H                     0.092009
     16 H                     0.093095
     17 C                    -0.087648
     18 H                     0.123684
     19 H                     0.092071
     20 H                     0.090178
     21 C                    -0.271650
     22 S                    -0.078784
     23 C                     0.089451
     24 H                     0.209824
     25 C                    -0.108716
     26 S                     0.074929
     27 C                    -0.182580
     28 C                     0.051711
     29 C                    -0.121921
     30 S                     0.001703
     31 C                    -0.155754
     32 C                     0.400077
     33 F                    -0.207124
     34 C                     0.444586
     35 O                    -0.460339
     36 O                    -0.300637
     37 C                    -0.058488
     38 H                     0.121436
     39 H                     0.095082
     40 H                     0.095237
     41 H                     0.218464
     42 H                     0.117159
     43 H                     0.114931
     44 H                     0.197143
  ----------------------------------------
  Sum of atomic charges =     0.000000

 -----------------------------------------------------------------
                    Cartesian Multipole Moments
 -----------------------------------------------------------------
    Charge (ESU x 10^10)
                 0.0000
    Dipole Moment (Debye)
         X       0.3111      Y       2.6548      Z       3.4954
       Tot       4.4003
    Quadrupole Moments (Debye-Ang)
        XX    -198.4499     XY       1.5593     YY    -175.7853
        XZ       4.3621     YZ     -10.2373     ZZ    -190.0915
    Octopole Moments (Debye-Ang^2)
       XXX    -114.1374    XXY     379.3670    XYY      -0.3375
       YYY     980.4123    XXZ     187.9717    XYZ     -45.0341
       YYZ     148.3532    XZZ     -16.9391    YZZ     399.7003
       ZZZ     596.6114
    Hexadecapole Moments (Debye-Ang^3)
      XXXX   -1377.4771   XXXY    -765.3238   XXYY   -4079.1639
      XYYY    -883.6110   YYYY  -20279.2330   XXXZ    -146.1932
      XXYZ     326.4642   XYYZ     -19.6582   YYYZ     592.3223
      XXZZ   -1260.8393   XYZZ     -82.2526   YYZZ   -4116.5033
      XZZZ    -176.6518   YZZZ     562.3352   ZZZZ   -6843.1112
 -----------------------------------------------------------------
 Total job time:  395.95s(wall), 11277.07s(cpu) 
 Tue Jan  9 11:15:00 2024

        *************************************************************
        *                                                           *
        *  Thank you very much for using Q-Chem.  Have a nice day.  *
        *                                                           *
        *************************************************************


0 sent ACK to 0 
now end server 0 ... 
cleanup process ... done
remove work dirs ./qchem784273.0 -- ./qchem784273.0
rm -rf ./qchem784273.0
rm -rf ./qchem784273
