You are running Q-Chem version: 5.4.0

#
# job setting
#
local host:  exp-14-16
current dir: /home/rramji/project-csd799/aromodel/ptb7fout-qchem/hydrogenated-rotation-run
input file:  Dimethoxy_Benzodithiophene_Phi_30_Theta_30_Methylcarbonyl_3_Fluoro_Thienothiophene_Hydrogenated.qcin
output file: 
nprocs     : 1
nthreads   : 64
#
# qchem installation setting
#
QC:          /cm/shared/apps/spack/cpu/opt/spack/linux-centos8-zen2/gcc-10.2.0/qchem-5.4-akfmr7b3t57bfs6qan3padb2wnb2i7cl
QCAUX:       /cm/shared/apps/spack/cpu/opt/spack/linux-centos8-zen2/gcc-10.2.0/qchem-5.4-akfmr7b3t57bfs6qan3padb2wnb2i7cl/qcaux
QCPROG:      /cm/shared/apps/spack/cpu/opt/spack/linux-centos8-zen2/gcc-10.2.0/qchem-5.4-akfmr7b3t57bfs6qan3padb2wnb2i7cl/exe/qcprog.exe
QCPROG_S:    /cm/shared/apps/spack/cpu/opt/spack/linux-centos8-zen2/gcc-10.2.0/qchem-5.4-akfmr7b3t57bfs6qan3padb2wnb2i7cl/exe/qcprog.exe_s
PARALLEL:    -DPARALLEL
QCMPI:       mpich
#
# qchem directory setting
#
qcrun:       qchem1485346
QCSCRATCH:   .
QCLOCALSCR:  
QCTMPDIR:    .
QCFILEPREF:  ./qchem1485346
QCSAVEDIR:   
workdirs:    ./qchem1485346
workdir0:    ./qchem1485346
partmpdirs =  
#
# parallel setting
#
QCRSH:           ssh
QCMPI:           mpich
QCMPIRUN:        /cm/shared/apps/spack/cpu/opt/spack/linux-centos8-zen2/gcc-10.2.0/qchem-5.4-akfmr7b3t57bfs6qan3padb2wnb2i7cl/bin/mpi/mpirun_qchem
QCMACHINEFILE:   ./qchem1485346/hostfile
exp-14-16

#
# env setting
#
exported envs:   QC QCAUX QCSCRATCH QCRUNNAME QCFILEPREF QCPROG QCPROG_S GUIFILE

Running Job 1 of 1 Dimethoxy_Benzodithiophene_Phi_30_Theta_30_Methylcarbonyl_3_Fluoro_Thienothiophene_Hydrogenated.qcin
qchem Dimethoxy_Benzodithiophene_Phi_30_Theta_30_Methylcarbonyl_3_Fluoro_Thienothiophene_Hydrogenated.qcin_1485346.0 ./qchem1485346/ 1
/cm/shared/apps/spack/cpu/opt/spack/linux-centos8-zen2/gcc-10.2.0/qchem-5.4-akfmr7b3t57bfs6qan3padb2wnb2i7cl/bin/mpi/mpirun_qchem -machinefile ./qchem1485346/hostfile -np 1 /cm/shared/apps/spack/cpu/opt/spack/linux-centos8-zen2/gcc-10.2.0/qchem-5.4-akfmr7b3t57bfs6qan3padb2wnb2i7cl/exe/qcprog.exe Dimethoxy_Benzodithiophene_Phi_30_Theta_30_Methylcarbonyl_3_Fluoro_Thienothiophene_Hydrogenated.qcin_1485346.0 ./qchem1485346/

Process 0 of 1 is on exp-14-16 - thread support 0
initial socket setup ...start
initial socket setup ...done 
now start server 0 ... 
                  Welcome to Q-Chem
     A Quantum Leap Into The Future Of Chemistry


 Q-Chem 5.4, Q-Chem, Inc., Pleasanton, CA (2021)

 License issued to: University of California, San Diego (site)

 E. Epifanovsky,  A. T. B. Gilbert,  Xintian Feng,  Joonho Lee,  Yuezhi Mao,  
 N. Mardirossian,  P. Pokhilko,  A. White,  M. Wormit,  M. P. Coons,  
 A. L. Dempwolff,  Zhengting Gan,  D. Hait,  P. R. Horn,  L. D. Jacobson,  
 I. Kaliman,  J. Kussmann,  A. W. Lange,  Ka Un Lao,  D. S. Levine,  Jie Liu,  
 S. C. McKenzie,  A. F. Morrison,  K. Nanda,  F. Plasser,  D. R. Rehn,  
 M. L. Vidal,  Zhi-Qiang You,  Ying Zhu,  B. Alam,  B. Albrecht,  
 A. Aldossary,  E. Alguire,  J. H. Andersen,  D. Barton,  K. Begam,  A. Behn,  
 Y. A. Bernard,  E. J. Berquist,  H. Burton,  A. Carreras,  K. Carter-Fenk,  
 R. Chakraborty,  A. D. Chien,  K. D. Closser,  V. Cofer-Shabica,  
 S. Dasgupta,  Jia Deng,  M. de Wergifosse,  M. Diedenhofen,  Hainam Do,  
 S. Ehlert,  Po-Tung Fang,  S. Fatehi,  Qingguo Feng,  J. Gayvert,  
 Qinghui Ge,  G. Gidofalvi,  M. Goldey,  J. Gomes,  C. Gonzalez-Espinoza,  
 S. Gulania,  A. Gunina,  M. W. D. Hanson-Heine,  P. H. P. Harbach,  
 A. W. Hauser,  M. F. Herbst,  M. Hernandez Vera,  M. Hodecker,  
 Z. C. Holden,  S. Houck,  Xunkun Huang,  Kerwin Hui,  B. C. Huynh,  
 M. Ivanov,  Hyunjun Ji,  Hanjie Jiang,  B. Kaduk,  S. Kaehler,  
 K. Khistyaev,  Jaehoon Kim,  P. Klunzinger,  Z. Koczor-Benda,  
 Joong Hoon Koh,  D. Kosenkov,  L. Koulias,  T. Kowalczyk,  C. M. Krauter,  
 K. Kue,  A. Kunitsa,  T. Kus,  A. Landau,  K. V. Lawler,  D. Lefrancois,  
 S. Lehtola,  Rain Li,  Yi-Pei Li,  Jiashu Liang,  M. Liebenthal,  
 Hung-Hsuan Lin,  You-Sheng Lin,  Fenglai Liu,  Kuan-Yu Liu,  
 M. Loipersberger,  A. Luenser,  A. Manjanath,  P. Manohar,  E. Mansoor,  
 S. F. Manzer,  Shan-Ping Mao,  A. V. Marenich,  T. Markovich,  S. Mason,  
 S. A. Maurer,  P. F. McLaughlin,  M. F. S. J. Menger,  J.-M. Mewes,  
 S. A. Mewes,  P. Morgante,  J. W. Mullinax,  T. S. Nguyen-Beck,  
 K. J. Oosterbaan,  G. Paran,  Alexander C. Paul,  Suranjan K. Paul,  
 F. Pavosevic,  Zheng Pei,  S. Prager,  E. I. Proynov,  E. Ramos,  B. Rana,  
 A. E. Rask,  A. Rettig,  R. M. Richard,  F. Rob,  E. Rossomme,  T. Scheele,  
 M. Scheurer,  M. Schneider,  N. Sergueev,  S. M. Sharada,  W. Skomorowski,  
 D. W. Small,  C. J. Stein,  Yu-Chuan Su,  E. J. Sundstrom,  Zhen Tao,  
 J. Thirman,  T. Tsuchimochi,  N. M. Tubman,  S. P. Veccham,  O. Vydrov,  
 J. Wenzel,  J. Witte,  A. Yamada,  Kun Yao,  S. Yeganeh,  S. R. Yost,  
 A. Zech,  Igor Ying Zhang,  Xing Zhang,  Yu Zhang,  D. Zuev,  
 A. Aspuru-Guzik,  A. T. Bell,  N. A. Besley,  K. B. Bravaya,  B. R. Brooks,  
 D. Casanova,  Jeng-Da Chai,  S. Coriani,  C. J. Cramer,  
 A. E. DePrince, III,  R. A. DiStasio Jr.,  A. Dreuw,  B. D. Dunietz,  
 T. R. Furlani,  W. A. Goddard III,  S. Grimme,  S. Hammes-Schiffer,  
 T. Head-Gordon,  W. J. Hehre,  Chao-Ping Hsu,  T.-C. Jagau,  Yousung Jung,  
 A. Klamt,  Jing Kong,  D. S. Lambrecht,  WanZhen Liang,  N. J. Mayhall,  
 C. W. McCurdy,  J. B. Neaton,  C. Ochsenfeld,  J. A. Parkhill,  R. Peverati,  
 V. A. Rassolov,  Yihan Shao,  L. V. Slipchenko,  T. Stauch,  R. P. Steele,  
 J. E. Subotnik,  A. J. W. Thom,  A. Tkatchenko,  D. G. Truhlar,  
 T. Van Voorhis,  T. A. Wesolowski,  K. B. Whaley,  H. L. Woodcock III,  
 P. M. Zimmerman,  S. Faraji,  P. M. W. Gill,  M. Head-Gordon,  
 J. M. Herbert,  A. I. Krylov

 Contributors to earlier versions of Q-Chem not listed above: 
 R. D. Adamson,  B. Austin,  R. Baer,  J. Baker,  G. J. O. Beran,  
 K. Brandhorst,  S. T. Brown,  E. F. C. Byrd,  A. K. Chakraborty,  
 G. K. L. Chan,  Chun-Min Chang,  Yunqing Chen,  C.-L. Cheng,  
 Siu Hung Chien,  D. M. Chipman,  D. L. Crittenden,  H. Dachsel,  
 R. J. Doerksen,  A. D. Dutoi,  R. G. Edgar,  J. Fosso-Tande,  
 L. Fusti-Molnar,  D. Ghosh,  A. Ghysels,  A. Golubeva-Zadorozhnaya,  
 J. Gonthier,  M. S. Gordon,  S. R. Gwaltney,  G. Hawkins,  J. E. Herr,  
 A. Heyden,  S. Hirata,  E. G. Hohenstein,  G. Kedziora,  F. J. Keil,  
 C. Kelley,  Jihan Kim,  R. A. King,  R. Z. Khaliullin,  P. P. Korambath,  
 W. Kurlancheek,  A. Laurent,  A. M. Lee,  M. S. Lee,  S. V. Levchenko,  
 Ching Yeh Lin,  D. Liotard,  E. Livshits,  R. C. Lochan,  I. Lotan,  
 L. A. Martinez-Martinez,  P. E. Maslen,  N. Nair,  D. P. O'Neill,  
 D. Neuhauser,  E. Neuscamman,  C. M. Oana,  R. Olivares-Amaya,  R. Olson,  
 T. M. Perrine,  B. Peters,  P. A. Pieniazek,  A. Prociuk,  Y. M. Rhee,  
 J. Ritchie,  M. A. Rohrdanz,  E. Rosta,  N. J. Russ,  H. F. Schaefer III,  
 M. W. Schmidt,  N. E. Schultz,  S. Sharma,  N. Shenvi,  C. D. Sherrill,  
 A. C. Simmonett,  A. Sodt,  T. Stein,  D. Stuck,  K. S. Thanthiriwatte,  
 V. Vanovschi,  L. Vogt,  Tao Wang,  A. Warshel,  M. A. Watson,  
 C. F. Williams,  Q. Wu,  X. Xu,  Jun Yang,  W. Zhang,  Yan Zhao

 Please cite Q-Chem as follows:
 Y. Shao et al., Mol. Phys. 113, 184-215 (2015)
 DOI: 10.1080/00268976.2014.952696

 Q-Chem 5.4.0 for Intel X86 EM64T Linux

 Parts of Q-Chem use Armadillo 9.800.1 (Horizon Scraper).
 http://arma.sourceforge.net/

 Q-Chem begins on Tue Jan  9 10:00:22 2024  

 Host: 
0

     Scratch files written to ./qchem1485346//
 May1621 |scratch|qcdevops|jenkins|workspace|build_RNUM    
 Parallel job on  1  processors
 Processing $rem in /cm/shared/apps/spack/cpu/opt/spack/linux-centos8-zen2/gcc-10.2.0/qchem-5.4-akfmr7b3t57bfs6qan3padb2wnb2i7cl/config/preferences:
 Processing $rem in /home/rramji/.qchemrc:
 Symmetry turned off for PCM/SM12/SMD calculation
 Core orbitals will be frozen

 Checking the input file for inconsistencies... 	...done.

 Q-Chem warning in module forms1/BasisType.C, line 2236:

 You are not using the predefined 5D/6D in this basis set.


--------------------------------------------------------------
User input:
--------------------------------------------------------------
$molecule
0 1
C	-0.194917	-8.517702	0.254945
C	0.335839	-7.641575	-0.680596
S	-0.954772	-7.638634	1.603876
C	0.147576	-6.264785	-0.354585
H	0.854836	-7.966081	-1.591356
C	-0.567090	-6.072714	0.879999
C	-0.826731	-4.787049	1.379534
C	0.618405	-5.162801	-1.124384
C	0.362333	-3.874817	-0.622407
C	-0.355575	-3.683952	0.612067
O	1.253677	-5.499772	-2.281166
O	-1.463859	-4.459055	2.542174
C	-2.462679	-5.329063	3.060718
H	-2.997507	-4.755694	3.841678
H	-2.027179	-6.238095	3.530361
H	-3.185132	-5.637262	2.274283
C	2.124902	-4.572261	-2.916545
H	2.657438	-5.139743	-3.703073
H	2.867810	-4.153131	-2.204417
H	1.568770	-3.739531	-3.399269
C	-0.540061	-2.306654	0.936109
S	0.761887	-2.306501	-1.341474
C	0.000000	-1.435185	0.000000
H	-1.060690	-1.978138	1.844392
C	0.000000	0.000000	0.000000
S	0.452792	0.783312	1.507541
C	1.238397	2.145556	0.718873
C	0.452875	0.782898	-1.067872
C	1.145945	1.987956	-0.686410
S	0.333556	0.570531	-2.805516
C	1.204604	2.090290	-3.054530
C	1.556633	2.704929	-1.862551
F	2.220797	3.864903	-1.819088
C	1.430252	2.477345	-4.456084
O	1.052242	1.806648	-5.406510
O	2.099050	3.650663	-4.569225
C	2.351116	4.076808	-5.916207
H	2.895579	5.033821	-5.833064
H	1.401015	4.217390	-6.470168
H	2.962391	3.327969	-6.459293
H	1.699302	2.946693	1.306486
H	0.587067	-9.143623	0.700788
H	-0.974683	-9.149441	-0.186556
H	0.938979	-1.443175	0.533530
$end

$rem
JOBTYPE		SP
EXCHANGE	HF
CORRELATION	pRIMP2
BASIS		cc-pvtz
METHOD		rimp2
AUX_BASIS	rimp2-cc-pvtz
SOLVENT_METHOD	PCM
PURECART	11111
SYMMETRY	false
MEM_TOTAL	110000
SCF_CONVERGENCE = 6
THRESH=10
GUI = 2
$end



$solvent
dielectric 4.90
$end
--------------------------------------------------------------
 ----------------------------------------------------------------
             Standard Nuclear Orientation (Angstroms)
    I     Atom           X                Y                Z
 ----------------------------------------------------------------
    1      C      -0.1949170000    -8.5177020000     0.2549450000
    2      C       0.3358390000    -7.6415750000    -0.6805960000
    3      S      -0.9547720000    -7.6386340000     1.6038760000
    4      C       0.1475760000    -6.2647850000    -0.3545850000
    5      H       0.8548360000    -7.9660810000    -1.5913560000
    6      C      -0.5670900000    -6.0727140000     0.8799990000
    7      C      -0.8267310000    -4.7870490000     1.3795340000
    8      C       0.6184050000    -5.1628010000    -1.1243840000
    9      C       0.3623330000    -3.8748170000    -0.6224070000
   10      C      -0.3555750000    -3.6839520000     0.6120670000
   11      O       1.2536770000    -5.4997720000    -2.2811660000
   12      O      -1.4638590000    -4.4590550000     2.5421740000
   13      C      -2.4626790000    -5.3290630000     3.0607180000
   14      H      -2.9975070000    -4.7556940000     3.8416780000
   15      H      -2.0271790000    -6.2380950000     3.5303610000
   16      H      -3.1851320000    -5.6372620000     2.2742830000
   17      C       2.1249020000    -4.5722610000    -2.9165450000
   18      H       2.6574380000    -5.1397430000    -3.7030730000
   19      H       2.8678100000    -4.1531310000    -2.2044170000
   20      H       1.5687700000    -3.7395310000    -3.3992690000
   21      C      -0.5400610000    -2.3066540000     0.9361090000
   22      S       0.7618870000    -2.3065010000    -1.3414740000
   23      C       0.0000000000    -1.4351850000     0.0000000000
   24      H      -1.0606900000    -1.9781380000     1.8443920000
   25      C       0.0000000000     0.0000000000     0.0000000000
   26      S       0.4527920000     0.7833120000     1.5075410000
   27      C       1.2383970000     2.1455560000     0.7188730000
   28      C       0.4528750000     0.7828980000    -1.0678720000
   29      C       1.1459450000     1.9879560000    -0.6864100000
   30      S       0.3335560000     0.5705310000    -2.8055160000
   31      C       1.2046040000     2.0902900000    -3.0545300000
   32      C       1.5566330000     2.7049290000    -1.8625510000
   33      F       2.2207970000     3.8649030000    -1.8190880000
   34      C       1.4302520000     2.4773450000    -4.4560840000
   35      O       1.0522420000     1.8066480000    -5.4065100000
   36      O       2.0990500000     3.6506630000    -4.5692250000
   37      C       2.3511160000     4.0768080000    -5.9162070000
   38      H       2.8955790000     5.0338210000    -5.8330640000
   39      H       1.4010150000     4.2173900000    -6.4701680000
   40      H       2.9623910000     3.3279690000    -6.4592930000
   41      H       1.6993020000     2.9466930000     1.3064860000
   42      H       0.5870670000    -9.1436230000     0.7007880000
   43      H      -0.9746830000    -9.1494410000    -0.1865560000
   44      H       0.9389790000    -1.4431750000     0.5335300000
 ----------------------------------------------------------------
 Nuclear Repulsion Energy =        3367.33418598 hartrees
 There are      120 alpha and      120 beta electrons
 Requested basis set is cc-pVTZ
 There are 388 shells and 1096 basis functions

 Total QAlloc Memory Limit 110000 MB
 Mega-Array Size       188 MB
 MEM_STATIC part       192 MB
 Discretize the solute cavity surface with Lebedev spheres
	Using 110 Lebedev grid points for each H atom
	Using 194 Lebedev grid points for other atoms
	Atomic van der Waals radii will be scaled by 1.20
 Remove points where switching function is < 1.0e-08
 Keep 2916 surface tesserae and discard 4360 interior tesserae
 Molecular Surface Area = 437.264 Angst**2
 Requested basis set is rimp2-cc-pVTZ
 There are 853 shells and 2963 basis functions
 A cutoff of  1.0D-10 yielded  33419 shell pairs
 There are    252137 function pairs (    326111 Cartesian)
 Smallest overlap matrix eigenvalue = 2.12E-05

 Scale SEOQF with 1.000000e-01/1.000000e-02/1.000000e-02

 Standard Electronic Orientation quadrupole field applied
 Nucleus-field energy     =     0.0000000292 hartrees
 Guess from superposition of atomic densities
 Warning:  Energy on first SCF cycle will be non-variational
 SAD guess density has 240.000000 electrons

 -----------------------------------------------------------------------
  General SCF calculation program by
  Eric Jon Sundstrom, Paul Horn, Yuezhi Mao, Dmitri Zuev, Alec White,
  David Stuck, Shaama M.S., Shane Yost, Joonho Lee, David Small,
  Daniel Levine, Susi Lehtola, Hugh Burton, Evgeny Epifanovsky,
  Bang C. Huynh
 -----------------------------------------------------------------------
 Hartree-Fock
 using 64 threads for integral computing
 -------------------------------------------------------
 OpenMP Integral computing Module                
 Release: version 1.0, May 2013, Q-Chem Inc. Pittsburgh 
 -------------------------------------------------------
 A restricted SCF calculation will be
 performed using DIIS
 SCF converges when DIIS error is below 1.0e-06
 ---------------------------------------
  Cycle       Energy         DIIS error
 ---------------------------------------
    1   -2767.0724875175      1.75e-02  
    2   -2754.8764867680      1.53e-03  
    3   -2755.2256002406      8.51e-04  
    4   -2755.3116242667      2.56e-04  
    5   -2755.3253052792      7.39e-05  
    6   -2755.3268656290      2.63e-05  
    7   -2755.3272807621      1.36e-05  
    8   -2755.3274139057      5.62e-06  
    9   -2755.3274443741      2.88e-06  
   10   -2755.3274518252      1.52e-06  
   11   -2755.3274544312      8.20e-07  Convergence criterion met
 ---------------------------------------
 SCF time:   CPU 7679.15s  wall 285.00s 

************** Final PCM Free Energy Summary **************
 G_electrostatic  =      -0.02083716 hartree =     -13.07551528 kcal/mol
 G_cavitation     =       0.00000000 hartree =       0.00000000 kcal/mol
 G_dispersion     =       0.00000000 hartree =       0.00000000 kcal/mol
 G_repulsion      =       0.00000000 hartree =       0.00000000 kcal/mol
 --------------------------------------------------
 Non-electrostatic Free Energy =       0.00000000 hartree =       0.00000000 kcal/mol
 Total                         =      -0.02083716 hartree =     -13.07551528 kcal/mol
 --------------------------------------------------
 SCF Energy (H0 + V/2)                       =   -2755.32745443 
 Solute Internal Energy (H0)                 =   -2755.30661727 
 Total Free Energy (H0 + V/2 + non-elec)     =   -2755.32745443 hartree
                                             = -1728994.07336188 kcal/mol
***********************************************************

 SCF   energy in the final basis set =    -2755.3274544312
 Total energy in the final basis set =    -2755.3274544312


 --------------------------------------------------------------
  Generalized many-body perturbation theory program
  by Joonho Lee, Fazle Rob, Xintian Feng, Evgeny Epifanovsky

 No regularization used 
 (reg. param. = 0.0000e+00)
  (P|Q)^-1/2 Time:  CPU 184.93 s  wall 2.95 s

 In RI-MP2 calculation: 
 # of frozen core orbitals: 45

 Components of the RIMP2 correlation energy:
        aaaa    correlation energy =        -0.6698330771 a.u.
        abab    correlation energy =        -3.7544457352 a.u.
        bbbb    correlation energy =        -0.6698330771 a.u.
        non-Brillouin singles      =        -0.0000000000 a.u.
        total same-spin energy     =        -1.3396661543 a.u.
        total opposite-spin energy =        -3.7544457352 a.u.

 Total  RIMP2   correlation energy =        -5.0941118895 a.u.
        RIMP2         total energy =     -2760.4215663207 a.u.

 RI-MP2 Energy Time:  CPU 2908.88 s  wall 47.11 s
 
 --------------------------------------------------------------
 
                    Orbital Energies (a.u.)
 --------------------------------------------------------------
 
 Alpha MOs
 -- Occupied --
-92.0110 -91.9959 -91.9780 -91.9590 -26.3428 -20.6148 -20.5875 -20.5875
-20.5614 -11.4093 -11.3816 -11.3094 -11.3092 -11.3089 -11.3035 -11.2973
-11.2967 -11.2888 -11.2849 -11.2841 -11.2832 -11.2825 -11.2808 -11.2739
-11.2700 -11.2589 -11.2588 -11.2505 -11.2390  -9.0105  -8.9962  -8.9803
 -8.9616  -6.6913  -6.6907  -6.6901  -6.6772  -6.6764  -6.6753  -6.6613
 -6.6605  -6.6591  -6.6428  -6.6419  -6.6408  -1.6599  -1.4672  -1.4109
 -1.4093  -1.3699  -1.2325  -1.2015  -1.1746  -1.1383  -1.0998  -1.0479
 -1.0441  -1.0252  -1.0035  -0.9965  -0.9639  -0.9567  -0.9492  -0.9416
 -0.8939  -0.8684  -0.8642  -0.8158  -0.7930  -0.7896  -0.7840  -0.7691
 -0.7563  -0.7376  -0.7248  -0.7142  -0.6966  -0.6901  -0.6846  -0.6809
 -0.6738  -0.6635  -0.6560  -0.6488  -0.6372  -0.6304  -0.6208  -0.6155
 -0.6110  -0.5996  -0.5929  -0.5771  -0.5708  -0.5648  -0.5596  -0.5580
 -0.5467  -0.5334  -0.5310  -0.5253  -0.5137  -0.5114  -0.5077  -0.5014
 -0.4843  -0.4799  -0.4764  -0.4734  -0.4694  -0.4663  -0.4585  -0.4474
 -0.4300  -0.3934  -0.3856  -0.3703  -0.3523  -0.2979  -0.2885  -0.2182
 -- Virtual --
  0.0306   0.0508   0.1045   0.1327   0.1405   0.1471   0.1529   0.1545
  0.1567   0.1574   0.1665   0.1776   0.1812   0.1842   0.1871   0.1951
  0.1990   0.2020   0.2048   0.2148   0.2153   0.2199   0.2248   0.2276
  0.2293   0.2351   0.2376   0.2460   0.2527   0.2569   0.2639   0.2744
  0.2779   0.2959   0.3102   0.3225   0.3296   0.3360   0.3399   0.3452
  0.3544   0.3579   0.3612   0.3639   0.3784   0.3827   0.3843   0.3851
  0.3856   0.3936   0.4009   0.4070   0.4091   0.4111   0.4189   0.4210
  0.4261   0.4278   0.4346   0.4390   0.4436   0.4470   0.4496   0.4531
  0.4583   0.4623   0.4657   0.4681   0.4743   0.4771   0.4811   0.4884
  0.4916   0.4954   0.4995   0.5046   0.5051   0.5081   0.5117   0.5144
  0.5216   0.5266   0.5303   0.5349   0.5395   0.5408   0.5457   0.5482
  0.5520   0.5557   0.5570   0.5609   0.5639   0.5723   0.5756   0.5791
  0.5819   0.5828   0.5889   0.5970   0.6012   0.6046   0.6065   0.6114
  0.6140   0.6160   0.6180   0.6207   0.6216   0.6246   0.6270   0.6305
  0.6362   0.6389   0.6399   0.6414   0.6473   0.6530   0.6543   0.6607
  0.6607   0.6673   0.6742   0.6831   0.6852   0.6897   0.6928   0.7031
  0.7040   0.7107   0.7147   0.7175   0.7218   0.7252   0.7286   0.7341
  0.7425   0.7489   0.7552   0.7602   0.7627   0.7710   0.7838   0.7885
  0.7927   0.7982   0.7998   0.8104   0.8144   0.8203   0.8260   0.8265
  0.8298   0.8383   0.8413   0.8499   0.8591   0.8672   0.8709   0.8744
  0.8794   0.8865   0.8892   0.8953   0.9010   0.9078   0.9105   0.9115
  0.9185   0.9250   0.9274   0.9364   0.9410   0.9511   0.9525   0.9544
  0.9569   0.9674   0.9695   0.9747   0.9761   0.9880   0.9924   0.9946
  0.9967   1.0004   1.0090   1.0100   1.0137   1.0197   1.0234   1.0303
  1.0371   1.0433   1.0496   1.0502   1.0567   1.0605   1.0645   1.0738
  1.0752   1.0800   1.0836   1.0913   1.0965   1.0996   1.1028   1.1084
  1.1114   1.1160   1.1171   1.1234   1.1272   1.1381   1.1457   1.1489
  1.1512   1.1569   1.1633   1.1674   1.1710   1.1734   1.1770   1.1860
  1.1902   1.1916   1.1941   1.1977   1.2044   1.2048   1.2100   1.2153
  1.2260   1.2267   1.2352   1.2418   1.2443   1.2459   1.2509   1.2564
  1.2580   1.2627   1.2721   1.2770   1.2814   1.2831   1.2926   1.2973
  1.3027   1.3066   1.3112   1.3183   1.3260   1.3286   1.3356   1.3421
  1.3437   1.3574   1.3651   1.3688   1.3814   1.3893   1.3932   1.4034
  1.4062   1.4069   1.4151   1.4221   1.4277   1.4369   1.4469   1.4527
  1.4571   1.4659   1.4768   1.4818   1.4883   1.4912   1.4977   1.5005
  1.5030   1.5089   1.5127   1.5188   1.5262   1.5301   1.5325   1.5393
  1.5393   1.5467   1.5475   1.5504   1.5578   1.5640   1.5752   1.5765
  1.5905   1.5965   1.6001   1.6051   1.6130   1.6257   1.6354   1.6408
  1.6474   1.6504   1.6560   1.6583   1.6685   1.6741   1.6772   1.6874
  1.6966   1.7015   1.7085   1.7148   1.7181   1.7266   1.7426   1.7479
  1.7526   1.7598   1.7704   1.7790   1.7825   1.7957   1.8009   1.8173
  1.8191   1.8259   1.8332   1.8455   1.8504   1.8649   1.8698   1.8735
  1.8790   1.8857   1.9023   1.9064   1.9175   1.9207   1.9283   1.9389
  1.9512   1.9585   1.9603   1.9700   1.9745   1.9896   1.9954   1.9970
  2.0057   2.0158   2.0199   2.0296   2.0364   2.0402   2.0445   2.0493
  2.0688   2.0714   2.0861   2.0916   2.0979   2.1054   2.1244   2.1293
  2.1419   2.1475   2.1601   2.1650   2.1725   2.1814   2.1908   2.1928
  2.1953   2.2069   2.2128   2.2187   2.2239   2.2282   2.2364   2.2433
  2.2470   2.2542   2.2600   2.2676   2.2768   2.2829   2.2901   2.3002
  2.3057   2.3158   2.3238   2.3354   2.3370   2.3447   2.3525   2.3664
  2.3715   2.3865   2.3898   2.3986   2.4017   2.4113   2.4152   2.4181
  2.4266   2.4335   2.4468   2.4620   2.4736   2.4842   2.4860   2.4881
  2.5046   2.5133   2.5174   2.5284   2.5363   2.5441   2.5535   2.5628
  2.5698   2.5703   2.5909   2.5964   2.6006   2.6137   2.6194   2.6218
  2.6270   2.6323   2.6384   2.6442   2.6470   2.6490   2.6637   2.6738
  2.6829   2.6855   2.6877   2.6934   2.7033   2.7072   2.7107   2.7173
  2.7211   2.7298   2.7365   2.7483   2.7586   2.7641   2.7672   2.7734
  2.7819   2.7826   2.7868   2.7909   2.8080   2.8137   2.8178   2.8261
  2.8349   2.8426   2.8509   2.8529   2.8557   2.8659   2.8681   2.8728
  2.8791   2.8847   2.8887   2.9022   2.9095   2.9220   2.9354   2.9484
  2.9520   2.9558   2.9596   2.9713   2.9742   2.9810   2.9860   2.9929
  3.0048   3.0056   3.0201   3.0216   3.0239   3.0299   3.0387   3.0395
  3.0498   3.0586   3.0650   3.0782   3.0841   3.0883   3.0955   3.0999
  3.1022   3.1087   3.1143   3.1228   3.1282   3.1332   3.1391   3.1430
  3.1479   3.1533   3.1563   3.1590   3.1627   3.1698   3.1726   3.1811
  3.1844   3.1908   3.1999   3.2013   3.2117   3.2173   3.2192   3.2207
  3.2288   3.2310   3.2410   3.2508   3.2533   3.2582   3.2622   3.2631
  3.2699   3.2738   3.2782   3.2825   3.2863   3.2933   3.2985   3.3041
  3.3072   3.3089   3.3177   3.3273   3.3288   3.3347   3.3384   3.3443
  3.3460   3.3504   3.3516   3.3584   3.3627   3.3679   3.3701   3.3726
  3.3809   3.3835   3.3843   3.3886   3.3976   3.3992   3.4023   3.4060
  3.4163   3.4196   3.4238   3.4300   3.4303   3.4346   3.4366   3.4394
  3.4479   3.4510   3.4610   3.4635   3.4663   3.4683   3.4766   3.4842
  3.4849   3.4888   3.4925   3.4992   3.5058   3.5094   3.5220   3.5327
  3.5356   3.5408   3.5448   3.5527   3.5555   3.5612   3.5702   3.5734
  3.5804   3.5850   3.5919   3.5959   3.5981   3.6054   3.6068   3.6153
  3.6189   3.6242   3.6280   3.6319   3.6385   3.6422   3.6513   3.6600
  3.6637   3.6644   3.6730   3.6776   3.6788   3.6877   3.6889   3.6936
  3.7007   3.7057   3.7060   3.7124   3.7226   3.7284   3.7325   3.7334
  3.7438   3.7461   3.7511   3.7564   3.7626   3.7681   3.7742   3.7792
  3.7850   3.7890   3.7959   3.7984   3.8022   3.8064   3.8112   3.8148
  3.8188   3.8273   3.8308   3.8361   3.8464   3.8487   3.8563   3.8583
  3.8623   3.8735   3.8763   3.8798   3.8881   3.8947   3.8978   3.9012
  3.9067   3.9253   3.9292   3.9360   3.9445   3.9478   3.9525   3.9565
  3.9584   3.9702   3.9765   3.9876   3.9930   4.0027   4.0085   4.0107
  4.0172   4.0247   4.0385   4.0456   4.0508   4.0556   4.0631   4.0679
  4.0712   4.0753   4.0865   4.0994   4.1064   4.1104   4.1244   4.1330
  4.1432   4.1442   4.1480   4.1607   4.1649   4.1668   4.1700   4.1740
  4.1770   4.1877   4.1932   4.2084   4.2139   4.2183   4.2261   4.2339
  4.2372   4.2472   4.2562   4.2626   4.2698   4.2860   4.2960   4.3063
  4.3188   4.3244   4.3299   4.3417   4.3430   4.3510   4.3564   4.3585
  4.3624   4.3683   4.3797   4.3853   4.3968   4.4042   4.4122   4.4175
  4.4232   4.4247   4.4305   4.4348   4.4372   4.4456   4.4476   4.4594
  4.4700   4.4774   4.4782   4.4991   4.5071   4.5128   4.5261   4.5308
  4.5371   4.5426   4.5565   4.5631   4.5721   4.5732   4.5788   4.5841
  4.5972   4.6041   4.6121   4.6207   4.6317   4.6452   4.6506   4.6559
  4.6601   4.6674   4.6760   4.6833   4.7026   4.7145   4.7173   4.7240
  4.7410   4.7672   4.7701   4.7754   4.7830   4.7875   4.7992   4.8173
  4.8224   4.8362   4.8411   4.8468   4.8570   4.8701   4.8776   4.8838
  4.9064   4.9099   4.9337   4.9451   4.9519   4.9603   4.9650   4.9668
  4.9766   4.9985   5.0089   5.0112   5.0149   5.0243   5.0414   5.0530
  5.0702   5.0836   5.0948   5.1092   5.1259   5.1389   5.1476   5.1612
  5.1748   5.1912   5.1972   5.2033   5.2206   5.2349   5.2388   5.2523
  5.2550   5.2583   5.2753   5.2909   5.2948   5.3112   5.3176   5.3252
  5.3391   5.3515   5.3606   5.3655   5.3774   5.3836   5.3947   5.4021
  5.4049   5.4096   5.4262   5.4417   5.4504   5.4677   5.4850   5.5023
  5.5120   5.5201   5.5221   5.5372   5.5544   5.5681   5.5789   5.5827
  5.6021   5.6101   5.6137   5.6217   5.6365   5.6631   5.6683   5.6890
  5.6957   5.7299   5.7514   5.7623   5.7767   5.8076   5.8164   5.8442
  5.8587   5.8804   5.8989   5.9208   5.9292   5.9395   5.9821   6.0017
  6.0401   6.0453   6.0764   6.1318   6.1505   6.1597   6.1729   6.1783
  6.1805   6.2088   6.2202   6.2462   6.2611   6.2615   6.2640   6.2790
  6.2973   6.3030   6.3531   6.3749   6.4499   6.4503   6.4957   6.5408
  6.5478   6.5683   6.6086   6.6450   6.6619   6.6713   6.7150   6.7463
  6.8077   6.8302   6.8570   6.8597   6.8984   6.9784   7.1324   7.1457
  7.2040   7.2066   7.2222   7.2393   7.3100   7.3271   7.3412   7.3637
  7.3643   7.4058   7.4134   7.4860   7.4862   7.4964   7.5243   7.5509
  7.6156   7.7408   7.7735   7.7903   7.8020   7.9028   7.9261   7.9542
  7.9726   8.1345   8.3145   8.5233   8.9226   9.0276   9.3638   9.4827
  9.6772  10.2347  11.1790  11.4476  11.7407  11.9188  12.1248  12.3644
 12.4199  12.4982  12.9562  12.9714  13.0081  13.3283  13.3859  13.4866
 13.7065  13.7912  13.8852  13.9379  14.0335  14.3071  14.8565  15.2118
 --------------------------------------------------------------
 
          Ground-State Mulliken Net Atomic Charges

     Atom                 Charge (a.u.)
  ----------------------------------------
      1 C                    -0.070563
      2 C                    -0.253943
      3 S                    -0.134181
      4 C                    -0.049624
      5 H                     0.194327
      6 C                    -0.047900
      7 C                     0.214528
      8 C                     0.227978
      9 C                    -0.075214
     10 C                    -0.017560
     11 O                    -0.334311
     12 O                    -0.343564
     13 C                    -0.082745
     14 H                     0.119863
     15 H                     0.091997
     16 H                     0.093167
     17 C                    -0.089408
     18 H                     0.124248
     19 H                     0.092315
     20 H                     0.092246
     21 C                    -0.327855
     22 S                    -0.094165
     23 C                     0.124121
     24 H                     0.201091
     25 C                     0.002438
     26 S                     0.079400
     27 C                    -0.199350
     28 C                    -0.099193
     29 C                    -0.080787
     30 S                     0.015732
     31 C                    -0.157894
     32 C                     0.403701
     33 F                    -0.207705
     34 C                     0.442870
     35 O                    -0.460179
     36 O                    -0.300722
     37 C                    -0.058568
     38 H                     0.121409
     39 H                     0.095225
     40 H                     0.094989
     41 H                     0.216909
     42 H                     0.118177
     43 H                     0.115915
     44 H                     0.202787
  ----------------------------------------
  Sum of atomic charges =     0.000000

 -----------------------------------------------------------------
                    Cartesian Multipole Moments
 -----------------------------------------------------------------
    Charge (ESU x 10^10)
                -0.0000
    Dipole Moment (Debye)
         X       2.0256      Y       1.8350      Z       2.9648
       Tot       4.0324
    Quadrupole Moments (Debye-Ang)
        XX    -187.3505     XY       4.7175     YY    -175.5725
        XZ     -13.0435     YZ      -2.7021     ZZ    -198.2365
    Octopole Moments (Debye-Ang^2)
       XXX    -240.8665    XXY     364.9298    XYY     -48.6648
       YYY     993.1549    XXZ     148.0593    XYZ      16.3389
       YYZ      80.5892    XZZ     -35.8085    YZZ     448.5474
       ZZZ     509.0461
    Hexadecapole Moments (Debye-Ang^3)
      XXXX   -1848.5847   XXXY   -1063.9798   XXYY   -3817.6520
      XYYY   -1114.9226   YYYY  -19494.8198   XXXZ    1258.7703
      XXYZ     523.9277   XYYZ     130.1375   YYYZ    1879.1726
      XXZZ   -1234.0089   XYZZ     -89.0883   YYZZ   -4343.0532
      XZZZ     969.9442   YZZZ    1386.4252   ZZZZ   -7041.2875
 -----------------------------------------------------------------
 Total job time:  338.40s(wall), 10754.44s(cpu) 
 Tue Jan  9 10:06:00 2024

        *************************************************************
        *                                                           *
        *  Thank you very much for using Q-Chem.  Have a nice day.  *
        *                                                           *
        *************************************************************


0 sent ACK to 0 
now end server 0 ... 
cleanup process ... done
remove work dirs ./qchem1485346.0 -- ./qchem1485346.0
rm -rf ./qchem1485346.0
rm -rf ./qchem1485346
