You are running Q-Chem version: 5.4.0

#
# job setting
#
local host:  exp-6-39
current dir: /home/rramji/project-csd799/aromodel/ptb7fout-qchem/hydrogenated-rotation-run
input file:  Dimethoxy_Benzodithiophene_Phi_60_Theta_330_Methylcarbonyl_3_Fluoro_Thienothiophene_Hydrogenated.qcin
output file: 
nprocs     : 1
nthreads   : 64
#
# qchem installation setting
#
QC:          /cm/shared/apps/spack/cpu/opt/spack/linux-centos8-zen2/gcc-10.2.0/qchem-5.4-akfmr7b3t57bfs6qan3padb2wnb2i7cl
QCAUX:       /cm/shared/apps/spack/cpu/opt/spack/linux-centos8-zen2/gcc-10.2.0/qchem-5.4-akfmr7b3t57bfs6qan3padb2wnb2i7cl/qcaux
QCPROG:      /cm/shared/apps/spack/cpu/opt/spack/linux-centos8-zen2/gcc-10.2.0/qchem-5.4-akfmr7b3t57bfs6qan3padb2wnb2i7cl/exe/qcprog.exe
QCPROG_S:    /cm/shared/apps/spack/cpu/opt/spack/linux-centos8-zen2/gcc-10.2.0/qchem-5.4-akfmr7b3t57bfs6qan3padb2wnb2i7cl/exe/qcprog.exe_s
PARALLEL:    -DPARALLEL
QCMPI:       mpich
#
# qchem directory setting
#
qcrun:       qchem2068067
QCSCRATCH:   .
QCLOCALSCR:  
QCTMPDIR:    .
QCFILEPREF:  ./qchem2068067
QCSAVEDIR:   
workdirs:    ./qchem2068067
workdir0:    ./qchem2068067
partmpdirs =  
#
# parallel setting
#
QCRSH:           ssh
QCMPI:           mpich
QCMPIRUN:        /cm/shared/apps/spack/cpu/opt/spack/linux-centos8-zen2/gcc-10.2.0/qchem-5.4-akfmr7b3t57bfs6qan3padb2wnb2i7cl/bin/mpi/mpirun_qchem
QCMACHINEFILE:   ./qchem2068067/hostfile
exp-6-39

#
# env setting
#
exported envs:   QC QCAUX QCSCRATCH QCRUNNAME QCFILEPREF QCPROG QCPROG_S GUIFILE

Running Job 1 of 1 Dimethoxy_Benzodithiophene_Phi_60_Theta_330_Methylcarbonyl_3_Fluoro_Thienothiophene_Hydrogenated.qcin
qchem Dimethoxy_Benzodithiophene_Phi_60_Theta_330_Methylcarbonyl_3_Fluoro_Thienothiophene_Hydrogenated.qcin_2068067.0 ./qchem2068067/ 1
/cm/shared/apps/spack/cpu/opt/spack/linux-centos8-zen2/gcc-10.2.0/qchem-5.4-akfmr7b3t57bfs6qan3padb2wnb2i7cl/bin/mpi/mpirun_qchem -machinefile ./qchem2068067/hostfile -np 1 /cm/shared/apps/spack/cpu/opt/spack/linux-centos8-zen2/gcc-10.2.0/qchem-5.4-akfmr7b3t57bfs6qan3padb2wnb2i7cl/exe/qcprog.exe Dimethoxy_Benzodithiophene_Phi_60_Theta_330_Methylcarbonyl_3_Fluoro_Thienothiophene_Hydrogenated.qcin_2068067.0 ./qchem2068067/

Process 0 of 1 is on exp-6-39 - thread support 0
initial socket setup ...start
initial socket setup ...done 
now start server 0 ... 
                  Welcome to Q-Chem
     A Quantum Leap Into The Future Of Chemistry


 Q-Chem 5.4, Q-Chem, Inc., Pleasanton, CA (2021)

 License issued to: University of California, San Diego (site)

 E. Epifanovsky,  A. T. B. Gilbert,  Xintian Feng,  Joonho Lee,  Yuezhi Mao,  
 N. Mardirossian,  P. Pokhilko,  A. White,  M. Wormit,  M. P. Coons,  
 A. L. Dempwolff,  Zhengting Gan,  D. Hait,  P. R. Horn,  L. D. Jacobson,  
 I. Kaliman,  J. Kussmann,  A. W. Lange,  Ka Un Lao,  D. S. Levine,  Jie Liu,  
 S. C. McKenzie,  A. F. Morrison,  K. Nanda,  F. Plasser,  D. R. Rehn,  
 M. L. Vidal,  Zhi-Qiang You,  Ying Zhu,  B. Alam,  B. Albrecht,  
 A. Aldossary,  E. Alguire,  J. H. Andersen,  D. Barton,  K. Begam,  A. Behn,  
 Y. A. Bernard,  E. J. Berquist,  H. Burton,  A. Carreras,  K. Carter-Fenk,  
 R. Chakraborty,  A. D. Chien,  K. D. Closser,  V. Cofer-Shabica,  
 S. Dasgupta,  Jia Deng,  M. de Wergifosse,  M. Diedenhofen,  Hainam Do,  
 S. Ehlert,  Po-Tung Fang,  S. Fatehi,  Qingguo Feng,  J. Gayvert,  
 Qinghui Ge,  G. Gidofalvi,  M. Goldey,  J. Gomes,  C. Gonzalez-Espinoza,  
 S. Gulania,  A. Gunina,  M. W. D. Hanson-Heine,  P. H. P. Harbach,  
 A. W. Hauser,  M. F. Herbst,  M. Hernandez Vera,  M. Hodecker,  
 Z. C. Holden,  S. Houck,  Xunkun Huang,  Kerwin Hui,  B. C. Huynh,  
 M. Ivanov,  Hyunjun Ji,  Hanjie Jiang,  B. Kaduk,  S. Kaehler,  
 K. Khistyaev,  Jaehoon Kim,  P. Klunzinger,  Z. Koczor-Benda,  
 Joong Hoon Koh,  D. Kosenkov,  L. Koulias,  T. Kowalczyk,  C. M. Krauter,  
 K. Kue,  A. Kunitsa,  T. Kus,  A. Landau,  K. V. Lawler,  D. Lefrancois,  
 S. Lehtola,  Rain Li,  Yi-Pei Li,  Jiashu Liang,  M. Liebenthal,  
 Hung-Hsuan Lin,  You-Sheng Lin,  Fenglai Liu,  Kuan-Yu Liu,  
 M. Loipersberger,  A. Luenser,  A. Manjanath,  P. Manohar,  E. Mansoor,  
 S. F. Manzer,  Shan-Ping Mao,  A. V. Marenich,  T. Markovich,  S. Mason,  
 S. A. Maurer,  P. F. McLaughlin,  M. F. S. J. Menger,  J.-M. Mewes,  
 S. A. Mewes,  P. Morgante,  J. W. Mullinax,  T. S. Nguyen-Beck,  
 K. J. Oosterbaan,  G. Paran,  Alexander C. Paul,  Suranjan K. Paul,  
 F. Pavosevic,  Zheng Pei,  S. Prager,  E. I. Proynov,  E. Ramos,  B. Rana,  
 A. E. Rask,  A. Rettig,  R. M. Richard,  F. Rob,  E. Rossomme,  T. Scheele,  
 M. Scheurer,  M. Schneider,  N. Sergueev,  S. M. Sharada,  W. Skomorowski,  
 D. W. Small,  C. J. Stein,  Yu-Chuan Su,  E. J. Sundstrom,  Zhen Tao,  
 J. Thirman,  T. Tsuchimochi,  N. M. Tubman,  S. P. Veccham,  O. Vydrov,  
 J. Wenzel,  J. Witte,  A. Yamada,  Kun Yao,  S. Yeganeh,  S. R. Yost,  
 A. Zech,  Igor Ying Zhang,  Xing Zhang,  Yu Zhang,  D. Zuev,  
 A. Aspuru-Guzik,  A. T. Bell,  N. A. Besley,  K. B. Bravaya,  B. R. Brooks,  
 D. Casanova,  Jeng-Da Chai,  S. Coriani,  C. J. Cramer,  
 A. E. DePrince, III,  R. A. DiStasio Jr.,  A. Dreuw,  B. D. Dunietz,  
 T. R. Furlani,  W. A. Goddard III,  S. Grimme,  S. Hammes-Schiffer,  
 T. Head-Gordon,  W. J. Hehre,  Chao-Ping Hsu,  T.-C. Jagau,  Yousung Jung,  
 A. Klamt,  Jing Kong,  D. S. Lambrecht,  WanZhen Liang,  N. J. Mayhall,  
 C. W. McCurdy,  J. B. Neaton,  C. Ochsenfeld,  J. A. Parkhill,  R. Peverati,  
 V. A. Rassolov,  Yihan Shao,  L. V. Slipchenko,  T. Stauch,  R. P. Steele,  
 J. E. Subotnik,  A. J. W. Thom,  A. Tkatchenko,  D. G. Truhlar,  
 T. Van Voorhis,  T. A. Wesolowski,  K. B. Whaley,  H. L. Woodcock III,  
 P. M. Zimmerman,  S. Faraji,  P. M. W. Gill,  M. Head-Gordon,  
 J. M. Herbert,  A. I. Krylov

 Contributors to earlier versions of Q-Chem not listed above: 
 R. D. Adamson,  B. Austin,  R. Baer,  J. Baker,  G. J. O. Beran,  
 K. Brandhorst,  S. T. Brown,  E. F. C. Byrd,  A. K. Chakraborty,  
 G. K. L. Chan,  Chun-Min Chang,  Yunqing Chen,  C.-L. Cheng,  
 Siu Hung Chien,  D. M. Chipman,  D. L. Crittenden,  H. Dachsel,  
 R. J. Doerksen,  A. D. Dutoi,  R. G. Edgar,  J. Fosso-Tande,  
 L. Fusti-Molnar,  D. Ghosh,  A. Ghysels,  A. Golubeva-Zadorozhnaya,  
 J. Gonthier,  M. S. Gordon,  S. R. Gwaltney,  G. Hawkins,  J. E. Herr,  
 A. Heyden,  S. Hirata,  E. G. Hohenstein,  G. Kedziora,  F. J. Keil,  
 C. Kelley,  Jihan Kim,  R. A. King,  R. Z. Khaliullin,  P. P. Korambath,  
 W. Kurlancheek,  A. Laurent,  A. M. Lee,  M. S. Lee,  S. V. Levchenko,  
 Ching Yeh Lin,  D. Liotard,  E. Livshits,  R. C. Lochan,  I. Lotan,  
 L. A. Martinez-Martinez,  P. E. Maslen,  N. Nair,  D. P. O'Neill,  
 D. Neuhauser,  E. Neuscamman,  C. M. Oana,  R. Olivares-Amaya,  R. Olson,  
 T. M. Perrine,  B. Peters,  P. A. Pieniazek,  A. Prociuk,  Y. M. Rhee,  
 J. Ritchie,  M. A. Rohrdanz,  E. Rosta,  N. J. Russ,  H. F. Schaefer III,  
 M. W. Schmidt,  N. E. Schultz,  S. Sharma,  N. Shenvi,  C. D. Sherrill,  
 A. C. Simmonett,  A. Sodt,  T. Stein,  D. Stuck,  K. S. Thanthiriwatte,  
 V. Vanovschi,  L. Vogt,  Tao Wang,  A. Warshel,  M. A. Watson,  
 C. F. Williams,  Q. Wu,  X. Xu,  Jun Yang,  W. Zhang,  Yan Zhao

 Please cite Q-Chem as follows:
 Y. Shao et al., Mol. Phys. 113, 184-215 (2015)
 DOI: 10.1080/00268976.2014.952696

 Q-Chem 5.4.0 for Intel X86 EM64T Linux

 Parts of Q-Chem use Armadillo 9.800.1 (Horizon Scraper).
 http://arma.sourceforge.net/

 Q-Chem begins on Tue Jan  9 12:48:46 2024  

 Host: 
0

     Scratch files written to ./qchem2068067//
 May1621 |scratch|qcdevops|jenkins|workspace|build_RNUM    
 Parallel job on  1  processors
 Processing $rem in /cm/shared/apps/spack/cpu/opt/spack/linux-centos8-zen2/gcc-10.2.0/qchem-5.4-akfmr7b3t57bfs6qan3padb2wnb2i7cl/config/preferences:
 Processing $rem in /home/rramji/.qchemrc:
 Symmetry turned off for PCM/SM12/SMD calculation
 Core orbitals will be frozen

 Checking the input file for inconsistencies... 	...done.

 Q-Chem warning in module forms1/BasisType.C, line 2236:

 You are not using the predefined 5D/6D in this basis set.


--------------------------------------------------------------
User input:
--------------------------------------------------------------
$molecule
0 1
C	0.123330	-8.517702	0.296276
C	-0.421494	-7.641575	-0.631143
S	0.911611	-7.638634	1.628795
C	-0.233291	-6.264785	-0.305097
H	-0.950737	-7.966081	-1.535988
C	0.478557	-6.072714	0.931114
C	0.781346	-4.787049	1.405737
C	-0.664542	-5.162801	-1.097747
C	-0.357854	-3.874817	-0.624993
C	0.352278	-3.683952	0.613970
O	-1.348709	-5.499772	-2.226300
O	1.469658	-4.459055	2.538827
C	1.419319	-5.329063	3.663102
H	1.828237	-4.755694	4.516756
H	2.043793	-6.238095	3.520769
H	0.377021	-5.637262	3.895546
C	-1.463351	-4.572261	-3.298492
H	-1.878237	-5.139743	-4.152945
H	-0.475176	-4.153131	-3.585804
H	-2.159469	-3.739531	-3.058230
C	0.540664	-2.306654	0.935761
S	-0.780808	-2.306501	-1.330550
C	-0.000000	-1.435185	-0.000000
H	1.066946	-1.978138	1.840780
C	0.000000	0.000000	0.000000
S	0.783786	0.451972	1.507541
C	2.145261	1.238908	0.718873
C	0.783650	0.451572	-1.067872
C	1.986396	1.148648	-0.686410
S	0.574133	0.327317	-2.805516
C	2.088363	1.207943	-3.054530
C	2.700548	1.564221	-1.862551
F	3.855718	2.236706	-1.819088
C	2.477307	1.430318	-4.456084
O	1.814592	1.038482	-5.406510
O	3.643162	2.112042	-4.569225
C	4.074530	2.355061	-5.916207
H	5.024556	2.911627	-5.833064
H	3.322010	2.951860	-6.470168
H	4.229490	1.400910	-6.459293
H	2.944986	1.702260	1.306486
H	0.900433	-9.143623	-0.158021
H	-0.648903	-9.149441	0.750822
H	0.931540	-1.443175	-0.546415
$end

$rem
JOBTYPE		SP
EXCHANGE	HF
CORRELATION	pRIMP2
BASIS		cc-pvtz
METHOD		rimp2
AUX_BASIS	rimp2-cc-pvtz
SOLVENT_METHOD	PCM
PURECART	11111
SYMMETRY	false
MEM_TOTAL	110000
SCF_CONVERGENCE = 6
THRESH=10
GUI = 2
$end



$solvent
dielectric 4.90
$end
--------------------------------------------------------------
 ----------------------------------------------------------------
             Standard Nuclear Orientation (Angstroms)
    I     Atom           X                Y                Z
 ----------------------------------------------------------------
    1      C       0.1233300000    -8.5177020000     0.2962760000
    2      C      -0.4214940000    -7.6415750000    -0.6311430000
    3      S       0.9116110000    -7.6386340000     1.6287950000
    4      C      -0.2332910000    -6.2647850000    -0.3050970000
    5      H      -0.9507370000    -7.9660810000    -1.5359880000
    6      C       0.4785570000    -6.0727140000     0.9311140000
    7      C       0.7813460000    -4.7870490000     1.4057370000
    8      C      -0.6645420000    -5.1628010000    -1.0977470000
    9      C      -0.3578540000    -3.8748170000    -0.6249930000
   10      C       0.3522780000    -3.6839520000     0.6139700000
   11      O      -1.3487090000    -5.4997720000    -2.2263000000
   12      O       1.4696580000    -4.4590550000     2.5388270000
   13      C       1.4193190000    -5.3290630000     3.6631020000
   14      H       1.8282370000    -4.7556940000     4.5167560000
   15      H       2.0437930000    -6.2380950000     3.5207690000
   16      H       0.3770210000    -5.6372620000     3.8955460000
   17      C      -1.4633510000    -4.5722610000    -3.2984920000
   18      H      -1.8782370000    -5.1397430000    -4.1529450000
   19      H      -0.4751760000    -4.1531310000    -3.5858040000
   20      H      -2.1594690000    -3.7395310000    -3.0582300000
   21      C       0.5406640000    -2.3066540000     0.9357610000
   22      S      -0.7808080000    -2.3065010000    -1.3305500000
   23      C       0.0000000000    -1.4351850000     0.0000000000
   24      H       1.0669460000    -1.9781380000     1.8407800000
   25      C       0.0000000000     0.0000000000     0.0000000000
   26      S       0.7837860000     0.4519720000     1.5075410000
   27      C       2.1452610000     1.2389080000     0.7188730000
   28      C       0.7836500000     0.4515720000    -1.0678720000
   29      C       1.9863960000     1.1486480000    -0.6864100000
   30      S       0.5741330000     0.3273170000    -2.8055160000
   31      C       2.0883630000     1.2079430000    -3.0545300000
   32      C       2.7005480000     1.5642210000    -1.8625510000
   33      F       3.8557180000     2.2367060000    -1.8190880000
   34      C       2.4773070000     1.4303180000    -4.4560840000
   35      O       1.8145920000     1.0384820000    -5.4065100000
   36      O       3.6431620000     2.1120420000    -4.5692250000
   37      C       4.0745300000     2.3550610000    -5.9162070000
   38      H       5.0245560000     2.9116270000    -5.8330640000
   39      H       3.3220100000     2.9518600000    -6.4701680000
   40      H       4.2294900000     1.4009100000    -6.4592930000
   41      H       2.9449860000     1.7022600000     1.3064860000
   42      H       0.9004330000    -9.1436230000    -0.1580210000
   43      H      -0.6489030000    -9.1494410000     0.7508220000
   44      H       0.9315400000    -1.4431750000    -0.5464150000
 ----------------------------------------------------------------
 Nuclear Repulsion Energy =        3421.09708427 hartrees
 There are      120 alpha and      120 beta electrons
 Requested basis set is cc-pVTZ
 There are 388 shells and 1096 basis functions

 Total QAlloc Memory Limit 110000 MB
 Mega-Array Size       188 MB
 MEM_STATIC part       192 MB
 Discretize the solute cavity surface with Lebedev spheres
	Using 110 Lebedev grid points for each H atom
	Using 194 Lebedev grid points for other atoms
	Atomic van der Waals radii will be scaled by 1.20
 Remove points where switching function is < 1.0e-08
 Keep 2913 surface tesserae and discard 4363 interior tesserae
 Molecular Surface Area = 433.981 Angst**2
 Requested basis set is rimp2-cc-pVTZ
 There are 853 shells and 2963 basis functions
 A cutoff of  1.0D-10 yielded  34377 shell pairs
 There are    258293 function pairs (    333648 Cartesian)
 Smallest overlap matrix eigenvalue = 2.20E-05

 Scale SEOQF with 1.000000e-01/1.000000e-02/1.000000e-02

 Standard Electronic Orientation quadrupole field applied
 Nucleus-field energy     =     0.0000000378 hartrees
 Guess from superposition of atomic densities
 Warning:  Energy on first SCF cycle will be non-variational
 SAD guess density has 240.000000 electrons

 -----------------------------------------------------------------------
  General SCF calculation program by
  Eric Jon Sundstrom, Paul Horn, Yuezhi Mao, Dmitri Zuev, Alec White,
  David Stuck, Shaama M.S., Shane Yost, Joonho Lee, David Small,
  Daniel Levine, Susi Lehtola, Hugh Burton, Evgeny Epifanovsky,
  Bang C. Huynh
 -----------------------------------------------------------------------
 Hartree-Fock
 using 64 threads for integral computing
 -------------------------------------------------------
 OpenMP Integral computing Module                
 Release: version 1.0, May 2013, Q-Chem Inc. Pittsburgh 
 -------------------------------------------------------
 A restricted SCF calculation will be
 performed using DIIS
 SCF converges when DIIS error is below 1.0e-06
 ---------------------------------------
  Cycle       Energy         DIIS error
 ---------------------------------------
    1   -2767.2300065301      1.76e-02  
    2   -2754.7998726410      1.54e-03  
    3   -2755.1523550046      8.66e-04  
    4   -2755.2424752655      2.56e-04  
    5   -2755.2567803381      7.48e-05  
    6   -2755.2585257544      2.79e-05  
    7   -2755.2590442532      1.50e-05  
    8   -2755.2592239242      6.42e-06  
    9   -2755.2592670531      3.30e-06  
   10   -2755.2592775296      1.70e-06  
   11   -2755.2592807372      8.82e-07  Convergence criterion met
 ---------------------------------------
 SCF time:   CPU 7781.11s  wall 280.00s 

************** Final PCM Free Energy Summary **************
 G_electrostatic  =      -0.02271834 hartree =     -14.25597055 kcal/mol
 G_cavitation     =       0.00000000 hartree =       0.00000000 kcal/mol
 G_dispersion     =       0.00000000 hartree =       0.00000000 kcal/mol
 G_repulsion      =       0.00000000 hartree =       0.00000000 kcal/mol
 --------------------------------------------------
 Non-electrostatic Free Energy =       0.00000000 hartree =       0.00000000 kcal/mol
 Total                         =      -0.02271834 hartree =     -14.25597055 kcal/mol
 --------------------------------------------------
 SCF Energy (H0 + V/2)                       =   -2755.25928074 
 Solute Internal Energy (H0)                 =   -2755.23656240 
 Total Free Energy (H0 + V/2 + non-elec)     =   -2755.25928074 hartree
                                             = -1728951.29372325 kcal/mol
***********************************************************

 SCF   energy in the final basis set =    -2755.2592807372
 Total energy in the final basis set =    -2755.2592807372


 --------------------------------------------------------------
  Generalized many-body perturbation theory program
  by Joonho Lee, Fazle Rob, Xintian Feng, Evgeny Epifanovsky

 No regularization used 
 (reg. param. = 0.0000e+00)
  (P|Q)^-1/2 Time:  CPU 135.01 s  wall 2.13 s

 In RI-MP2 calculation: 
 # of frozen core orbitals: 45

 Components of the RIMP2 correlation energy:
        aaaa    correlation energy =        -0.6738811936 a.u.
        abab    correlation energy =        -3.7640818852 a.u.
        bbbb    correlation energy =        -0.6738811936 a.u.
        non-Brillouin singles      =        -0.0000000000 a.u.
        total same-spin energy     =        -1.3477623872 a.u.
        total opposite-spin energy =        -3.7640818852 a.u.

 Total  RIMP2   correlation energy =        -5.1118442725 a.u.
        RIMP2         total energy =     -2760.3711250097 a.u.

 RI-MP2 Energy Time:  CPU 2915.34 s  wall 47.39 s
 
 --------------------------------------------------------------
 
                    Orbital Energies (a.u.)
 --------------------------------------------------------------
 
 Alpha MOs
 -- Occupied --
-92.0176 -92.0111 -91.9711 -91.9549 -26.3467 -20.6164 -20.5865 -20.5833
-20.5628 -11.4116 -11.3870 -11.3323 -11.3158 -11.3077 -11.3014 -11.2996
-11.2906 -11.2900 -11.2824 -11.2819 -11.2807 -11.2785 -11.2771 -11.2722
-11.2678 -11.2550 -11.2503 -11.2462 -11.2285  -9.0171  -9.0107  -8.9740
 -8.9575  -6.6977  -6.6968  -6.6967  -6.6915  -6.6908  -6.6898  -6.6551
 -6.6542  -6.6530  -6.6388  -6.6379  -6.6368  -1.6638  -1.4689  -1.4085
 -1.4064  -1.3717  -1.2480  -1.1997  -1.1715  -1.1425  -1.0990  -1.0512
 -1.0432  -1.0299  -1.0006  -0.9942  -0.9685  -0.9558  -0.9484  -0.9415
 -0.8910  -0.8752  -0.8560  -0.8221  -0.7963  -0.7860  -0.7812  -0.7660
 -0.7584  -0.7358  -0.7287  -0.7131  -0.7037  -0.6927  -0.6864  -0.6815
 -0.6755  -0.6697  -0.6537  -0.6469  -0.6371  -0.6311  -0.6167  -0.6147
 -0.6092  -0.6041  -0.5928  -0.5806  -0.5692  -0.5645  -0.5579  -0.5548
 -0.5457  -0.5334  -0.5291  -0.5216  -0.5152  -0.5099  -0.5063  -0.4970
 -0.4850  -0.4837  -0.4776  -0.4740  -0.4703  -0.4603  -0.4562  -0.4433
 -0.4286  -0.3972  -0.3748  -0.3698  -0.3480  -0.3111  -0.2846  -0.2104
 -- Virtual --
  0.0208   0.0561   0.0729   0.1288   0.1397   0.1429   0.1513   0.1555
  0.1559   0.1612   0.1655   0.1759   0.1783   0.1844   0.1893   0.1967
  0.2015   0.2046   0.2073   0.2093   0.2142   0.2214   0.2237   0.2258
  0.2300   0.2338   0.2461   0.2472   0.2485   0.2588   0.2609   0.2731
  0.2773   0.2954   0.2993   0.3064   0.3149   0.3323   0.3366   0.3425
  0.3465   0.3592   0.3595   0.3660   0.3670   0.3726   0.3827   0.3836
  0.3894   0.3939   0.3989   0.4008   0.4040   0.4073   0.4142   0.4221
  0.4261   0.4276   0.4305   0.4374   0.4437   0.4442   0.4472   0.4548
  0.4569   0.4588   0.4622   0.4697   0.4767   0.4788   0.4823   0.4876
  0.4923   0.4952   0.4960   0.4995   0.5015   0.5096   0.5115   0.5131
  0.5232   0.5271   0.5292   0.5310   0.5370   0.5399   0.5412   0.5448
  0.5489   0.5541   0.5576   0.5595   0.5627   0.5694   0.5778   0.5813
  0.5850   0.5918   0.5957   0.5990   0.6044   0.6070   0.6105   0.6132
  0.6145   0.6166   0.6185   0.6227   0.6254   0.6268   0.6302   0.6334
  0.6400   0.6415   0.6458   0.6506   0.6538   0.6559   0.6597   0.6620
  0.6683   0.6690   0.6766   0.6803   0.6858   0.6919   0.6962   0.6994
  0.7046   0.7116   0.7151   0.7178   0.7218   0.7231   0.7370   0.7391
  0.7424   0.7492   0.7557   0.7581   0.7708   0.7715   0.7801   0.7815
  0.7901   0.7960   0.8051   0.8127   0.8161   0.8175   0.8199   0.8231
  0.8306   0.8353   0.8456   0.8467   0.8557   0.8640   0.8662   0.8685
  0.8765   0.8804   0.8882   0.8941   0.9016   0.9027   0.9047   0.9087
  0.9147   0.9246   0.9272   0.9374   0.9410   0.9419   0.9486   0.9528
  0.9589   0.9627   0.9682   0.9737   0.9784   0.9841   0.9894   0.9912
  0.9989   1.0011   1.0096   1.0118   1.0182   1.0197   1.0233   1.0308
  1.0353   1.0377   1.0460   1.0521   1.0557   1.0608   1.0695   1.0738
  1.0741   1.0820   1.0884   1.0908   1.0915   1.1032   1.1045   1.1067
  1.1119   1.1156   1.1173   1.1270   1.1297   1.1391   1.1414   1.1542
  1.1593   1.1605   1.1693   1.1708   1.1737   1.1788   1.1844   1.1864
  1.1887   1.1952   1.1978   1.2094   1.2115   1.2141   1.2187   1.2199
  1.2280   1.2364   1.2414   1.2438   1.2482   1.2496   1.2523   1.2568
  1.2614   1.2650   1.2766   1.2790   1.2816   1.2875   1.2935   1.2947
  1.2978   1.3054   1.3110   1.3147   1.3255   1.3304   1.3348   1.3420
  1.3521   1.3573   1.3596   1.3704   1.3793   1.3936   1.3945   1.3972
  1.4012   1.4094   1.4146   1.4169   1.4205   1.4331   1.4447   1.4494
  1.4609   1.4646   1.4710   1.4824   1.4894   1.4935   1.4960   1.5030
  1.5070   1.5118   1.5124   1.5215   1.5274   1.5315   1.5375   1.5388
  1.5411   1.5437   1.5505   1.5533   1.5643   1.5647   1.5710   1.5769
  1.5871   1.5941   1.6031   1.6116   1.6180   1.6261   1.6352   1.6406
  1.6431   1.6505   1.6568   1.6614   1.6682   1.6766   1.6843   1.6883
  1.6941   1.6967   1.7052   1.7140   1.7229   1.7266   1.7345   1.7391
  1.7513   1.7550   1.7685   1.7756   1.7858   1.7945   1.8058   1.8104
  1.8125   1.8172   1.8238   1.8383   1.8437   1.8617   1.8663   1.8742
  1.8885   1.8959   1.8973   1.9034   1.9127   1.9261   1.9386   1.9484
  1.9516   1.9541   1.9621   1.9716   1.9792   1.9909   1.9963   2.0040
  2.0145   2.0159   2.0263   2.0289   2.0365   2.0428   2.0524   2.0552
  2.0640   2.0724   2.0814   2.0867   2.1008   2.1115   2.1230   2.1261
  2.1396   2.1448   2.1573   2.1618   2.1624   2.1809   2.1858   2.1919
  2.1949   2.2019   2.2075   2.2146   2.2246   2.2309   2.2356   2.2443
  2.2462   2.2543   2.2577   2.2685   2.2770   2.2809   2.2882   2.2974
  2.3024   2.3117   2.3309   2.3344   2.3372   2.3457   2.3555   2.3607
  2.3685   2.3824   2.3905   2.3975   2.3998   2.4106   2.4189   2.4203
  2.4294   2.4329   2.4470   2.4635   2.4777   2.4813   2.4877   2.4925
  2.4970   2.5080   2.5153   2.5347   2.5363   2.5433   2.5540   2.5555
  2.5706   2.5731   2.5799   2.6060   2.6105   2.6152   2.6229   2.6319
  2.6365   2.6415   2.6436   2.6464   2.6525   2.6583   2.6648   2.6718
  2.6764   2.6887   2.6929   2.6950   2.7027   2.7073   2.7094   2.7207
  2.7267   2.7337   2.7404   2.7496   2.7625   2.7690   2.7721   2.7759
  2.7872   2.7913   2.7978   2.8039   2.8099   2.8112   2.8263   2.8397
  2.8414   2.8426   2.8483   2.8546   2.8615   2.8676   2.8737   2.8781
  2.8811   2.8913   2.8983   2.9099   2.9133   2.9242   2.9369   2.9501
  2.9556   2.9592   2.9623   2.9726   2.9781   2.9849   2.9884   2.9908
  3.0022   3.0124   3.0195   3.0225   3.0328   3.0389   3.0461   3.0501
  3.0578   3.0645   3.0688   3.0785   3.0904   3.0946   3.0986   3.1008
  3.1090   3.1103   3.1195   3.1200   3.1247   3.1332   3.1451   3.1460
  3.1523   3.1536   3.1602   3.1659   3.1674   3.1774   3.1815   3.1835
  3.1924   3.1971   3.2021   3.2055   3.2118   3.2169   3.2239   3.2281
  3.2308   3.2396   3.2419   3.2440   3.2547   3.2607   3.2645   3.2669
  3.2729   3.2743   3.2781   3.2858   3.2923   3.2970   3.3017   3.3084
  3.3100   3.3144   3.3208   3.3236   3.3267   3.3360   3.3440   3.3478
  3.3503   3.3540   3.3555   3.3616   3.3650   3.3714   3.3743   3.3762
  3.3802   3.3851   3.3879   3.3951   3.3987   3.4020   3.4046   3.4079
  3.4099   3.4165   3.4242   3.4260   3.4343   3.4348   3.4440   3.4524
  3.4546   3.4569   3.4663   3.4667   3.4703   3.4758   3.4781   3.4808
  3.4850   3.4910   3.4976   3.4985   3.5119   3.5237   3.5241   3.5393
  3.5418   3.5439   3.5523   3.5571   3.5646   3.5692   3.5708   3.5807
  3.5866   3.5908   3.5955   3.5987   3.6001   3.6065   3.6074   3.6145
  3.6234   3.6256   3.6311   3.6353   3.6411   3.6454   3.6523   3.6556
  3.6622   3.6652   3.6748   3.6791   3.6828   3.6857   3.6948   3.7038
  3.7046   3.7082   3.7143   3.7197   3.7287   3.7300   3.7356   3.7430
  3.7436   3.7537   3.7657   3.7699   3.7722   3.7757   3.7810   3.7858
  3.7912   3.7947   3.7997   3.8055   3.8119   3.8146   3.8169   3.8274
  3.8287   3.8328   3.8391   3.8497   3.8512   3.8572   3.8644   3.8685
  3.8692   3.8788   3.8851   3.8900   3.8933   3.9016   3.9058   3.9106
  3.9193   3.9305   3.9330   3.9440   3.9487   3.9556   3.9575   3.9631
  3.9697   3.9727   3.9884   3.9977   4.0026   4.0073   4.0149   4.0205
  4.0260   4.0343   4.0406   4.0572   4.0641   4.0659   4.0681   4.0709
  4.0781   4.0889   4.0952   4.0964   4.1142   4.1158   4.1305   4.1420
  4.1439   4.1513   4.1554   4.1601   4.1632   4.1656   4.1703   4.1758
  4.1804   4.1851   4.2007   4.2083   4.2196   4.2224   4.2307   4.2423
  4.2452   4.2504   4.2585   4.2703   4.2803   4.2933   4.2946   4.3119
  4.3271   4.3342   4.3407   4.3421   4.3535   4.3577   4.3608   4.3659
  4.3699   4.3756   4.3843   4.4001   4.4074   4.4088   4.4215   4.4225
  4.4278   4.4298   4.4344   4.4366   4.4394   4.4528   4.4644   4.4713
  4.4730   4.4886   4.5033   4.5084   4.5131   4.5204   4.5235   4.5327
  4.5409   4.5531   4.5676   4.5707   4.5749   4.5790   4.5884   4.5933
  4.6135   4.6207   4.6298   4.6399   4.6442   4.6516   4.6535   4.6562
  4.6621   4.6682   4.6859   4.6900   4.7150   4.7259   4.7336   4.7398
  4.7505   4.7540   4.7590   4.7761   4.7868   4.7933   4.8107   4.8222
  4.8259   4.8345   4.8411   4.8511   4.8641   4.8778   4.8896   4.8985
  4.9060   4.9277   4.9373   4.9459   4.9496   4.9617   4.9690   4.9835
  5.0024   5.0065   5.0079   5.0184   5.0276   5.0347   5.0446   5.0502
  5.0743   5.0886   5.1016   5.1127   5.1277   5.1457   5.1647   5.1655
  5.1787   5.1989   5.2022   5.2106   5.2166   5.2284   5.2382   5.2490
  5.2525   5.2561   5.2742   5.2902   5.2974   5.3114   5.3178   5.3295
  5.3399   5.3510   5.3578   5.3636   5.3705   5.3886   5.3968   5.4044
  5.4083   5.4251   5.4314   5.4349   5.4473   5.4589   5.4841   5.5055
  5.5099   5.5159   5.5230   5.5334   5.5680   5.5753   5.5800   5.5901
  5.5976   5.6133   5.6201   5.6258   5.6464   5.6585   5.6793   5.6957
  5.7208   5.7396   5.7457   5.7616   5.7742   5.8060   5.8170   5.8455
  5.8622   5.8786   5.8992   5.9138   5.9278   5.9622   5.9846   6.0331
  6.0392   6.0502   6.0778   6.1310   6.1493   6.1503   6.1720   6.1787
  6.1825   6.1843   6.2239   6.2406   6.2511   6.2601   6.2692   6.2804
  6.2911   6.3039   6.3542   6.3689   6.4474   6.4485   6.5099   6.5379
  6.5490   6.5752   6.5981   6.6484   6.6607   6.6697   6.7255   6.7440
  6.8125   6.8283   6.8581   6.8613   6.9021   6.9768   7.1346   7.1497
  7.2024   7.2034   7.2255   7.2412   7.3085   7.3300   7.3461   7.3600
  7.3611   7.4032   7.4118   7.4824   7.4908   7.4983   7.5175   7.5489
  7.6145   7.7476   7.7697   7.7881   7.8052   7.8972   7.9283   7.9590
  7.9703   8.1312   8.3105   8.4601   8.9191   9.0302   9.3600   9.4862
  9.6719  10.2862  11.2573  11.4439  11.7731  12.1034  12.1278  12.3469
 12.4656  12.4988  12.9423  12.9870  13.0482  13.3820  13.4024  13.4890
 13.7892  13.8589  13.9237  13.9800  14.0644  14.3241  14.9368  15.2127
 --------------------------------------------------------------
 
          Ground-State Mulliken Net Atomic Charges

     Atom                 Charge (a.u.)
  ----------------------------------------
      1 C                    -0.068440
      2 C                    -0.283826
      3 S                    -0.144680
      4 C                    -0.038270
      5 H                     0.190494
      6 C                    -0.053862
      7 C                     0.224890
      8 C                     0.214519
      9 C                    -0.059116
     10 C                    -0.059555
     11 O                    -0.336056
     12 O                    -0.345317
     13 C                    -0.082652
     14 H                     0.118876
     15 H                     0.092322
     16 H                     0.092959
     17 C                    -0.087485
     18 H                     0.122316
     19 H                     0.091265
     20 H                     0.089795
     21 C                    -0.259866
     22 S                    -0.103306
     23 C                     0.070049
     24 H                     0.201704
     25 C                    -0.163827
     26 S                     0.111914
     27 C                    -0.148246
     28 C                     0.065081
     29 C                    -0.125391
     30 S                     0.067882
     31 C                    -0.159191
     32 C                     0.401426
     33 F                    -0.204788
     34 C                     0.448810
     35 O                    -0.461841
     36 O                    -0.301202
     37 C                    -0.058203
     38 H                     0.121723
     39 H                     0.095410
     40 H                     0.095424
     41 H                     0.222518
     42 H                     0.114095
     43 H                     0.111737
     44 H                     0.179912
  ----------------------------------------
  Sum of atomic charges =     0.000000

 -----------------------------------------------------------------
                    Cartesian Multipole Moments
 -----------------------------------------------------------------
    Charge (ESU x 10^10)
                -0.0000
    Dipole Moment (Debye)
         X       4.0063      Y       3.7466      Z       2.3095
       Tot       5.9516
    Quadrupole Moments (Debye-Ang)
        XX    -188.2262     XY       9.5302     YY    -199.9093
        XZ      -3.0429     YZ      -0.8122     ZZ    -186.0336
    Octopole Moments (Debye-Ang^2)
       XXX    -459.3965    XXY     498.9495    XYY    -171.8625
       YYY    1306.7523    XXZ     106.7094    XYZ     -40.6622
       YYZ     118.4818    XZZ     -85.5086    YZZ     441.5186
       ZZZ     504.4225
    Hexadecapole Moments (Debye-Ang^3)
      XXXX   -3240.0432   XXXY    -429.6539   XXYY   -4033.2156
      XYYY    -347.6726   YYYY  -18956.8015   XXXZ     673.2097
      XXYZ     326.2801   XYYZ     272.9898   YYYZ    1487.9024
      XXZZ   -1273.4790   XYZZ      90.9215   YYZZ   -4209.8908
      XZZZ     538.8562   YZZZ    1009.4687   ZZZZ   -7101.9823
 -----------------------------------------------------------------
 Total job time:  335.47s(wall), 11024.76s(cpu) 
 Tue Jan  9 12:54:21 2024

        *************************************************************
        *                                                           *
        *  Thank you very much for using Q-Chem.  Have a nice day.  *
        *                                                           *
        *************************************************************


0 sent ACK to 0 
now end server 0 ... 
cleanup process ... done
remove work dirs ./qchem2068067.0 -- ./qchem2068067.0
rm -rf ./qchem2068067.0
rm -rf ./qchem2068067
