You are running Q-Chem version: 5.4.0

#
# job setting
#
local host:  exp-4-18
current dir: /home/rramji/project-csd799/aromodel/ptb7fout-qchem/hydrogenated-rotation-run
input file:  Dimethoxy_Benzodithiophene_Phi_20_Theta_180_Methylcarbonyl_3_Fluoro_Thienothiophene_Hydrogenated.qcin
output file: 
nprocs     : 1
nthreads   : 64
#
# qchem installation setting
#
QC:          /cm/shared/apps/spack/cpu/opt/spack/linux-centos8-zen2/gcc-10.2.0/qchem-5.4-akfmr7b3t57bfs6qan3padb2wnb2i7cl
QCAUX:       /cm/shared/apps/spack/cpu/opt/spack/linux-centos8-zen2/gcc-10.2.0/qchem-5.4-akfmr7b3t57bfs6qan3padb2wnb2i7cl/qcaux
QCPROG:      /cm/shared/apps/spack/cpu/opt/spack/linux-centos8-zen2/gcc-10.2.0/qchem-5.4-akfmr7b3t57bfs6qan3padb2wnb2i7cl/exe/qcprog.exe
QCPROG_S:    /cm/shared/apps/spack/cpu/opt/spack/linux-centos8-zen2/gcc-10.2.0/qchem-5.4-akfmr7b3t57bfs6qan3padb2wnb2i7cl/exe/qcprog.exe_s
PARALLEL:    -DPARALLEL
QCMPI:       mpich
#
# qchem directory setting
#
qcrun:       qchem1298753
QCSCRATCH:   .
QCLOCALSCR:  
QCTMPDIR:    .
QCFILEPREF:  ./qchem1298753
QCSAVEDIR:   
workdirs:    ./qchem1298753
workdir0:    ./qchem1298753
partmpdirs =  
#
# parallel setting
#
QCRSH:           ssh
QCMPI:           mpich
QCMPIRUN:        /cm/shared/apps/spack/cpu/opt/spack/linux-centos8-zen2/gcc-10.2.0/qchem-5.4-akfmr7b3t57bfs6qan3padb2wnb2i7cl/bin/mpi/mpirun_qchem
QCMACHINEFILE:   ./qchem1298753/hostfile
exp-4-18

#
# env setting
#
exported envs:   QC QCAUX QCSCRATCH QCRUNNAME QCFILEPREF QCPROG QCPROG_S GUIFILE

Running Job 1 of 1 Dimethoxy_Benzodithiophene_Phi_20_Theta_180_Methylcarbonyl_3_Fluoro_Thienothiophene_Hydrogenated.qcin
qchem Dimethoxy_Benzodithiophene_Phi_20_Theta_180_Methylcarbonyl_3_Fluoro_Thienothiophene_Hydrogenated.qcin_1298753.0 ./qchem1298753/ 1
/cm/shared/apps/spack/cpu/opt/spack/linux-centos8-zen2/gcc-10.2.0/qchem-5.4-akfmr7b3t57bfs6qan3padb2wnb2i7cl/bin/mpi/mpirun_qchem -machinefile ./qchem1298753/hostfile -np 1 /cm/shared/apps/spack/cpu/opt/spack/linux-centos8-zen2/gcc-10.2.0/qchem-5.4-akfmr7b3t57bfs6qan3padb2wnb2i7cl/exe/qcprog.exe Dimethoxy_Benzodithiophene_Phi_20_Theta_180_Methylcarbonyl_3_Fluoro_Thienothiophene_Hydrogenated.qcin_1298753.0 ./qchem1298753/

Process 0 of 1 is on exp-4-18 - thread support 0
initial socket setup ...start
initial socket setup ...done 
now start server 0 ... 
                  Welcome to Q-Chem
     A Quantum Leap Into The Future Of Chemistry


 Q-Chem 5.4, Q-Chem, Inc., Pleasanton, CA (2021)

 License issued to: University of California, San Diego (site)

 E. Epifanovsky,  A. T. B. Gilbert,  Xintian Feng,  Joonho Lee,  Yuezhi Mao,  
 N. Mardirossian,  P. Pokhilko,  A. White,  M. Wormit,  M. P. Coons,  
 A. L. Dempwolff,  Zhengting Gan,  D. Hait,  P. R. Horn,  L. D. Jacobson,  
 I. Kaliman,  J. Kussmann,  A. W. Lange,  Ka Un Lao,  D. S. Levine,  Jie Liu,  
 S. C. McKenzie,  A. F. Morrison,  K. Nanda,  F. Plasser,  D. R. Rehn,  
 M. L. Vidal,  Zhi-Qiang You,  Ying Zhu,  B. Alam,  B. Albrecht,  
 A. Aldossary,  E. Alguire,  J. H. Andersen,  D. Barton,  K. Begam,  A. Behn,  
 Y. A. Bernard,  E. J. Berquist,  H. Burton,  A. Carreras,  K. Carter-Fenk,  
 R. Chakraborty,  A. D. Chien,  K. D. Closser,  V. Cofer-Shabica,  
 S. Dasgupta,  Jia Deng,  M. de Wergifosse,  M. Diedenhofen,  Hainam Do,  
 S. Ehlert,  Po-Tung Fang,  S. Fatehi,  Qingguo Feng,  J. Gayvert,  
 Qinghui Ge,  G. Gidofalvi,  M. Goldey,  J. Gomes,  C. Gonzalez-Espinoza,  
 S. Gulania,  A. Gunina,  M. W. D. Hanson-Heine,  P. H. P. Harbach,  
 A. W. Hauser,  M. F. Herbst,  M. Hernandez Vera,  M. Hodecker,  
 Z. C. Holden,  S. Houck,  Xunkun Huang,  Kerwin Hui,  B. C. Huynh,  
 M. Ivanov,  Hyunjun Ji,  Hanjie Jiang,  B. Kaduk,  S. Kaehler,  
 K. Khistyaev,  Jaehoon Kim,  P. Klunzinger,  Z. Koczor-Benda,  
 Joong Hoon Koh,  D. Kosenkov,  L. Koulias,  T. Kowalczyk,  C. M. Krauter,  
 K. Kue,  A. Kunitsa,  T. Kus,  A. Landau,  K. V. Lawler,  D. Lefrancois,  
 S. Lehtola,  Rain Li,  Yi-Pei Li,  Jiashu Liang,  M. Liebenthal,  
 Hung-Hsuan Lin,  You-Sheng Lin,  Fenglai Liu,  Kuan-Yu Liu,  
 M. Loipersberger,  A. Luenser,  A. Manjanath,  P. Manohar,  E. Mansoor,  
 S. F. Manzer,  Shan-Ping Mao,  A. V. Marenich,  T. Markovich,  S. Mason,  
 S. A. Maurer,  P. F. McLaughlin,  M. F. S. J. Menger,  J.-M. Mewes,  
 S. A. Mewes,  P. Morgante,  J. W. Mullinax,  T. S. Nguyen-Beck,  
 K. J. Oosterbaan,  G. Paran,  Alexander C. Paul,  Suranjan K. Paul,  
 F. Pavosevic,  Zheng Pei,  S. Prager,  E. I. Proynov,  E. Ramos,  B. Rana,  
 A. E. Rask,  A. Rettig,  R. M. Richard,  F. Rob,  E. Rossomme,  T. Scheele,  
 M. Scheurer,  M. Schneider,  N. Sergueev,  S. M. Sharada,  W. Skomorowski,  
 D. W. Small,  C. J. Stein,  Yu-Chuan Su,  E. J. Sundstrom,  Zhen Tao,  
 J. Thirman,  T. Tsuchimochi,  N. M. Tubman,  S. P. Veccham,  O. Vydrov,  
 J. Wenzel,  J. Witte,  A. Yamada,  Kun Yao,  S. Yeganeh,  S. R. Yost,  
 A. Zech,  Igor Ying Zhang,  Xing Zhang,  Yu Zhang,  D. Zuev,  
 A. Aspuru-Guzik,  A. T. Bell,  N. A. Besley,  K. B. Bravaya,  B. R. Brooks,  
 D. Casanova,  Jeng-Da Chai,  S. Coriani,  C. J. Cramer,  
 A. E. DePrince, III,  R. A. DiStasio Jr.,  A. Dreuw,  B. D. Dunietz,  
 T. R. Furlani,  W. A. Goddard III,  S. Grimme,  S. Hammes-Schiffer,  
 T. Head-Gordon,  W. J. Hehre,  Chao-Ping Hsu,  T.-C. Jagau,  Yousung Jung,  
 A. Klamt,  Jing Kong,  D. S. Lambrecht,  WanZhen Liang,  N. J. Mayhall,  
 C. W. McCurdy,  J. B. Neaton,  C. Ochsenfeld,  J. A. Parkhill,  R. Peverati,  
 V. A. Rassolov,  Yihan Shao,  L. V. Slipchenko,  T. Stauch,  R. P. Steele,  
 J. E. Subotnik,  A. J. W. Thom,  A. Tkatchenko,  D. G. Truhlar,  
 T. Van Voorhis,  T. A. Wesolowski,  K. B. Whaley,  H. L. Woodcock III,  
 P. M. Zimmerman,  S. Faraji,  P. M. W. Gill,  M. Head-Gordon,  
 J. M. Herbert,  A. I. Krylov

 Contributors to earlier versions of Q-Chem not listed above: 
 R. D. Adamson,  B. Austin,  R. Baer,  J. Baker,  G. J. O. Beran,  
 K. Brandhorst,  S. T. Brown,  E. F. C. Byrd,  A. K. Chakraborty,  
 G. K. L. Chan,  Chun-Min Chang,  Yunqing Chen,  C.-L. Cheng,  
 Siu Hung Chien,  D. M. Chipman,  D. L. Crittenden,  H. Dachsel,  
 R. J. Doerksen,  A. D. Dutoi,  R. G. Edgar,  J. Fosso-Tande,  
 L. Fusti-Molnar,  D. Ghosh,  A. Ghysels,  A. Golubeva-Zadorozhnaya,  
 J. Gonthier,  M. S. Gordon,  S. R. Gwaltney,  G. Hawkins,  J. E. Herr,  
 A. Heyden,  S. Hirata,  E. G. Hohenstein,  G. Kedziora,  F. J. Keil,  
 C. Kelley,  Jihan Kim,  R. A. King,  R. Z. Khaliullin,  P. P. Korambath,  
 W. Kurlancheek,  A. Laurent,  A. M. Lee,  M. S. Lee,  S. V. Levchenko,  
 Ching Yeh Lin,  D. Liotard,  E. Livshits,  R. C. Lochan,  I. Lotan,  
 L. A. Martinez-Martinez,  P. E. Maslen,  N. Nair,  D. P. O'Neill,  
 D. Neuhauser,  E. Neuscamman,  C. M. Oana,  R. Olivares-Amaya,  R. Olson,  
 T. M. Perrine,  B. Peters,  P. A. Pieniazek,  A. Prociuk,  Y. M. Rhee,  
 J. Ritchie,  M. A. Rohrdanz,  E. Rosta,  N. J. Russ,  H. F. Schaefer III,  
 M. W. Schmidt,  N. E. Schultz,  S. Sharma,  N. Shenvi,  C. D. Sherrill,  
 A. C. Simmonett,  A. Sodt,  T. Stein,  D. Stuck,  K. S. Thanthiriwatte,  
 V. Vanovschi,  L. Vogt,  Tao Wang,  A. Warshel,  M. A. Watson,  
 C. F. Williams,  Q. Wu,  X. Xu,  Jun Yang,  W. Zhang,  Yan Zhao

 Please cite Q-Chem as follows:
 Y. Shao et al., Mol. Phys. 113, 184-215 (2015)
 DOI: 10.1080/00268976.2014.952696

 Q-Chem 5.4.0 for Intel X86 EM64T Linux

 Parts of Q-Chem use Armadillo 9.800.1 (Horizon Scraper).
 http://arma.sourceforge.net/

 Q-Chem begins on Tue Jan  9 11:32:24 2024  

 Host: 
0

     Scratch files written to ./qchem1298753//
 May1621 |scratch|qcdevops|jenkins|workspace|build_RNUM    
 Parallel job on  1  processors
 Processing $rem in /cm/shared/apps/spack/cpu/opt/spack/linux-centos8-zen2/gcc-10.2.0/qchem-5.4-akfmr7b3t57bfs6qan3padb2wnb2i7cl/config/preferences:
 Processing $rem in /home/rramji/.qchemrc:
 Symmetry turned off for PCM/SM12/SMD calculation
 Core orbitals will be frozen

 Checking the input file for inconsistencies... 	...done.

 Q-Chem warning in module forms1/BasisType.C, line 2236:

 You are not using the predefined 5D/6D in this basis set.


--------------------------------------------------------------
User input:
--------------------------------------------------------------
$molecule
0 1
C	0.041330	-8.517702	-0.318247
C	0.049453	-7.641575	0.757333
S	0.024919	-7.638634	-1.866383
C	0.049488	-6.264785	0.380867
H	0.055368	-7.966081	1.805573
C	0.051115	-6.072714	-1.045647
C	0.026203	-4.787049	-1.608077
C	0.026637	-5.162801	1.282948
C	-0.002586	-3.874817	0.720187
C	0.001903	-3.683952	-0.707853
O	0.054867	-5.499772	2.602386
O	-0.003348	-4.459055	-2.933517
C	0.602384	-5.329063	-3.881999
H	0.675079	-4.755694	-4.825744
H	-0.009592	-6.238095	-4.070972
H	1.621263	-5.637262	-3.562152
C	-0.381947	-4.572261	3.588253
H	-0.449872	-5.139743	4.535674
H	-1.381388	-4.153131	3.342986
H	0.341040	-3.739531	3.728239
C	-0.000348	-2.306654	-1.080725
S	0.010924	-2.306501	1.542694
C	-0.000000	-1.435185	-0.000000
H	-0.003612	-1.978138	-2.127635
C	0.000000	0.000000	0.000000
S	0.309893	0.850039	1.507541
C	0.847011	2.328006	0.718873
C	0.310046	0.849645	-1.067872
C	0.783331	2.156746	-0.686410
S	0.229416	0.619785	-2.805516
C	0.823328	2.267711	-3.054530
C	1.063278	2.934142	-1.862551
F	1.515925	4.191824	-1.819088
C	0.978337	2.688069	-4.456084
O	0.722535	1.961921	-5.406510
O	1.433229	3.959697	-4.569225
C	1.607467	4.423139	-5.916207
H	1.977475	5.460158	-5.833064
H	0.647388	4.396602	-6.470168
H	2.339490	3.791823	-6.459293
H	1.161798	3.197007	1.306486
H	-0.858809	-9.143623	-0.313367
H	0.937378	-9.149441	-0.325780
H	-1.079945	-1.443175	0.007439
$end

$rem
JOBTYPE		SP
EXCHANGE	HF
CORRELATION	pRIMP2
BASIS		cc-pvtz
METHOD		rimp2
AUX_BASIS	rimp2-cc-pvtz
SOLVENT_METHOD	PCM
PURECART	11111
SYMMETRY	false
MEM_TOTAL	110000
SCF_CONVERGENCE = 6
THRESH=10
GUI = 2
$end



$solvent
dielectric 4.90
$end
--------------------------------------------------------------
 ----------------------------------------------------------------
             Standard Nuclear Orientation (Angstroms)
    I     Atom           X                Y                Z
 ----------------------------------------------------------------
    1      C       0.0413300000    -8.5177020000    -0.3182470000
    2      C       0.0494530000    -7.6415750000     0.7573330000
    3      S       0.0249190000    -7.6386340000    -1.8663830000
    4      C       0.0494880000    -6.2647850000     0.3808670000
    5      H       0.0553680000    -7.9660810000     1.8055730000
    6      C       0.0511150000    -6.0727140000    -1.0456470000
    7      C       0.0262030000    -4.7870490000    -1.6080770000
    8      C       0.0266370000    -5.1628010000     1.2829480000
    9      C      -0.0025860000    -3.8748170000     0.7201870000
   10      C       0.0019030000    -3.6839520000    -0.7078530000
   11      O       0.0548670000    -5.4997720000     2.6023860000
   12      O      -0.0033480000    -4.4590550000    -2.9335170000
   13      C       0.6023840000    -5.3290630000    -3.8819990000
   14      H       0.6750790000    -4.7556940000    -4.8257440000
   15      H      -0.0095920000    -6.2380950000    -4.0709720000
   16      H       1.6212630000    -5.6372620000    -3.5621520000
   17      C      -0.3819470000    -4.5722610000     3.5882530000
   18      H      -0.4498720000    -5.1397430000     4.5356740000
   19      H      -1.3813880000    -4.1531310000     3.3429860000
   20      H       0.3410400000    -3.7395310000     3.7282390000
   21      C      -0.0003480000    -2.3066540000    -1.0807250000
   22      S       0.0109240000    -2.3065010000     1.5426940000
   23      C       0.0000000000    -1.4351850000     0.0000000000
   24      H      -0.0036120000    -1.9781380000    -2.1276350000
   25      C       0.0000000000     0.0000000000     0.0000000000
   26      S       0.3098930000     0.8500390000     1.5075410000
   27      C       0.8470110000     2.3280060000     0.7188730000
   28      C       0.3100460000     0.8496450000    -1.0678720000
   29      C       0.7833310000     2.1567460000    -0.6864100000
   30      S       0.2294160000     0.6197850000    -2.8055160000
   31      C       0.8233280000     2.2677110000    -3.0545300000
   32      C       1.0632780000     2.9341420000    -1.8625510000
   33      F       1.5159250000     4.1918240000    -1.8190880000
   34      C       0.9783370000     2.6880690000    -4.4560840000
   35      O       0.7225350000     1.9619210000    -5.4065100000
   36      O       1.4332290000     3.9596970000    -4.5692250000
   37      C       1.6074670000     4.4231390000    -5.9162070000
   38      H       1.9774750000     5.4601580000    -5.8330640000
   39      H       0.6473880000     4.3966020000    -6.4701680000
   40      H       2.3394900000     3.7918230000    -6.4592930000
   41      H       1.1617980000     3.1970070000     1.3064860000
   42      H      -0.8588090000    -9.1436230000    -0.3133670000
   43      H       0.9373780000    -9.1494410000    -0.3257800000
   44      H      -1.0799450000    -1.4431750000     0.0074390000
 ----------------------------------------------------------------
 Nuclear Repulsion Energy =        3349.04334448 hartrees
 There are      120 alpha and      120 beta electrons
 Requested basis set is cc-pVTZ
 There are 388 shells and 1096 basis functions

 Total QAlloc Memory Limit 110000 MB
 Mega-Array Size       188 MB
 MEM_STATIC part       192 MB
 Discretize the solute cavity surface with Lebedev spheres
	Using 110 Lebedev grid points for each H atom
	Using 194 Lebedev grid points for other atoms
	Atomic van der Waals radii will be scaled by 1.20
 Remove points where switching function is < 1.0e-08
 Keep 2947 surface tesserae and discard 4329 interior tesserae
 Molecular Surface Area = 437.527 Angst**2
 Requested basis set is rimp2-cc-pVTZ
 There are 853 shells and 2963 basis functions
 A cutoff of  1.0D-10 yielded  33169 shell pairs
 There are    250191 function pairs (    323583 Cartesian)
 Smallest overlap matrix eigenvalue = 2.09E-05

 Scale SEOQF with 1.000000e-01/1.000000e-02/1.000000e-02

 Standard Electronic Orientation quadrupole field applied
 Nucleus-field energy     =     0.0000000186 hartrees
 Guess from superposition of atomic densities
 Warning:  Energy on first SCF cycle will be non-variational
 SAD guess density has 240.000000 electrons

 -----------------------------------------------------------------------
  General SCF calculation program by
  Eric Jon Sundstrom, Paul Horn, Yuezhi Mao, Dmitri Zuev, Alec White,
  David Stuck, Shaama M.S., Shane Yost, Joonho Lee, David Small,
  Daniel Levine, Susi Lehtola, Hugh Burton, Evgeny Epifanovsky,
  Bang C. Huynh
 -----------------------------------------------------------------------
 Hartree-Fock
 using 64 threads for integral computing
 -------------------------------------------------------
 OpenMP Integral computing Module                
 Release: version 1.0, May 2013, Q-Chem Inc. Pittsburgh 
 -------------------------------------------------------
 A restricted SCF calculation will be
 performed using DIIS
 SCF converges when DIIS error is below 1.0e-06
 ---------------------------------------
  Cycle       Energy         DIIS error
 ---------------------------------------
    1   -2767.0469655662      1.75e-02  
    2   -2754.8788865858      1.53e-03  
    3   -2755.2284031703      8.56e-04  
    4   -2755.3158556764      2.56e-04  
    5   -2755.3296147471      7.43e-05  
    6   -2755.3312024469      2.63e-05  
    7   -2755.3316255386      1.39e-05  
    8   -2755.3317637183      5.78e-06  
    9   -2755.3317963486      3.06e-06  
   10   -2755.3318044854      1.58e-06  
   11   -2755.3318074005      8.81e-07  Convergence criterion met
 ---------------------------------------
 SCF time:   CPU 7885.67s  wall 305.00s 

************** Final PCM Free Energy Summary **************
 G_electrostatic  =      -0.01997662 hartree =     -12.53552008 kcal/mol
 G_cavitation     =       0.00000000 hartree =       0.00000000 kcal/mol
 G_dispersion     =       0.00000000 hartree =       0.00000000 kcal/mol
 G_repulsion      =       0.00000000 hartree =       0.00000000 kcal/mol
 --------------------------------------------------
 Non-electrostatic Free Energy =       0.00000000 hartree =       0.00000000 kcal/mol
 Total                         =      -0.01997662 hartree =     -12.53552008 kcal/mol
 --------------------------------------------------
 SCF Energy (H0 + V/2)                       =   -2755.33180740 
 Solute Internal Energy (H0)                 =   -2755.31183078 
 Total Free Energy (H0 + V/2 + non-elec)     =   -2755.33180740 hartree
                                             = -1728996.80489135 kcal/mol
***********************************************************

 SCF   energy in the final basis set =    -2755.3318074005
 Total energy in the final basis set =    -2755.3318074005


 --------------------------------------------------------------
  Generalized many-body perturbation theory program
  by Joonho Lee, Fazle Rob, Xintian Feng, Evgeny Epifanovsky

 No regularization used 
 (reg. param. = 0.0000e+00)
  (P|Q)^-1/2 Time:  CPU 188.99 s  wall 3.09 s

 In RI-MP2 calculation: 
 # of frozen core orbitals: 45

 Components of the RIMP2 correlation energy:
        aaaa    correlation energy =        -0.6698342501 a.u.
        abab    correlation energy =        -3.7540042394 a.u.
        bbbb    correlation energy =        -0.6698342501 a.u.
        non-Brillouin singles      =        -0.0000000000 a.u.
        total same-spin energy     =        -1.3396685003 a.u.
        total opposite-spin energy =        -3.7540042394 a.u.

 Total  RIMP2   correlation energy =        -5.0936727397 a.u.
        RIMP2         total energy =     -2760.4254801402 a.u.

 RI-MP2 Energy Time:  CPU 3010.36 s  wall 49.49 s
 
 --------------------------------------------------------------
 
                    Orbital Energies (a.u.)
 --------------------------------------------------------------
 
 Alpha MOs
 -- Occupied --
-92.0146 -91.9974 -91.9828 -91.9588 -26.3430 -20.6150 -20.5890 -20.5873
-20.5616 -11.4096 -11.3820 -11.3106 -11.3098 -11.3077 -11.3028 -11.2982
-11.2940 -11.2889 -11.2860 -11.2855 -11.2848 -11.2827 -11.2825 -11.2745
-11.2737 -11.2599 -11.2593 -11.2505 -11.2389  -9.0134  -8.9977  -8.9849
 -8.9614  -6.6942  -6.6936  -6.6930  -6.6787  -6.6780  -6.6768  -6.6661
 -6.6652  -6.6639  -6.6426  -6.6417  -6.6407  -1.6601  -1.4675  -1.4122
 -1.4092  -1.3702  -1.2305  -1.2032  -1.1749  -1.1377  -1.1012  -1.0480
 -1.0452  -1.0239  -1.0045  -0.9990  -0.9633  -0.9594  -0.9494  -0.9408
 -0.8955  -0.8705  -0.8650  -0.8095  -0.8018  -0.7904  -0.7842  -0.7684
 -0.7569  -0.7380  -0.7250  -0.7123  -0.6992  -0.6917  -0.6848  -0.6813
 -0.6740  -0.6631  -0.6573  -0.6493  -0.6394  -0.6317  -0.6208  -0.6154
 -0.6121  -0.5986  -0.5936  -0.5772  -0.5712  -0.5654  -0.5600  -0.5546
 -0.5460  -0.5358  -0.5310  -0.5294  -0.5142  -0.5097  -0.5086  -0.5013
 -0.4852  -0.4821  -0.4774  -0.4738  -0.4707  -0.4664  -0.4603  -0.4476
 -0.4338  -0.3941  -0.3872  -0.3716  -0.3502  -0.2990  -0.2889  -0.2172
 -- Virtual --
  0.0325   0.0538   0.1083   0.1302   0.1371   0.1448   0.1530   0.1560
  0.1585   0.1603   0.1615   0.1724   0.1784   0.1847   0.1904   0.1942
  0.1997   0.2032   0.2049   0.2150   0.2213   0.2233   0.2243   0.2277
  0.2283   0.2410   0.2437   0.2478   0.2537   0.2573   0.2640   0.2741
  0.2880   0.2941   0.3146   0.3228   0.3299   0.3377   0.3433   0.3511
  0.3536   0.3583   0.3665   0.3715   0.3770   0.3827   0.3846   0.3866
  0.3902   0.3960   0.4012   0.4061   0.4095   0.4123   0.4184   0.4248
  0.4258   0.4296   0.4328   0.4403   0.4417   0.4434   0.4541   0.4553
  0.4601   0.4641   0.4672   0.4721   0.4755   0.4786   0.4843   0.4855
  0.4905   0.4951   0.4962   0.5010   0.5067   0.5102   0.5158   0.5173
  0.5206   0.5280   0.5310   0.5315   0.5364   0.5403   0.5431   0.5476
  0.5522   0.5562   0.5583   0.5599   0.5637   0.5698   0.5748   0.5784
  0.5847   0.5882   0.5923   0.5980   0.6009   0.6046   0.6078   0.6097
  0.6153   0.6180   0.6205   0.6211   0.6222   0.6246   0.6260   0.6300
  0.6338   0.6359   0.6439   0.6472   0.6487   0.6555   0.6564   0.6609
  0.6623   0.6674   0.6723   0.6858   0.6886   0.6933   0.6977   0.7030
  0.7082   0.7109   0.7168   0.7193   0.7229   0.7307   0.7343   0.7347
  0.7400   0.7509   0.7551   0.7618   0.7676   0.7740   0.7781   0.7850
  0.7961   0.8014   0.8042   0.8089   0.8204   0.8223   0.8268   0.8315
  0.8372   0.8430   0.8496   0.8527   0.8629   0.8709   0.8724   0.8748
  0.8778   0.8858   0.8928   0.8960   0.8981   0.9011   0.9073   0.9140
  0.9217   0.9325   0.9372   0.9392   0.9412   0.9439   0.9530   0.9596
  0.9624   0.9651   0.9695   0.9740   0.9804   0.9834   0.9881   0.9914
  0.9995   1.0043   1.0057   1.0159   1.0171   1.0221   1.0259   1.0342
  1.0391   1.0420   1.0487   1.0513   1.0554   1.0611   1.0660   1.0692
  1.0746   1.0763   1.0832   1.0857   1.0929   1.1024   1.1063   1.1098
  1.1150   1.1168   1.1227   1.1260   1.1294   1.1442   1.1469   1.1503
  1.1555   1.1617   1.1684   1.1702   1.1730   1.1763   1.1814   1.1853
  1.1872   1.1907   1.1969   1.1996   1.2054   1.2116   1.2165   1.2224
  1.2256   1.2273   1.2362   1.2379   1.2424   1.2517   1.2536   1.2563
  1.2609   1.2642   1.2698   1.2755   1.2781   1.2831   1.2921   1.2937
  1.3005   1.3055   1.3108   1.3164   1.3285   1.3292   1.3373   1.3399
  1.3432   1.3549   1.3615   1.3668   1.3772   1.3838   1.3951   1.3960
  1.3967   1.4059   1.4136   1.4193   1.4315   1.4346   1.4397   1.4556
  1.4578   1.4684   1.4764   1.4813   1.4878   1.4900   1.4979   1.4998
  1.5030   1.5080   1.5111   1.5154   1.5228   1.5336   1.5357   1.5394
  1.5423   1.5450   1.5491   1.5559   1.5607   1.5631   1.5675   1.5802
  1.5849   1.5987   1.6016   1.6081   1.6165   1.6256   1.6330   1.6367
  1.6437   1.6520   1.6552   1.6590   1.6653   1.6705   1.6772   1.6871
  1.6903   1.6961   1.7085   1.7163   1.7212   1.7291   1.7348   1.7435
  1.7612   1.7681   1.7734   1.7826   1.7942   1.8005   1.8069   1.8177
  1.8201   1.8232   1.8283   1.8390   1.8554   1.8601   1.8665   1.8727
  1.8903   1.8939   1.9041   1.9085   1.9175   1.9245   1.9316   1.9361
  1.9476   1.9595   1.9623   1.9649   1.9751   1.9906   1.9965   1.9989
  2.0086   2.0118   2.0207   2.0273   2.0352   2.0399   2.0456   2.0517
  2.0689   2.0713   2.0807   2.0955   2.0969   2.1098   2.1148   2.1227
  2.1398   2.1567   2.1585   2.1710   2.1754   2.1832   2.1855   2.1949
  2.1993   2.2028   2.2059   2.2195   2.2234   2.2322   2.2353   2.2392
  2.2439   2.2534   2.2608   2.2688   2.2707   2.2822   2.2834   2.2931
  2.3008   2.3083   2.3182   2.3291   2.3396   2.3478   2.3559   2.3646
  2.3672   2.3735   2.3863   2.3944   2.4048   2.4154   2.4196   2.4261
  2.4378   2.4448   2.4532   2.4638   2.4713   2.4808   2.4905   2.4921
  2.5014   2.5097   2.5152   2.5296   2.5420   2.5459   2.5514   2.5581
  2.5657   2.5805   2.5919   2.6032   2.6153   2.6177   2.6190   2.6239
  2.6265   2.6353   2.6404   2.6432   2.6455   2.6478   2.6623   2.6673
  2.6788   2.6796   2.6873   2.6957   2.6975   2.7026   2.7127   2.7127
  2.7235   2.7266   2.7356   2.7422   2.7515   2.7521   2.7658   2.7719
  2.7831   2.7856   2.7967   2.7990   2.8064   2.8120   2.8194   2.8242
  2.8444   2.8462   2.8509   2.8539   2.8566   2.8641   2.8710   2.8749
  2.8836   2.8858   2.8907   2.9004   2.9084   2.9178   2.9240   2.9435
  2.9511   2.9564   2.9584   2.9664   2.9708   2.9759   2.9838   2.9939
  2.9990   3.0038   3.0112   3.0199   3.0240   3.0338   3.0400   3.0440
  3.0472   3.0621   3.0661   3.0717   3.0806   3.0894   3.0950   3.0962
  3.1032   3.1081   3.1148   3.1233   3.1252   3.1336   3.1370   3.1444
  3.1446   3.1469   3.1509   3.1552   3.1632   3.1637   3.1674   3.1761
  3.1843   3.1935   3.1970   3.2062   3.2130   3.2163   3.2194   3.2255
  3.2273   3.2380   3.2430   3.2498   3.2530   3.2606   3.2649   3.2705
  3.2709   3.2751   3.2785   3.2793   3.2869   3.2913   3.2951   3.2995
  3.3101   3.3104   3.3165   3.3238   3.3298   3.3363   3.3366   3.3447
  3.3480   3.3520   3.3533   3.3539   3.3627   3.3662   3.3677   3.3694
  3.3741   3.3846   3.3887   3.3910   3.3965   3.3999   3.4032   3.4084
  3.4116   3.4191   3.4253   3.4285   3.4335   3.4358   3.4400   3.4492
  3.4533   3.4576   3.4606   3.4641   3.4674   3.4738   3.4795   3.4822
  3.4876   3.4906   3.4947   3.4956   3.5041   3.5155   3.5260   3.5327
  3.5410   3.5428   3.5431   3.5535   3.5571   3.5649   3.5671   3.5722
  3.5779   3.5854   3.5938   3.5971   3.5979   3.6006   3.6059   3.6087
  3.6157   3.6181   3.6246   3.6280   3.6353   3.6404   3.6428   3.6520
  3.6565   3.6628   3.6704   3.6749   3.6760   3.6823   3.6897   3.6986
  3.7055   3.7063   3.7103   3.7136   3.7152   3.7194   3.7237   3.7331
  3.7389   3.7441   3.7502   3.7548   3.7601   3.7673   3.7728   3.7806
  3.7844   3.7857   3.7890   3.7988   3.8041   3.8071   3.8105   3.8161
  3.8208   3.8237   3.8250   3.8365   3.8446   3.8487   3.8524   3.8541
  3.8630   3.8695   3.8709   3.8805   3.8868   3.8901   3.8984   3.9032
  3.9116   3.9238   3.9259   3.9354   3.9415   3.9470   3.9541   3.9583
  3.9594   3.9622   3.9655   3.9879   3.9938   3.9988   4.0082   4.0161
  4.0225   4.0302   4.0336   4.0377   4.0482   4.0512   4.0641   4.0675
  4.0692   4.0718   4.0911   4.0963   4.0999   4.1058   4.1160   4.1292
  4.1324   4.1430   4.1471   4.1577   4.1650   4.1673   4.1720   4.1729
  4.1784   4.1883   4.1924   4.2013   4.2121   4.2175   4.2290   4.2329
  4.2479   4.2499   4.2529   4.2662   4.2750   4.2875   4.2926   4.3063
  4.3157   4.3238   4.3361   4.3418   4.3438   4.3505   4.3517   4.3594
  4.3697   4.3738   4.3818   4.3831   4.3926   4.4059   4.4124   4.4180
  4.4187   4.4239   4.4293   4.4317   4.4359   4.4441   4.4496   4.4603
  4.4629   4.4737   4.4925   4.4987   4.5060   4.5135   4.5176   4.5315
  4.5334   4.5428   4.5579   4.5664   4.5670   4.5712   4.5795   4.5826
  4.5947   4.6001   4.6033   4.6152   4.6353   4.6448   4.6477   4.6538
  4.6645   4.6709   4.6792   4.6829   4.6937   4.7121   4.7202   4.7300
  4.7450   4.7510   4.7635   4.7757   4.7847   4.7959   4.8064   4.8158
  4.8234   4.8312   4.8400   4.8571   4.8665   4.8715   4.8801   4.8927
  4.8973   4.9126   4.9334   4.9431   4.9514   4.9595   4.9668   4.9820
  4.9956   5.0049   5.0082   5.0089   5.0205   5.0332   5.0447   5.0599
  5.0775   5.0903   5.0971   5.1153   5.1285   5.1334   5.1524   5.1653
  5.1761   5.1910   5.2027   5.2088   5.2232   5.2371   5.2523   5.2537
  5.2572   5.2617   5.2847   5.2899   5.2955   5.3160   5.3232   5.3299
  5.3323   5.3489   5.3530   5.3561   5.3751   5.3891   5.3944   5.4045
  5.4063   5.4203   5.4261   5.4337   5.4426   5.4849   5.4979   5.5106
  5.5138   5.5188   5.5221   5.5337   5.5648   5.5679   5.5839   5.5877
  5.5985   5.6073   5.6176   5.6215   5.6517   5.6593   5.6727   5.6901
  5.7049   5.7414   5.7491   5.7682   5.7807   5.8074   5.8176   5.8405
  5.8575   5.8799   5.9056   5.9146   5.9289   5.9523   5.9753   6.0017
  6.0412   6.0427   6.0957   6.1342   6.1504   6.1516   6.1717   6.1762
  6.1812   6.1968   6.2387   6.2484   6.2595   6.2614   6.2753   6.2863
  6.2921   6.2992   6.3495   6.4179   6.4499   6.4542   6.5129   6.5403
  6.5516   6.5707   6.6073   6.6490   6.6625   6.6710   6.7143   6.7473
  6.8087   6.8310   6.8565   6.8593   6.8993   6.9782   7.1323   7.1434
  7.2038   7.2072   7.2209   7.2412   7.3096   7.3301   7.3408   7.3635
  7.3647   7.4062   7.4131   7.4846   7.4859   7.4976   7.5257   7.5511
  7.6184   7.7345   7.7733   7.7906   7.8025   7.9016   7.9273   7.9534
  7.9767   8.1368   8.2508   8.6305   8.9223   9.0289   9.3633   9.4914
  9.6787  10.2505  11.1694  11.4556  11.7504  11.9018  12.1299  12.3826
 12.4300  12.5143  12.9321  13.0481  13.0530  13.1908  13.3869  13.4886
 13.7697  13.7839  13.8829  13.9386  14.0310  14.3104  15.0853  15.2683
 --------------------------------------------------------------
 
          Ground-State Mulliken Net Atomic Charges

     Atom                 Charge (a.u.)
  ----------------------------------------
      1 C                    -0.070331
      2 C                    -0.255788
      3 S                    -0.134182
      4 C                    -0.049094
      5 H                     0.194069
      6 C                    -0.050881
      7 C                     0.227443
      8 C                     0.231730
      9 C                    -0.073699
     10 C                    -0.042612
     11 O                    -0.333490
     12 O                    -0.344470
     13 C                    -0.083438
     14 H                     0.121470
     15 H                     0.092590
     16 H                     0.092936
     17 C                    -0.089110
     18 H                     0.125084
     19 H                     0.093128
     20 H                     0.090094
     21 C                    -0.292418
     22 S                    -0.097609
     23 C                     0.114531
     24 H                     0.197482
     25 C                    -0.032965
     26 S                     0.080763
     27 C                    -0.217498
     28 C                    -0.011258
     29 C                    -0.107108
     30 S                    -0.006312
     31 C                    -0.165468
     32 C                     0.411054
     33 F                    -0.206934
     34 C                     0.444402
     35 O                    -0.460872
     36 O                    -0.300771
     37 C                    -0.058541
     38 H                     0.121532
     39 H                     0.095133
     40 H                     0.095186
     41 H                     0.217783
     42 H                     0.117954
     43 H                     0.115693
     44 H                     0.204794
  ----------------------------------------
  Sum of atomic charges =     0.000000

 -----------------------------------------------------------------
                    Cartesian Multipole Moments
 -----------------------------------------------------------------
    Charge (ESU x 10^10)
                -0.0000
    Dipole Moment (Debye)
         X       0.1757      Y       1.7899      Z       3.2743
       Tot       3.7357
    Quadrupole Moments (Debye-Ang)
        XX    -198.1647     XY       4.9941     YY    -173.5073
        XZ      -8.3309     YZ     -11.5150     ZZ    -189.6015
    Octopole Moments (Debye-Ang^2)
       XXX    -200.6162    XXY     386.4200    XYY     -42.8062
       YYY     961.9969    XXZ     183.8337    XYZ       7.4698
       YYZ     166.1012    XZZ     -30.3505    YZZ     399.1241
       ZZZ     609.5096
    Hexadecapole Moments (Debye-Ang^3)
      XXXX    -688.1506   XXXY    -482.4066   XXYY   -3909.2277
      XYYY    -461.4370   YYYY  -19924.6459   XXXZ     614.7586
      XXYZ     273.2423   XYYZ     -34.0945   YYYZ     386.2603
      XXZZ   -1350.7809   XYZZ      12.2881   YYZZ   -4260.5551
      XZZZ     368.6654   YZZZ     427.5333   ZZZZ   -7519.7983
 -----------------------------------------------------------------
 Total job time:  364.40s(wall), 11021.08s(cpu) 
 Tue Jan  9 11:38:28 2024

        *************************************************************
        *                                                           *
        *  Thank you very much for using Q-Chem.  Have a nice day.  *
        *                                                           *
        *************************************************************


0 sent ACK to 0 
now end server 0 ... 
cleanup process ... done
remove work dirs ./qchem1298753.0 -- ./qchem1298753.0
rm -rf ./qchem1298753.0
rm -rf ./qchem1298753
