You are running Q-Chem version: 5.4.0

#
# job setting
#
local host:  exp-6-39
current dir: /home/rramji/project-csd799/aromodel/ptb7fout-qchem/hydrogenated-rotation-run
input file:  Dimethoxy_Benzodithiophene_Phi_60_Theta_340_Methylcarbonyl_3_Fluoro_Thienothiophene_Hydrogenated.qcin
output file: 
nprocs     : 1
nthreads   : 64
#
# qchem installation setting
#
QC:          /cm/shared/apps/spack/cpu/opt/spack/linux-centos8-zen2/gcc-10.2.0/qchem-5.4-akfmr7b3t57bfs6qan3padb2wnb2i7cl
QCAUX:       /cm/shared/apps/spack/cpu/opt/spack/linux-centos8-zen2/gcc-10.2.0/qchem-5.4-akfmr7b3t57bfs6qan3padb2wnb2i7cl/qcaux
QCPROG:      /cm/shared/apps/spack/cpu/opt/spack/linux-centos8-zen2/gcc-10.2.0/qchem-5.4-akfmr7b3t57bfs6qan3padb2wnb2i7cl/exe/qcprog.exe
QCPROG_S:    /cm/shared/apps/spack/cpu/opt/spack/linux-centos8-zen2/gcc-10.2.0/qchem-5.4-akfmr7b3t57bfs6qan3padb2wnb2i7cl/exe/qcprog.exe_s
PARALLEL:    -DPARALLEL
QCMPI:       mpich
#
# qchem directory setting
#
qcrun:       qchem2069225
QCSCRATCH:   .
QCLOCALSCR:  
QCTMPDIR:    .
QCFILEPREF:  ./qchem2069225
QCSAVEDIR:   
workdirs:    ./qchem2069225
workdir0:    ./qchem2069225
partmpdirs =  
#
# parallel setting
#
QCRSH:           ssh
QCMPI:           mpich
QCMPIRUN:        /cm/shared/apps/spack/cpu/opt/spack/linux-centos8-zen2/gcc-10.2.0/qchem-5.4-akfmr7b3t57bfs6qan3padb2wnb2i7cl/bin/mpi/mpirun_qchem
QCMACHINEFILE:   ./qchem2069225/hostfile
exp-6-39

#
# env setting
#
exported envs:   QC QCAUX QCSCRATCH QCRUNNAME QCFILEPREF QCPROG QCPROG_S GUIFILE

Running Job 1 of 1 Dimethoxy_Benzodithiophene_Phi_60_Theta_340_Methylcarbonyl_3_Fluoro_Thienothiophene_Hydrogenated.qcin
qchem Dimethoxy_Benzodithiophene_Phi_60_Theta_340_Methylcarbonyl_3_Fluoro_Thienothiophene_Hydrogenated.qcin_2069225.0 ./qchem2069225/ 1
/cm/shared/apps/spack/cpu/opt/spack/linux-centos8-zen2/gcc-10.2.0/qchem-5.4-akfmr7b3t57bfs6qan3padb2wnb2i7cl/bin/mpi/mpirun_qchem -machinefile ./qchem2069225/hostfile -np 1 /cm/shared/apps/spack/cpu/opt/spack/linux-centos8-zen2/gcc-10.2.0/qchem-5.4-akfmr7b3t57bfs6qan3padb2wnb2i7cl/exe/qcprog.exe Dimethoxy_Benzodithiophene_Phi_60_Theta_340_Methylcarbonyl_3_Fluoro_Thienothiophene_Hydrogenated.qcin_2069225.0 ./qchem2069225/

Process 0 of 1 is on exp-6-39 - thread support 0
initial socket setup ...start
initial socket setup ...done 
now start server 0 ... 
                  Welcome to Q-Chem
     A Quantum Leap Into The Future Of Chemistry


 Q-Chem 5.4, Q-Chem, Inc., Pleasanton, CA (2021)

 License issued to: University of California, San Diego (site)

 E. Epifanovsky,  A. T. B. Gilbert,  Xintian Feng,  Joonho Lee,  Yuezhi Mao,  
 N. Mardirossian,  P. Pokhilko,  A. White,  M. Wormit,  M. P. Coons,  
 A. L. Dempwolff,  Zhengting Gan,  D. Hait,  P. R. Horn,  L. D. Jacobson,  
 I. Kaliman,  J. Kussmann,  A. W. Lange,  Ka Un Lao,  D. S. Levine,  Jie Liu,  
 S. C. McKenzie,  A. F. Morrison,  K. Nanda,  F. Plasser,  D. R. Rehn,  
 M. L. Vidal,  Zhi-Qiang You,  Ying Zhu,  B. Alam,  B. Albrecht,  
 A. Aldossary,  E. Alguire,  J. H. Andersen,  D. Barton,  K. Begam,  A. Behn,  
 Y. A. Bernard,  E. J. Berquist,  H. Burton,  A. Carreras,  K. Carter-Fenk,  
 R. Chakraborty,  A. D. Chien,  K. D. Closser,  V. Cofer-Shabica,  
 S. Dasgupta,  Jia Deng,  M. de Wergifosse,  M. Diedenhofen,  Hainam Do,  
 S. Ehlert,  Po-Tung Fang,  S. Fatehi,  Qingguo Feng,  J. Gayvert,  
 Qinghui Ge,  G. Gidofalvi,  M. Goldey,  J. Gomes,  C. Gonzalez-Espinoza,  
 S. Gulania,  A. Gunina,  M. W. D. Hanson-Heine,  P. H. P. Harbach,  
 A. W. Hauser,  M. F. Herbst,  M. Hernandez Vera,  M. Hodecker,  
 Z. C. Holden,  S. Houck,  Xunkun Huang,  Kerwin Hui,  B. C. Huynh,  
 M. Ivanov,  Hyunjun Ji,  Hanjie Jiang,  B. Kaduk,  S. Kaehler,  
 K. Khistyaev,  Jaehoon Kim,  P. Klunzinger,  Z. Koczor-Benda,  
 Joong Hoon Koh,  D. Kosenkov,  L. Koulias,  T. Kowalczyk,  C. M. Krauter,  
 K. Kue,  A. Kunitsa,  T. Kus,  A. Landau,  K. V. Lawler,  D. Lefrancois,  
 S. Lehtola,  Rain Li,  Yi-Pei Li,  Jiashu Liang,  M. Liebenthal,  
 Hung-Hsuan Lin,  You-Sheng Lin,  Fenglai Liu,  Kuan-Yu Liu,  
 M. Loipersberger,  A. Luenser,  A. Manjanath,  P. Manohar,  E. Mansoor,  
 S. F. Manzer,  Shan-Ping Mao,  A. V. Marenich,  T. Markovich,  S. Mason,  
 S. A. Maurer,  P. F. McLaughlin,  M. F. S. J. Menger,  J.-M. Mewes,  
 S. A. Mewes,  P. Morgante,  J. W. Mullinax,  T. S. Nguyen-Beck,  
 K. J. Oosterbaan,  G. Paran,  Alexander C. Paul,  Suranjan K. Paul,  
 F. Pavosevic,  Zheng Pei,  S. Prager,  E. I. Proynov,  E. Ramos,  B. Rana,  
 A. E. Rask,  A. Rettig,  R. M. Richard,  F. Rob,  E. Rossomme,  T. Scheele,  
 M. Scheurer,  M. Schneider,  N. Sergueev,  S. M. Sharada,  W. Skomorowski,  
 D. W. Small,  C. J. Stein,  Yu-Chuan Su,  E. J. Sundstrom,  Zhen Tao,  
 J. Thirman,  T. Tsuchimochi,  N. M. Tubman,  S. P. Veccham,  O. Vydrov,  
 J. Wenzel,  J. Witte,  A. Yamada,  Kun Yao,  S. Yeganeh,  S. R. Yost,  
 A. Zech,  Igor Ying Zhang,  Xing Zhang,  Yu Zhang,  D. Zuev,  
 A. Aspuru-Guzik,  A. T. Bell,  N. A. Besley,  K. B. Bravaya,  B. R. Brooks,  
 D. Casanova,  Jeng-Da Chai,  S. Coriani,  C. J. Cramer,  
 A. E. DePrince, III,  R. A. DiStasio Jr.,  A. Dreuw,  B. D. Dunietz,  
 T. R. Furlani,  W. A. Goddard III,  S. Grimme,  S. Hammes-Schiffer,  
 T. Head-Gordon,  W. J. Hehre,  Chao-Ping Hsu,  T.-C. Jagau,  Yousung Jung,  
 A. Klamt,  Jing Kong,  D. S. Lambrecht,  WanZhen Liang,  N. J. Mayhall,  
 C. W. McCurdy,  J. B. Neaton,  C. Ochsenfeld,  J. A. Parkhill,  R. Peverati,  
 V. A. Rassolov,  Yihan Shao,  L. V. Slipchenko,  T. Stauch,  R. P. Steele,  
 J. E. Subotnik,  A. J. W. Thom,  A. Tkatchenko,  D. G. Truhlar,  
 T. Van Voorhis,  T. A. Wesolowski,  K. B. Whaley,  H. L. Woodcock III,  
 P. M. Zimmerman,  S. Faraji,  P. M. W. Gill,  M. Head-Gordon,  
 J. M. Herbert,  A. I. Krylov

 Contributors to earlier versions of Q-Chem not listed above: 
 R. D. Adamson,  B. Austin,  R. Baer,  J. Baker,  G. J. O. Beran,  
 K. Brandhorst,  S. T. Brown,  E. F. C. Byrd,  A. K. Chakraborty,  
 G. K. L. Chan,  Chun-Min Chang,  Yunqing Chen,  C.-L. Cheng,  
 Siu Hung Chien,  D. M. Chipman,  D. L. Crittenden,  H. Dachsel,  
 R. J. Doerksen,  A. D. Dutoi,  R. G. Edgar,  J. Fosso-Tande,  
 L. Fusti-Molnar,  D. Ghosh,  A. Ghysels,  A. Golubeva-Zadorozhnaya,  
 J. Gonthier,  M. S. Gordon,  S. R. Gwaltney,  G. Hawkins,  J. E. Herr,  
 A. Heyden,  S. Hirata,  E. G. Hohenstein,  G. Kedziora,  F. J. Keil,  
 C. Kelley,  Jihan Kim,  R. A. King,  R. Z. Khaliullin,  P. P. Korambath,  
 W. Kurlancheek,  A. Laurent,  A. M. Lee,  M. S. Lee,  S. V. Levchenko,  
 Ching Yeh Lin,  D. Liotard,  E. Livshits,  R. C. Lochan,  I. Lotan,  
 L. A. Martinez-Martinez,  P. E. Maslen,  N. Nair,  D. P. O'Neill,  
 D. Neuhauser,  E. Neuscamman,  C. M. Oana,  R. Olivares-Amaya,  R. Olson,  
 T. M. Perrine,  B. Peters,  P. A. Pieniazek,  A. Prociuk,  Y. M. Rhee,  
 J. Ritchie,  M. A. Rohrdanz,  E. Rosta,  N. J. Russ,  H. F. Schaefer III,  
 M. W. Schmidt,  N. E. Schultz,  S. Sharma,  N. Shenvi,  C. D. Sherrill,  
 A. C. Simmonett,  A. Sodt,  T. Stein,  D. Stuck,  K. S. Thanthiriwatte,  
 V. Vanovschi,  L. Vogt,  Tao Wang,  A. Warshel,  M. A. Watson,  
 C. F. Williams,  Q. Wu,  X. Xu,  Jun Yang,  W. Zhang,  Yan Zhao

 Please cite Q-Chem as follows:
 Y. Shao et al., Mol. Phys. 113, 184-215 (2015)
 DOI: 10.1080/00268976.2014.952696

 Q-Chem 5.4.0 for Intel X86 EM64T Linux

 Parts of Q-Chem use Armadillo 9.800.1 (Horizon Scraper).
 http://arma.sourceforge.net/

 Q-Chem begins on Tue Jan  9 12:54:24 2024  

 Host: 
0

     Scratch files written to ./qchem2069225//
 May1621 |scratch|qcdevops|jenkins|workspace|build_RNUM    
 Parallel job on  1  processors
 Processing $rem in /cm/shared/apps/spack/cpu/opt/spack/linux-centos8-zen2/gcc-10.2.0/qchem-5.4-akfmr7b3t57bfs6qan3padb2wnb2i7cl/config/preferences:
 Processing $rem in /home/rramji/.qchemrc:
 Symmetry turned off for PCM/SM12/SMD calculation
 Core orbitals will be frozen

 Checking the input file for inconsistencies... 	...done.

 Q-Chem warning in module forms1/BasisType.C, line 2236:

 You are not using the predefined 5D/6D in this basis set.


--------------------------------------------------------------
User input:
--------------------------------------------------------------
$molecule
0 1
C	0.070009	-8.517702	0.313191
C	-0.305494	-7.641575	-0.694746
S	0.614924	-7.638634	1.762350
C	-0.176768	-6.264785	-0.340973
H	-0.669571	-7.966081	-1.677747
C	0.309600	-6.072714	1.000069
C	0.525372	-4.787049	1.520060
C	-0.463825	-5.162801	-1.196466
C	-0.243888	-3.874817	-0.677639
C	0.240312	-3.683952	0.665815
O	-0.941626	-5.499772	-2.426678
O	1.006468	-4.459055	2.755460
C	0.761666	-5.329063	3.853913
H	1.016135	-4.755694	4.765607
H	1.401368	-6.238095	3.822182
H	-0.305161	-5.637262	3.901833
C	-0.868342	-4.572261	-3.502489
H	-1.128551	-5.139743	-4.416005
H	0.154712	-4.153131	-3.613841
H	-1.595605	-3.739531	-3.386756
C	0.369957	-2.306654	1.015430
S	-0.537898	-2.306501	-1.445922
C	-0.000000	-1.435185	-0.000000
H	0.731088	-1.978138	1.998088
C	0.000000	0.000000	0.000000
S	0.783786	0.451972	1.507541
C	2.145261	1.238908	0.718873
C	0.783650	0.451572	-1.067872
C	1.986396	1.148648	-0.686410
S	0.574133	0.327317	-2.805516
C	2.088363	1.207943	-3.054530
C	2.700548	1.564221	-1.862551
F	3.855718	2.236706	-1.819088
C	2.477307	1.430318	-4.456084
O	1.814592	1.038482	-5.406510
O	3.643162	2.112042	-4.569225
C	4.074530	2.355061	-5.916207
H	5.024556	2.911627	-5.833064
H	3.322010	2.951860	-6.470168
H	4.229490	1.400910	-6.459293
H	2.944986	1.702260	1.306486
H	0.914194	-9.143623	0.000738
H	-0.769424	-9.149441	0.626735
H	1.012272	-1.443175	-0.376353
$end

$rem
JOBTYPE		SP
EXCHANGE	HF
CORRELATION	pRIMP2
BASIS		cc-pvtz
METHOD		rimp2
AUX_BASIS	rimp2-cc-pvtz
SOLVENT_METHOD	PCM
PURECART	11111
SYMMETRY	false
MEM_TOTAL	110000
SCF_CONVERGENCE = 6
THRESH=10
GUI = 2
$end



$solvent
dielectric 4.90
$end
--------------------------------------------------------------
 ----------------------------------------------------------------
             Standard Nuclear Orientation (Angstroms)
    I     Atom           X                Y                Z
 ----------------------------------------------------------------
    1      C       0.0700090000    -8.5177020000     0.3131910000
    2      C      -0.3054940000    -7.6415750000    -0.6947460000
    3      S       0.6149240000    -7.6386340000     1.7623500000
    4      C      -0.1767680000    -6.2647850000    -0.3409730000
    5      H      -0.6695710000    -7.9660810000    -1.6777470000
    6      C       0.3096000000    -6.0727140000     1.0000690000
    7      C       0.5253720000    -4.7870490000     1.5200600000
    8      C      -0.4638250000    -5.1628010000    -1.1964660000
    9      C      -0.2438880000    -3.8748170000    -0.6776390000
   10      C       0.2403120000    -3.6839520000     0.6658150000
   11      O      -0.9416260000    -5.4997720000    -2.4266780000
   12      O       1.0064680000    -4.4590550000     2.7554600000
   13      C       0.7616660000    -5.3290630000     3.8539130000
   14      H       1.0161350000    -4.7556940000     4.7656070000
   15      H       1.4013680000    -6.2380950000     3.8221820000
   16      H      -0.3051610000    -5.6372620000     3.9018330000
   17      C      -0.8683420000    -4.5722610000    -3.5024890000
   18      H      -1.1285510000    -5.1397430000    -4.4160050000
   19      H       0.1547120000    -4.1531310000    -3.6138410000
   20      H      -1.5956050000    -3.7395310000    -3.3867560000
   21      C       0.3699570000    -2.3066540000     1.0154300000
   22      S      -0.5378980000    -2.3065010000    -1.4459220000
   23      C       0.0000000000    -1.4351850000     0.0000000000
   24      H       0.7310880000    -1.9781380000     1.9980880000
   25      C       0.0000000000     0.0000000000     0.0000000000
   26      S       0.7837860000     0.4519720000     1.5075410000
   27      C       2.1452610000     1.2389080000     0.7188730000
   28      C       0.7836500000     0.4515720000    -1.0678720000
   29      C       1.9863960000     1.1486480000    -0.6864100000
   30      S       0.5741330000     0.3273170000    -2.8055160000
   31      C       2.0883630000     1.2079430000    -3.0545300000
   32      C       2.7005480000     1.5642210000    -1.8625510000
   33      F       3.8557180000     2.2367060000    -1.8190880000
   34      C       2.4773070000     1.4303180000    -4.4560840000
   35      O       1.8145920000     1.0384820000    -5.4065100000
   36      O       3.6431620000     2.1120420000    -4.5692250000
   37      C       4.0745300000     2.3550610000    -5.9162070000
   38      H       5.0245560000     2.9116270000    -5.8330640000
   39      H       3.3220100000     2.9518600000    -6.4701680000
   40      H       4.2294900000     1.4009100000    -6.4592930000
   41      H       2.9449860000     1.7022600000     1.3064860000
   42      H       0.9141940000    -9.1436230000     0.0007380000
   43      H      -0.7694240000    -9.1494410000     0.6267350000
   44      H       1.0122720000    -1.4431750000    -0.3763530000
 ----------------------------------------------------------------
 Nuclear Repulsion Energy =        3425.61931866 hartrees
 There are      120 alpha and      120 beta electrons
 Requested basis set is cc-pVTZ
 There are 388 shells and 1096 basis functions

 Total QAlloc Memory Limit 110000 MB
 Mega-Array Size       188 MB
 MEM_STATIC part       192 MB
 Discretize the solute cavity surface with Lebedev spheres
	Using 110 Lebedev grid points for each H atom
	Using 194 Lebedev grid points for other atoms
	Atomic van der Waals radii will be scaled by 1.20
 Remove points where switching function is < 1.0e-08
 Keep 2900 surface tesserae and discard 4376 interior tesserae
 Molecular Surface Area = 432.399 Angst**2
 Requested basis set is rimp2-cc-pVTZ
 There are 853 shells and 2963 basis functions
 A cutoff of  1.0D-10 yielded  34463 shell pairs
 There are    258839 function pairs (    334303 Cartesian)
 Smallest overlap matrix eigenvalue = 2.19E-05

 Scale SEOQF with 1.000000e-01/1.000000e-02/1.000000e-02

 Standard Electronic Orientation quadrupole field applied
 Nucleus-field energy     =     0.0000000349 hartrees
 Guess from superposition of atomic densities
 Warning:  Energy on first SCF cycle will be non-variational
 SAD guess density has 240.000000 electrons

 -----------------------------------------------------------------------
  General SCF calculation program by
  Eric Jon Sundstrom, Paul Horn, Yuezhi Mao, Dmitri Zuev, Alec White,
  David Stuck, Shaama M.S., Shane Yost, Joonho Lee, David Small,
  Daniel Levine, Susi Lehtola, Hugh Burton, Evgeny Epifanovsky,
  Bang C. Huynh
 -----------------------------------------------------------------------
 Hartree-Fock
 using 64 threads for integral computing
 -------------------------------------------------------
 OpenMP Integral computing Module                
 Release: version 1.0, May 2013, Q-Chem Inc. Pittsburgh 
 -------------------------------------------------------
 A restricted SCF calculation will be
 performed using DIIS
 SCF converges when DIIS error is below 1.0e-06
 ---------------------------------------
  Cycle       Energy         DIIS error
 ---------------------------------------
    1   -2767.2369264525      1.76e-02  
    2   -2754.8011387485      1.54e-03  
    3   -2755.1530602191      8.64e-04  
    4   -2755.2429210329      2.56e-04  
    5   -2755.2572582829      7.46e-05  
    6   -2755.2589996863      2.78e-05  
    7   -2755.2595107733      1.47e-05  
    8   -2755.2596811483      6.16e-06  
    9   -2755.2597191154      3.08e-06  
   10   -2755.2597279039      1.60e-06  
   11   -2755.2597305814      8.17e-07  Convergence criterion met
 ---------------------------------------
 SCF time:   CPU 7829.75s  wall 286.00s 

************** Final PCM Free Energy Summary **************
 G_electrostatic  =      -0.02234720 hartree =     -14.02308165 kcal/mol
 G_cavitation     =       0.00000000 hartree =       0.00000000 kcal/mol
 G_dispersion     =       0.00000000 hartree =       0.00000000 kcal/mol
 G_repulsion      =       0.00000000 hartree =       0.00000000 kcal/mol
 --------------------------------------------------
 Non-electrostatic Free Energy =       0.00000000 hartree =       0.00000000 kcal/mol
 Total                         =      -0.02234720 hartree =     -14.02308165 kcal/mol
 --------------------------------------------------
 SCF Energy (H0 + V/2)                       =   -2755.25973058 
 Solute Internal Energy (H0)                 =   -2755.23738338 
 Total Free Energy (H0 + V/2 + non-elec)     =   -2755.25973058 hartree
                                             = -1728951.57600471 kcal/mol
***********************************************************

 SCF   energy in the final basis set =    -2755.2597305814
 Total energy in the final basis set =    -2755.2597305814


 --------------------------------------------------------------
  Generalized many-body perturbation theory program
  by Joonho Lee, Fazle Rob, Xintian Feng, Evgeny Epifanovsky

 No regularization used 
 (reg. param. = 0.0000e+00)
  (P|Q)^-1/2 Time:  CPU 139.11 s  wall 2.75 s

 In RI-MP2 calculation: 
 # of frozen core orbitals: 45

 Components of the RIMP2 correlation energy:
        aaaa    correlation energy =        -0.6740841138 a.u.
        abab    correlation energy =        -3.7646913118 a.u.
        bbbb    correlation energy =        -0.6740841138 a.u.
        non-Brillouin singles      =        -0.0000000000 a.u.
        total same-spin energy     =        -1.3481682277 a.u.
        total opposite-spin energy =        -3.7646913118 a.u.

 Total  RIMP2   correlation energy =        -5.1128595394 a.u.
        RIMP2         total energy =     -2760.3725901208 a.u.

 RI-MP2 Energy Time:  CPU 2959.09 s  wall 48.38 s
 
 --------------------------------------------------------------
 
                    Orbital Energies (a.u.)
 --------------------------------------------------------------
 
 Alpha MOs
 -- Occupied --
-92.0164 -92.0089 -91.9714 -91.9554 -26.3460 -20.6163 -20.5865 -20.5838
-20.5627 -11.4114 -11.3858 -11.3309 -11.3136 -11.3078 -11.3023 -11.2995
-11.2906 -11.2899 -11.2824 -11.2822 -11.2810 -11.2805 -11.2785 -11.2715
-11.2685 -11.2555 -11.2514 -11.2468 -11.2299  -9.0161  -9.0087  -8.9744
 -8.9581  -6.6967  -6.6958  -6.6956  -6.6896  -6.6888  -6.6878  -6.6555
 -6.6546  -6.6534  -6.6393  -6.6384  -6.6374  -1.6631  -1.4688  -1.4087
 -1.4068  -1.3716  -1.2477  -1.1996  -1.1720  -1.1424  -1.0989  -1.0510
 -1.0435  -1.0299  -1.0008  -0.9943  -0.9684  -0.9555  -0.9488  -0.9418
 -0.8914  -0.8747  -0.8560  -0.8219  -0.7958  -0.7862  -0.7809  -0.7663
 -0.7581  -0.7365  -0.7281  -0.7128  -0.7027  -0.6933  -0.6863  -0.6820
 -0.6753  -0.6693  -0.6539  -0.6471  -0.6373  -0.6313  -0.6173  -0.6146
 -0.6094  -0.6040  -0.5928  -0.5809  -0.5692  -0.5660  -0.5579  -0.5546
 -0.5451  -0.5336  -0.5297  -0.5224  -0.5162  -0.5101  -0.5065  -0.4974
 -0.4846  -0.4829  -0.4781  -0.4738  -0.4698  -0.4599  -0.4562  -0.4440
 -0.4289  -0.3971  -0.3745  -0.3701  -0.3493  -0.3099  -0.2842  -0.2108
 -- Virtual --
  0.0200   0.0584   0.0730   0.1286   0.1387   0.1438   0.1512   0.1553
  0.1560   0.1605   0.1663   0.1757   0.1793   0.1841   0.1906   0.1951
  0.2010   0.2054   0.2067   0.2091   0.2142   0.2214   0.2242   0.2256
  0.2295   0.2355   0.2454   0.2480   0.2499   0.2593   0.2615   0.2739
  0.2832   0.2992   0.3011   0.3085   0.3192   0.3316   0.3394   0.3417
  0.3470   0.3589   0.3591   0.3676   0.3695   0.3747   0.3823   0.3837
  0.3885   0.3937   0.3995   0.3997   0.4055   0.4096   0.4114   0.4228
  0.4269   0.4299   0.4325   0.4378   0.4415   0.4434   0.4486   0.4538
  0.4551   0.4586   0.4624   0.4701   0.4764   0.4784   0.4825   0.4865
  0.4912   0.4944   0.4976   0.4982   0.5036   0.5090   0.5117   0.5159
  0.5220   0.5260   0.5287   0.5331   0.5376   0.5397   0.5419   0.5468
  0.5491   0.5538   0.5564   0.5585   0.5612   0.5689   0.5773   0.5827
  0.5852   0.5929   0.5959   0.5972   0.6047   0.6083   0.6106   0.6128
  0.6160   0.6175   0.6188   0.6231   0.6253   0.6284   0.6306   0.6335
  0.6397   0.6428   0.6460   0.6518   0.6542   0.6565   0.6596   0.6620
  0.6665   0.6695   0.6796   0.6804   0.6838   0.6914   0.6982   0.7014
  0.7046   0.7119   0.7149   0.7170   0.7208   0.7227   0.7373   0.7385
  0.7436   0.7481   0.7550   0.7595   0.7675   0.7731   0.7801   0.7870
  0.7888   0.7997   0.8040   0.8085   0.8143   0.8205   0.8205   0.8221
  0.8304   0.8373   0.8412   0.8455   0.8546   0.8641   0.8709   0.8726
  0.8808   0.8829   0.8877   0.8930   0.8979   0.9036   0.9057   0.9123
  0.9168   0.9271   0.9320   0.9365   0.9412   0.9447   0.9480   0.9531
  0.9601   0.9629   0.9696   0.9756   0.9819   0.9847   0.9891   0.9918
  0.9988   1.0009   1.0083   1.0113   1.0186   1.0213   1.0227   1.0307
  1.0334   1.0381   1.0489   1.0529   1.0555   1.0635   1.0676   1.0717
  1.0756   1.0797   1.0865   1.0883   1.0924   1.1025   1.1031   1.1071
  1.1106   1.1152   1.1179   1.1260   1.1311   1.1384   1.1418   1.1543
  1.1594   1.1616   1.1672   1.1719   1.1752   1.1784   1.1855   1.1862
  1.1896   1.1926   1.1947   1.2083   1.2113   1.2123   1.2170   1.2197
  1.2270   1.2361   1.2408   1.2440   1.2465   1.2494   1.2542   1.2557
  1.2603   1.2660   1.2737   1.2776   1.2825   1.2868   1.2923   1.2943
  1.3020   1.3072   1.3116   1.3138   1.3273   1.3324   1.3357   1.3429
  1.3497   1.3552   1.3611   1.3678   1.3735   1.3896   1.3925   1.3956
  1.4068   1.4081   1.4100   1.4181   1.4274   1.4384   1.4441   1.4517
  1.4622   1.4654   1.4706   1.4841   1.4882   1.4908   1.4947   1.5027
  1.5055   1.5076   1.5125   1.5251   1.5260   1.5352   1.5380   1.5392
  1.5416   1.5460   1.5475   1.5531   1.5641   1.5689   1.5708   1.5772
  1.5833   1.5957   1.5982   1.6098   1.6183   1.6211   1.6335   1.6394
  1.6440   1.6460   1.6554   1.6601   1.6640   1.6726   1.6823   1.6877
  1.6895   1.6924   1.7063   1.7152   1.7201   1.7291   1.7326   1.7362
  1.7493   1.7564   1.7648   1.7718   1.7854   1.7910   1.8072   1.8100
  1.8134   1.8188   1.8263   1.8394   1.8414   1.8612   1.8696   1.8746
  1.8880   1.8939   1.8990   1.9072   1.9108   1.9291   1.9346   1.9462
  1.9509   1.9577   1.9662   1.9724   1.9787   1.9919   2.0020   2.0109
  2.0146   2.0167   2.0271   2.0356   2.0386   2.0466   2.0503   2.0563
  2.0688   2.0783   2.0835   2.0873   2.1003   2.1140   2.1216   2.1313
  2.1470   2.1505   2.1590   2.1647   2.1703   2.1848   2.1867   2.1919
  2.1942   2.2051   2.2122   2.2203   2.2251   2.2347   2.2370   2.2445
  2.2497   2.2551   2.2618   2.2666   2.2764   2.2827   2.2911   2.2980
  2.3031   2.3111   2.3306   2.3328   2.3368   2.3498   2.3560   2.3584
  2.3701   2.3761   2.3908   2.3975   2.4040   2.4107   2.4183   2.4195
  2.4297   2.4317   2.4462   2.4614   2.4738   2.4821   2.4857   2.4924
  2.4955   2.5150   2.5159   2.5346   2.5395   2.5415   2.5512   2.5550
  2.5694   2.5704   2.5780   2.6044   2.6112   2.6132   2.6225   2.6310
  2.6378   2.6400   2.6431   2.6452   2.6514   2.6590   2.6661   2.6717
  2.6773   2.6864   2.6905   2.6929   2.7046   2.7067   2.7095   2.7187
  2.7312   2.7326   2.7416   2.7513   2.7629   2.7650   2.7698   2.7800
  2.7853   2.7923   2.7945   2.8022   2.8117   2.8146   2.8226   2.8401
  2.8425   2.8439   2.8495   2.8543   2.8613   2.8684   2.8749   2.8808
  2.8846   2.8917   2.9021   2.9099   2.9121   2.9247   2.9370   2.9497
  2.9540   2.9587   2.9615   2.9736   2.9808   2.9848   2.9881   2.9923
  3.0033   3.0117   3.0198   3.0226   3.0356   3.0378   3.0459   3.0480
  3.0538   3.0643   3.0703   3.0779   3.0921   3.0926   3.0985   3.1006
  3.1096   3.1135   3.1199   3.1216   3.1293   3.1371   3.1439   3.1469
  3.1519   3.1556   3.1575   3.1666   3.1706   3.1771   3.1791   3.1885
  3.1907   3.1941   3.2025   3.2058   3.2135   3.2175   3.2234   3.2260
  3.2306   3.2430   3.2437   3.2441   3.2544   3.2578   3.2645   3.2670
  3.2719   3.2748   3.2769   3.2871   3.2915   3.2947   3.2973   3.3048
  3.3125   3.3140   3.3211   3.3230   3.3265   3.3348   3.3420   3.3472
  3.3481   3.3538   3.3563   3.3602   3.3649   3.3704   3.3725   3.3762
  3.3806   3.3840   3.3856   3.3949   3.3991   3.4011   3.4060   3.4078
  3.4098   3.4180   3.4245   3.4268   3.4338   3.4355   3.4422   3.4508
  3.4548   3.4570   3.4647   3.4677   3.4706   3.4742   3.4808   3.4813
  3.4832   3.4933   3.4990   3.4998   3.5051   3.5237   3.5244   3.5367
  3.5427   3.5438   3.5539   3.5599   3.5653   3.5692   3.5718   3.5813
  3.5828   3.5923   3.5962   3.5983   3.6005   3.6034   3.6072   3.6150
  3.6225   3.6275   3.6304   3.6359   3.6393   3.6453   3.6523   3.6562
  3.6630   3.6654   3.6773   3.6789   3.6815   3.6860   3.6982   3.7013
  3.7047   3.7065   3.7154   3.7196   3.7284   3.7299   3.7381   3.7398
  3.7440   3.7518   3.7643   3.7677   3.7725   3.7782   3.7806   3.7834
  3.7885   3.7943   3.7984   3.8034   3.8116   3.8137   3.8155   3.8241
  3.8260   3.8288   3.8403   3.8501   3.8514   3.8622   3.8648   3.8670
  3.8685   3.8805   3.8848   3.8890   3.8940   3.8994   3.9063   3.9109
  3.9204   3.9277   3.9350   3.9462   3.9489   3.9503   3.9599   3.9680
  3.9688   3.9710   3.9859   3.9958   4.0033   4.0106   4.0172   4.0180
  4.0261   4.0334   4.0414   4.0572   4.0614   4.0666   4.0682   4.0721
  4.0825   4.0909   4.0935   4.1007   4.1152   4.1187   4.1272   4.1358
  4.1436   4.1514   4.1603   4.1608   4.1636   4.1656   4.1693   4.1783
  4.1795   4.1862   4.2033   4.2089   4.2180   4.2191   4.2302   4.2425
  4.2466   4.2528   4.2581   4.2723   4.2805   4.2914   4.2947   4.3187
  4.3241   4.3330   4.3397   4.3409   4.3554   4.3578   4.3616   4.3627
  4.3701   4.3766   4.3823   4.3976   4.4095   4.4119   4.4190   4.4218
  4.4261   4.4304   4.4329   4.4353   4.4405   4.4503   4.4613   4.4665
  4.4702   4.4886   4.5039   4.5068   4.5133   4.5209   4.5238   4.5337
  4.5428   4.5567   4.5668   4.5705   4.5751   4.5806   4.5867   4.5969
  4.6122   4.6188   4.6242   4.6333   4.6438   4.6508   4.6522   4.6564
  4.6596   4.6704   4.6854   4.6911   4.7145   4.7210   4.7325   4.7386
  4.7482   4.7554   4.7609   4.7752   4.7821   4.7933   4.8087   4.8227
  4.8259   4.8329   4.8407   4.8555   4.8639   4.8752   4.8833   4.8978
  4.9029   4.9238   4.9373   4.9468   4.9537   4.9635   4.9690   4.9785
  5.0016   5.0068   5.0082   5.0196   5.0294   5.0360   5.0422   5.0487
  5.0668   5.0891   5.0979   5.1158   5.1243   5.1473   5.1633   5.1667
  5.1795   5.1978   5.1998   5.2103   5.2203   5.2278   5.2374   5.2502
  5.2539   5.2563   5.2720   5.2932   5.2968   5.3150   5.3178   5.3296
  5.3393   5.3515   5.3558   5.3624   5.3717   5.3886   5.3958   5.4044
  5.4105   5.4252   5.4291   5.4409   5.4466   5.4572   5.4842   5.5058
  5.5118   5.5157   5.5226   5.5338   5.5678   5.5747   5.5803   5.5897
  5.5983   5.6130   5.6203   5.6376   5.6461   5.6576   5.6781   5.6950
  5.7225   5.7362   5.7466   5.7590   5.7708   5.8062   5.8157   5.8433
  5.8619   5.8785   5.8990   5.9145   5.9278   5.9633   5.9825   6.0339
  6.0379   6.0510   6.0596   6.1246   6.1494   6.1503   6.1695   6.1783
  6.1824   6.1835   6.2252   6.2384   6.2515   6.2602   6.2713   6.2766
  6.2887   6.2987   6.3563   6.3729   6.4485   6.4487   6.5148   6.5382
  6.5495   6.5775   6.5987   6.6482   6.6614   6.6698   6.7243   6.7446
  6.8123   6.8287   6.8582   6.8615   6.9025   6.9769   7.1343   7.1496
  7.2026   7.2038   7.2252   7.2413   7.3086   7.3299   7.3455   7.3606
  7.3617   7.4036   7.4119   7.4831   7.4907   7.4980   7.5177   7.5491
  7.6149   7.7475   7.7704   7.7883   7.8050   7.8978   7.9283   7.9589
  7.9723   8.1319   8.3178   8.4624   8.9198   9.0318   9.3607   9.4874
  9.6735  10.2858  11.2617  11.4513  11.7746  12.1116  12.1274  12.3535
 12.4670  12.5038  12.9512  12.9820  13.0383  13.3581  13.3983  13.4914
 13.7934  13.8609  13.9259  13.9962  14.0706  14.3254  14.9336  15.2140
 --------------------------------------------------------------
 
          Ground-State Mulliken Net Atomic Charges

     Atom                 Charge (a.u.)
  ----------------------------------------
      1 C                    -0.068752
      2 C                    -0.279680
      3 S                    -0.143312
      4 C                    -0.039665
      5 H                     0.191019
      6 C                    -0.052691
      7 C                     0.223696
      8 C                     0.216111
      9 C                    -0.059820
     10 C                    -0.053148
     11 O                    -0.335899
     12 O                    -0.345116
     13 C                    -0.082808
     14 H                     0.119029
     15 H                     0.092344
     16 H                     0.092985
     17 C                    -0.087342
     18 H                     0.122675
     19 H                     0.091205
     20 H                     0.089918
     21 C                    -0.265339
     22 S                    -0.104588
     23 C                     0.077188
     24 H                     0.200115
     25 C                    -0.159632
     26 S                     0.107620
     27 C                    -0.150054
     28 C                     0.069940
     29 C                    -0.127518
     30 S                     0.063403
     31 C                    -0.159616
     32 C                     0.400797
     33 F                    -0.205505
     34 C                     0.449049
     35 O                    -0.461612
     36 O                    -0.301038
     37 C                    -0.058259
     38 H                     0.121716
     39 H                     0.095411
     40 H                     0.095348
     41 H                     0.221927
     42 H                     0.114591
     43 H                     0.112290
     44 H                     0.173020
  ----------------------------------------
  Sum of atomic charges =     0.000000

 -----------------------------------------------------------------
                    Cartesian Multipole Moments
 -----------------------------------------------------------------
    Charge (ESU x 10^10)
                -0.0000
    Dipole Moment (Debye)
         X       3.9332      Y       3.3719      Z       2.3270
       Tot       5.6793
    Quadrupole Moments (Debye-Ang)
        XX    -188.9778     XY       9.0166     YY    -197.7392
        XZ      -6.1494     YZ      -0.2643     ZZ    -185.3719
    Octopole Moments (Debye-Ang^2)
       XXX    -449.7815    XXY     500.4023    XYY    -165.1624
       YYY    1288.9334    XXZ     106.2127    XYZ     -26.1523
       YYZ     114.1395    XZZ     -84.6333    YZZ     437.9157
       ZZZ     500.8686
    Hexadecapole Moments (Debye-Ang^3)
      XXXX   -2944.9350   XXXY    -532.1272   XXYY   -3987.2694
      XYYY    -478.3642   YYYY  -18815.3684   XXXZ     819.8641
      XXYZ     337.5991   XYYZ     260.8024   YYYZ    1545.5956
      XXZZ   -1313.1105   XYZZ      69.8657   YYZZ   -4246.8043
      XZZZ     649.5492   YZZZ    1044.3814   ZZZZ   -7318.9132
 -----------------------------------------------------------------
 Total job time:  339.59s(wall), 10891.71s(cpu) 
 Tue Jan  9 13:00:03 2024

        *************************************************************
        *                                                           *
        *  Thank you very much for using Q-Chem.  Have a nice day.  *
        *                                                           *
        *************************************************************


0 sent ACK to 0 
now end server 0 ... 
cleanup process ... done
remove work dirs ./qchem2069225.0 -- ./qchem2069225.0
rm -rf ./qchem2069225.0
rm -rf ./qchem2069225
