You are running Q-Chem version: 5.4.0

#
# job setting
#
local host:  exp-14-16
current dir: /home/rramji/project-csd799/aromodel/ptb7fout-qchem/hydrogenated-rotation-run
input file:  Dimethoxy_Benzodithiophene_Phi_30_Theta_10_Methylcarbonyl_3_Fluoro_Thienothiophene_Hydrogenated.qcin
output file: 
nprocs     : 1
nthreads   : 64
#
# qchem installation setting
#
QC:          /cm/shared/apps/spack/cpu/opt/spack/linux-centos8-zen2/gcc-10.2.0/qchem-5.4-akfmr7b3t57bfs6qan3padb2wnb2i7cl
QCAUX:       /cm/shared/apps/spack/cpu/opt/spack/linux-centos8-zen2/gcc-10.2.0/qchem-5.4-akfmr7b3t57bfs6qan3padb2wnb2i7cl/qcaux
QCPROG:      /cm/shared/apps/spack/cpu/opt/spack/linux-centos8-zen2/gcc-10.2.0/qchem-5.4-akfmr7b3t57bfs6qan3padb2wnb2i7cl/exe/qcprog.exe
QCPROG_S:    /cm/shared/apps/spack/cpu/opt/spack/linux-centos8-zen2/gcc-10.2.0/qchem-5.4-akfmr7b3t57bfs6qan3padb2wnb2i7cl/exe/qcprog.exe_s
PARALLEL:    -DPARALLEL
QCMPI:       mpich
#
# qchem directory setting
#
qcrun:       qchem1483020
QCSCRATCH:   .
QCLOCALSCR:  
QCTMPDIR:    .
QCFILEPREF:  ./qchem1483020
QCSAVEDIR:   
workdirs:    ./qchem1483020
workdir0:    ./qchem1483020
partmpdirs =  
#
# parallel setting
#
QCRSH:           ssh
QCMPI:           mpich
QCMPIRUN:        /cm/shared/apps/spack/cpu/opt/spack/linux-centos8-zen2/gcc-10.2.0/qchem-5.4-akfmr7b3t57bfs6qan3padb2wnb2i7cl/bin/mpi/mpirun_qchem
QCMACHINEFILE:   ./qchem1483020/hostfile
exp-14-16

#
# env setting
#
exported envs:   QC QCAUX QCSCRATCH QCRUNNAME QCFILEPREF QCPROG QCPROG_S GUIFILE

Running Job 1 of 1 Dimethoxy_Benzodithiophene_Phi_30_Theta_10_Methylcarbonyl_3_Fluoro_Thienothiophene_Hydrogenated.qcin
qchem Dimethoxy_Benzodithiophene_Phi_30_Theta_10_Methylcarbonyl_3_Fluoro_Thienothiophene_Hydrogenated.qcin_1483020.0 ./qchem1483020/ 1
/cm/shared/apps/spack/cpu/opt/spack/linux-centos8-zen2/gcc-10.2.0/qchem-5.4-akfmr7b3t57bfs6qan3padb2wnb2i7cl/bin/mpi/mpirun_qchem -machinefile ./qchem1483020/hostfile -np 1 /cm/shared/apps/spack/cpu/opt/spack/linux-centos8-zen2/gcc-10.2.0/qchem-5.4-akfmr7b3t57bfs6qan3padb2wnb2i7cl/exe/qcprog.exe Dimethoxy_Benzodithiophene_Phi_30_Theta_10_Methylcarbonyl_3_Fluoro_Thienothiophene_Hydrogenated.qcin_1483020.0 ./qchem1483020/

Process 0 of 1 is on exp-14-16 - thread support 0
initial socket setup ...start
initial socket setup ...done 
now start server 0 ... 
                  Welcome to Q-Chem
     A Quantum Leap Into The Future Of Chemistry


 Q-Chem 5.4, Q-Chem, Inc., Pleasanton, CA (2021)

 License issued to: University of California, San Diego (site)

 E. Epifanovsky,  A. T. B. Gilbert,  Xintian Feng,  Joonho Lee,  Yuezhi Mao,  
 N. Mardirossian,  P. Pokhilko,  A. White,  M. Wormit,  M. P. Coons,  
 A. L. Dempwolff,  Zhengting Gan,  D. Hait,  P. R. Horn,  L. D. Jacobson,  
 I. Kaliman,  J. Kussmann,  A. W. Lange,  Ka Un Lao,  D. S. Levine,  Jie Liu,  
 S. C. McKenzie,  A. F. Morrison,  K. Nanda,  F. Plasser,  D. R. Rehn,  
 M. L. Vidal,  Zhi-Qiang You,  Ying Zhu,  B. Alam,  B. Albrecht,  
 A. Aldossary,  E. Alguire,  J. H. Andersen,  D. Barton,  K. Begam,  A. Behn,  
 Y. A. Bernard,  E. J. Berquist,  H. Burton,  A. Carreras,  K. Carter-Fenk,  
 R. Chakraborty,  A. D. Chien,  K. D. Closser,  V. Cofer-Shabica,  
 S. Dasgupta,  Jia Deng,  M. de Wergifosse,  M. Diedenhofen,  Hainam Do,  
 S. Ehlert,  Po-Tung Fang,  S. Fatehi,  Qingguo Feng,  J. Gayvert,  
 Qinghui Ge,  G. Gidofalvi,  M. Goldey,  J. Gomes,  C. Gonzalez-Espinoza,  
 S. Gulania,  A. Gunina,  M. W. D. Hanson-Heine,  P. H. P. Harbach,  
 A. W. Hauser,  M. F. Herbst,  M. Hernandez Vera,  M. Hodecker,  
 Z. C. Holden,  S. Houck,  Xunkun Huang,  Kerwin Hui,  B. C. Huynh,  
 M. Ivanov,  Hyunjun Ji,  Hanjie Jiang,  B. Kaduk,  S. Kaehler,  
 K. Khistyaev,  Jaehoon Kim,  P. Klunzinger,  Z. Koczor-Benda,  
 Joong Hoon Koh,  D. Kosenkov,  L. Koulias,  T. Kowalczyk,  C. M. Krauter,  
 K. Kue,  A. Kunitsa,  T. Kus,  A. Landau,  K. V. Lawler,  D. Lefrancois,  
 S. Lehtola,  Rain Li,  Yi-Pei Li,  Jiashu Liang,  M. Liebenthal,  
 Hung-Hsuan Lin,  You-Sheng Lin,  Fenglai Liu,  Kuan-Yu Liu,  
 M. Loipersberger,  A. Luenser,  A. Manjanath,  P. Manohar,  E. Mansoor,  
 S. F. Manzer,  Shan-Ping Mao,  A. V. Marenich,  T. Markovich,  S. Mason,  
 S. A. Maurer,  P. F. McLaughlin,  M. F. S. J. Menger,  J.-M. Mewes,  
 S. A. Mewes,  P. Morgante,  J. W. Mullinax,  T. S. Nguyen-Beck,  
 K. J. Oosterbaan,  G. Paran,  Alexander C. Paul,  Suranjan K. Paul,  
 F. Pavosevic,  Zheng Pei,  S. Prager,  E. I. Proynov,  E. Ramos,  B. Rana,  
 A. E. Rask,  A. Rettig,  R. M. Richard,  F. Rob,  E. Rossomme,  T. Scheele,  
 M. Scheurer,  M. Schneider,  N. Sergueev,  S. M. Sharada,  W. Skomorowski,  
 D. W. Small,  C. J. Stein,  Yu-Chuan Su,  E. J. Sundstrom,  Zhen Tao,  
 J. Thirman,  T. Tsuchimochi,  N. M. Tubman,  S. P. Veccham,  O. Vydrov,  
 J. Wenzel,  J. Witte,  A. Yamada,  Kun Yao,  S. Yeganeh,  S. R. Yost,  
 A. Zech,  Igor Ying Zhang,  Xing Zhang,  Yu Zhang,  D. Zuev,  
 A. Aspuru-Guzik,  A. T. Bell,  N. A. Besley,  K. B. Bravaya,  B. R. Brooks,  
 D. Casanova,  Jeng-Da Chai,  S. Coriani,  C. J. Cramer,  
 A. E. DePrince, III,  R. A. DiStasio Jr.,  A. Dreuw,  B. D. Dunietz,  
 T. R. Furlani,  W. A. Goddard III,  S. Grimme,  S. Hammes-Schiffer,  
 T. Head-Gordon,  W. J. Hehre,  Chao-Ping Hsu,  T.-C. Jagau,  Yousung Jung,  
 A. Klamt,  Jing Kong,  D. S. Lambrecht,  WanZhen Liang,  N. J. Mayhall,  
 C. W. McCurdy,  J. B. Neaton,  C. Ochsenfeld,  J. A. Parkhill,  R. Peverati,  
 V. A. Rassolov,  Yihan Shao,  L. V. Slipchenko,  T. Stauch,  R. P. Steele,  
 J. E. Subotnik,  A. J. W. Thom,  A. Tkatchenko,  D. G. Truhlar,  
 T. Van Voorhis,  T. A. Wesolowski,  K. B. Whaley,  H. L. Woodcock III,  
 P. M. Zimmerman,  S. Faraji,  P. M. W. Gill,  M. Head-Gordon,  
 J. M. Herbert,  A. I. Krylov

 Contributors to earlier versions of Q-Chem not listed above: 
 R. D. Adamson,  B. Austin,  R. Baer,  J. Baker,  G. J. O. Beran,  
 K. Brandhorst,  S. T. Brown,  E. F. C. Byrd,  A. K. Chakraborty,  
 G. K. L. Chan,  Chun-Min Chang,  Yunqing Chen,  C.-L. Cheng,  
 Siu Hung Chien,  D. M. Chipman,  D. L. Crittenden,  H. Dachsel,  
 R. J. Doerksen,  A. D. Dutoi,  R. G. Edgar,  J. Fosso-Tande,  
 L. Fusti-Molnar,  D. Ghosh,  A. Ghysels,  A. Golubeva-Zadorozhnaya,  
 J. Gonthier,  M. S. Gordon,  S. R. Gwaltney,  G. Hawkins,  J. E. Herr,  
 A. Heyden,  S. Hirata,  E. G. Hohenstein,  G. Kedziora,  F. J. Keil,  
 C. Kelley,  Jihan Kim,  R. A. King,  R. Z. Khaliullin,  P. P. Korambath,  
 W. Kurlancheek,  A. Laurent,  A. M. Lee,  M. S. Lee,  S. V. Levchenko,  
 Ching Yeh Lin,  D. Liotard,  E. Livshits,  R. C. Lochan,  I. Lotan,  
 L. A. Martinez-Martinez,  P. E. Maslen,  N. Nair,  D. P. O'Neill,  
 D. Neuhauser,  E. Neuscamman,  C. M. Oana,  R. Olivares-Amaya,  R. Olson,  
 T. M. Perrine,  B. Peters,  P. A. Pieniazek,  A. Prociuk,  Y. M. Rhee,  
 J. Ritchie,  M. A. Rohrdanz,  E. Rosta,  N. J. Russ,  H. F. Schaefer III,  
 M. W. Schmidt,  N. E. Schultz,  S. Sharma,  N. Shenvi,  C. D. Sherrill,  
 A. C. Simmonett,  A. Sodt,  T. Stein,  D. Stuck,  K. S. Thanthiriwatte,  
 V. Vanovschi,  L. Vogt,  Tao Wang,  A. Warshel,  M. A. Watson,  
 C. F. Williams,  Q. Wu,  X. Xu,  Jun Yang,  W. Zhang,  Yan Zhao

 Please cite Q-Chem as follows:
 Y. Shao et al., Mol. Phys. 113, 184-215 (2015)
 DOI: 10.1080/00268976.2014.952696

 Q-Chem 5.4.0 for Intel X86 EM64T Linux

 Parts of Q-Chem use Armadillo 9.800.1 (Horizon Scraper).
 http://arma.sourceforge.net/

 Q-Chem begins on Tue Jan  9 09:48:53 2024  

 Host: 
0

     Scratch files written to ./qchem1483020//
 May1621 |scratch|qcdevops|jenkins|workspace|build_RNUM    
 Parallel job on  1  processors
 Processing $rem in /cm/shared/apps/spack/cpu/opt/spack/linux-centos8-zen2/gcc-10.2.0/qchem-5.4-akfmr7b3t57bfs6qan3padb2wnb2i7cl/config/preferences:
 Processing $rem in /home/rramji/.qchemrc:
 Symmetry turned off for PCM/SM12/SMD calculation
 Core orbitals will be frozen

 Checking the input file for inconsistencies... 	...done.

 Q-Chem warning in module forms1/BasisType.C, line 2236:

 You are not using the predefined 5D/6D in this basis set.


--------------------------------------------------------------
User input:
--------------------------------------------------------------
$molecule
0 1
C	-0.095966	-8.517702	0.306235
C	0.082807	-7.641575	-0.754415
S	-0.348635	-7.638634	1.833702
C	0.017401	-6.264785	-0.383675
H	0.259008	-7.966081	-1.787757
C	-0.231913	-6.072714	1.020885
C	-0.305044	-4.787049	1.579097
C	0.196549	-5.162801	-1.268082
C	0.127606	-3.874817	-0.708796
C	-0.124792	-3.683952	0.696769
O	0.397867	-5.499772	-2.572378
O	-0.506103	-4.459055	2.889532
C	-1.267335	-5.329063	3.718420
H	-1.502804	-4.755694	4.635204
H	-0.697471	-6.238095	4.010790
H	-2.215194	-5.637262	3.226506
C	0.999238	-4.572261	-3.467415
H	1.230649	-5.139743	-4.388648
H	1.940905	-4.153131	-3.052323
H	0.311543	-3.739531	-3.730819
C	-0.187323	-2.306654	1.064366
S	0.257128	-2.306501	-1.521154
C	0.000000	-1.435185	0.000000
H	-0.365903	-1.978138	2.095939
C	0.000000	0.000000	0.000000
S	0.452792	0.783312	1.507541
C	1.238397	2.145556	0.718873
C	0.452875	0.782898	-1.067872
C	1.145945	1.987956	-0.686410
S	0.333556	0.570531	-2.805516
C	1.204604	2.090290	-3.054530
C	1.556633	2.704929	-1.862551
F	2.220797	3.864903	-1.819088
C	1.430252	2.477345	-4.456084
O	1.052242	1.806648	-5.406510
O	2.099050	3.650663	-4.569225
C	2.351116	4.076808	-5.916207
H	2.895579	5.033821	-5.833064
H	1.401015	4.217390	-6.470168
H	2.962391	3.327969	-6.459293
H	1.699302	2.946693	1.306486
H	0.791346	-9.143623	0.457736
H	-0.979708	-9.149441	0.158056
H	1.064830	-1.443175	0.180205
$end

$rem
JOBTYPE		SP
EXCHANGE	HF
CORRELATION	pRIMP2
BASIS		cc-pvtz
METHOD		rimp2
AUX_BASIS	rimp2-cc-pvtz
SOLVENT_METHOD	PCM
PURECART	11111
SYMMETRY	false
MEM_TOTAL	110000
SCF_CONVERGENCE = 6
THRESH=10
GUI = 2
$end



$solvent
dielectric 4.90
$end
--------------------------------------------------------------
 ----------------------------------------------------------------
             Standard Nuclear Orientation (Angstroms)
    I     Atom           X                Y                Z
 ----------------------------------------------------------------
    1      C      -0.0959660000    -8.5177020000     0.3062350000
    2      C       0.0828070000    -7.6415750000    -0.7544150000
    3      S      -0.3486350000    -7.6386340000     1.8337020000
    4      C       0.0174010000    -6.2647850000    -0.3836750000
    5      H       0.2590080000    -7.9660810000    -1.7877570000
    6      C      -0.2319130000    -6.0727140000     1.0208850000
    7      C      -0.3050440000    -4.7870490000     1.5790970000
    8      C       0.1965490000    -5.1628010000    -1.2680820000
    9      C       0.1276060000    -3.8748170000    -0.7087960000
   10      C      -0.1247920000    -3.6839520000     0.6967690000
   11      O       0.3978670000    -5.4997720000    -2.5723780000
   12      O      -0.5061030000    -4.4590550000     2.8895320000
   13      C      -1.2673350000    -5.3290630000     3.7184200000
   14      H      -1.5028040000    -4.7556940000     4.6352040000
   15      H      -0.6974710000    -6.2380950000     4.0107900000
   16      H      -2.2151940000    -5.6372620000     3.2265060000
   17      C       0.9992380000    -4.5722610000    -3.4674150000
   18      H       1.2306490000    -5.1397430000    -4.3886480000
   19      H       1.9409050000    -4.1531310000    -3.0523230000
   20      H       0.3115430000    -3.7395310000    -3.7308190000
   21      C      -0.1873230000    -2.3066540000     1.0643660000
   22      S       0.2571280000    -2.3065010000    -1.5211540000
   23      C       0.0000000000    -1.4351850000     0.0000000000
   24      H      -0.3659030000    -1.9781380000     2.0959390000
   25      C       0.0000000000     0.0000000000     0.0000000000
   26      S       0.4527920000     0.7833120000     1.5075410000
   27      C       1.2383970000     2.1455560000     0.7188730000
   28      C       0.4528750000     0.7828980000    -1.0678720000
   29      C       1.1459450000     1.9879560000    -0.6864100000
   30      S       0.3335560000     0.5705310000    -2.8055160000
   31      C       1.2046040000     2.0902900000    -3.0545300000
   32      C       1.5566330000     2.7049290000    -1.8625510000
   33      F       2.2207970000     3.8649030000    -1.8190880000
   34      C       1.4302520000     2.4773450000    -4.4560840000
   35      O       1.0522420000     1.8066480000    -5.4065100000
   36      O       2.0990500000     3.6506630000    -4.5692250000
   37      C       2.3511160000     4.0768080000    -5.9162070000
   38      H       2.8955790000     5.0338210000    -5.8330640000
   39      H       1.4010150000     4.2173900000    -6.4701680000
   40      H       2.9623910000     3.3279690000    -6.4592930000
   41      H       1.6993020000     2.9466930000     1.3064860000
   42      H       0.7913460000    -9.1436230000     0.4577360000
   43      H      -0.9797080000    -9.1494410000     0.1580560000
   44      H       1.0648300000    -1.4431750000     0.1802050000
 ----------------------------------------------------------------
 Nuclear Repulsion Energy =        3369.20598981 hartrees
 There are      120 alpha and      120 beta electrons
 Requested basis set is cc-pVTZ
 There are 388 shells and 1096 basis functions

 Total QAlloc Memory Limit 110000 MB
 Mega-Array Size       188 MB
 MEM_STATIC part       192 MB
 Discretize the solute cavity surface with Lebedev spheres
	Using 110 Lebedev grid points for each H atom
	Using 194 Lebedev grid points for other atoms
	Atomic van der Waals radii will be scaled by 1.20
 Remove points where switching function is < 1.0e-08
 Keep 2957 surface tesserae and discard 4319 interior tesserae
 Molecular Surface Area = 435.419 Angst**2
 Requested basis set is rimp2-cc-pVTZ
 There are 853 shells and 2963 basis functions
 A cutoff of  1.0D-10 yielded  33454 shell pairs
 There are    252370 function pairs (    326379 Cartesian)
 Smallest overlap matrix eigenvalue = 2.14E-05

 Scale SEOQF with 1.000000e-01/1.000000e-02/1.000000e-02

 Standard Electronic Orientation quadrupole field applied
 Nucleus-field energy     =     0.0000000229 hartrees
 Guess from superposition of atomic densities
 Warning:  Energy on first SCF cycle will be non-variational
 SAD guess density has 240.000000 electrons

 -----------------------------------------------------------------------
  General SCF calculation program by
  Eric Jon Sundstrom, Paul Horn, Yuezhi Mao, Dmitri Zuev, Alec White,
  David Stuck, Shaama M.S., Shane Yost, Joonho Lee, David Small,
  Daniel Levine, Susi Lehtola, Hugh Burton, Evgeny Epifanovsky,
  Bang C. Huynh
 -----------------------------------------------------------------------
 Hartree-Fock
 using 64 threads for integral computing
 -------------------------------------------------------
 OpenMP Integral computing Module                
 Release: version 1.0, May 2013, Q-Chem Inc. Pittsburgh 
 -------------------------------------------------------
 A restricted SCF calculation will be
 performed using DIIS
 SCF converges when DIIS error is below 1.0e-06
 ---------------------------------------
  Cycle       Energy         DIIS error
 ---------------------------------------
    1   -2767.0798147154      1.75e-02  
    2   -2754.8753567012      1.53e-03  
    3   -2755.2243436982      8.53e-04  
    4   -2755.3110463538      2.56e-04  
    5   -2755.3248634833      7.41e-05  
    6   -2755.3264562151      2.65e-05  
    7   -2755.3268844233      1.37e-05  
    8   -2755.3270202738      5.64e-06  
    9   -2755.3270504329      2.89e-06  
   10   -2755.3270576463      1.50e-06  
   11   -2755.3270601612      8.16e-07  Convergence criterion met
 ---------------------------------------
 SCF time:   CPU 7761.00s  wall 291.00s 

************** Final PCM Free Energy Summary **************
 G_electrostatic  =      -0.02044032 hartree =     -12.82649268 kcal/mol
 G_cavitation     =       0.00000000 hartree =       0.00000000 kcal/mol
 G_dispersion     =       0.00000000 hartree =       0.00000000 kcal/mol
 G_repulsion      =       0.00000000 hartree =       0.00000000 kcal/mol
 --------------------------------------------------
 Non-electrostatic Free Energy =       0.00000000 hartree =       0.00000000 kcal/mol
 Total                         =      -0.02044032 hartree =     -12.82649268 kcal/mol
 --------------------------------------------------
 SCF Energy (H0 + V/2)                       =   -2755.32706016 
 Solute Internal Energy (H0)                 =   -2755.30661984 
 Total Free Energy (H0 + V/2 + non-elec)     =   -2755.32706016 hartree
                                             = -1728993.82595373 kcal/mol
***********************************************************

 SCF   energy in the final basis set =    -2755.3270601612
 Total energy in the final basis set =    -2755.3270601612


 --------------------------------------------------------------
  Generalized many-body perturbation theory program
  by Joonho Lee, Fazle Rob, Xintian Feng, Evgeny Epifanovsky

 No regularization used 
 (reg. param. = 0.0000e+00)
  (P|Q)^-1/2 Time:  CPU 203.72 s  wall 3.21 s

 In RI-MP2 calculation: 
 # of frozen core orbitals: 45

 Components of the RIMP2 correlation energy:
        aaaa    correlation energy =        -0.6702428516 a.u.
        abab    correlation energy =        -3.7552317264 a.u.
        bbbb    correlation energy =        -0.6702428516 a.u.
        non-Brillouin singles      =        -0.0000000000 a.u.
        total same-spin energy     =        -1.3404857032 a.u.
        total opposite-spin energy =        -3.7552317264 a.u.

 Total  RIMP2   correlation energy =        -5.0957174296 a.u.
        RIMP2         total energy =     -2760.4227775908 a.u.

 RI-MP2 Energy Time:  CPU 2916.73 s  wall 48.41 s
 
 --------------------------------------------------------------
 
                    Orbital Energies (a.u.)
 --------------------------------------------------------------
 
 Alpha MOs
 -- Occupied --
-92.0116 -91.9951 -91.9783 -91.9597 -26.3423 -20.6148 -20.5881 -20.5879
-20.5614 -11.4093 -11.3808 -11.3102 -11.3097 -11.3066 -11.3050 -11.2974
-11.2938 -11.2888 -11.2850 -11.2844 -11.2835 -11.2835 -11.2832 -11.2750
-11.2708 -11.2607 -11.2595 -11.2513 -11.2406  -9.0108  -8.9955  -8.9808
 -8.9623  -6.6917  -6.6910  -6.6905  -6.6765  -6.6758  -6.6746  -6.6619
 -6.6610  -6.6597  -6.6435  -6.6426  -6.6416  -1.6595  -1.4673  -1.4115
 -1.4098  -1.3700  -1.2328  -1.2017  -1.1753  -1.1382  -1.1004  -1.0487
 -1.0443  -1.0249  -1.0039  -0.9972  -0.9642  -0.9564  -0.9497  -0.9421
 -0.8945  -0.8689  -0.8639  -0.8160  -0.7921  -0.7902  -0.7840  -0.7698
 -0.7564  -0.7375  -0.7245  -0.7122  -0.6966  -0.6930  -0.6847  -0.6816
 -0.6738  -0.6649  -0.6563  -0.6493  -0.6377  -0.6310  -0.6215  -0.6159
 -0.6111  -0.6000  -0.5936  -0.5774  -0.5707  -0.5662  -0.5601  -0.5569
 -0.5479  -0.5334  -0.5309  -0.5262  -0.5160  -0.5121  -0.5082  -0.5010
 -0.4843  -0.4791  -0.4774  -0.4732  -0.4700  -0.4654  -0.4580  -0.4478
 -0.4315  -0.3962  -0.3828  -0.3718  -0.3516  -0.3001  -0.2864  -0.2178
 -- Virtual --
  0.0291   0.0544   0.1037   0.1316   0.1416   0.1442   0.1517   0.1541
  0.1570   0.1586   0.1667   0.1782   0.1812   0.1842   0.1872   0.1922
  0.1999   0.2007   0.2040   0.2150   0.2151   0.2197   0.2261   0.2263
  0.2287   0.2371   0.2403   0.2487   0.2558   0.2595   0.2628   0.2758
  0.2924   0.3028   0.3187   0.3227   0.3285   0.3378   0.3406   0.3460
  0.3564   0.3593   0.3609   0.3705   0.3797   0.3803   0.3839   0.3850
  0.3867   0.3941   0.4030   0.4045   0.4078   0.4131   0.4192   0.4227
  0.4250   0.4274   0.4338   0.4397   0.4420   0.4470   0.4527   0.4546
  0.4589   0.4623   0.4673   0.4691   0.4733   0.4755   0.4820   0.4857
  0.4883   0.4945   0.4995   0.5052   0.5093   0.5101   0.5129   0.5157
  0.5219   0.5280   0.5292   0.5366   0.5380   0.5421   0.5469   0.5481
  0.5497   0.5534   0.5566   0.5619   0.5658   0.5709   0.5764   0.5817
  0.5836   0.5858   0.5913   0.5999   0.6008   0.6042   0.6061   0.6126
  0.6155   0.6179   0.6189   0.6208   0.6230   0.6261   0.6273   0.6316
  0.6338   0.6378   0.6401   0.6444   0.6466   0.6527   0.6557   0.6619
  0.6645   0.6681   0.6752   0.6788   0.6843   0.6890   0.6927   0.7010
  0.7055   0.7106   0.7143   0.7175   0.7222   0.7260   0.7336   0.7365
  0.7417   0.7504   0.7557   0.7607   0.7625   0.7718   0.7850   0.7921
  0.7936   0.7980   0.8057   0.8117   0.8187   0.8198   0.8290   0.8301
  0.8327   0.8412   0.8435   0.8535   0.8608   0.8648   0.8694   0.8763
  0.8825   0.8861   0.8880   0.8949   0.9006   0.9064   0.9131   0.9138
  0.9216   0.9252   0.9339   0.9380   0.9456   0.9480   0.9504   0.9532
  0.9640   0.9695   0.9733   0.9779   0.9813   0.9853   0.9916   0.9954
  0.9964   1.0015   1.0033   1.0092   1.0151   1.0186   1.0228   1.0331
  1.0380   1.0409   1.0478   1.0525   1.0559   1.0577   1.0658   1.0718
  1.0739   1.0794   1.0871   1.0908   1.0965   1.0993   1.1031   1.1095
  1.1112   1.1154   1.1195   1.1227   1.1315   1.1407   1.1453   1.1527
  1.1543   1.1575   1.1645   1.1661   1.1678   1.1763   1.1780   1.1864
  1.1869   1.1924   1.1991   1.2025   1.2058   1.2083   1.2145   1.2176
  1.2195   1.2271   1.2323   1.2401   1.2448   1.2467   1.2500   1.2559
  1.2580   1.2637   1.2708   1.2766   1.2808   1.2836   1.2870   1.2965
  1.3065   1.3066   1.3107   1.3154   1.3225   1.3306   1.3377   1.3388
  1.3483   1.3612   1.3664   1.3682   1.3738   1.3889   1.3938   1.4005
  1.4028   1.4079   1.4177   1.4207   1.4350   1.4392   1.4437   1.4538
  1.4589   1.4735   1.4765   1.4807   1.4891   1.4936   1.4972   1.5009
  1.5028   1.5074   1.5152   1.5174   1.5224   1.5307   1.5357   1.5391
  1.5402   1.5453   1.5495   1.5527   1.5609   1.5678   1.5741   1.5760
  1.5855   1.5917   1.5993   1.6082   1.6201   1.6234   1.6344   1.6393
  1.6445   1.6502   1.6559   1.6567   1.6650   1.6705   1.6772   1.6863
  1.6929   1.6959   1.7037   1.7144   1.7207   1.7284   1.7402   1.7461
  1.7579   1.7609   1.7701   1.7740   1.7806   1.7970   1.8066   1.8151
  1.8196   1.8253   1.8348   1.8480   1.8543   1.8660   1.8700   1.8757
  1.8798   1.8829   1.9022   1.9121   1.9178   1.9255   1.9289   1.9369
  1.9480   1.9507   1.9573   1.9671   1.9754   1.9871   1.9942   1.9997
  2.0038   2.0175   2.0207   2.0295   2.0358   2.0383   2.0517   2.0551
  2.0694   2.0770   2.0851   2.0891   2.0932   2.1002   2.1223   2.1261
  2.1485   2.1547   2.1633   2.1671   2.1756   2.1862   2.1904   2.1927
  2.2014   2.2108   2.2172   2.2234   2.2253   2.2277   2.2384   2.2413
  2.2510   2.2602   2.2664   2.2718   2.2776   2.2805   2.2894   2.3006
  2.3025   2.3116   2.3260   2.3327   2.3403   2.3498   2.3506   2.3692
  2.3742   2.3844   2.3945   2.3946   2.4009   2.4079   2.4147   2.4196
  2.4253   2.4398   2.4465   2.4592   2.4662   2.4818   2.4866   2.4948
  2.5058   2.5127   2.5203   2.5274   2.5417   2.5453   2.5509   2.5635
  2.5701   2.5776   2.5924   2.5946   2.6016   2.6174   2.6177   2.6212
  2.6274   2.6339   2.6398   2.6449   2.6472   2.6488   2.6654   2.6737
  2.6808   2.6864   2.6887   2.6918   2.7043   2.7070   2.7128   2.7181
  2.7225   2.7291   2.7358   2.7478   2.7554   2.7616   2.7659   2.7724
  2.7753   2.7864   2.7903   2.7955   2.8033   2.8152   2.8180   2.8255
  2.8317   2.8419   2.8514   2.8535   2.8544   2.8628   2.8693   2.8736
  2.8775   2.8813   2.8893   2.9067   2.9108   2.9247   2.9304   2.9493
  2.9544   2.9560   2.9595   2.9640   2.9717   2.9775   2.9843   2.9911
  2.9935   2.9966   3.0150   3.0234   3.0269   3.0368   3.0370   3.0434
  3.0499   3.0619   3.0634   3.0720   3.0895   3.0906   3.0985   3.1011
  3.1033   3.1092   3.1171   3.1258   3.1296   3.1345   3.1414   3.1433
  3.1475   3.1543   3.1576   3.1587   3.1642   3.1717   3.1738   3.1784
  3.1819   3.1888   3.1975   3.2078   3.2126   3.2177   3.2214   3.2231
  3.2278   3.2335   3.2440   3.2488   3.2538   3.2603   3.2641   3.2677
  3.2710   3.2750   3.2765   3.2837   3.2861   3.2938   3.2965   3.2986
  3.3097   3.3118   3.3157   3.3233   3.3291   3.3352   3.3373   3.3442
  3.3474   3.3500   3.3532   3.3574   3.3630   3.3653   3.3696   3.3721
  3.3778   3.3821   3.3881   3.3902   3.3970   3.3991   3.4038   3.4071
  3.4095   3.4157   3.4249   3.4294   3.4305   3.4349   3.4378   3.4429
  3.4454   3.4523   3.4583   3.4636   3.4652   3.4666   3.4765   3.4800
  3.4864   3.4906   3.4931   3.4993   3.5064   3.5115   3.5247   3.5364
  3.5372   3.5421   3.5499   3.5523   3.5594   3.5632   3.5743   3.5756
  3.5798   3.5881   3.5885   3.5972   3.5977   3.6013   3.6091   3.6139
  3.6216   3.6235   3.6290   3.6325   3.6348   3.6365   3.6493   3.6547
  3.6617   3.6670   3.6746   3.6763   3.6785   3.6827   3.6901   3.6975
  3.7037   3.7058   3.7072   3.7126   3.7218   3.7270   3.7279   3.7351
  3.7395   3.7497   3.7499   3.7590   3.7634   3.7662   3.7703   3.7843
  3.7898   3.7900   3.7971   3.8008   3.8063   3.8070   3.8128   3.8160
  3.8194   3.8228   3.8346   3.8401   3.8463   3.8477   3.8549   3.8644
  3.8685   3.8710   3.8732   3.8794   3.8906   3.8919   3.8987   3.9048
  3.9073   3.9228   3.9243   3.9371   3.9445   3.9526   3.9539   3.9565
  3.9645   3.9713   3.9797   3.9904   3.9936   4.0035   4.0052   4.0103
  4.0165   4.0261   4.0405   4.0442   4.0520   4.0539   4.0664   4.0682
  4.0737   4.0757   4.0905   4.1030   4.1070   4.1211   4.1285   4.1298
  4.1365   4.1429   4.1472   4.1594   4.1651   4.1671   4.1698   4.1744
  4.1753   4.1917   4.2006   4.2039   4.2129   4.2182   4.2260   4.2295
  4.2354   4.2485   4.2499   4.2655   4.2707   4.2859   4.2942   4.3064
  4.3159   4.3243   4.3321   4.3376   4.3418   4.3468   4.3574   4.3579
  4.3634   4.3661   4.3827   4.3872   4.3922   4.4031   4.4117   4.4159
  4.4226   4.4249   4.4301   4.4364   4.4397   4.4477   4.4502   4.4532
  4.4670   4.4756   4.4845   4.4924   4.5085   4.5159   4.5255   4.5260
  4.5393   4.5446   4.5527   4.5625   4.5712   4.5722   4.5769   4.5894
  4.6001   4.6036   4.6114   4.6207   4.6352   4.6419   4.6511   4.6552
  4.6578   4.6667   4.6830   4.6917   4.7063   4.7079   4.7222   4.7330
  4.7484   4.7673   4.7746   4.7812   4.7850   4.7997   4.8070   4.8113
  4.8210   4.8354   4.8391   4.8444   4.8585   4.8694   4.8776   4.8863
  4.8922   4.9133   4.9340   4.9439   4.9536   4.9576   4.9659   4.9789
  4.9799   4.9994   5.0089   5.0114   5.0168   5.0309   5.0466   5.0594
  5.0650   5.0760   5.1004   5.1013   5.1293   5.1347   5.1413   5.1627
  5.1743   5.1904   5.1964   5.2099   5.2222   5.2300   5.2394   5.2535
  5.2547   5.2590   5.2737   5.2903   5.2948   5.3105   5.3178   5.3249
  5.3418   5.3522   5.3575   5.3660   5.3812   5.3819   5.4009   5.4026
  5.4051   5.4108   5.4262   5.4409   5.4490   5.4688   5.4850   5.5019
  5.5120   5.5207   5.5231   5.5385   5.5607   5.5683   5.5784   5.5840
  5.6045   5.6106   5.6171   5.6218   5.6394   5.6627   5.6698   5.6889
  5.6994   5.7377   5.7534   5.7633   5.7740   5.8076   5.8162   5.8353
  5.8582   5.8800   5.8976   5.9163   5.9292   5.9378   5.9782   6.0004
  6.0400   6.0442   6.0719   6.1317   6.1505   6.1590   6.1724   6.1782
  6.1804   6.2093   6.2254   6.2479   6.2577   6.2614   6.2661   6.2779
  6.2904   6.3017   6.3506   6.3767   6.4482   6.4501   6.5026   6.5398
  6.5487   6.5699   6.6062   6.6447   6.6618   6.6713   6.7132   6.7466
  6.8080   6.8304   6.8572   6.8600   6.8994   6.9782   7.1314   7.1452
  7.2040   7.2069   7.2220   7.2392   7.3099   7.3269   7.3407   7.3641
  7.3649   7.4060   7.4134   7.4860   7.4866   7.4966   7.5244   7.5510
  7.6170   7.7405   7.7740   7.7902   7.8020   7.9029   7.9258   7.9541
  7.9742   8.1358   8.3193   8.5023   8.9230   9.0259   9.3642   9.4854
  9.6751  10.2280  11.1652  11.4458  11.7455  11.9128  12.1247  12.3804
 12.4206  12.4990  12.9526  12.9681  13.0194  13.2971  13.3874  13.4914
 13.7568  13.8257  13.9019  13.9411  14.0386  14.3083  14.9115  15.2237
 --------------------------------------------------------------
 
          Ground-State Mulliken Net Atomic Charges

     Atom                 Charge (a.u.)
  ----------------------------------------
      1 C                    -0.070818
      2 C                    -0.249089
      3 S                    -0.132565
      4 C                    -0.051138
      5 H                     0.195024
      6 C                    -0.048813
      7 C                     0.217121
      8 C                     0.231513
      9 C                    -0.071878
     10 C                    -0.023326
     11 O                    -0.334131
     12 O                    -0.343839
     13 C                    -0.082747
     14 H                     0.120056
     15 H                     0.092057
     16 H                     0.093161
     17 C                    -0.089250
     18 H                     0.124708
     19 H                     0.092987
     20 H                     0.092095
     21 C                    -0.328886
     22 S                    -0.105908
     23 C                     0.130379
     24 H                     0.198936
     25 C                     0.021777
     26 S                     0.073795
     27 C                    -0.213810
     28 C                    -0.085909
     29 C                    -0.089617
     30 S                     0.005930
     31 C                    -0.160962
     32 C                     0.404708
     33 F                    -0.207721
     34 C                     0.444005
     35 O                    -0.460093
     36 O                    -0.300657
     37 C                    -0.058624
     38 H                     0.121454
     39 H                     0.095196
     40 H                     0.094984
     41 H                     0.217093
     42 H                     0.118869
     43 H                     0.116584
     44 H                     0.207349
  ----------------------------------------
  Sum of atomic charges =     0.000000

 -----------------------------------------------------------------
                    Cartesian Multipole Moments
 -----------------------------------------------------------------
    Charge (ESU x 10^10)
                 0.0000
    Dipole Moment (Debye)
         X       1.9477      Y       1.2795      Z       2.7171
       Tot       3.5796
    Quadrupole Moments (Debye-Ang)
        XX    -193.6840     XY       5.8988     YY    -173.0760
        XZ     -11.8124     YZ      -2.1658     ZZ    -191.9162
    Octopole Moments (Debye-Ang^2)
       XXX    -253.9515    XXY     393.9536    XYY     -65.7199
       YYY     970.2824    XXZ     143.1067    XYZ      10.7738
       YYZ      74.8148    XZZ     -44.8682    YZZ     417.0343
       ZZZ     502.4617
    Hexadecapole Moments (Debye-Ang^3)
      XXXX   -1271.5464   XXXY    -902.2464   XXYY   -3849.2113
      XYYY    -846.9453   YYYY  -19322.0454   XXXZ    1039.6090
      XXYZ     564.5188   XYYZ      50.9451   YYYZ    1986.5069
      XXZZ   -1309.9372   XYZZ     -16.3580   YYZZ   -4299.4862
      XZZZ     682.6501   YZZZ    1458.7093   ZZZZ   -7463.8952
 -----------------------------------------------------------------
 Total job time:  344.32s(wall), 10796.95s(cpu) 
 Tue Jan  9 09:54:37 2024

        *************************************************************
        *                                                           *
        *  Thank you very much for using Q-Chem.  Have a nice day.  *
        *                                                           *
        *************************************************************


0 sent ACK to 0 
now end server 0 ... 
cleanup process ... done
remove work dirs ./qchem1483020.0 -- ./qchem1483020.0
rm -rf ./qchem1483020.0
rm -rf ./qchem1483020
