You are running Q-Chem version: 5.4.0

#
# job setting
#
local host:  exp-14-17
current dir: /home/rramji/project-csd799/aromodel/ptb7fout-qchem/hydrogenated-rotation-run
input file:  Dimethoxy_Benzodithiophene_Phi_40_Theta_80_Methylcarbonyl_3_Fluoro_Thienothiophene_Hydrogenated.qcin
output file: 
nprocs     : 1
nthreads   : 64
#
# qchem installation setting
#
QC:          /cm/shared/apps/spack/cpu/opt/spack/linux-centos8-zen2/gcc-10.2.0/qchem-5.4-akfmr7b3t57bfs6qan3padb2wnb2i7cl
QCAUX:       /cm/shared/apps/spack/cpu/opt/spack/linux-centos8-zen2/gcc-10.2.0/qchem-5.4-akfmr7b3t57bfs6qan3padb2wnb2i7cl/qcaux
QCPROG:      /cm/shared/apps/spack/cpu/opt/spack/linux-centos8-zen2/gcc-10.2.0/qchem-5.4-akfmr7b3t57bfs6qan3padb2wnb2i7cl/exe/qcprog.exe
QCPROG_S:    /cm/shared/apps/spack/cpu/opt/spack/linux-centos8-zen2/gcc-10.2.0/qchem-5.4-akfmr7b3t57bfs6qan3padb2wnb2i7cl/exe/qcprog.exe_s
PARALLEL:    -DPARALLEL
QCMPI:       mpich
#
# qchem directory setting
#
qcrun:       qchem1948198
QCSCRATCH:   .
QCLOCALSCR:  
QCTMPDIR:    .
QCFILEPREF:  ./qchem1948198
QCSAVEDIR:   
workdirs:    ./qchem1948198
workdir0:    ./qchem1948198
partmpdirs =  
#
# parallel setting
#
QCRSH:           ssh
QCMPI:           mpich
QCMPIRUN:        /cm/shared/apps/spack/cpu/opt/spack/linux-centos8-zen2/gcc-10.2.0/qchem-5.4-akfmr7b3t57bfs6qan3padb2wnb2i7cl/bin/mpi/mpirun_qchem
QCMACHINEFILE:   ./qchem1948198/hostfile
exp-14-17

#
# env setting
#
exported envs:   QC QCAUX QCSCRATCH QCRUNNAME QCFILEPREF QCPROG QCPROG_S GUIFILE

Running Job 1 of 1 Dimethoxy_Benzodithiophene_Phi_40_Theta_80_Methylcarbonyl_3_Fluoro_Thienothiophene_Hydrogenated.qcin
qchem Dimethoxy_Benzodithiophene_Phi_40_Theta_80_Methylcarbonyl_3_Fluoro_Thienothiophene_Hydrogenated.qcin_1948198.0 ./qchem1948198/ 1
/cm/shared/apps/spack/cpu/opt/spack/linux-centos8-zen2/gcc-10.2.0/qchem-5.4-akfmr7b3t57bfs6qan3padb2wnb2i7cl/bin/mpi/mpirun_qchem -machinefile ./qchem1948198/hostfile -np 1 /cm/shared/apps/spack/cpu/opt/spack/linux-centos8-zen2/gcc-10.2.0/qchem-5.4-akfmr7b3t57bfs6qan3padb2wnb2i7cl/exe/qcprog.exe Dimethoxy_Benzodithiophene_Phi_40_Theta_80_Methylcarbonyl_3_Fluoro_Thienothiophene_Hydrogenated.qcin_1948198.0 ./qchem1948198/

Process 0 of 1 is on exp-14-17 - thread support 0
initial socket setup ...start
initial socket setup ...done 
now start server 0 ... 
                  Welcome to Q-Chem
     A Quantum Leap Into The Future Of Chemistry


 Q-Chem 5.4, Q-Chem, Inc., Pleasanton, CA (2021)

 License issued to: University of California, San Diego (site)

 E. Epifanovsky,  A. T. B. Gilbert,  Xintian Feng,  Joonho Lee,  Yuezhi Mao,  
 N. Mardirossian,  P. Pokhilko,  A. White,  M. Wormit,  M. P. Coons,  
 A. L. Dempwolff,  Zhengting Gan,  D. Hait,  P. R. Horn,  L. D. Jacobson,  
 I. Kaliman,  J. Kussmann,  A. W. Lange,  Ka Un Lao,  D. S. Levine,  Jie Liu,  
 S. C. McKenzie,  A. F. Morrison,  K. Nanda,  F. Plasser,  D. R. Rehn,  
 M. L. Vidal,  Zhi-Qiang You,  Ying Zhu,  B. Alam,  B. Albrecht,  
 A. Aldossary,  E. Alguire,  J. H. Andersen,  D. Barton,  K. Begam,  A. Behn,  
 Y. A. Bernard,  E. J. Berquist,  H. Burton,  A. Carreras,  K. Carter-Fenk,  
 R. Chakraborty,  A. D. Chien,  K. D. Closser,  V. Cofer-Shabica,  
 S. Dasgupta,  Jia Deng,  M. de Wergifosse,  M. Diedenhofen,  Hainam Do,  
 S. Ehlert,  Po-Tung Fang,  S. Fatehi,  Qingguo Feng,  J. Gayvert,  
 Qinghui Ge,  G. Gidofalvi,  M. Goldey,  J. Gomes,  C. Gonzalez-Espinoza,  
 S. Gulania,  A. Gunina,  M. W. D. Hanson-Heine,  P. H. P. Harbach,  
 A. W. Hauser,  M. F. Herbst,  M. Hernandez Vera,  M. Hodecker,  
 Z. C. Holden,  S. Houck,  Xunkun Huang,  Kerwin Hui,  B. C. Huynh,  
 M. Ivanov,  Hyunjun Ji,  Hanjie Jiang,  B. Kaduk,  S. Kaehler,  
 K. Khistyaev,  Jaehoon Kim,  P. Klunzinger,  Z. Koczor-Benda,  
 Joong Hoon Koh,  D. Kosenkov,  L. Koulias,  T. Kowalczyk,  C. M. Krauter,  
 K. Kue,  A. Kunitsa,  T. Kus,  A. Landau,  K. V. Lawler,  D. Lefrancois,  
 S. Lehtola,  Rain Li,  Yi-Pei Li,  Jiashu Liang,  M. Liebenthal,  
 Hung-Hsuan Lin,  You-Sheng Lin,  Fenglai Liu,  Kuan-Yu Liu,  
 M. Loipersberger,  A. Luenser,  A. Manjanath,  P. Manohar,  E. Mansoor,  
 S. F. Manzer,  Shan-Ping Mao,  A. V. Marenich,  T. Markovich,  S. Mason,  
 S. A. Maurer,  P. F. McLaughlin,  M. F. S. J. Menger,  J.-M. Mewes,  
 S. A. Mewes,  P. Morgante,  J. W. Mullinax,  T. S. Nguyen-Beck,  
 K. J. Oosterbaan,  G. Paran,  Alexander C. Paul,  Suranjan K. Paul,  
 F. Pavosevic,  Zheng Pei,  S. Prager,  E. I. Proynov,  E. Ramos,  B. Rana,  
 A. E. Rask,  A. Rettig,  R. M. Richard,  F. Rob,  E. Rossomme,  T. Scheele,  
 M. Scheurer,  M. Schneider,  N. Sergueev,  S. M. Sharada,  W. Skomorowski,  
 D. W. Small,  C. J. Stein,  Yu-Chuan Su,  E. J. Sundstrom,  Zhen Tao,  
 J. Thirman,  T. Tsuchimochi,  N. M. Tubman,  S. P. Veccham,  O. Vydrov,  
 J. Wenzel,  J. Witte,  A. Yamada,  Kun Yao,  S. Yeganeh,  S. R. Yost,  
 A. Zech,  Igor Ying Zhang,  Xing Zhang,  Yu Zhang,  D. Zuev,  
 A. Aspuru-Guzik,  A. T. Bell,  N. A. Besley,  K. B. Bravaya,  B. R. Brooks,  
 D. Casanova,  Jeng-Da Chai,  S. Coriani,  C. J. Cramer,  
 A. E. DePrince, III,  R. A. DiStasio Jr.,  A. Dreuw,  B. D. Dunietz,  
 T. R. Furlani,  W. A. Goddard III,  S. Grimme,  S. Hammes-Schiffer,  
 T. Head-Gordon,  W. J. Hehre,  Chao-Ping Hsu,  T.-C. Jagau,  Yousung Jung,  
 A. Klamt,  Jing Kong,  D. S. Lambrecht,  WanZhen Liang,  N. J. Mayhall,  
 C. W. McCurdy,  J. B. Neaton,  C. Ochsenfeld,  J. A. Parkhill,  R. Peverati,  
 V. A. Rassolov,  Yihan Shao,  L. V. Slipchenko,  T. Stauch,  R. P. Steele,  
 J. E. Subotnik,  A. J. W. Thom,  A. Tkatchenko,  D. G. Truhlar,  
 T. Van Voorhis,  T. A. Wesolowski,  K. B. Whaley,  H. L. Woodcock III,  
 P. M. Zimmerman,  S. Faraji,  P. M. W. Gill,  M. Head-Gordon,  
 J. M. Herbert,  A. I. Krylov

 Contributors to earlier versions of Q-Chem not listed above: 
 R. D. Adamson,  B. Austin,  R. Baer,  J. Baker,  G. J. O. Beran,  
 K. Brandhorst,  S. T. Brown,  E. F. C. Byrd,  A. K. Chakraborty,  
 G. K. L. Chan,  Chun-Min Chang,  Yunqing Chen,  C.-L. Cheng,  
 Siu Hung Chien,  D. M. Chipman,  D. L. Crittenden,  H. Dachsel,  
 R. J. Doerksen,  A. D. Dutoi,  R. G. Edgar,  J. Fosso-Tande,  
 L. Fusti-Molnar,  D. Ghosh,  A. Ghysels,  A. Golubeva-Zadorozhnaya,  
 J. Gonthier,  M. S. Gordon,  S. R. Gwaltney,  G. Hawkins,  J. E. Herr,  
 A. Heyden,  S. Hirata,  E. G. Hohenstein,  G. Kedziora,  F. J. Keil,  
 C. Kelley,  Jihan Kim,  R. A. King,  R. Z. Khaliullin,  P. P. Korambath,  
 W. Kurlancheek,  A. Laurent,  A. M. Lee,  M. S. Lee,  S. V. Levchenko,  
 Ching Yeh Lin,  D. Liotard,  E. Livshits,  R. C. Lochan,  I. Lotan,  
 L. A. Martinez-Martinez,  P. E. Maslen,  N. Nair,  D. P. O'Neill,  
 D. Neuhauser,  E. Neuscamman,  C. M. Oana,  R. Olivares-Amaya,  R. Olson,  
 T. M. Perrine,  B. Peters,  P. A. Pieniazek,  A. Prociuk,  Y. M. Rhee,  
 J. Ritchie,  M. A. Rohrdanz,  E. Rosta,  N. J. Russ,  H. F. Schaefer III,  
 M. W. Schmidt,  N. E. Schultz,  S. Sharma,  N. Shenvi,  C. D. Sherrill,  
 A. C. Simmonett,  A. Sodt,  T. Stein,  D. Stuck,  K. S. Thanthiriwatte,  
 V. Vanovschi,  L. Vogt,  Tao Wang,  A. Warshel,  M. A. Watson,  
 C. F. Williams,  Q. Wu,  X. Xu,  Jun Yang,  W. Zhang,  Yan Zhao

 Please cite Q-Chem as follows:
 Y. Shao et al., Mol. Phys. 113, 184-215 (2015)
 DOI: 10.1080/00268976.2014.952696

 Q-Chem 5.4.0 for Intel X86 EM64T Linux

 Parts of Q-Chem use Armadillo 9.800.1 (Horizon Scraper).
 http://arma.sourceforge.net/

 Q-Chem begins on Tue Jan  9 10:28:04 2024  

 Host: 
0

     Scratch files written to ./qchem1948198//
 May1621 |scratch|qcdevops|jenkins|workspace|build_RNUM    
 Parallel job on  1  processors
 Processing $rem in /cm/shared/apps/spack/cpu/opt/spack/linux-centos8-zen2/gcc-10.2.0/qchem-5.4-akfmr7b3t57bfs6qan3padb2wnb2i7cl/config/preferences:
 Processing $rem in /home/rramji/.qchemrc:
 Symmetry turned off for PCM/SM12/SMD calculation
 Core orbitals will be frozen

 Checking the input file for inconsistencies... 	...done.

 Q-Chem warning in module forms1/BasisType.C, line 2236:

 You are not using the predefined 5D/6D in this basis set.


--------------------------------------------------------------
User input:
--------------------------------------------------------------
$molecule
0 1
C	-0.320589	-8.517702	0.014560
C	0.737240	-7.641575	-0.180211
S	-1.842356	-7.638634	0.299553
C	0.366488	-6.264785	-0.114873
H	1.768528	-7.966081	-0.368061
C	-1.038637	-6.072714	0.131236
C	-1.588197	-4.787049	0.253435
C	1.258831	-5.162801	-0.249014
C	0.709695	-3.874817	-0.122513
C	-0.697430	-3.683952	0.121043
O	2.553323	-5.499772	-0.505933
O	-2.888369	-4.459055	0.512697
C	-3.927625	-5.329063	0.080869
H	-4.869656	-4.755694	0.173159
H	-4.007459	-6.238095	0.716363
H	-3.789565	-5.637262	-0.978072
C	3.600064	-4.572261	-0.246949
H	4.544887	-5.139743	-0.344574
H	3.532074	-4.153131	0.779898
H	3.612378	-3.739531	-0.983261
C	-1.064246	-2.306654	0.188009
S	1.517360	-2.306501	-0.278644
C	-0.000000	-1.435185	-0.000000
H	-2.094685	-1.978138	0.373017
C	0.000000	0.000000	0.000000
S	0.581934	0.692785	1.507541
C	1.592155	1.897915	0.718873
C	0.581944	0.692363	-1.067872
C	1.473741	1.758764	-0.686410
S	0.427560	0.503942	-2.805516
C	1.549278	1.849357	-3.054530
C	2.002690	2.393529	-1.862551
F	2.858191	3.420549	-1.819088
C	1.838710	2.191348	-4.456084
O	1.349977	1.596481	-5.406510
O	2.701091	3.230705	-4.569225
C	3.023327	3.606605	-5.916207
H	3.725703	4.454534	-5.833064
H	2.112072	3.910035	-6.470168
H	3.495281	2.762996	-6.459293
H	2.185174	2.606846	1.306486
H	-0.159475	-9.143623	0.900177
H	-0.483604	-9.149441	-0.866566
H	0.194856	-1.443175	1.062246
$end

$rem
JOBTYPE		SP
EXCHANGE	HF
CORRELATION	pRIMP2
BASIS		cc-pvtz
METHOD		rimp2
AUX_BASIS	rimp2-cc-pvtz
SOLVENT_METHOD	PCM
PURECART	11111
SYMMETRY	false
MEM_TOTAL	110000
SCF_CONVERGENCE = 6
THRESH=10
GUI = 2
$end



$solvent
dielectric 4.90
$end
--------------------------------------------------------------
 ----------------------------------------------------------------
             Standard Nuclear Orientation (Angstroms)
    I     Atom           X                Y                Z
 ----------------------------------------------------------------
    1      C      -0.3205890000    -8.5177020000     0.0145600000
    2      C       0.7372400000    -7.6415750000    -0.1802110000
    3      S      -1.8423560000    -7.6386340000     0.2995530000
    4      C       0.3664880000    -6.2647850000    -0.1148730000
    5      H       1.7685280000    -7.9660810000    -0.3680610000
    6      C      -1.0386370000    -6.0727140000     0.1312360000
    7      C      -1.5881970000    -4.7870490000     0.2534350000
    8      C       1.2588310000    -5.1628010000    -0.2490140000
    9      C       0.7096950000    -3.8748170000    -0.1225130000
   10      C      -0.6974300000    -3.6839520000     0.1210430000
   11      O       2.5533230000    -5.4997720000    -0.5059330000
   12      O      -2.8883690000    -4.4590550000     0.5126970000
   13      C      -3.9276250000    -5.3290630000     0.0808690000
   14      H      -4.8696560000    -4.7556940000     0.1731590000
   15      H      -4.0074590000    -6.2380950000     0.7163630000
   16      H      -3.7895650000    -5.6372620000    -0.9780720000
   17      C       3.6000640000    -4.5722610000    -0.2469490000
   18      H       4.5448870000    -5.1397430000    -0.3445740000
   19      H       3.5320740000    -4.1531310000     0.7798980000
   20      H       3.6123780000    -3.7395310000    -0.9832610000
   21      C      -1.0642460000    -2.3066540000     0.1880090000
   22      S       1.5173600000    -2.3065010000    -0.2786440000
   23      C       0.0000000000    -1.4351850000     0.0000000000
   24      H      -2.0946850000    -1.9781380000     0.3730170000
   25      C       0.0000000000     0.0000000000     0.0000000000
   26      S       0.5819340000     0.6927850000     1.5075410000
   27      C       1.5921550000     1.8979150000     0.7188730000
   28      C       0.5819440000     0.6923630000    -1.0678720000
   29      C       1.4737410000     1.7587640000    -0.6864100000
   30      S       0.4275600000     0.5039420000    -2.8055160000
   31      C       1.5492780000     1.8493570000    -3.0545300000
   32      C       2.0026900000     2.3935290000    -1.8625510000
   33      F       2.8581910000     3.4205490000    -1.8190880000
   34      C       1.8387100000     2.1913480000    -4.4560840000
   35      O       1.3499770000     1.5964810000    -5.4065100000
   36      O       2.7010910000     3.2307050000    -4.5692250000
   37      C       3.0233270000     3.6066050000    -5.9162070000
   38      H       3.7257030000     4.4545340000    -5.8330640000
   39      H       2.1120720000     3.9100350000    -6.4701680000
   40      H       3.4952810000     2.7629960000    -6.4592930000
   41      H       2.1851740000     2.6068460000     1.3064860000
   42      H      -0.1594750000    -9.1436230000     0.9001770000
   43      H      -0.4836040000    -9.1494410000    -0.8665660000
   44      H       0.1948560000    -1.4431750000     1.0622460000
 ----------------------------------------------------------------
 Nuclear Repulsion Energy =        3372.58401503 hartrees
 There are      120 alpha and      120 beta electrons
 Requested basis set is cc-pVTZ
 There are 388 shells and 1096 basis functions

 Total QAlloc Memory Limit 110000 MB
 Mega-Array Size       188 MB
 MEM_STATIC part       192 MB
 Discretize the solute cavity surface with Lebedev spheres
	Using 110 Lebedev grid points for each H atom
	Using 194 Lebedev grid points for other atoms
	Atomic van der Waals radii will be scaled by 1.20
 Remove points where switching function is < 1.0e-08
 Keep 2938 surface tesserae and discard 4338 interior tesserae
 Molecular Surface Area = 442.660 Angst**2
 Requested basis set is rimp2-cc-pVTZ
 There are 853 shells and 2963 basis functions
 A cutoff of  1.0D-10 yielded  33461 shell pairs
 There are    252353 function pairs (    326428 Cartesian)
 Smallest overlap matrix eigenvalue = 2.18E-05

 Scale SEOQF with 1.000000e-01/1.000000e-02/1.000000e-02

 Standard Electronic Orientation quadrupole field applied
 Nucleus-field energy     =     0.0000000498 hartrees
 Guess from superposition of atomic densities
 Warning:  Energy on first SCF cycle will be non-variational
 SAD guess density has 240.000000 electrons

 -----------------------------------------------------------------------
  General SCF calculation program by
  Eric Jon Sundstrom, Paul Horn, Yuezhi Mao, Dmitri Zuev, Alec White,
  David Stuck, Shaama M.S., Shane Yost, Joonho Lee, David Small,
  Daniel Levine, Susi Lehtola, Hugh Burton, Evgeny Epifanovsky,
  Bang C. Huynh
 -----------------------------------------------------------------------
 Hartree-Fock
 using 64 threads for integral computing
 -------------------------------------------------------
 OpenMP Integral computing Module                
 Release: version 1.0, May 2013, Q-Chem Inc. Pittsburgh 
 -------------------------------------------------------
 A restricted SCF calculation will be
 performed using DIIS
 SCF converges when DIIS error is below 1.0e-06
 ---------------------------------------
  Cycle       Energy         DIIS error
 ---------------------------------------
    1   -2767.0837680307      1.75e-02  
    2   -2754.8641586152      1.53e-03  
    3   -2755.2135481017      8.49e-04  
    4   -2755.2987241334      2.57e-04  
    5   -2755.3122255499      7.34e-05  
    6   -2755.3137221854      2.61e-05  
    7   -2755.3141086851      1.33e-05  
    8   -2755.3142344056      5.65e-06  
    9   -2755.3142639577      2.82e-06  
   10   -2755.3142710554      1.53e-06  
   11   -2755.3142733257      7.34e-07  Convergence criterion met
 ---------------------------------------
 SCF time:   CPU 7475.81s  wall 288.00s 

************** Final PCM Free Energy Summary **************
 G_electrostatic  =      -0.02210636 hartree =     -13.87195294 kcal/mol
 G_cavitation     =       0.00000000 hartree =       0.00000000 kcal/mol
 G_dispersion     =       0.00000000 hartree =       0.00000000 kcal/mol
 G_repulsion      =       0.00000000 hartree =       0.00000000 kcal/mol
 --------------------------------------------------
 Non-electrostatic Free Energy =       0.00000000 hartree =       0.00000000 kcal/mol
 Total                         =      -0.02210636 hartree =     -13.87195294 kcal/mol
 --------------------------------------------------
 SCF Energy (H0 + V/2)                       =   -2755.31427333 
 Solute Internal Energy (H0)                 =   -2755.29216696 
 Total Free Energy (H0 + V/2 + non-elec)     =   -2755.31427333 hartree
                                             = -1728985.80209338 kcal/mol
***********************************************************

 SCF   energy in the final basis set =    -2755.3142733257
 Total energy in the final basis set =    -2755.3142733257


 --------------------------------------------------------------
  Generalized many-body perturbation theory program
  by Joonho Lee, Fazle Rob, Xintian Feng, Evgeny Epifanovsky

 No regularization used 
 (reg. param. = 0.0000e+00)
  (P|Q)^-1/2 Time:  CPU 182.95 s  wall 2.92 s

 In RI-MP2 calculation: 
 # of frozen core orbitals: 45

 Components of the RIMP2 correlation energy:
        aaaa    correlation energy =        -0.6697569974 a.u.
        abab    correlation energy =        -3.7543332752 a.u.
        bbbb    correlation energy =        -0.6697569974 a.u.
        non-Brillouin singles      =        -0.0000000000 a.u.
        total same-spin energy     =        -1.3395139948 a.u.
        total opposite-spin energy =        -3.7543332752 a.u.

 Total  RIMP2   correlation energy =        -5.0938472700 a.u.
        RIMP2         total energy =     -2760.4081205958 a.u.

 RI-MP2 Energy Time:  CPU 3523.30 s  wall 56.98 s
 
 --------------------------------------------------------------
 
                    Orbital Energies (a.u.)
 --------------------------------------------------------------
 
 Alpha MOs
 -- Occupied --
-92.0151 -92.0033 -91.9746 -91.9559 -26.3451 -20.6153 -20.5863 -20.5850
-20.5618 -11.4101 -11.3851 -11.3234 -11.3084 -11.3077 -11.3040 -11.2984
-11.2892 -11.2868 -11.2862 -11.2834 -11.2820 -11.2812 -11.2749 -11.2697
-11.2693 -11.2562 -11.2522 -11.2475 -11.2321  -9.0144  -9.0032  -8.9770
 -8.9585  -6.6951  -6.6944  -6.6939  -6.6841  -6.6834  -6.6823  -6.6580
 -6.6572  -6.6559  -6.6397  -6.6388  -6.6378  -1.6622  -1.4678  -1.4087
 -1.4076  -1.3705  -1.2343  -1.2008  -1.1717  -1.1397  -1.0976  -1.0472
 -1.0432  -1.0270  -1.0020  -0.9943  -0.9649  -0.9581  -0.9472  -0.9403
 -0.8917  -0.8707  -0.8621  -0.8176  -0.7966  -0.7880  -0.7829  -0.7662
 -0.7572  -0.7379  -0.7269  -0.7176  -0.6959  -0.6876  -0.6851  -0.6785
 -0.6744  -0.6610  -0.6549  -0.6474  -0.6340  -0.6296  -0.6179  -0.6142
 -0.6109  -0.6007  -0.5908  -0.5739  -0.5732  -0.5626  -0.5590  -0.5545
 -0.5411  -0.5327  -0.5315  -0.5238  -0.5119  -0.5089  -0.5061  -0.4994
 -0.4860  -0.4824  -0.4756  -0.4745  -0.4694  -0.4668  -0.4594  -0.4448
 -0.4213  -0.3989  -0.3833  -0.3682  -0.3508  -0.3060  -0.2876  -0.2175
 -- Virtual --
  0.0271   0.0544   0.0865   0.1206   0.1412   0.1492   0.1526   0.1561
  0.1571   0.1615   0.1674   0.1753   0.1807   0.1829   0.1885   0.1979
  0.2006   0.2044   0.2060   0.2146   0.2158   0.2215   0.2255   0.2275
  0.2315   0.2320   0.2372   0.2455   0.2475   0.2546   0.2623   0.2639
  0.2720   0.2846   0.3010   0.3137   0.3272   0.3308   0.3348   0.3393
  0.3470   0.3542   0.3594   0.3621   0.3649   0.3780   0.3825   0.3859
  0.3877   0.3912   0.3950   0.4009   0.4044   0.4077   0.4155   0.4168
  0.4225   0.4284   0.4318   0.4334   0.4371   0.4435   0.4483   0.4523
  0.4542   0.4620   0.4649   0.4674   0.4749   0.4784   0.4797   0.4802
  0.4924   0.4932   0.4961   0.5034   0.5048   0.5062   0.5164   0.5219
  0.5233   0.5265   0.5291   0.5339   0.5369   0.5406   0.5431   0.5481
  0.5500   0.5533   0.5565   0.5606   0.5629   0.5708   0.5745   0.5771
  0.5834   0.5889   0.5924   0.5977   0.5992   0.6021   0.6070   0.6113
  0.6137   0.6153   0.6200   0.6206   0.6210   0.6236   0.6281   0.6321
  0.6348   0.6427   0.6438   0.6476   0.6504   0.6522   0.6579   0.6593
  0.6624   0.6675   0.6726   0.6809   0.6838   0.6874   0.6915   0.6949
  0.7075   0.7104   0.7124   0.7174   0.7190   0.7217   0.7246   0.7257
  0.7384   0.7430   0.7471   0.7587   0.7648   0.7692   0.7747   0.7776
  0.7895   0.7973   0.7977   0.8048   0.8112   0.8190   0.8204   0.8253
  0.8261   0.8320   0.8426   0.8464   0.8535   0.8616   0.8641   0.8717
  0.8779   0.8802   0.8847   0.8901   0.8963   0.9032   0.9062   0.9139
  0.9158   0.9285   0.9352   0.9368   0.9389   0.9399   0.9470   0.9563
  0.9611   0.9662   0.9713   0.9767   0.9792   0.9830   0.9876   0.9955
  0.9977   1.0019   1.0043   1.0110   1.0135   1.0206   1.0256   1.0309
  1.0363   1.0402   1.0454   1.0533   1.0561   1.0583   1.0610   1.0649
  1.0678   1.0744   1.0852   1.0870   1.0929   1.0932   1.1036   1.1080
  1.1107   1.1117   1.1189   1.1212   1.1332   1.1361   1.1395   1.1475
  1.1556   1.1568   1.1625   1.1660   1.1731   1.1756   1.1772   1.1850
  1.1875   1.1914   1.1938   1.1966   1.2023   1.2044   1.2152   1.2190
  1.2245   1.2299   1.2355   1.2399   1.2440   1.2456   1.2505   1.2570
  1.2599   1.2632   1.2660   1.2674   1.2759   1.2836   1.2864   1.2918
  1.3010   1.3083   1.3164   1.3191   1.3206   1.3288   1.3313   1.3403
  1.3484   1.3588   1.3619   1.3670   1.3839   1.3866   1.3937   1.4000
  1.4075   1.4102   1.4153   1.4227   1.4274   1.4334   1.4404   1.4503
  1.4633   1.4655   1.4765   1.4834   1.4872   1.4936   1.4995   1.5023
  1.5074   1.5104   1.5158   1.5221   1.5254   1.5323   1.5378   1.5402
  1.5441   1.5478   1.5489   1.5528   1.5586   1.5641   1.5732   1.5744
  1.5833   1.5899   1.5960   1.6043   1.6132   1.6181   1.6241   1.6398
  1.6461   1.6528   1.6587   1.6640   1.6677   1.6717   1.6812   1.6855
  1.6942   1.6995   1.7053   1.7137   1.7197   1.7241   1.7293   1.7442
  1.7554   1.7633   1.7650   1.7687   1.7806   1.7914   1.8026   1.8134
  1.8175   1.8214   1.8261   1.8380   1.8533   1.8646   1.8712   1.8774
  1.8819   1.8949   1.8993   1.9076   1.9174   1.9231   1.9302   1.9336
  1.9375   1.9463   1.9567   1.9695   1.9763   1.9830   1.9848   1.9979
  2.0018   2.0068   2.0115   2.0233   2.0270   2.0332   2.0414   2.0554
  2.0647   2.0702   2.0750   2.0866   2.0995   2.1036   2.1126   2.1260
  2.1442   2.1547   2.1571   2.1696   2.1751   2.1802   2.1835   2.1892
  2.1948   2.2061   2.2105   2.2157   2.2258   2.2317   2.2328   2.2439
  2.2496   2.2518   2.2577   2.2707   2.2721   2.2840   2.2979   2.3022
  2.3031   2.3156   2.3295   2.3339   2.3352   2.3506   2.3565   2.3624
  2.3676   2.3704   2.3914   2.3971   2.4108   2.4148   2.4225   2.4242
  2.4365   2.4395   2.4440   2.4694   2.4764   2.4802   2.4880   2.4975
  2.5025   2.5116   2.5189   2.5329   2.5359   2.5442   2.5561   2.5618
  2.5683   2.5836   2.5936   2.6011   2.6099   2.6197   2.6237   2.6274
  2.6321   2.6395   2.6419   2.6425   2.6502   2.6505   2.6583   2.6698
  2.6766   2.6812   2.6896   2.6957   2.7018   2.7058   2.7131   2.7165
  2.7251   2.7337   2.7365   2.7500   2.7530   2.7617   2.7727   2.7755
  2.7836   2.7865   2.7922   2.8027   2.8072   2.8148   2.8243   2.8323
  2.8395   2.8454   2.8499   2.8521   2.8575   2.8694   2.8727   2.8778
  2.8826   2.8909   2.8921   2.8948   2.9085   2.9244   2.9275   2.9491
  2.9511   2.9572   2.9587   2.9613   2.9745   2.9769   2.9858   2.9908
  2.9954   3.0062   3.0164   3.0204   3.0231   3.0337   3.0418   3.0447
  3.0536   3.0582   3.0639   3.0748   3.0802   3.0914   3.0976   3.0996
  3.1035   3.1075   3.1096   3.1175   3.1238   3.1276   3.1372   3.1438
  3.1474   3.1494   3.1551   3.1626   3.1633   3.1688   3.1769   3.1797
  3.1887   3.1952   3.2074   3.2086   3.2136   3.2157   3.2204   3.2284
  3.2317   3.2359   3.2443   3.2488   3.2520   3.2551   3.2603   3.2682
  3.2685   3.2707   3.2789   3.2834   3.2910   3.2942   3.2962   3.3034
  3.3060   3.3139   3.3144   3.3250   3.3285   3.3338   3.3412   3.3446
  3.3494   3.3527   3.3552   3.3602   3.3628   3.3676   3.3679   3.3696
  3.3757   3.3810   3.3885   3.3941   3.4031   3.4036   3.4065   3.4132
  3.4178   3.4229   3.4260   3.4315   3.4340   3.4386   3.4407   3.4463
  3.4498   3.4545   3.4554   3.4638   3.4663   3.4695   3.4740   3.4829
  3.4836   3.4876   3.4935   3.4993   3.5134   3.5206   3.5302   3.5337
  3.5338   3.5418   3.5540   3.5554   3.5585   3.5623   3.5752   3.5790
  3.5868   3.5881   3.5910   3.5975   3.6018   3.6114   3.6134   3.6188
  3.6216   3.6312   3.6331   3.6364   3.6429   3.6456   3.6531   3.6555
  3.6658   3.6725   3.6740   3.6773   3.6821   3.6861   3.6912   3.7015
  3.7055   3.7065   3.7142   3.7202   3.7223   3.7302   3.7357   3.7367
  3.7427   3.7522   3.7539   3.7590   3.7607   3.7670   3.7708   3.7814
  3.7864   3.7903   3.7931   3.8004   3.8036   3.8081   3.8130   3.8133
  3.8207   3.8253   3.8357   3.8401   3.8417   3.8460   3.8514   3.8565
  3.8648   3.8714   3.8817   3.8848   3.8899   3.8939   3.8973   3.9064
  3.9072   3.9234   3.9294   3.9359   3.9407   3.9448   3.9524   3.9588
  3.9679   3.9707   3.9774   3.9824   3.9992   4.0008   4.0096   4.0138
  4.0155   4.0281   4.0328   4.0445   4.0512   4.0638   4.0668   4.0685
  4.0727   4.0854   4.0920   4.0966   4.1088   4.1169   4.1236   4.1341
  4.1423   4.1505   4.1552   4.1596   4.1642   4.1672   4.1696   4.1747
  4.1807   4.1910   4.1928   4.2054   4.2089   4.2176   4.2224   4.2324
  4.2355   4.2481   4.2522   4.2706   4.2802   4.2856   4.2886   4.2986
  4.3212   4.3249   4.3379   4.3387   4.3415   4.3476   4.3504   4.3588
  4.3631   4.3697   4.3758   4.3819   4.3893   4.4054   4.4083   4.4155
  4.4180   4.4238   4.4284   4.4366   4.4385   4.4410   4.4453   4.4572
  4.4637   4.4731   4.4853   4.4967   4.5003   4.5120   4.5199   4.5278
  4.5342   4.5451   4.5528   4.5639   4.5677   4.5695   4.5822   4.5828
  4.5959   4.6021   4.6131   4.6162   4.6288   4.6358   4.6521   4.6549
  4.6572   4.6663   4.6779   4.6905   4.6928   4.7117   4.7223   4.7312
  4.7344   4.7532   4.7690   4.7713   4.7834   4.7910   4.8011   4.8212
  4.8264   4.8401   4.8459   4.8519   4.8669   4.8779   4.8831   4.8899
  4.9087   4.9149   4.9318   4.9470   4.9515   4.9540   4.9663   4.9746
  4.9782   5.0042   5.0082   5.0095   5.0141   5.0280   5.0429   5.0544
  5.0677   5.0874   5.1013   5.1056   5.1219   5.1477   5.1609   5.1659
  5.1750   5.1966   5.1971   5.2064   5.2160   5.2373   5.2473   5.2518
  5.2541   5.2572   5.2740   5.2915   5.2954   5.3162   5.3196   5.3280
  5.3352   5.3494   5.3548   5.3631   5.3712   5.3816   5.3964   5.4028
  5.4042   5.4089   5.4258   5.4450   5.4555   5.4662   5.4847   5.5061
  5.5127   5.5157   5.5230   5.5348   5.5566   5.5697   5.5727   5.5811
  5.5994   5.6104   5.6150   5.6212   5.6443   5.6569   5.6819   5.6942
  5.7239   5.7381   5.7518   5.7650   5.7714   5.8070   5.8169   5.8531
  5.8606   5.8790   5.9004   5.9134   5.9287   5.9467   5.9732   5.9901
  6.0411   6.0441   6.0528   6.1284   6.1456   6.1501   6.1648   6.1774
  6.1799   6.1849   6.2172   6.2480   6.2596   6.2610   6.2670   6.2778
  6.2923   6.3045   6.3463   6.3671   6.4396   6.4496   6.4792   6.5387
  6.5481   6.5677   6.6006   6.6472   6.6606   6.6707   6.7128   6.7443
  6.8079   6.8290   6.8574   6.8590   6.9005   6.9776   7.1322   7.1472
  7.2034   7.2051   7.2240   7.2401   7.3094   7.3278   7.3422   7.3615
  7.3623   7.4046   7.4128   7.4839   7.4882   7.4975   7.5201   7.5495
  7.6141   7.7383   7.7713   7.7894   7.8038   7.8993   7.9266   7.9557
  7.9693   8.1318   8.2769   8.4721   8.9203   9.0266   9.3614   9.4849
  9.6724  10.2696  11.2249  11.4008  11.7555  11.9702  12.1223  12.3554
 12.4247  12.4906  12.9039  12.9861  13.0179  13.3177  13.3862  13.4842
 13.6232  13.7720  13.8715  13.9353  14.0317  14.3091  14.7986  15.2074
 --------------------------------------------------------------
 
          Ground-State Mulliken Net Atomic Charges

     Atom                 Charge (a.u.)
  ----------------------------------------
      1 C                    -0.069516
      2 C                    -0.273022
      3 S                    -0.141009
      4 C                    -0.041403
      5 H                     0.191622
      6 C                    -0.055546
      7 C                     0.223947
      8 C                     0.220320
      9 C                    -0.071124
     10 C                    -0.052211
     11 O                    -0.335451
     12 O                    -0.343263
     13 C                    -0.082627
     14 H                     0.119505
     15 H                     0.091892
     16 H                     0.093015
     17 C                    -0.086945
     18 H                     0.122896
     19 H                     0.091016
     20 H                     0.090218
     21 C                    -0.258917
     22 S                    -0.078930
     23 C                     0.024216
     24 H                     0.205018
     25 C                    -0.063211
     26 S                     0.095308
     27 C                    -0.157614
     28 C                    -0.029753
     29 C                    -0.077339
     30 S                     0.038459
     31 C                    -0.152755
     32 C                     0.393898
     33 F                    -0.205333
     34 C                     0.446802
     35 O                    -0.461084
     36 O                    -0.301150
     37 C                    -0.058327
     38 H                     0.121382
     39 H                     0.095254
     40 H                     0.095313
     41 H                     0.220180
     42 H                     0.115316
     43 H                     0.113218
     44 H                     0.187734
  ----------------------------------------
  Sum of atomic charges =     0.000000

 -----------------------------------------------------------------
                    Cartesian Multipole Moments
 -----------------------------------------------------------------
    Charge (ESU x 10^10)
                 0.0000
    Dipole Moment (Debye)
         X       2.4250      Y       3.8461      Z       3.2587
       Tot       5.5939
    Quadrupole Moments (Debye-Ang)
        XX    -177.1542     XY       4.9958     YY    -188.6564
        XZ      -1.8023     YZ      -4.9051     ZZ    -204.6766
    Octopole Moments (Debye-Ang^2)
       XXX    -292.2705    XXY     362.5885    XYY     -49.3234
       YYY    1131.9932    XXZ     143.4211    XYZ     -46.4310
       YYZ     125.5065    XZZ     -40.0542    YZZ     495.9519
       ZZZ     553.5650
    Hexadecapole Moments (Debye-Ang^3)
      XXXX   -3722.1385   XXXY   -1351.8900   XXYY   -3970.5209
      XYYY   -1604.0205   YYYY  -19700.1701   XXXZ    1071.2093
      XXYZ     330.0062   XYYZ     340.7689   YYYZ    1193.2092
      XXZZ   -1348.6325   XYZZ    -179.8442   YYZZ   -4224.9666
      XZZZ     819.0898   YZZZ     829.8439   ZZZZ   -5455.7957
 -----------------------------------------------------------------
 Total job time:  351.23s(wall), 11115.24s(cpu) 
 Tue Jan  9 10:33:55 2024

        *************************************************************
        *                                                           *
        *  Thank you very much for using Q-Chem.  Have a nice day.  *
        *                                                           *
        *************************************************************


0 sent ACK to 0 
now end server 0 ... 
cleanup process ... done
remove work dirs ./qchem1948198.0 -- ./qchem1948198.0
rm -rf ./qchem1948198.0
rm -rf ./qchem1948198
