You are running Q-Chem version: 5.4.0

#
# job setting
#
local host:  exp-6-39
current dir: /home/rramji/project-csd799/aromodel/ptb7fout-qchem/hydrogenated-rotation-run
input file:  Dimethoxy_Benzodithiophene_Phi_60_Theta_230_Methylcarbonyl_3_Fluoro_Thienothiophene_Hydrogenated.qcin
output file: 
nprocs     : 1
nthreads   : 64
#
# qchem installation setting
#
QC:          /cm/shared/apps/spack/cpu/opt/spack/linux-centos8-zen2/gcc-10.2.0/qchem-5.4-akfmr7b3t57bfs6qan3padb2wnb2i7cl
QCAUX:       /cm/shared/apps/spack/cpu/opt/spack/linux-centos8-zen2/gcc-10.2.0/qchem-5.4-akfmr7b3t57bfs6qan3padb2wnb2i7cl/qcaux
QCPROG:      /cm/shared/apps/spack/cpu/opt/spack/linux-centos8-zen2/gcc-10.2.0/qchem-5.4-akfmr7b3t57bfs6qan3padb2wnb2i7cl/exe/qcprog.exe
QCPROG_S:    /cm/shared/apps/spack/cpu/opt/spack/linux-centos8-zen2/gcc-10.2.0/qchem-5.4-akfmr7b3t57bfs6qan3padb2wnb2i7cl/exe/qcprog.exe_s
PARALLEL:    -DPARALLEL
QCMPI:       mpich
#
# qchem directory setting
#
qcrun:       qchem2057330
QCSCRATCH:   .
QCLOCALSCR:  
QCTMPDIR:    .
QCFILEPREF:  ./qchem2057330
QCSAVEDIR:   
workdirs:    ./qchem2057330
workdir0:    ./qchem2057330
partmpdirs =  
#
# parallel setting
#
QCRSH:           ssh
QCMPI:           mpich
QCMPIRUN:        /cm/shared/apps/spack/cpu/opt/spack/linux-centos8-zen2/gcc-10.2.0/qchem-5.4-akfmr7b3t57bfs6qan3padb2wnb2i7cl/bin/mpi/mpirun_qchem
QCMACHINEFILE:   ./qchem2057330/hostfile
exp-6-39

#
# env setting
#
exported envs:   QC QCAUX QCSCRATCH QCRUNNAME QCFILEPREF QCPROG QCPROG_S GUIFILE

Running Job 1 of 1 Dimethoxy_Benzodithiophene_Phi_60_Theta_230_Methylcarbonyl_3_Fluoro_Thienothiophene_Hydrogenated.qcin
qchem Dimethoxy_Benzodithiophene_Phi_60_Theta_230_Methylcarbonyl_3_Fluoro_Thienothiophene_Hydrogenated.qcin_2057330.0 ./qchem2057330/ 1
/cm/shared/apps/spack/cpu/opt/spack/linux-centos8-zen2/gcc-10.2.0/qchem-5.4-akfmr7b3t57bfs6qan3padb2wnb2i7cl/bin/mpi/mpirun_qchem -machinefile ./qchem2057330/hostfile -np 1 /cm/shared/apps/spack/cpu/opt/spack/linux-centos8-zen2/gcc-10.2.0/qchem-5.4-akfmr7b3t57bfs6qan3padb2wnb2i7cl/exe/qcprog.exe Dimethoxy_Benzodithiophene_Phi_60_Theta_230_Methylcarbonyl_3_Fluoro_Thienothiophene_Hydrogenated.qcin_2057330.0 ./qchem2057330/

Process 0 of 1 is on exp-6-39 - thread support 0
initial socket setup ...start
initial socket setup ...done 
now start server 0 ... 
                  Welcome to Q-Chem
     A Quantum Leap Into The Future Of Chemistry


 Q-Chem 5.4, Q-Chem, Inc., Pleasanton, CA (2021)

 License issued to: University of California, San Diego (site)

 E. Epifanovsky,  A. T. B. Gilbert,  Xintian Feng,  Joonho Lee,  Yuezhi Mao,  
 N. Mardirossian,  P. Pokhilko,  A. White,  M. Wormit,  M. P. Coons,  
 A. L. Dempwolff,  Zhengting Gan,  D. Hait,  P. R. Horn,  L. D. Jacobson,  
 I. Kaliman,  J. Kussmann,  A. W. Lange,  Ka Un Lao,  D. S. Levine,  Jie Liu,  
 S. C. McKenzie,  A. F. Morrison,  K. Nanda,  F. Plasser,  D. R. Rehn,  
 M. L. Vidal,  Zhi-Qiang You,  Ying Zhu,  B. Alam,  B. Albrecht,  
 A. Aldossary,  E. Alguire,  J. H. Andersen,  D. Barton,  K. Begam,  A. Behn,  
 Y. A. Bernard,  E. J. Berquist,  H. Burton,  A. Carreras,  K. Carter-Fenk,  
 R. Chakraborty,  A. D. Chien,  K. D. Closser,  V. Cofer-Shabica,  
 S. Dasgupta,  Jia Deng,  M. de Wergifosse,  M. Diedenhofen,  Hainam Do,  
 S. Ehlert,  Po-Tung Fang,  S. Fatehi,  Qingguo Feng,  J. Gayvert,  
 Qinghui Ge,  G. Gidofalvi,  M. Goldey,  J. Gomes,  C. Gonzalez-Espinoza,  
 S. Gulania,  A. Gunina,  M. W. D. Hanson-Heine,  P. H. P. Harbach,  
 A. W. Hauser,  M. F. Herbst,  M. Hernandez Vera,  M. Hodecker,  
 Z. C. Holden,  S. Houck,  Xunkun Huang,  Kerwin Hui,  B. C. Huynh,  
 M. Ivanov,  Hyunjun Ji,  Hanjie Jiang,  B. Kaduk,  S. Kaehler,  
 K. Khistyaev,  Jaehoon Kim,  P. Klunzinger,  Z. Koczor-Benda,  
 Joong Hoon Koh,  D. Kosenkov,  L. Koulias,  T. Kowalczyk,  C. M. Krauter,  
 K. Kue,  A. Kunitsa,  T. Kus,  A. Landau,  K. V. Lawler,  D. Lefrancois,  
 S. Lehtola,  Rain Li,  Yi-Pei Li,  Jiashu Liang,  M. Liebenthal,  
 Hung-Hsuan Lin,  You-Sheng Lin,  Fenglai Liu,  Kuan-Yu Liu,  
 M. Loipersberger,  A. Luenser,  A. Manjanath,  P. Manohar,  E. Mansoor,  
 S. F. Manzer,  Shan-Ping Mao,  A. V. Marenich,  T. Markovich,  S. Mason,  
 S. A. Maurer,  P. F. McLaughlin,  M. F. S. J. Menger,  J.-M. Mewes,  
 S. A. Mewes,  P. Morgante,  J. W. Mullinax,  T. S. Nguyen-Beck,  
 K. J. Oosterbaan,  G. Paran,  Alexander C. Paul,  Suranjan K. Paul,  
 F. Pavosevic,  Zheng Pei,  S. Prager,  E. I. Proynov,  E. Ramos,  B. Rana,  
 A. E. Rask,  A. Rettig,  R. M. Richard,  F. Rob,  E. Rossomme,  T. Scheele,  
 M. Scheurer,  M. Schneider,  N. Sergueev,  S. M. Sharada,  W. Skomorowski,  
 D. W. Small,  C. J. Stein,  Yu-Chuan Su,  E. J. Sundstrom,  Zhen Tao,  
 J. Thirman,  T. Tsuchimochi,  N. M. Tubman,  S. P. Veccham,  O. Vydrov,  
 J. Wenzel,  J. Witte,  A. Yamada,  Kun Yao,  S. Yeganeh,  S. R. Yost,  
 A. Zech,  Igor Ying Zhang,  Xing Zhang,  Yu Zhang,  D. Zuev,  
 A. Aspuru-Guzik,  A. T. Bell,  N. A. Besley,  K. B. Bravaya,  B. R. Brooks,  
 D. Casanova,  Jeng-Da Chai,  S. Coriani,  C. J. Cramer,  
 A. E. DePrince, III,  R. A. DiStasio Jr.,  A. Dreuw,  B. D. Dunietz,  
 T. R. Furlani,  W. A. Goddard III,  S. Grimme,  S. Hammes-Schiffer,  
 T. Head-Gordon,  W. J. Hehre,  Chao-Ping Hsu,  T.-C. Jagau,  Yousung Jung,  
 A. Klamt,  Jing Kong,  D. S. Lambrecht,  WanZhen Liang,  N. J. Mayhall,  
 C. W. McCurdy,  J. B. Neaton,  C. Ochsenfeld,  J. A. Parkhill,  R. Peverati,  
 V. A. Rassolov,  Yihan Shao,  L. V. Slipchenko,  T. Stauch,  R. P. Steele,  
 J. E. Subotnik,  A. J. W. Thom,  A. Tkatchenko,  D. G. Truhlar,  
 T. Van Voorhis,  T. A. Wesolowski,  K. B. Whaley,  H. L. Woodcock III,  
 P. M. Zimmerman,  S. Faraji,  P. M. W. Gill,  M. Head-Gordon,  
 J. M. Herbert,  A. I. Krylov

 Contributors to earlier versions of Q-Chem not listed above: 
 R. D. Adamson,  B. Austin,  R. Baer,  J. Baker,  G. J. O. Beran,  
 K. Brandhorst,  S. T. Brown,  E. F. C. Byrd,  A. K. Chakraborty,  
 G. K. L. Chan,  Chun-Min Chang,  Yunqing Chen,  C.-L. Cheng,  
 Siu Hung Chien,  D. M. Chipman,  D. L. Crittenden,  H. Dachsel,  
 R. J. Doerksen,  A. D. Dutoi,  R. G. Edgar,  J. Fosso-Tande,  
 L. Fusti-Molnar,  D. Ghosh,  A. Ghysels,  A. Golubeva-Zadorozhnaya,  
 J. Gonthier,  M. S. Gordon,  S. R. Gwaltney,  G. Hawkins,  J. E. Herr,  
 A. Heyden,  S. Hirata,  E. G. Hohenstein,  G. Kedziora,  F. J. Keil,  
 C. Kelley,  Jihan Kim,  R. A. King,  R. Z. Khaliullin,  P. P. Korambath,  
 W. Kurlancheek,  A. Laurent,  A. M. Lee,  M. S. Lee,  S. V. Levchenko,  
 Ching Yeh Lin,  D. Liotard,  E. Livshits,  R. C. Lochan,  I. Lotan,  
 L. A. Martinez-Martinez,  P. E. Maslen,  N. Nair,  D. P. O'Neill,  
 D. Neuhauser,  E. Neuscamman,  C. M. Oana,  R. Olivares-Amaya,  R. Olson,  
 T. M. Perrine,  B. Peters,  P. A. Pieniazek,  A. Prociuk,  Y. M. Rhee,  
 J. Ritchie,  M. A. Rohrdanz,  E. Rosta,  N. J. Russ,  H. F. Schaefer III,  
 M. W. Schmidt,  N. E. Schultz,  S. Sharma,  N. Shenvi,  C. D. Sherrill,  
 A. C. Simmonett,  A. Sodt,  T. Stein,  D. Stuck,  K. S. Thanthiriwatte,  
 V. Vanovschi,  L. Vogt,  Tao Wang,  A. Warshel,  M. A. Watson,  
 C. F. Williams,  Q. Wu,  X. Xu,  Jun Yang,  W. Zhang,  Yan Zhao

 Please cite Q-Chem as follows:
 Y. Shao et al., Mol. Phys. 113, 184-215 (2015)
 DOI: 10.1080/00268976.2014.952696

 Q-Chem 5.4.0 for Intel X86 EM64T Linux

 Parts of Q-Chem use Armadillo 9.800.1 (Horizon Scraper).
 http://arma.sourceforge.net/

 Q-Chem begins on Tue Jan  9 11:52:49 2024  

 Host: 
0

     Scratch files written to ./qchem2057330//
 May1621 |scratch|qcdevops|jenkins|workspace|build_RNUM    
 Parallel job on  1  processors
 Processing $rem in /cm/shared/apps/spack/cpu/opt/spack/linux-centos8-zen2/gcc-10.2.0/qchem-5.4-akfmr7b3t57bfs6qan3padb2wnb2i7cl/config/preferences:
 Processing $rem in /home/rramji/.qchemrc:
 Symmetry turned off for PCM/SM12/SMD calculation
 Core orbitals will be frozen

 Checking the input file for inconsistencies... 	...done.

 Q-Chem warning in module forms1/BasisType.C, line 2236:

 You are not using the predefined 5D/6D in this basis set.


--------------------------------------------------------------
User input:
--------------------------------------------------------------
$molecule
0 1
C	0.270358	-8.517702	-0.172904
C	-0.548363	-7.641575	0.524688
S	1.445750	-7.638634	-1.180599
C	-0.259951	-6.264785	0.282727
H	-1.347559	-7.966081	1.203014
C	0.833868	-6.072714	-0.632972
C	1.248701	-4.787049	-1.013580
C	-0.965673	-5.162801	0.845068
C	-0.553357	-3.874817	0.460946
C	0.543470	-3.683952	-0.453541
O	-1.958276	-5.499772	1.714812
O	2.245053	-4.459055	-1.888193
C	3.360989	-5.329063	-2.033848
H	4.130667	-4.755694	-2.584788
H	3.112380	-6.238095	-2.624118
H	3.770895	-5.637262	-1.047748
C	-2.994272	-4.572261	2.013896
H	-3.763700	-5.139743	2.570853
H	-3.448815	-4.153131	1.090625
H	-2.636780	-3.739531	2.657717
C	0.827659	-2.306654	-0.694943
S	-1.174750	-2.306501	0.999993
C	-0.000000	-1.435185	-0.000000
H	1.627541	-1.978138	-1.370385
C	0.000000	0.000000	0.000000
S	0.783786	0.451972	1.507541
C	2.145261	1.238908	0.718873
C	0.783650	0.451572	-1.067872
C	1.986396	1.148648	-0.686410
S	0.574133	0.327317	-2.805516
C	2.088363	1.207943	-3.054530
C	2.700548	1.564221	-1.862551
F	3.855718	2.236706	-1.819088
C	2.477307	1.430318	-4.456084
O	1.814592	1.038482	-5.406510
O	3.643162	2.112042	-4.569225
C	4.074530	2.355061	-5.916207
H	5.024556	2.911627	-5.833064
H	3.322010	2.951860	-6.470168
H	4.229490	1.400910	-6.459293
H	2.944986	1.702260	1.306486
H	-0.311979	-9.143623	-0.859314
H	0.852097	-9.149441	0.508666
H	-0.699874	-1.443175	-0.822504
$end

$rem
JOBTYPE		SP
EXCHANGE	HF
CORRELATION	pRIMP2
BASIS		cc-pvtz
METHOD		rimp2
AUX_BASIS	rimp2-cc-pvtz
SOLVENT_METHOD	PCM
PURECART	11111
SYMMETRY	false
MEM_TOTAL	110000
SCF_CONVERGENCE = 6
THRESH=10
GUI = 2
$end



$solvent
dielectric 4.90
$end
--------------------------------------------------------------
 ----------------------------------------------------------------
             Standard Nuclear Orientation (Angstroms)
    I     Atom           X                Y                Z
 ----------------------------------------------------------------
    1      C       0.2703580000    -8.5177020000    -0.1729040000
    2      C      -0.5483630000    -7.6415750000     0.5246880000
    3      S       1.4457500000    -7.6386340000    -1.1805990000
    4      C      -0.2599510000    -6.2647850000     0.2827270000
    5      H      -1.3475590000    -7.9660810000     1.2030140000
    6      C       0.8338680000    -6.0727140000    -0.6329720000
    7      C       1.2487010000    -4.7870490000    -1.0135800000
    8      C      -0.9656730000    -5.1628010000     0.8450680000
    9      C      -0.5533570000    -3.8748170000     0.4609460000
   10      C       0.5434700000    -3.6839520000    -0.4535410000
   11      O      -1.9582760000    -5.4997720000     1.7148120000
   12      O       2.2450530000    -4.4590550000    -1.8881930000
   13      C       3.3609890000    -5.3290630000    -2.0338480000
   14      H       4.1306670000    -4.7556940000    -2.5847880000
   15      H       3.1123800000    -6.2380950000    -2.6241180000
   16      H       3.7708950000    -5.6372620000    -1.0477480000
   17      C      -2.9942720000    -4.5722610000     2.0138960000
   18      H      -3.7637000000    -5.1397430000     2.5708530000
   19      H      -3.4488150000    -4.1531310000     1.0906250000
   20      H      -2.6367800000    -3.7395310000     2.6577170000
   21      C       0.8276590000    -2.3066540000    -0.6949430000
   22      S      -1.1747500000    -2.3065010000     0.9999930000
   23      C       0.0000000000    -1.4351850000     0.0000000000
   24      H       1.6275410000    -1.9781380000    -1.3703850000
   25      C       0.0000000000     0.0000000000     0.0000000000
   26      S       0.7837860000     0.4519720000     1.5075410000
   27      C       2.1452610000     1.2389080000     0.7188730000
   28      C       0.7836500000     0.4515720000    -1.0678720000
   29      C       1.9863960000     1.1486480000    -0.6864100000
   30      S       0.5741330000     0.3273170000    -2.8055160000
   31      C       2.0883630000     1.2079430000    -3.0545300000
   32      C       2.7005480000     1.5642210000    -1.8625510000
   33      F       3.8557180000     2.2367060000    -1.8190880000
   34      C       2.4773070000     1.4303180000    -4.4560840000
   35      O       1.8145920000     1.0384820000    -5.4065100000
   36      O       3.6431620000     2.1120420000    -4.5692250000
   37      C       4.0745300000     2.3550610000    -5.9162070000
   38      H       5.0245560000     2.9116270000    -5.8330640000
   39      H       3.3220100000     2.9518600000    -6.4701680000
   40      H       4.2294900000     1.4009100000    -6.4592930000
   41      H       2.9449860000     1.7022600000     1.3064860000
   42      H      -0.3119790000    -9.1436230000    -0.8593140000
   43      H       0.8520970000    -9.1494410000     0.5086660000
   44      H      -0.6998740000    -1.4431750000    -0.8225040000
 ----------------------------------------------------------------
 Nuclear Repulsion Energy =        3417.71918045 hartrees
 There are      120 alpha and      120 beta electrons
 Requested basis set is cc-pVTZ
 There are 388 shells and 1096 basis functions

 Total QAlloc Memory Limit 110000 MB
 Mega-Array Size       188 MB
 MEM_STATIC part       192 MB
 Discretize the solute cavity surface with Lebedev spheres
	Using 110 Lebedev grid points for each H atom
	Using 194 Lebedev grid points for other atoms
	Atomic van der Waals radii will be scaled by 1.20
 Remove points where switching function is < 1.0e-08
 Keep 2934 surface tesserae and discard 4342 interior tesserae
 Molecular Surface Area = 437.940 Angst**2
 Requested basis set is rimp2-cc-pVTZ
 There are 853 shells and 2963 basis functions
 A cutoff of  1.0D-10 yielded  34667 shell pairs
 There are    259895 function pairs (    335521 Cartesian)
 Smallest overlap matrix eigenvalue = 2.15E-05

 Scale SEOQF with 1.000000e-01/1.000000e-02/1.000000e-02

 Standard Electronic Orientation quadrupole field applied
 Nucleus-field energy     =     0.0000000492 hartrees
 Guess from superposition of atomic densities
 Warning:  Energy on first SCF cycle will be non-variational
 SAD guess density has 240.000000 electrons

 -----------------------------------------------------------------------
  General SCF calculation program by
  Eric Jon Sundstrom, Paul Horn, Yuezhi Mao, Dmitri Zuev, Alec White,
  David Stuck, Shaama M.S., Shane Yost, Joonho Lee, David Small,
  Daniel Levine, Susi Lehtola, Hugh Burton, Evgeny Epifanovsky,
  Bang C. Huynh
 -----------------------------------------------------------------------
 Hartree-Fock
 using 64 threads for integral computing
 -------------------------------------------------------
 OpenMP Integral computing Module                
 Release: version 1.0, May 2013, Q-Chem Inc. Pittsburgh 
 -------------------------------------------------------
 A restricted SCF calculation will be
 performed using DIIS
 SCF converges when DIIS error is below 1.0e-06
 ---------------------------------------
  Cycle       Energy         DIIS error
 ---------------------------------------
    1   -2767.1467790617      1.75e-02  
    2   -2754.8255433315      1.54e-03  
    3   -2755.1750398828      8.61e-04  
    4   -2755.2631581059      2.58e-04  
    5   -2755.2768550712      7.33e-05  
    6   -2755.2783702611      2.62e-05  
    7   -2755.2787613838      1.34e-05  
    8   -2755.2788893047      5.75e-06  
    9   -2755.2789188462      2.84e-06  
   10   -2755.2789261466      1.59e-06  
   11   -2755.2789284524      7.42e-07  Convergence criterion met
 ---------------------------------------
 SCF time:   CPU 7657.49s  wall 279.00s 

************** Final PCM Free Energy Summary **************
 G_electrostatic  =      -0.02226497 hartree =     -13.97148141 kcal/mol
 G_cavitation     =       0.00000000 hartree =       0.00000000 kcal/mol
 G_dispersion     =       0.00000000 hartree =       0.00000000 kcal/mol
 G_repulsion      =       0.00000000 hartree =       0.00000000 kcal/mol
 --------------------------------------------------
 Non-electrostatic Free Energy =       0.00000000 hartree =       0.00000000 kcal/mol
 Total                         =      -0.02226497 hartree =     -13.97148141 kcal/mol
 --------------------------------------------------
 SCF Energy (H0 + V/2)                       =   -2755.27892845 
 Solute Internal Energy (H0)                 =   -2755.25666348 
 Total Free Energy (H0 + V/2 + non-elec)     =   -2755.27892845 hartree
                                             = -1728963.62285062 kcal/mol
***********************************************************

 SCF   energy in the final basis set =    -2755.2789284524
 Total energy in the final basis set =    -2755.2789284524


 --------------------------------------------------------------
  Generalized many-body perturbation theory program
  by Joonho Lee, Fazle Rob, Xintian Feng, Evgeny Epifanovsky

 No regularization used 
 (reg. param. = 0.0000e+00)
  (P|Q)^-1/2 Time:  CPU 161.03 s  wall 2.88 s

 In RI-MP2 calculation: 
 # of frozen core orbitals: 45

 Components of the RIMP2 correlation energy:
        aaaa    correlation energy =        -0.6719682153 a.u.
        abab    correlation energy =        -3.7595091669 a.u.
        bbbb    correlation energy =        -0.6719682153 a.u.
        non-Brillouin singles      =        -0.0000000000 a.u.
        total same-spin energy     =        -1.3439364305 a.u.
        total opposite-spin energy =        -3.7595091669 a.u.

 Total  RIMP2   correlation energy =        -5.1034455974 a.u.
        RIMP2         total energy =     -2760.3823740499 a.u.

 RI-MP2 Energy Time:  CPU 2933.61 s  wall 47.65 s
 
 --------------------------------------------------------------
 
                    Orbital Energies (a.u.)
 --------------------------------------------------------------
 
 Alpha MOs
 -- Occupied --
-92.0123 -92.0087 -91.9725 -91.9554 -26.3483 -20.6169 -20.5861 -20.5840
-20.5635 -11.4123 -11.3895 -11.3358 -11.3228 -11.3076 -11.3022 -11.3014
-11.2909 -11.2903 -11.2826 -11.2821 -11.2801 -11.2741 -11.2705 -11.2703
-11.2688 -11.2555 -11.2519 -11.2468 -11.2304  -9.0120  -9.0088  -8.9747
 -8.9581  -6.6929  -6.6921  -6.6912  -6.6894  -6.6883  -6.6882  -6.6558
 -6.6550  -6.6538  -6.6393  -6.6384  -6.6374  -1.6652  -1.4695  -1.4083
 -1.4069  -1.3723  -1.2429  -1.1999  -1.1712  -1.1420  -1.0994  -1.0514
 -1.0432  -1.0282  -1.0009  -0.9946  -0.9657  -0.9595  -0.9478  -0.9416
 -0.8912  -0.8741  -0.8593  -0.8153  -0.8001  -0.7913  -0.7811  -0.7651
 -0.7603  -0.7353  -0.7298  -0.7138  -0.7007  -0.6931  -0.6870  -0.6804
 -0.6760  -0.6661  -0.6545  -0.6471  -0.6388  -0.6302  -0.6174  -0.6151
 -0.6111  -0.6032  -0.5920  -0.5776  -0.5732  -0.5667  -0.5566  -0.5552
 -0.5390  -0.5327  -0.5259  -0.5224  -0.5135  -0.5095  -0.5057  -0.4994
 -0.4877  -0.4811  -0.4776  -0.4748  -0.4679  -0.4633  -0.4553  -0.4433
 -0.4212  -0.3965  -0.3795  -0.3666  -0.3540  -0.3121  -0.2864  -0.2147
 -- Virtual --
  0.0220   0.0556   0.0700   0.1293   0.1337   0.1448   0.1510   0.1547
  0.1570   0.1608   0.1676   0.1730   0.1847   0.1886   0.1907   0.1953
  0.1984   0.2036   0.2064   0.2138   0.2193   0.2216   0.2254   0.2263
  0.2304   0.2318   0.2380   0.2455   0.2533   0.2547   0.2600   0.2665
  0.2751   0.2806   0.2945   0.2994   0.3293   0.3374   0.3392   0.3421
  0.3470   0.3570   0.3578   0.3604   0.3666   0.3749   0.3827   0.3858
  0.3877   0.3894   0.3947   0.4035   0.4058   0.4152   0.4169   0.4218
  0.4240   0.4290   0.4312   0.4363   0.4393   0.4413   0.4443   0.4506
  0.4545   0.4626   0.4644   0.4680   0.4715   0.4766   0.4774   0.4825
  0.4873   0.4891   0.4951   0.4972   0.5023   0.5040   0.5097   0.5174
  0.5256   0.5283   0.5317   0.5335   0.5371   0.5380   0.5408   0.5424
  0.5495   0.5510   0.5572   0.5620   0.5656   0.5730   0.5754   0.5803
  0.5834   0.5877   0.5909   0.5967   0.5994   0.6017   0.6114   0.6124
  0.6133   0.6157   0.6170   0.6218   0.6237   0.6258   0.6295   0.6332
  0.6341   0.6409   0.6451   0.6471   0.6486   0.6553   0.6572   0.6621
  0.6678   0.6705   0.6764   0.6823   0.6883   0.6890   0.6975   0.7052
  0.7058   0.7082   0.7149   0.7169   0.7214   0.7232   0.7356   0.7389
  0.7439   0.7506   0.7551   0.7610   0.7629   0.7728   0.7754   0.7806
  0.7881   0.7985   0.8056   0.8065   0.8087   0.8126   0.8204   0.8246
  0.8331   0.8354   0.8460   0.8504   0.8561   0.8617   0.8681   0.8752
  0.8788   0.8827   0.8855   0.8949   0.8993   0.9043   0.9088   0.9155
  0.9214   0.9284   0.9332   0.9364   0.9394   0.9513   0.9548   0.9571
  0.9612   0.9642   0.9705   0.9734   0.9761   0.9819   0.9920   0.9951
  0.9978   1.0016   1.0052   1.0175   1.0197   1.0233   1.0240   1.0330
  1.0398   1.0459   1.0509   1.0548   1.0566   1.0588   1.0654   1.0735
  1.0749   1.0836   1.0865   1.0938   1.0998   1.1042   1.1094   1.1118
  1.1157   1.1173   1.1204   1.1247   1.1331   1.1351   1.1495   1.1534
  1.1581   1.1641   1.1668   1.1703   1.1752   1.1783   1.1832   1.1874
  1.1922   1.1944   1.1965   1.2035   1.2079   1.2098   1.2153   1.2225
  1.2274   1.2293   1.2363   1.2435   1.2458   1.2510   1.2552   1.2609
  1.2623   1.2679   1.2708   1.2737   1.2826   1.2874   1.2883   1.2922
  1.3019   1.3046   1.3082   1.3105   1.3304   1.3333   1.3386   1.3461
  1.3532   1.3556   1.3696   1.3767   1.3819   1.3890   1.3971   1.4028
  1.4079   1.4150   1.4200   1.4224   1.4311   1.4342   1.4555   1.4586
  1.4674   1.4691   1.4698   1.4851   1.4880   1.4913   1.4968   1.4985
  1.5014   1.5083   1.5099   1.5178   1.5264   1.5320   1.5362   1.5366
  1.5404   1.5453   1.5494   1.5528   1.5605   1.5639   1.5760   1.5788
  1.5885   1.5920   1.5960   1.6101   1.6155   1.6217   1.6255   1.6318
  1.6471   1.6516   1.6572   1.6680   1.6728   1.6760   1.6800   1.6858
  1.6901   1.6966   1.7068   1.7119   1.7204   1.7229   1.7332   1.7384
  1.7547   1.7604   1.7663   1.7841   1.7931   1.8007   1.8060   1.8111
  1.8182   1.8261   1.8345   1.8395   1.8511   1.8533   1.8697   1.8785
  1.8839   1.8920   1.9033   1.9131   1.9225   1.9246   1.9347   1.9416
  1.9478   1.9530   1.9580   1.9687   1.9785   1.9893   1.9924   2.0004
  2.0069   2.0079   2.0228   2.0314   2.0371   2.0419   2.0504   2.0596
  2.0673   2.0780   2.0829   2.0864   2.0960   2.1057   2.1109   2.1216
  2.1303   2.1484   2.1570   2.1661   2.1706   2.1784   2.1856   2.1873
  2.1953   2.1992   2.2033   2.2163   2.2213   2.2234   2.2335   2.2396
  2.2448   2.2475   2.2602   2.2680   2.2791   2.2899   2.2965   2.2969
  2.3104   2.3144   2.3246   2.3356   2.3404   2.3518   2.3582   2.3658
  2.3764   2.3777   2.3897   2.4030   2.4081   2.4144   2.4220   2.4265
  2.4285   2.4391   2.4403   2.4526   2.4632   2.4793   2.4839   2.4872
  2.4939   2.5032   2.5151   2.5261   2.5362   2.5403   2.5567   2.5599
  2.5660   2.5774   2.5908   2.6040   2.6103   2.6191   2.6212   2.6297
  2.6323   2.6362   2.6408   2.6465   2.6562   2.6617   2.6686   2.6760
  2.6833   2.6895   2.6947   2.6966   2.7057   2.7069   2.7131   2.7259
  2.7316   2.7376   2.7447   2.7527   2.7538   2.7725   2.7775   2.7808
  2.7875   2.7938   2.7963   2.8021   2.8133   2.8223   2.8283   2.8457
  2.8494   2.8528   2.8532   2.8642   2.8660   2.8699   2.8745   2.8808
  2.8870   2.8904   2.8998   2.9235   2.9250   2.9322   2.9465   2.9523
  2.9561   2.9581   2.9641   2.9686   2.9767   2.9846   2.9869   2.9971
  2.9998   3.0151   3.0187   3.0223   3.0260   3.0347   3.0426   3.0470
  3.0532   3.0588   3.0697   3.0701   3.0773   3.0935   3.0968   3.0984
  3.1041   3.1063   3.1115   3.1151   3.1253   3.1283   3.1312   3.1456
  3.1464   3.1490   3.1540   3.1634   3.1660   3.1752   3.1801   3.1819
  3.1869   3.1921   3.2064   3.2085   3.2153   3.2195   3.2202   3.2218
  3.2304   3.2385   3.2422   3.2522   3.2524   3.2590   3.2649   3.2728
  3.2750   3.2773   3.2830   3.2865   3.2904   3.2968   3.3016   3.3068
  3.3084   3.3166   3.3223   3.3278   3.3353   3.3399   3.3441   3.3475
  3.3502   3.3541   3.3578   3.3612   3.3637   3.3649   3.3693   3.3773
  3.3813   3.3846   3.3919   3.3944   3.3994   3.4045   3.4061   3.4088
  3.4134   3.4152   3.4253   3.4289   3.4304   3.4365   3.4383   3.4517
  3.4535   3.4561   3.4622   3.4679   3.4717   3.4778   3.4798   3.4831
  3.4874   3.4950   3.4976   3.5061   3.5093   3.5161   3.5251   3.5330
  3.5398   3.5465   3.5500   3.5563   3.5591   3.5635   3.5776   3.5803
  3.5872   3.5893   3.5916   3.5990   3.6018   3.6084   3.6129   3.6163
  3.6188   3.6273   3.6312   3.6342   3.6391   3.6462   3.6552   3.6591
  3.6672   3.6711   3.6733   3.6798   3.6833   3.6912   3.6962   3.7018
  3.7041   3.7055   3.7130   3.7196   3.7228   3.7270   3.7306   3.7375
  3.7417   3.7516   3.7600   3.7647   3.7727   3.7749   3.7782   3.7865
  3.7906   3.8014   3.8024   3.8031   3.8111   3.8128   3.8150   3.8195
  3.8228   3.8286   3.8368   3.8435   3.8521   3.8544   3.8585   3.8655
  3.8694   3.8780   3.8797   3.8818   3.8927   3.8952   3.9075   3.9153
  3.9195   3.9231   3.9296   3.9348   3.9421   3.9522   3.9617   3.9629
  3.9713   3.9821   3.9859   3.9970   3.9997   4.0047   4.0158   4.0179
  4.0267   4.0347   4.0382   4.0497   4.0570   4.0655   4.0680   4.0692
  4.0741   4.0876   4.0930   4.1014   4.1190   4.1204   4.1317   4.1374
  4.1477   4.1563   4.1602   4.1609   4.1665   4.1699   4.1743   4.1802
  4.1853   4.1921   4.1956   4.2063   4.2160   4.2213   4.2307   4.2321
  4.2457   4.2512   4.2631   4.2720   4.2801   4.2893   4.3052   4.3201
  4.3274   4.3380   4.3407   4.3438   4.3535   4.3578   4.3642   4.3674
  4.3739   4.3764   4.3841   4.3926   4.4039   4.4086   4.4187   4.4213
  4.4244   4.4266   4.4303   4.4346   4.4391   4.4493   4.4518   4.4645
  4.4753   4.4845   4.4856   4.5020   4.5156   4.5204   4.5322   4.5326
  4.5379   4.5500   4.5553   4.5699   4.5715   4.5759   4.5829   4.5904
  4.6009   4.6112   4.6220   4.6242   4.6363   4.6437   4.6558   4.6590
  4.6651   4.6787   4.6852   4.6893   4.7009   4.7153   4.7291   4.7362
  4.7403   4.7590   4.7683   4.7722   4.7931   4.7981   4.8136   4.8263
  4.8298   4.8361   4.8397   4.8440   4.8647   4.8764   4.8784   4.8840
  4.9139   4.9243   4.9393   4.9405   4.9501   4.9545   4.9684   4.9831
  4.9928   5.0058   5.0077   5.0120   5.0192   5.0260   5.0400   5.0578
  5.0687   5.0881   5.0926   5.1014   5.1101   5.1430   5.1476   5.1675
  5.1778   5.1974   5.2068   5.2104   5.2321   5.2348   5.2459   5.2493
  5.2545   5.2577   5.2776   5.2950   5.2968   5.3173   5.3259   5.3308
  5.3344   5.3467   5.3486   5.3703   5.3760   5.3828   5.3975   5.4033
  5.4115   5.4225   5.4249   5.4371   5.4462   5.4673   5.4838   5.5064
  5.5125   5.5138   5.5232   5.5332   5.5664   5.5773   5.5821   5.5938
  5.5983   5.6133   5.6195   5.6201   5.6459   5.6574   5.6662   5.6947
  5.7182   5.7283   5.7511   5.7685   5.7704   5.8055   5.8183   5.8511
  5.8619   5.8787   5.9046   5.9191   5.9273   5.9613   5.9823   6.0003
  6.0393   6.0404   6.0574   6.1290   6.1489   6.1569   6.1739   6.1778
  6.1807   6.1912   6.2390   6.2486   6.2559   6.2596   6.2638   6.2757
  6.2901   6.3059   6.3551   6.3759   6.4480   6.4488   6.5175   6.5392
  6.5502   6.5823   6.5998   6.6494   6.6609   6.6692   6.7242   6.7428
  6.8133   6.8276   6.8573   6.8594   6.9030   6.9762   7.1341   7.1491
  7.2020   7.2039   7.2249   7.2414   7.3080   7.3310   7.3447   7.3587
  7.3601   7.4031   7.4114   7.4810   7.4893   7.4975   7.5179   7.5483
  7.6129   7.7412   7.7685   7.7885   7.8053   7.8981   7.9287   7.9566
  7.9717   8.1297   8.2532   8.5348   8.9176   9.0318   9.3589   9.4849
  9.6687  10.2903  11.2352  11.4354  11.7691  12.0860  12.1337  12.3589
 12.4398  12.5349  12.9484  12.9657  12.9996  13.3846  13.4478  13.4862
 13.7463  13.8317  13.8815  13.9410  14.0469  14.3185  15.0800  15.2186
 --------------------------------------------------------------
 
          Ground-State Mulliken Net Atomic Charges

     Atom                 Charge (a.u.)
  ----------------------------------------
      1 C                    -0.068849
      2 C                    -0.278576
      3 S                    -0.142378
      4 C                    -0.039974
      5 H                     0.191038
      6 C                    -0.054066
      7 C                     0.227856
      8 C                     0.222648
      9 C                    -0.070010
     10 C                    -0.057653
     11 O                    -0.336110
     12 O                    -0.344342
     13 C                    -0.082867
     14 H                     0.119231
     15 H                     0.092627
     16 H                     0.092345
     17 C                    -0.086800
     18 H                     0.123152
     19 H                     0.091458
     20 H                     0.089616
     21 C                    -0.275312
     22 S                    -0.108318
     23 C                     0.092795
     24 H                     0.206610
     25 C                    -0.213648
     26 S                     0.103767
     27 C                    -0.117927
     28 C                     0.039833
     29 C                    -0.108612
     30 S                     0.064904
     31 C                    -0.153265
     32 C                     0.404935
     33 F                    -0.203389
     34 C                     0.448611
     35 O                    -0.461453
     36 O                    -0.301216
     37 C                    -0.058007
     38 H                     0.121853
     39 H                     0.095570
     40 H                     0.095599
     41 H                     0.220000
     42 H                     0.114868
     43 H                     0.112363
     44 H                     0.191095
  ----------------------------------------
  Sum of atomic charges =     0.000000

 -----------------------------------------------------------------
                    Cartesian Multipole Moments
 -----------------------------------------------------------------
    Charge (ESU x 10^10)
                 0.0000
    Dipole Moment (Debye)
         X       3.4075      Y       3.6478      Z       1.8682
       Tot       5.3299
    Quadrupole Moments (Debye-Ang)
        XX    -172.2578     XY      10.7645     YY    -196.3962
        XZ     -12.5074     YZ      -5.9507     ZZ    -201.8488
    Octopole Moments (Debye-Ang^2)
       XXX    -477.4126    XXY     425.6313    XYY    -180.2079
       YYY    1282.1073    XXZ     132.7599    XYZ      -0.8912
       YYZ     188.0501    XZZ     -96.0219    YZZ     515.4350
       ZZZ     575.1098
    Hexadecapole Moments (Debye-Ang^3)
      XXXX   -4141.1244   XXXY    -214.7517   XXYY   -3869.3666
      XYYY     -79.1240   YYYY  -18748.8977   XXXZ    1619.3619
      XXYZ      45.3929   XYYZ     473.6113   YYYZ     262.1411
      XXZZ   -1228.4110   XYZZ     186.8506   YYZZ   -4360.0813
      XZZZ    1456.8629   YZZZ     184.3087   ZZZZ   -6274.2594
 -----------------------------------------------------------------
 Total job time:  330.91s(wall), 10713.20s(cpu) 
 Tue Jan  9 11:58:20 2024

        *************************************************************
        *                                                           *
        *  Thank you very much for using Q-Chem.  Have a nice day.  *
        *                                                           *
        *************************************************************


0 sent ACK to 0 
now end server 0 ... 
cleanup process ... done
remove work dirs ./qchem2057330.0 -- ./qchem2057330.0
rm -rf ./qchem2057330.0
rm -rf ./qchem2057330
