You are running Q-Chem version: 5.4.0

#
# job setting
#
local host:  exp-14-15
current dir: /home/rramji/project-csd799/aromodel/ptb7fout-qchem/hydrogenated-rotation-run
input file:  Dimethoxy_Benzodithiophene_Phi_0_Theta_160_Methylcarbonyl_3_Fluoro_Thienothiophene_Hydrogenated.qcin
output file: 
nprocs     : 1
nthreads   : 64
#
# qchem installation setting
#
QC:          /cm/shared/apps/spack/cpu/opt/spack/linux-centos8-zen2/gcc-10.2.0/qchem-5.4-akfmr7b3t57bfs6qan3padb2wnb2i7cl
QCAUX:       /cm/shared/apps/spack/cpu/opt/spack/linux-centos8-zen2/gcc-10.2.0/qchem-5.4-akfmr7b3t57bfs6qan3padb2wnb2i7cl/qcaux
QCPROG:      /cm/shared/apps/spack/cpu/opt/spack/linux-centos8-zen2/gcc-10.2.0/qchem-5.4-akfmr7b3t57bfs6qan3padb2wnb2i7cl/exe/qcprog.exe
QCPROG_S:    /cm/shared/apps/spack/cpu/opt/spack/linux-centos8-zen2/gcc-10.2.0/qchem-5.4-akfmr7b3t57bfs6qan3padb2wnb2i7cl/exe/qcprog.exe_s
PARALLEL:    -DPARALLEL
QCMPI:       mpich
#
# qchem directory setting
#
qcrun:       qchem1981484
QCSCRATCH:   .
QCLOCALSCR:  
QCTMPDIR:    .
QCFILEPREF:  ./qchem1981484
QCSAVEDIR:   
workdirs:    ./qchem1981484
workdir0:    ./qchem1981484
partmpdirs =  
#
# parallel setting
#
QCRSH:           ssh
QCMPI:           mpich
QCMPIRUN:        /cm/shared/apps/spack/cpu/opt/spack/linux-centos8-zen2/gcc-10.2.0/qchem-5.4-akfmr7b3t57bfs6qan3padb2wnb2i7cl/bin/mpi/mpirun_qchem
QCMACHINEFILE:   ./qchem1981484/hostfile
exp-14-15

#
# env setting
#
exported envs:   QC QCAUX QCSCRATCH QCRUNNAME QCFILEPREF QCPROG QCPROG_S GUIFILE

Running Job 1 of 1 Dimethoxy_Benzodithiophene_Phi_0_Theta_160_Methylcarbonyl_3_Fluoro_Thienothiophene_Hydrogenated.qcin
qchem Dimethoxy_Benzodithiophene_Phi_0_Theta_160_Methylcarbonyl_3_Fluoro_Thienothiophene_Hydrogenated.qcin_1981484.0 ./qchem1981484/ 1
/cm/shared/apps/spack/cpu/opt/spack/linux-centos8-zen2/gcc-10.2.0/qchem-5.4-akfmr7b3t57bfs6qan3padb2wnb2i7cl/bin/mpi/mpirun_qchem -machinefile ./qchem1981484/hostfile -np 1 /cm/shared/apps/spack/cpu/opt/spack/linux-centos8-zen2/gcc-10.2.0/qchem-5.4-akfmr7b3t57bfs6qan3padb2wnb2i7cl/exe/qcprog.exe Dimethoxy_Benzodithiophene_Phi_0_Theta_160_Methylcarbonyl_3_Fluoro_Thienothiophene_Hydrogenated.qcin_1981484.0 ./qchem1981484/

Process 0 of 1 is on exp-14-15 - thread support 0
initial socket setup ...start
initial socket setup ...done 
now start server 0 ... 
                  Welcome to Q-Chem
     A Quantum Leap Into The Future Of Chemistry


 Q-Chem 5.4, Q-Chem, Inc., Pleasanton, CA (2021)

 License issued to: University of California, San Diego (site)

 E. Epifanovsky,  A. T. B. Gilbert,  Xintian Feng,  Joonho Lee,  Yuezhi Mao,  
 N. Mardirossian,  P. Pokhilko,  A. White,  M. Wormit,  M. P. Coons,  
 A. L. Dempwolff,  Zhengting Gan,  D. Hait,  P. R. Horn,  L. D. Jacobson,  
 I. Kaliman,  J. Kussmann,  A. W. Lange,  Ka Un Lao,  D. S. Levine,  Jie Liu,  
 S. C. McKenzie,  A. F. Morrison,  K. Nanda,  F. Plasser,  D. R. Rehn,  
 M. L. Vidal,  Zhi-Qiang You,  Ying Zhu,  B. Alam,  B. Albrecht,  
 A. Aldossary,  E. Alguire,  J. H. Andersen,  D. Barton,  K. Begam,  A. Behn,  
 Y. A. Bernard,  E. J. Berquist,  H. Burton,  A. Carreras,  K. Carter-Fenk,  
 R. Chakraborty,  A. D. Chien,  K. D. Closser,  V. Cofer-Shabica,  
 S. Dasgupta,  Jia Deng,  M. de Wergifosse,  M. Diedenhofen,  Hainam Do,  
 S. Ehlert,  Po-Tung Fang,  S. Fatehi,  Qingguo Feng,  J. Gayvert,  
 Qinghui Ge,  G. Gidofalvi,  M. Goldey,  J. Gomes,  C. Gonzalez-Espinoza,  
 S. Gulania,  A. Gunina,  M. W. D. Hanson-Heine,  P. H. P. Harbach,  
 A. W. Hauser,  M. F. Herbst,  M. Hernandez Vera,  M. Hodecker,  
 Z. C. Holden,  S. Houck,  Xunkun Huang,  Kerwin Hui,  B. C. Huynh,  
 M. Ivanov,  Hyunjun Ji,  Hanjie Jiang,  B. Kaduk,  S. Kaehler,  
 K. Khistyaev,  Jaehoon Kim,  P. Klunzinger,  Z. Koczor-Benda,  
 Joong Hoon Koh,  D. Kosenkov,  L. Koulias,  T. Kowalczyk,  C. M. Krauter,  
 K. Kue,  A. Kunitsa,  T. Kus,  A. Landau,  K. V. Lawler,  D. Lefrancois,  
 S. Lehtola,  Rain Li,  Yi-Pei Li,  Jiashu Liang,  M. Liebenthal,  
 Hung-Hsuan Lin,  You-Sheng Lin,  Fenglai Liu,  Kuan-Yu Liu,  
 M. Loipersberger,  A. Luenser,  A. Manjanath,  P. Manohar,  E. Mansoor,  
 S. F. Manzer,  Shan-Ping Mao,  A. V. Marenich,  T. Markovich,  S. Mason,  
 S. A. Maurer,  P. F. McLaughlin,  M. F. S. J. Menger,  J.-M. Mewes,  
 S. A. Mewes,  P. Morgante,  J. W. Mullinax,  T. S. Nguyen-Beck,  
 K. J. Oosterbaan,  G. Paran,  Alexander C. Paul,  Suranjan K. Paul,  
 F. Pavosevic,  Zheng Pei,  S. Prager,  E. I. Proynov,  E. Ramos,  B. Rana,  
 A. E. Rask,  A. Rettig,  R. M. Richard,  F. Rob,  E. Rossomme,  T. Scheele,  
 M. Scheurer,  M. Schneider,  N. Sergueev,  S. M. Sharada,  W. Skomorowski,  
 D. W. Small,  C. J. Stein,  Yu-Chuan Su,  E. J. Sundstrom,  Zhen Tao,  
 J. Thirman,  T. Tsuchimochi,  N. M. Tubman,  S. P. Veccham,  O. Vydrov,  
 J. Wenzel,  J. Witte,  A. Yamada,  Kun Yao,  S. Yeganeh,  S. R. Yost,  
 A. Zech,  Igor Ying Zhang,  Xing Zhang,  Yu Zhang,  D. Zuev,  
 A. Aspuru-Guzik,  A. T. Bell,  N. A. Besley,  K. B. Bravaya,  B. R. Brooks,  
 D. Casanova,  Jeng-Da Chai,  S. Coriani,  C. J. Cramer,  
 A. E. DePrince, III,  R. A. DiStasio Jr.,  A. Dreuw,  B. D. Dunietz,  
 T. R. Furlani,  W. A. Goddard III,  S. Grimme,  S. Hammes-Schiffer,  
 T. Head-Gordon,  W. J. Hehre,  Chao-Ping Hsu,  T.-C. Jagau,  Yousung Jung,  
 A. Klamt,  Jing Kong,  D. S. Lambrecht,  WanZhen Liang,  N. J. Mayhall,  
 C. W. McCurdy,  J. B. Neaton,  C. Ochsenfeld,  J. A. Parkhill,  R. Peverati,  
 V. A. Rassolov,  Yihan Shao,  L. V. Slipchenko,  T. Stauch,  R. P. Steele,  
 J. E. Subotnik,  A. J. W. Thom,  A. Tkatchenko,  D. G. Truhlar,  
 T. Van Voorhis,  T. A. Wesolowski,  K. B. Whaley,  H. L. Woodcock III,  
 P. M. Zimmerman,  S. Faraji,  P. M. W. Gill,  M. Head-Gordon,  
 J. M. Herbert,  A. I. Krylov

 Contributors to earlier versions of Q-Chem not listed above: 
 R. D. Adamson,  B. Austin,  R. Baer,  J. Baker,  G. J. O. Beran,  
 K. Brandhorst,  S. T. Brown,  E. F. C. Byrd,  A. K. Chakraborty,  
 G. K. L. Chan,  Chun-Min Chang,  Yunqing Chen,  C.-L. Cheng,  
 Siu Hung Chien,  D. M. Chipman,  D. L. Crittenden,  H. Dachsel,  
 R. J. Doerksen,  A. D. Dutoi,  R. G. Edgar,  J. Fosso-Tande,  
 L. Fusti-Molnar,  D. Ghosh,  A. Ghysels,  A. Golubeva-Zadorozhnaya,  
 J. Gonthier,  M. S. Gordon,  S. R. Gwaltney,  G. Hawkins,  J. E. Herr,  
 A. Heyden,  S. Hirata,  E. G. Hohenstein,  G. Kedziora,  F. J. Keil,  
 C. Kelley,  Jihan Kim,  R. A. King,  R. Z. Khaliullin,  P. P. Korambath,  
 W. Kurlancheek,  A. Laurent,  A. M. Lee,  M. S. Lee,  S. V. Levchenko,  
 Ching Yeh Lin,  D. Liotard,  E. Livshits,  R. C. Lochan,  I. Lotan,  
 L. A. Martinez-Martinez,  P. E. Maslen,  N. Nair,  D. P. O'Neill,  
 D. Neuhauser,  E. Neuscamman,  C. M. Oana,  R. Olivares-Amaya,  R. Olson,  
 T. M. Perrine,  B. Peters,  P. A. Pieniazek,  A. Prociuk,  Y. M. Rhee,  
 J. Ritchie,  M. A. Rohrdanz,  E. Rosta,  N. J. Russ,  H. F. Schaefer III,  
 M. W. Schmidt,  N. E. Schultz,  S. Sharma,  N. Shenvi,  C. D. Sherrill,  
 A. C. Simmonett,  A. Sodt,  T. Stein,  D. Stuck,  K. S. Thanthiriwatte,  
 V. Vanovschi,  L. Vogt,  Tao Wang,  A. Warshel,  M. A. Watson,  
 C. F. Williams,  Q. Wu,  X. Xu,  Jun Yang,  W. Zhang,  Yan Zhao

 Please cite Q-Chem as follows:
 Y. Shao et al., Mol. Phys. 113, 184-215 (2015)
 DOI: 10.1080/00268976.2014.952696

 Q-Chem 5.4.0 for Intel X86 EM64T Linux

 Parts of Q-Chem use Armadillo 9.800.1 (Horizon Scraper).
 http://arma.sourceforge.net/

 Q-Chem begins on Tue Jan  9 11:12:13 2024  

 Host: 
0

     Scratch files written to ./qchem1981484//
 May1621 |scratch|qcdevops|jenkins|workspace|build_RNUM    
 Parallel job on  1  processors
 Processing $rem in /cm/shared/apps/spack/cpu/opt/spack/linux-centos8-zen2/gcc-10.2.0/qchem-5.4-akfmr7b3t57bfs6qan3padb2wnb2i7cl/config/preferences:
 Processing $rem in /home/rramji/.qchemrc:
 Symmetry turned off for PCM/SM12/SMD calculation
 Core orbitals will be frozen

 Checking the input file for inconsistencies... 	...done.

 Q-Chem warning in module forms1/BasisType.C, line 2236:

 You are not using the predefined 5D/6D in this basis set.


--------------------------------------------------------------
User input:
--------------------------------------------------------------
$molecule
0 1
C	-0.070009	-8.517702	-0.313191
C	0.305494	-7.641575	0.694746
S	-0.614924	-7.638634	-1.762350
C	0.176768	-6.264785	0.340973
H	0.669571	-7.966081	1.677747
C	-0.309600	-6.072714	-1.000069
C	-0.525372	-4.787049	-1.520060
C	0.463825	-5.162801	1.196466
C	0.243888	-3.874817	0.677639
C	-0.240312	-3.683952	-0.665815
O	0.941626	-5.499772	2.426678
O	-1.006468	-4.459055	-2.755460
C	-0.761666	-5.329063	-3.853913
H	-1.016135	-4.755694	-4.765607
H	-1.401368	-6.238095	-3.822182
H	0.305161	-5.637262	-3.901833
C	0.868342	-4.572261	3.502489
H	1.128551	-5.139743	4.416005
H	-0.154712	-4.153131	3.613841
H	1.595605	-3.739531	3.386756
C	-0.369957	-2.306654	-1.015430
S	0.537898	-2.306501	1.445922
C	0.000000	-1.435185	0.000000
H	-0.731088	-1.978138	-1.998088
C	0.000000	0.000000	0.000000
S	0.000474	0.904764	1.507541
C	-0.000295	2.477305	0.718873
C	0.000752	0.904447	-1.067872
C	-0.001560	2.294593	-0.686410
S	0.003602	0.660872	-2.805516
C	-0.001928	2.412546	-3.054530
C	-0.004381	3.120854	-1.862551
F	-0.009185	4.457503	-1.819088
C	-0.000038	2.860570	-4.456084
O	0.007944	2.090724	-5.406510
O	-0.007501	4.211092	-4.569225
C	-0.002278	4.706177	-5.916207
H	-0.009265	5.807207	-5.833064
H	-0.895381	4.352875	-6.470168
H	0.901521	4.363301	-6.459293
H	-0.001708	3.401562	1.306486
H	-0.914194	-9.143623	-0.000738
H	0.769424	-9.149441	-0.626735
H	-1.012272	-1.443175	0.376353
$end

$rem
JOBTYPE		SP
EXCHANGE	HF
CORRELATION	pRIMP2
BASIS		cc-pvtz
METHOD		rimp2
AUX_BASIS	rimp2-cc-pvtz
SOLVENT_METHOD	PCM
PURECART	11111
SYMMETRY	false
MEM_TOTAL	110000
SCF_CONVERGENCE = 6
THRESH=10
GUI = 2
$end



$solvent
dielectric 4.90
$end
--------------------------------------------------------------
 ----------------------------------------------------------------
             Standard Nuclear Orientation (Angstroms)
    I     Atom           X                Y                Z
 ----------------------------------------------------------------
    1      C      -0.0700090000    -8.5177020000    -0.3131910000
    2      C       0.3054940000    -7.6415750000     0.6947460000
    3      S      -0.6149240000    -7.6386340000    -1.7623500000
    4      C       0.1767680000    -6.2647850000     0.3409730000
    5      H       0.6695710000    -7.9660810000     1.6777470000
    6      C      -0.3096000000    -6.0727140000    -1.0000690000
    7      C      -0.5253720000    -4.7870490000    -1.5200600000
    8      C       0.4638250000    -5.1628010000     1.1964660000
    9      C       0.2438880000    -3.8748170000     0.6776390000
   10      C      -0.2403120000    -3.6839520000    -0.6658150000
   11      O       0.9416260000    -5.4997720000     2.4266780000
   12      O      -1.0064680000    -4.4590550000    -2.7554600000
   13      C      -0.7616660000    -5.3290630000    -3.8539130000
   14      H      -1.0161350000    -4.7556940000    -4.7656070000
   15      H      -1.4013680000    -6.2380950000    -3.8221820000
   16      H       0.3051610000    -5.6372620000    -3.9018330000
   17      C       0.8683420000    -4.5722610000     3.5024890000
   18      H       1.1285510000    -5.1397430000     4.4160050000
   19      H      -0.1547120000    -4.1531310000     3.6138410000
   20      H       1.5956050000    -3.7395310000     3.3867560000
   21      C      -0.3699570000    -2.3066540000    -1.0154300000
   22      S       0.5378980000    -2.3065010000     1.4459220000
   23      C       0.0000000000    -1.4351850000     0.0000000000
   24      H      -0.7310880000    -1.9781380000    -1.9980880000
   25      C       0.0000000000     0.0000000000     0.0000000000
   26      S       0.0004740000     0.9047640000     1.5075410000
   27      C      -0.0002950000     2.4773050000     0.7188730000
   28      C       0.0007520000     0.9044470000    -1.0678720000
   29      C      -0.0015600000     2.2945930000    -0.6864100000
   30      S       0.0036020000     0.6608720000    -2.8055160000
   31      C      -0.0019280000     2.4125460000    -3.0545300000
   32      C      -0.0043810000     3.1208540000    -1.8625510000
   33      F      -0.0091850000     4.4575030000    -1.8190880000
   34      C      -0.0000380000     2.8605700000    -4.4560840000
   35      O       0.0079440000     2.0907240000    -5.4065100000
   36      O      -0.0075010000     4.2110920000    -4.5692250000
   37      C      -0.0022780000     4.7061770000    -5.9162070000
   38      H      -0.0092650000     5.8072070000    -5.8330640000
   39      H      -0.8953810000     4.3528750000    -6.4701680000
   40      H       0.9015210000     4.3633010000    -6.4592930000
   41      H      -0.0017080000     3.4015620000     1.3064860000
   42      H      -0.9141940000    -9.1436230000    -0.0007380000
   43      H       0.7694240000    -9.1494410000    -0.6267350000
   44      H      -1.0122720000    -1.4431750000     0.3763530000
 ----------------------------------------------------------------
 Nuclear Repulsion Energy =        3338.82147064 hartrees
 There are      120 alpha and      120 beta electrons
 Requested basis set is cc-pVTZ
 There are 388 shells and 1096 basis functions

 Total QAlloc Memory Limit 110000 MB
 Mega-Array Size       188 MB
 MEM_STATIC part       192 MB
 Discretize the solute cavity surface with Lebedev spheres
	Using 110 Lebedev grid points for each H atom
	Using 194 Lebedev grid points for other atoms
	Atomic van der Waals radii will be scaled by 1.20
 Remove points where switching function is < 1.0e-08
 Keep 2935 surface tesserae and discard 4341 interior tesserae
 Molecular Surface Area = 439.343 Angst**2
 Requested basis set is rimp2-cc-pVTZ
 There are 853 shells and 2963 basis functions
 A cutoff of  1.0D-10 yielded  33008 shell pairs
 There are    249216 function pairs (    322404 Cartesian)
 Smallest overlap matrix eigenvalue = 2.14E-05

 Scale SEOQF with 1.000000e-01/1.000000e-02/1.000000e-02

 Standard Electronic Orientation quadrupole field applied
 Nucleus-field energy     =     0.0000000177 hartrees
 Guess from superposition of atomic densities
 Warning:  Energy on first SCF cycle will be non-variational
 SAD guess density has 240.000000 electrons

 -----------------------------------------------------------------------
  General SCF calculation program by
  Eric Jon Sundstrom, Paul Horn, Yuezhi Mao, Dmitri Zuev, Alec White,
  David Stuck, Shaama M.S., Shane Yost, Joonho Lee, David Small,
  Daniel Levine, Susi Lehtola, Hugh Burton, Evgeny Epifanovsky,
  Bang C. Huynh
 -----------------------------------------------------------------------
 Hartree-Fock
 using 64 threads for integral computing
 -------------------------------------------------------
 OpenMP Integral computing Module                
 Release: version 1.0, May 2013, Q-Chem Inc. Pittsburgh 
 -------------------------------------------------------
 A restricted SCF calculation will be
 performed using DIIS
 SCF converges when DIIS error is below 1.0e-06
 ---------------------------------------
  Cycle       Energy         DIIS error
 ---------------------------------------
    1   -2767.0306594363      1.75e-02  
    2   -2754.8915977864      1.53e-03  
    3   -2755.2409616934      8.57e-04  
    4   -2755.3283628093      2.56e-04  
    5   -2755.3420606298      7.44e-05  
    6   -2755.3436359913      2.63e-05  
    7   -2755.3440558652      1.39e-05  
    8   -2755.3441941916      5.83e-06  
    9   -2755.3442277679      3.09e-06  
   10   -2755.3442362024      1.59e-06  
   11   -2755.3442391572      8.74e-07  Convergence criterion met
 ---------------------------------------
 SCF time:   CPU 7589.45s  wall 275.00s 

************** Final PCM Free Energy Summary **************
 G_electrostatic  =      -0.02008939 hartree =     -12.60628201 kcal/mol
 G_cavitation     =       0.00000000 hartree =       0.00000000 kcal/mol
 G_dispersion     =       0.00000000 hartree =       0.00000000 kcal/mol
 G_repulsion      =       0.00000000 hartree =       0.00000000 kcal/mol
 --------------------------------------------------
 Non-electrostatic Free Energy =       0.00000000 hartree =       0.00000000 kcal/mol
 Total                         =      -0.02008939 hartree =     -12.60628201 kcal/mol
 --------------------------------------------------
 SCF Energy (H0 + V/2)                       =   -2755.34423916 
 Solute Internal Energy (H0)                 =   -2755.32414977 
 Total Free Energy (H0 + V/2 + non-elec)     =   -2755.34423916 hartree
                                             = -1729004.60593644 kcal/mol
***********************************************************

 SCF   energy in the final basis set =    -2755.3442391572
 Total energy in the final basis set =    -2755.3442391572


 --------------------------------------------------------------
  Generalized many-body perturbation theory program
  by Joonho Lee, Fazle Rob, Xintian Feng, Evgeny Epifanovsky

 No regularization used 
 (reg. param. = 0.0000e+00)
  (P|Q)^-1/2 Time:  CPU 144.49 s  wall 3.03 s

 In RI-MP2 calculation: 
 # of frozen core orbitals: 45

 Components of the RIMP2 correlation energy:
        aaaa    correlation energy =        -0.6688582624 a.u.
        abab    correlation energy =        -3.7514444686 a.u.
        bbbb    correlation energy =        -0.6688582624 a.u.
        non-Brillouin singles      =        -0.0000000000 a.u.
        total same-spin energy     =        -1.3377165248 a.u.
        total opposite-spin energy =        -3.7514444686 a.u.

 Total  RIMP2   correlation energy =        -5.0891609934 a.u.
        RIMP2         total energy =     -2760.4334001506 a.u.

 RI-MP2 Energy Time:  CPU 2930.24 s  wall 47.86 s
 
 --------------------------------------------------------------
 
                    Orbital Energies (a.u.)
 --------------------------------------------------------------
 
 Alpha MOs
 -- Occupied --
-92.0147 -91.9956 -91.9820 -91.9595 -26.3426 -20.6149 -20.5893 -20.5875
-20.5615 -11.4095 -11.3813 -11.3112 -11.3108 -11.3100 -11.3016 -11.2982
-11.2918 -11.2889 -11.2861 -11.2856 -11.2845 -11.2844 -11.2826 -11.2747
-11.2737 -11.2611 -11.2598 -11.2511 -11.2403  -9.0135  -8.9958  -8.9843
 -8.9620  -6.6943  -6.6938  -6.6932  -6.6769  -6.6761  -6.6750  -6.6654
 -6.6645  -6.6633  -6.6433  -6.6423  -6.6413  -1.6597  -1.4674  -1.4125
 -1.4094  -1.3701  -1.2298  -1.2034  -1.1755  -1.1375  -1.1014  -1.0482
 -1.0447  -1.0235  -1.0047  -0.9994  -0.9630  -0.9593  -0.9497  -0.9406
 -0.8956  -0.8700  -0.8656  -0.8096  -0.8023  -0.7896  -0.7850  -0.7691
 -0.7564  -0.7385  -0.7246  -0.7140  -0.6993  -0.6892  -0.6847  -0.6809
 -0.6739  -0.6633  -0.6574  -0.6494  -0.6387  -0.6319  -0.6214  -0.6158
 -0.6122  -0.5984  -0.5934  -0.5768  -0.5720  -0.5652  -0.5601  -0.5518
 -0.5506  -0.5351  -0.5318  -0.5297  -0.5147  -0.5090  -0.5085  -0.5016
 -0.4855  -0.4815  -0.4773  -0.4739  -0.4720  -0.4673  -0.4612  -0.4477
 -0.4331  -0.3954  -0.3873  -0.3719  -0.3510  -0.2982  -0.2891  -0.2190
 -- Virtual --
  0.0343   0.0507   0.1171   0.1266   0.1373   0.1473   0.1527   0.1563
  0.1593   0.1606   0.1642   0.1727   0.1814   0.1839   0.1910   0.1965
  0.1982   0.2023   0.2045   0.2151   0.2215   0.2229   0.2240   0.2280
  0.2286   0.2358   0.2440   0.2454   0.2500   0.2574   0.2633   0.2741
  0.2843   0.2938   0.3086   0.3221   0.3349   0.3391   0.3433   0.3479
  0.3498   0.3570   0.3627   0.3674   0.3729   0.3814   0.3841   0.3849
  0.3884   0.3937   0.4031   0.4046   0.4101   0.4162   0.4183   0.4238
  0.4274   0.4291   0.4367   0.4386   0.4419   0.4458   0.4506   0.4546
  0.4576   0.4641   0.4680   0.4713   0.4735   0.4789   0.4810   0.4865
  0.4933   0.4969   0.4986   0.5023   0.5071   0.5130   0.5146   0.5192
  0.5247   0.5258   0.5307   0.5329   0.5401   0.5417   0.5436   0.5444
  0.5512   0.5557   0.5564   0.5580   0.5627   0.5712   0.5740   0.5818
  0.5850   0.5863   0.5911   0.5931   0.5975   0.6044   0.6103   0.6125
  0.6145   0.6151   0.6157   0.6207   0.6223   0.6243   0.6263   0.6293
  0.6332   0.6372   0.6411   0.6455   0.6467   0.6536   0.6564   0.6570
  0.6648   0.6673   0.6748   0.6826   0.6863   0.6902   0.6957   0.7032
  0.7081   0.7094   0.7144   0.7175   0.7192   0.7277   0.7325   0.7390
  0.7471   0.7523   0.7552   0.7608   0.7660   0.7708   0.7770   0.7870
  0.7983   0.8014   0.8078   0.8148   0.8161   0.8197   0.8212   0.8280
  0.8344   0.8370   0.8485   0.8566   0.8580   0.8687   0.8714   0.8729
  0.8773   0.8870   0.8893   0.8947   0.9003   0.9032   0.9071   0.9157
  0.9244   0.9306   0.9340   0.9396   0.9436   0.9480   0.9512   0.9582
  0.9614   0.9652   0.9689   0.9767   0.9812   0.9855   0.9881   0.9919
  0.9962   1.0010   1.0044   1.0140   1.0161   1.0239   1.0291   1.0297
  1.0354   1.0445   1.0474   1.0497   1.0541   1.0599   1.0631   1.0720
  1.0732   1.0806   1.0837   1.0891   1.0986   1.1026   1.1058   1.1077
  1.1148   1.1168   1.1257   1.1319   1.1385   1.1397   1.1488   1.1496
  1.1555   1.1583   1.1684   1.1704   1.1718   1.1769   1.1842   1.1868
  1.1882   1.1937   1.2002   1.2051   1.2059   1.2111   1.2164   1.2188
  1.2247   1.2317   1.2351   1.2405   1.2438   1.2481   1.2551   1.2565
  1.2626   1.2686   1.2714   1.2730   1.2799   1.2860   1.2895   1.2951
  1.2996   1.3054   1.3167   1.3223   1.3249   1.3307   1.3376   1.3441
  1.3483   1.3622   1.3678   1.3695   1.3748   1.3844   1.3929   1.3987
  1.4047   1.4149   1.4162   1.4231   1.4290   1.4320   1.4372   1.4517
  1.4575   1.4685   1.4732   1.4807   1.4852   1.4871   1.4995   1.5017
  1.5025   1.5072   1.5124   1.5165   1.5218   1.5329   1.5373   1.5402
  1.5429   1.5440   1.5458   1.5515   1.5579   1.5600   1.5691   1.5764
  1.5859   1.5949   1.6032   1.6156   1.6166   1.6222   1.6300   1.6388
  1.6422   1.6538   1.6593   1.6623   1.6653   1.6756   1.6817   1.6845
  1.6904   1.6978   1.7112   1.7148   1.7191   1.7276   1.7301   1.7480
  1.7678   1.7716   1.7774   1.7808   1.7896   1.8009   1.8112   1.8147
  1.8219   1.8256   1.8280   1.8473   1.8512   1.8583   1.8689   1.8759
  1.8821   1.8838   1.8909   1.9116   1.9138   1.9172   1.9316   1.9355
  1.9402   1.9487   1.9550   1.9659   1.9791   1.9822   1.9968   2.0025
  2.0090   2.0133   2.0185   2.0254   2.0350   2.0388   2.0450   2.0558
  2.0698   2.0748   2.0818   2.0880   2.0967   2.1011   2.1131   2.1340
  2.1417   2.1521   2.1596   2.1675   2.1758   2.1854   2.1927   2.1940
  2.1977   2.2052   2.2081   2.2130   2.2223   2.2335   2.2388   2.2413
  2.2451   2.2513   2.2588   2.2673   2.2730   2.2862   2.2887   2.3051
  2.3113   2.3186   2.3205   2.3264   2.3411   2.3510   2.3566   2.3604
  2.3666   2.3722   2.3819   2.3911   2.4016   2.4118   2.4170   2.4227
  2.4345   2.4375   2.4584   2.4654   2.4776   2.4801   2.4858   2.4971
  2.5029   2.5110   2.5120   2.5314   2.5359   2.5444   2.5585   2.5651
  2.5659   2.5863   2.5967   2.6035   2.6122   2.6169   2.6223   2.6262
  2.6312   2.6392   2.6437   2.6451   2.6497   2.6537   2.6552   2.6747
  2.6808   2.6841   2.6868   2.6938   2.7006   2.7049   2.7133   2.7145
  2.7213   2.7263   2.7329   2.7417   2.7454   2.7550   2.7621   2.7706
  2.7734   2.7857   2.7936   2.8032   2.8108   2.8138   2.8162   2.8369
  2.8423   2.8447   2.8464   2.8527   2.8584   2.8607   2.8694   2.8765
  2.8807   2.8876   2.8944   2.9011   2.9140   2.9178   2.9227   2.9441
  2.9525   2.9575   2.9604   2.9675   2.9727   2.9778   2.9848   2.9882
  2.9991   3.0000   3.0079   3.0177   3.0234   3.0246   3.0355   3.0471
  3.0570   3.0612   3.0645   3.0716   3.0794   3.0856   3.0943   3.0956
  3.0983   3.1028   3.1097   3.1176   3.1266   3.1277   3.1366   3.1450
  3.1475   3.1499   3.1535   3.1572   3.1622   3.1651   3.1689   3.1751
  3.1812   3.1854   3.1939   3.2062   3.2079   3.2153   3.2171   3.2251
  3.2288   3.2391   3.2444   3.2454   3.2551   3.2594   3.2614   3.2669
  3.2700   3.2706   3.2733   3.2783   3.2863   3.2899   3.2955   3.3000
  3.3019   3.3112   3.3174   3.3189   3.3255   3.3307   3.3398   3.3413
  3.3432   3.3474   3.3514   3.3530   3.3579   3.3635   3.3642   3.3687
  3.3711   3.3785   3.3869   3.3926   3.3933   3.3941   3.3985   3.3993
  3.4121   3.4168   3.4240   3.4274   3.4349   3.4366   3.4399   3.4452
  3.4509   3.4523   3.4556   3.4622   3.4689   3.4708   3.4777   3.4828
  3.4839   3.4871   3.4890   3.4921   3.4979   3.5094   3.5246   3.5349
  3.5387   3.5476   3.5502   3.5554   3.5587   3.5666   3.5672   3.5730
  3.5768   3.5854   3.5872   3.5929   3.5997   3.6033   3.6056   3.6103
  3.6146   3.6186   3.6259   3.6298   3.6349   3.6369   3.6374   3.6484
  3.6545   3.6601   3.6713   3.6730   3.6804   3.6834   3.6863   3.6935
  3.6969   3.7038   3.7065   3.7100   3.7131   3.7173   3.7202   3.7316
  3.7342   3.7409   3.7455   3.7524   3.7628   3.7657   3.7717   3.7792
  3.7824   3.7867   3.7919   3.7958   3.8049   3.8071   3.8141   3.8151
  3.8162   3.8221   3.8249   3.8412   3.8438   3.8490   3.8531   3.8594
  3.8629   3.8671   3.8699   3.8802   3.8870   3.8921   3.8940   3.9072
  3.9125   3.9197   3.9286   3.9362   3.9471   3.9489   3.9523   3.9584
  3.9614   3.9641   3.9699   3.9821   3.9929   3.9957   4.0006   4.0110
  4.0173   4.0187   4.0285   4.0445   4.0535   4.0562   4.0604   4.0667
  4.0689   4.0729   4.0910   4.0953   4.1022   4.1061   4.1205   4.1231
  4.1383   4.1417   4.1513   4.1606   4.1656   4.1663   4.1715   4.1738
  4.1777   4.1860   4.1905   4.1982   4.2072   4.2151   4.2248   4.2363
  4.2462   4.2492   4.2559   4.2659   4.2738   4.2831   4.2889   4.3118
  4.3174   4.3248   4.3296   4.3418   4.3492   4.3526   4.3558   4.3593
  4.3679   4.3756   4.3812   4.3844   4.3914   4.4022   4.4111   4.4156
  4.4222   4.4248   4.4314   4.4323   4.4381   4.4393   4.4453   4.4545
  4.4684   4.4766   4.4932   4.5037   4.5055   4.5146   4.5202   4.5255
  4.5318   4.5454   4.5529   4.5578   4.5657   4.5673   4.5771   4.5804
  4.5949   4.6029   4.6081   4.6124   4.6369   4.6440   4.6469   4.6516
  4.6564   4.6717   4.6739   4.6935   4.6968   4.7095   4.7240   4.7279
  4.7442   4.7530   4.7662   4.7767   4.7807   4.7943   4.8091   4.8215
  4.8238   4.8315   4.8427   4.8571   4.8645   4.8682   4.8767   4.8834
  4.9021   4.9247   4.9305   4.9439   4.9519   4.9583   4.9706   4.9776
  4.9903   5.0050   5.0089   5.0105   5.0245   5.0304   5.0423   5.0587
  5.0719   5.0813   5.0905   5.1047   5.1245   5.1422   5.1603   5.1651
  5.1774   5.1903   5.1980   5.2080   5.2255   5.2398   5.2530   5.2546
  5.2558   5.2603   5.2797   5.2882   5.2917   5.3149   5.3237   5.3278
  5.3335   5.3512   5.3528   5.3605   5.3772   5.3872   5.3914   5.4017
  5.4120   5.4185   5.4262   5.4407   5.4434   5.4849   5.4964   5.5096
  5.5136   5.5188   5.5234   5.5326   5.5625   5.5651   5.5844   5.5850
  5.5971   5.6054   5.6158   5.6215   5.6426   5.6548   5.6739   5.6896
  5.7113   5.7387   5.7525   5.7661   5.7809   5.8075   5.8161   5.8532
  5.8577   5.8801   5.9093   5.9195   5.9290   5.9575   5.9968   6.0371
  6.0420   6.0522   6.1018   6.1337   6.1504   6.1609   6.1726   6.1757
  6.1843   6.1996   6.2343   6.2474   6.2602   6.2614   6.2767   6.2862
  6.2900   6.3163   6.3575   6.4318   6.4500   6.4627   6.5369   6.5404
  6.5522   6.5813   6.6084   6.6492   6.6622   6.6710   6.7148   6.7478
  6.8096   6.8307   6.8572   6.8595   6.8983   6.9786   7.1311   7.1437
  7.2039   7.2080   7.2203   7.2400   7.3097   7.3284   7.3409   7.3638
  7.3650   7.4069   7.4132   7.4846   7.4863   7.4976   7.5274   7.5526
  7.6179   7.7347   7.7737   7.7905   7.8019   7.9031   7.9269   7.9540
  7.9767   8.1363   8.2761   8.6842   8.9226   9.0365   9.3635   9.4914
  9.6782  10.2510  11.1566  11.4787  11.7525  11.8889  12.1251  12.3860
 12.4294  12.5196  12.9212  13.0261  13.0967  13.2382  13.3858  13.4811
 13.7732  13.8226  13.9008  13.9610  14.0332  14.3126  15.1292  15.2870
 --------------------------------------------------------------
 
          Ground-State Mulliken Net Atomic Charges

     Atom                 Charge (a.u.)
  ----------------------------------------
      1 C                    -0.070628
      2 C                    -0.251295
      3 S                    -0.132347
      4 C                    -0.048304
      5 H                     0.194484
      6 C                    -0.050894
      7 C                     0.225425
      8 C                     0.231857
      9 C                    -0.075017
     10 C                    -0.052844
     11 O                    -0.333706
     12 O                    -0.343695
     13 C                    -0.083198
     14 H                     0.121356
     15 H                     0.092304
     16 H                     0.093044
     17 C                    -0.088185
     18 H                     0.124598
     19 H                     0.093061
     20 H                     0.090426
     21 C                    -0.283236
     22 S                    -0.091438
     23 C                     0.136785
     24 H                     0.200027
     25 C                    -0.088874
     26 S                     0.067322
     27 C                    -0.208943
     28 C                     0.036688
     29 C                    -0.128255
     30 S                    -0.009464
     31 C                    -0.160951
     32 C                     0.407094
     33 F                    -0.207795
     34 C                     0.443214
     35 O                    -0.460481
     36 O                    -0.300355
     37 C                    -0.058802
     38 H                     0.121519
     39 H                     0.095130
     40 H                     0.095186
     41 H                     0.217990
     42 H                     0.118521
     43 H                     0.116363
     44 H                     0.206314
  ----------------------------------------
  Sum of atomic charges =     0.000000

 -----------------------------------------------------------------
                    Cartesian Multipole Moments
 -----------------------------------------------------------------
    Charge (ESU x 10^10)
                 0.0000
    Dipole Moment (Debye)
         X      -0.5552      Y       1.5802      Z       3.5247
       Tot       3.9024
    Quadrupole Moments (Debye-Ang)
        XX    -201.9219     XY      -1.4067     YY    -169.5526
        XZ       0.4798     YZ     -11.7030     ZZ    -187.9018
    Octopole Moments (Debye-Ang^2)
       XXX       9.2827    XXY     377.9480    XYY      20.3348
       YYY     919.5683    XXZ     194.8473    XYZ      -0.8762
       YYZ     154.1940    XZZ       5.5622    YZZ     382.7087
       ZZZ     605.6263
    Hexadecapole Moments (Debye-Ang^3)
      XXXX    -476.2945   XXXY    -133.9909   XXYY   -4018.6148
      XYYY    -258.4319   YYYY  -20123.1042   XXXZ    -346.4079
      XXYZ     335.2835   XYYZ    -117.8274   YYYZ     467.0991
      XXZZ   -1346.8999   XYZZ     -52.2673   YYZZ   -4167.3253
      XZZZ    -249.4778   YZZZ     521.5294   ZZZZ   -7344.9366
 -----------------------------------------------------------------
 Total job time:  335.82s(wall), 10781.77s(cpu) 
 Tue Jan  9 11:17:49 2024

        *************************************************************
        *                                                           *
        *  Thank you very much for using Q-Chem.  Have a nice day.  *
        *                                                           *
        *************************************************************


0 sent ACK to 0 
now end server 0 ... 
cleanup process ... done
remove work dirs ./qchem1981484.0 -- ./qchem1981484.0
rm -rf ./qchem1981484.0
rm -rf ./qchem1981484
