You are running Q-Chem version: 5.4.0

#
# job setting
#
local host:  exp-4-18
current dir: /home/rramji/project-csd799/aromodel/ptb7fout-qchem/hydrogenated-rotation-run
input file:  Dimethoxy_Benzodithiophene_Phi_20_Theta_340_Methylcarbonyl_3_Fluoro_Thienothiophene_Hydrogenated.qcin
output file: 
nprocs     : 1
nthreads   : 64
#
# qchem installation setting
#
QC:          /cm/shared/apps/spack/cpu/opt/spack/linux-centos8-zen2/gcc-10.2.0/qchem-5.4-akfmr7b3t57bfs6qan3padb2wnb2i7cl
QCAUX:       /cm/shared/apps/spack/cpu/opt/spack/linux-centos8-zen2/gcc-10.2.0/qchem-5.4-akfmr7b3t57bfs6qan3padb2wnb2i7cl/qcaux
QCPROG:      /cm/shared/apps/spack/cpu/opt/spack/linux-centos8-zen2/gcc-10.2.0/qchem-5.4-akfmr7b3t57bfs6qan3padb2wnb2i7cl/exe/qcprog.exe
QCPROG_S:    /cm/shared/apps/spack/cpu/opt/spack/linux-centos8-zen2/gcc-10.2.0/qchem-5.4-akfmr7b3t57bfs6qan3padb2wnb2i7cl/exe/qcprog.exe_s
PARALLEL:    -DPARALLEL
QCMPI:       mpich
#
# qchem directory setting
#
qcrun:       qchem1325627
QCSCRATCH:   .
QCLOCALSCR:  
QCTMPDIR:    .
QCFILEPREF:  ./qchem1325627
QCSAVEDIR:   
workdirs:    ./qchem1325627
workdir0:    ./qchem1325627
partmpdirs =  
#
# parallel setting
#
QCRSH:           ssh
QCMPI:           mpich
QCMPIRUN:        /cm/shared/apps/spack/cpu/opt/spack/linux-centos8-zen2/gcc-10.2.0/qchem-5.4-akfmr7b3t57bfs6qan3padb2wnb2i7cl/bin/mpi/mpirun_qchem
QCMACHINEFILE:   ./qchem1325627/hostfile
exp-4-18

#
# env setting
#
exported envs:   QC QCAUX QCSCRATCH QCRUNNAME QCFILEPREF QCPROG QCPROG_S GUIFILE

Running Job 1 of 1 Dimethoxy_Benzodithiophene_Phi_20_Theta_340_Methylcarbonyl_3_Fluoro_Thienothiophene_Hydrogenated.qcin
qchem Dimethoxy_Benzodithiophene_Phi_20_Theta_340_Methylcarbonyl_3_Fluoro_Thienothiophene_Hydrogenated.qcin_1325627.0 ./qchem1325627/ 1
/cm/shared/apps/spack/cpu/opt/spack/linux-centos8-zen2/gcc-10.2.0/qchem-5.4-akfmr7b3t57bfs6qan3padb2wnb2i7cl/bin/mpi/mpirun_qchem -machinefile ./qchem1325627/hostfile -np 1 /cm/shared/apps/spack/cpu/opt/spack/linux-centos8-zen2/gcc-10.2.0/qchem-5.4-akfmr7b3t57bfs6qan3padb2wnb2i7cl/exe/qcprog.exe Dimethoxy_Benzodithiophene_Phi_20_Theta_340_Methylcarbonyl_3_Fluoro_Thienothiophene_Hydrogenated.qcin_1325627.0 ./qchem1325627/

Process 0 of 1 is on exp-4-18 - thread support 0
initial socket setup ...start
initial socket setup ...done 
now start server 0 ... 
                  Welcome to Q-Chem
     A Quantum Leap Into The Future Of Chemistry


 Q-Chem 5.4, Q-Chem, Inc., Pleasanton, CA (2021)

 License issued to: University of California, San Diego (site)

 E. Epifanovsky,  A. T. B. Gilbert,  Xintian Feng,  Joonho Lee,  Yuezhi Mao,  
 N. Mardirossian,  P. Pokhilko,  A. White,  M. Wormit,  M. P. Coons,  
 A. L. Dempwolff,  Zhengting Gan,  D. Hait,  P. R. Horn,  L. D. Jacobson,  
 I. Kaliman,  J. Kussmann,  A. W. Lange,  Ka Un Lao,  D. S. Levine,  Jie Liu,  
 S. C. McKenzie,  A. F. Morrison,  K. Nanda,  F. Plasser,  D. R. Rehn,  
 M. L. Vidal,  Zhi-Qiang You,  Ying Zhu,  B. Alam,  B. Albrecht,  
 A. Aldossary,  E. Alguire,  J. H. Andersen,  D. Barton,  K. Begam,  A. Behn,  
 Y. A. Bernard,  E. J. Berquist,  H. Burton,  A. Carreras,  K. Carter-Fenk,  
 R. Chakraborty,  A. D. Chien,  K. D. Closser,  V. Cofer-Shabica,  
 S. Dasgupta,  Jia Deng,  M. de Wergifosse,  M. Diedenhofen,  Hainam Do,  
 S. Ehlert,  Po-Tung Fang,  S. Fatehi,  Qingguo Feng,  J. Gayvert,  
 Qinghui Ge,  G. Gidofalvi,  M. Goldey,  J. Gomes,  C. Gonzalez-Espinoza,  
 S. Gulania,  A. Gunina,  M. W. D. Hanson-Heine,  P. H. P. Harbach,  
 A. W. Hauser,  M. F. Herbst,  M. Hernandez Vera,  M. Hodecker,  
 Z. C. Holden,  S. Houck,  Xunkun Huang,  Kerwin Hui,  B. C. Huynh,  
 M. Ivanov,  Hyunjun Ji,  Hanjie Jiang,  B. Kaduk,  S. Kaehler,  
 K. Khistyaev,  Jaehoon Kim,  P. Klunzinger,  Z. Koczor-Benda,  
 Joong Hoon Koh,  D. Kosenkov,  L. Koulias,  T. Kowalczyk,  C. M. Krauter,  
 K. Kue,  A. Kunitsa,  T. Kus,  A. Landau,  K. V. Lawler,  D. Lefrancois,  
 S. Lehtola,  Rain Li,  Yi-Pei Li,  Jiashu Liang,  M. Liebenthal,  
 Hung-Hsuan Lin,  You-Sheng Lin,  Fenglai Liu,  Kuan-Yu Liu,  
 M. Loipersberger,  A. Luenser,  A. Manjanath,  P. Manohar,  E. Mansoor,  
 S. F. Manzer,  Shan-Ping Mao,  A. V. Marenich,  T. Markovich,  S. Mason,  
 S. A. Maurer,  P. F. McLaughlin,  M. F. S. J. Menger,  J.-M. Mewes,  
 S. A. Mewes,  P. Morgante,  J. W. Mullinax,  T. S. Nguyen-Beck,  
 K. J. Oosterbaan,  G. Paran,  Alexander C. Paul,  Suranjan K. Paul,  
 F. Pavosevic,  Zheng Pei,  S. Prager,  E. I. Proynov,  E. Ramos,  B. Rana,  
 A. E. Rask,  A. Rettig,  R. M. Richard,  F. Rob,  E. Rossomme,  T. Scheele,  
 M. Scheurer,  M. Schneider,  N. Sergueev,  S. M. Sharada,  W. Skomorowski,  
 D. W. Small,  C. J. Stein,  Yu-Chuan Su,  E. J. Sundstrom,  Zhen Tao,  
 J. Thirman,  T. Tsuchimochi,  N. M. Tubman,  S. P. Veccham,  O. Vydrov,  
 J. Wenzel,  J. Witte,  A. Yamada,  Kun Yao,  S. Yeganeh,  S. R. Yost,  
 A. Zech,  Igor Ying Zhang,  Xing Zhang,  Yu Zhang,  D. Zuev,  
 A. Aspuru-Guzik,  A. T. Bell,  N. A. Besley,  K. B. Bravaya,  B. R. Brooks,  
 D. Casanova,  Jeng-Da Chai,  S. Coriani,  C. J. Cramer,  
 A. E. DePrince, III,  R. A. DiStasio Jr.,  A. Dreuw,  B. D. Dunietz,  
 T. R. Furlani,  W. A. Goddard III,  S. Grimme,  S. Hammes-Schiffer,  
 T. Head-Gordon,  W. J. Hehre,  Chao-Ping Hsu,  T.-C. Jagau,  Yousung Jung,  
 A. Klamt,  Jing Kong,  D. S. Lambrecht,  WanZhen Liang,  N. J. Mayhall,  
 C. W. McCurdy,  J. B. Neaton,  C. Ochsenfeld,  J. A. Parkhill,  R. Peverati,  
 V. A. Rassolov,  Yihan Shao,  L. V. Slipchenko,  T. Stauch,  R. P. Steele,  
 J. E. Subotnik,  A. J. W. Thom,  A. Tkatchenko,  D. G. Truhlar,  
 T. Van Voorhis,  T. A. Wesolowski,  K. B. Whaley,  H. L. Woodcock III,  
 P. M. Zimmerman,  S. Faraji,  P. M. W. Gill,  M. Head-Gordon,  
 J. M. Herbert,  A. I. Krylov

 Contributors to earlier versions of Q-Chem not listed above: 
 R. D. Adamson,  B. Austin,  R. Baer,  J. Baker,  G. J. O. Beran,  
 K. Brandhorst,  S. T. Brown,  E. F. C. Byrd,  A. K. Chakraborty,  
 G. K. L. Chan,  Chun-Min Chang,  Yunqing Chen,  C.-L. Cheng,  
 Siu Hung Chien,  D. M. Chipman,  D. L. Crittenden,  H. Dachsel,  
 R. J. Doerksen,  A. D. Dutoi,  R. G. Edgar,  J. Fosso-Tande,  
 L. Fusti-Molnar,  D. Ghosh,  A. Ghysels,  A. Golubeva-Zadorozhnaya,  
 J. Gonthier,  M. S. Gordon,  S. R. Gwaltney,  G. Hawkins,  J. E. Herr,  
 A. Heyden,  S. Hirata,  E. G. Hohenstein,  G. Kedziora,  F. J. Keil,  
 C. Kelley,  Jihan Kim,  R. A. King,  R. Z. Khaliullin,  P. P. Korambath,  
 W. Kurlancheek,  A. Laurent,  A. M. Lee,  M. S. Lee,  S. V. Levchenko,  
 Ching Yeh Lin,  D. Liotard,  E. Livshits,  R. C. Lochan,  I. Lotan,  
 L. A. Martinez-Martinez,  P. E. Maslen,  N. Nair,  D. P. O'Neill,  
 D. Neuhauser,  E. Neuscamman,  C. M. Oana,  R. Olivares-Amaya,  R. Olson,  
 T. M. Perrine,  B. Peters,  P. A. Pieniazek,  A. Prociuk,  Y. M. Rhee,  
 J. Ritchie,  M. A. Rohrdanz,  E. Rosta,  N. J. Russ,  H. F. Schaefer III,  
 M. W. Schmidt,  N. E. Schultz,  S. Sharma,  N. Shenvi,  C. D. Sherrill,  
 A. C. Simmonett,  A. Sodt,  T. Stein,  D. Stuck,  K. S. Thanthiriwatte,  
 V. Vanovschi,  L. Vogt,  Tao Wang,  A. Warshel,  M. A. Watson,  
 C. F. Williams,  Q. Wu,  X. Xu,  Jun Yang,  W. Zhang,  Yan Zhao

 Please cite Q-Chem as follows:
 Y. Shao et al., Mol. Phys. 113, 184-215 (2015)
 DOI: 10.1080/00268976.2014.952696

 Q-Chem 5.4.0 for Intel X86 EM64T Linux

 Parts of Q-Chem use Armadillo 9.800.1 (Horizon Scraper).
 http://arma.sourceforge.net/

 Q-Chem begins on Tue Jan  9 13:07:51 2024  

 Host: 
0

     Scratch files written to ./qchem1325627//
 May1621 |scratch|qcdevops|jenkins|workspace|build_RNUM    
 Parallel job on  1  processors
 Processing $rem in /cm/shared/apps/spack/cpu/opt/spack/linux-centos8-zen2/gcc-10.2.0/qchem-5.4-akfmr7b3t57bfs6qan3padb2wnb2i7cl/config/preferences:
 Processing $rem in /home/rramji/.qchemrc:
 Symmetry turned off for PCM/SM12/SMD calculation
 Core orbitals will be frozen

 Checking the input file for inconsistencies... 	...done.

 Q-Chem warning in module forms1/BasisType.C, line 2236:

 You are not using the predefined 5D/6D in this basis set.


--------------------------------------------------------------
User input:
--------------------------------------------------------------
$molecule
0 1
C	0.070009	-8.517702	0.313191
C	-0.305494	-7.641575	-0.694746
S	0.614924	-7.638634	1.762350
C	-0.176768	-6.264785	-0.340973
H	-0.669571	-7.966081	-1.677747
C	0.309600	-6.072714	1.000069
C	0.525372	-4.787049	1.520060
C	-0.463825	-5.162801	-1.196466
C	-0.243888	-3.874817	-0.677639
C	0.240312	-3.683952	0.665815
O	-0.941626	-5.499772	-2.426678
O	1.006468	-4.459055	2.755460
C	0.761666	-5.329063	3.853913
H	1.016135	-4.755694	4.765607
H	1.401368	-6.238095	3.822182
H	-0.305161	-5.637262	3.901833
C	-0.868342	-4.572261	-3.502489
H	-1.128551	-5.139743	-4.416005
H	0.154712	-4.153131	-3.613841
H	-1.595605	-3.739531	-3.386756
C	0.369957	-2.306654	1.015430
S	-0.537898	-2.306501	-1.445922
C	-0.000000	-1.435185	-0.000000
H	0.731088	-1.978138	1.998088
C	0.000000	0.000000	0.000000
S	0.309893	0.850039	1.507541
C	0.847011	2.328006	0.718873
C	0.310046	0.849645	-1.067872
C	0.783331	2.156746	-0.686410
S	0.229416	0.619785	-2.805516
C	0.823328	2.267711	-3.054530
C	1.063278	2.934142	-1.862551
F	1.515925	4.191824	-1.819088
C	0.978337	2.688069	-4.456084
O	0.722535	1.961921	-5.406510
O	1.433229	3.959697	-4.569225
C	1.607467	4.423139	-5.916207
H	1.977475	5.460158	-5.833064
H	0.647388	4.396602	-6.470168
H	2.339490	3.791823	-6.459293
H	1.161798	3.197007	1.306486
H	0.914194	-9.143623	0.000738
H	-0.769424	-9.149441	0.626735
H	1.012272	-1.443175	-0.376353
$end

$rem
JOBTYPE		SP
EXCHANGE	HF
CORRELATION	pRIMP2
BASIS		cc-pvtz
METHOD		rimp2
AUX_BASIS	rimp2-cc-pvtz
SOLVENT_METHOD	PCM
PURECART	11111
SYMMETRY	false
MEM_TOTAL	110000
SCF_CONVERGENCE = 6
THRESH=10
GUI = 2
$end



$solvent
dielectric 4.90
$end
--------------------------------------------------------------
 ----------------------------------------------------------------
             Standard Nuclear Orientation (Angstroms)
    I     Atom           X                Y                Z
 ----------------------------------------------------------------
    1      C       0.0700090000    -8.5177020000     0.3131910000
    2      C      -0.3054940000    -7.6415750000    -0.6947460000
    3      S       0.6149240000    -7.6386340000     1.7623500000
    4      C      -0.1767680000    -6.2647850000    -0.3409730000
    5      H      -0.6695710000    -7.9660810000    -1.6777470000
    6      C       0.3096000000    -6.0727140000     1.0000690000
    7      C       0.5253720000    -4.7870490000     1.5200600000
    8      C      -0.4638250000    -5.1628010000    -1.1964660000
    9      C      -0.2438880000    -3.8748170000    -0.6776390000
   10      C       0.2403120000    -3.6839520000     0.6658150000
   11      O      -0.9416260000    -5.4997720000    -2.4266780000
   12      O       1.0064680000    -4.4590550000     2.7554600000
   13      C       0.7616660000    -5.3290630000     3.8539130000
   14      H       1.0161350000    -4.7556940000     4.7656070000
   15      H       1.4013680000    -6.2380950000     3.8221820000
   16      H      -0.3051610000    -5.6372620000     3.9018330000
   17      C      -0.8683420000    -4.5722610000    -3.5024890000
   18      H      -1.1285510000    -5.1397430000    -4.4160050000
   19      H       0.1547120000    -4.1531310000    -3.6138410000
   20      H      -1.5956050000    -3.7395310000    -3.3867560000
   21      C       0.3699570000    -2.3066540000     1.0154300000
   22      S      -0.5378980000    -2.3065010000    -1.4459220000
   23      C       0.0000000000    -1.4351850000     0.0000000000
   24      H       0.7310880000    -1.9781380000     1.9980880000
   25      C       0.0000000000     0.0000000000     0.0000000000
   26      S       0.3098930000     0.8500390000     1.5075410000
   27      C       0.8470110000     2.3280060000     0.7188730000
   28      C       0.3100460000     0.8496450000    -1.0678720000
   29      C       0.7833310000     2.1567460000    -0.6864100000
   30      S       0.2294160000     0.6197850000    -2.8055160000
   31      C       0.8233280000     2.2677110000    -3.0545300000
   32      C       1.0632780000     2.9341420000    -1.8625510000
   33      F       1.5159250000     4.1918240000    -1.8190880000
   34      C       0.9783370000     2.6880690000    -4.4560840000
   35      O       0.7225350000     1.9619210000    -5.4065100000
   36      O       1.4332290000     3.9596970000    -4.5692250000
   37      C       1.6074670000     4.4231390000    -5.9162070000
   38      H       1.9774750000     5.4601580000    -5.8330640000
   39      H       0.6473880000     4.3966020000    -6.4701680000
   40      H       2.3394900000     3.7918230000    -6.4592930000
   41      H       1.1617980000     3.1970070000     1.3064860000
   42      H       0.9141940000    -9.1436230000     0.0007380000
   43      H      -0.7694240000    -9.1494410000     0.6267350000
   44      H       1.0122720000    -1.4431750000    -0.3763530000
 ----------------------------------------------------------------
 Nuclear Repulsion Energy =        3352.94809896 hartrees
 There are      120 alpha and      120 beta electrons
 Requested basis set is cc-pVTZ
 There are 388 shells and 1096 basis functions

 Total QAlloc Memory Limit 110000 MB
 Mega-Array Size       188 MB
 MEM_STATIC part       192 MB
 Discretize the solute cavity surface with Lebedev spheres
	Using 110 Lebedev grid points for each H atom
	Using 194 Lebedev grid points for other atoms
	Atomic van der Waals radii will be scaled by 1.20
 Remove points where switching function is < 1.0e-08
 Keep 2938 surface tesserae and discard 4338 interior tesserae
 Molecular Surface Area = 437.514 Angst**2
 Requested basis set is rimp2-cc-pVTZ
 There are 853 shells and 2963 basis functions
 A cutoff of  1.0D-10 yielded  33168 shell pairs
 There are    250354 function pairs (    323841 Cartesian)
 Smallest overlap matrix eigenvalue = 2.15E-05

 Scale SEOQF with 1.000000e-01/1.000000e-02/1.000000e-02

 Standard Electronic Orientation quadrupole field applied
 Nucleus-field energy     =     0.0000000204 hartrees
 Guess from superposition of atomic densities
 Warning:  Energy on first SCF cycle will be non-variational
 SAD guess density has 240.000000 electrons

 -----------------------------------------------------------------------
  General SCF calculation program by
  Eric Jon Sundstrom, Paul Horn, Yuezhi Mao, Dmitri Zuev, Alec White,
  David Stuck, Shaama M.S., Shane Yost, Joonho Lee, David Small,
  Daniel Levine, Susi Lehtola, Hugh Burton, Evgeny Epifanovsky,
  Bang C. Huynh
 -----------------------------------------------------------------------
 Hartree-Fock
 using 64 threads for integral computing
 -------------------------------------------------------
 OpenMP Integral computing Module                
 Release: version 1.0, May 2013, Q-Chem Inc. Pittsburgh 
 -------------------------------------------------------
 A restricted SCF calculation will be
 performed using DIIS
 SCF converges when DIIS error is below 1.0e-06
 ---------------------------------------
  Cycle       Energy         DIIS error
 ---------------------------------------
    1   -2767.0484840114      1.75e-02  
    2   -2754.8854941625      1.53e-03  
    3   -2755.2340644985      8.56e-04  
    4   -2755.3214087570      2.56e-04  
    5   -2755.3351747749      7.40e-05  
    6   -2755.3367506048      2.63e-05  
    7   -2755.3371705635      1.38e-05  
    8   -2755.3373052648      5.69e-06  
    9   -2755.3373358813      2.94e-06  
   10   -2755.3373431818      1.50e-06  
   11   -2755.3373456536      8.05e-07  Convergence criterion met
 ---------------------------------------
 SCF time:   CPU 7832.26s  wall 299.00s 

************** Final PCM Free Energy Summary **************
 G_electrostatic  =      -0.02027263 hartree =     -12.72126950 kcal/mol
 G_cavitation     =       0.00000000 hartree =       0.00000000 kcal/mol
 G_dispersion     =       0.00000000 hartree =       0.00000000 kcal/mol
 G_repulsion      =       0.00000000 hartree =       0.00000000 kcal/mol
 --------------------------------------------------
 Non-electrostatic Free Energy =       0.00000000 hartree =       0.00000000 kcal/mol
 Total                         =      -0.02027263 hartree =     -12.72126950 kcal/mol
 --------------------------------------------------
 SCF Energy (H0 + V/2)                       =   -2755.33734565 
 Solute Internal Energy (H0)                 =   -2755.31707302 
 Total Free Energy (H0 + V/2 + non-elec)     =   -2755.33734565 hartree
                                             = -1729000.28019765 kcal/mol
***********************************************************

 SCF   energy in the final basis set =    -2755.3373456536
 Total energy in the final basis set =    -2755.3373456536


 --------------------------------------------------------------
  Generalized many-body perturbation theory program
  by Joonho Lee, Fazle Rob, Xintian Feng, Evgeny Epifanovsky

 No regularization used 
 (reg. param. = 0.0000e+00)
  (P|Q)^-1/2 Time:  CPU 301.29 s  wall 5.56 s

 In RI-MP2 calculation: 
 # of frozen core orbitals: 45

 Components of the RIMP2 correlation energy:
        aaaa    correlation energy =        -0.6698305474 a.u.
        abab    correlation energy =        -3.7536027703 a.u.
        bbbb    correlation energy =        -0.6698305474 a.u.
        non-Brillouin singles      =        -0.0000000000 a.u.
        total same-spin energy     =        -1.3396610948 a.u.
        total opposite-spin energy =        -3.7536027703 a.u.

 Total  RIMP2   correlation energy =        -5.0932638651 a.u.
        RIMP2         total energy =     -2760.4306095187 a.u.

 RI-MP2 Energy Time:  CPU 3089.93 s  wall 50.68 s
 
 --------------------------------------------------------------
 
                    Orbital Energies (a.u.)
 --------------------------------------------------------------
 
 Alpha MOs
 -- Occupied --
-92.0147 -91.9963 -91.9795 -91.9596 -26.3425 -20.6149 -20.5881 -20.5881
-20.5613 -11.4093 -11.3810 -11.3100 -11.3100 -11.3096 -11.3014 -11.2974
-11.2927 -11.2888 -11.2849 -11.2849 -11.2845 -11.2841 -11.2836 -11.2749
-11.2731 -11.2608 -11.2595 -11.2511 -11.2398  -9.0134  -8.9965  -8.9820
 -8.9622  -6.6942  -6.6936  -6.6930  -6.6775  -6.6768  -6.6756  -6.6631
 -6.6622  -6.6610  -6.6434  -6.6425  -6.6415  -1.6596  -1.4673  -1.4115
 -1.4099  -1.3699  -1.2314  -1.2024  -1.1752  -1.1375  -1.1011  -1.0484
 -1.0446  -1.0240  -1.0043  -0.9980  -0.9640  -0.9569  -0.9495  -0.9421
 -0.8946  -0.8701  -0.8643  -0.8158  -0.7920  -0.7903  -0.7849  -0.7697
 -0.7571  -0.7369  -0.7245  -0.7095  -0.6973  -0.6959  -0.6847  -0.6817
 -0.6738  -0.6652  -0.6564  -0.6493  -0.6374  -0.6316  -0.6213  -0.6159
 -0.6112  -0.5997  -0.5937  -0.5762  -0.5712  -0.5660  -0.5600  -0.5560
 -0.5504  -0.5322  -0.5305  -0.5268  -0.5155  -0.5113  -0.5083  -0.5008
 -0.4851  -0.4800  -0.4770  -0.4735  -0.4712  -0.4656  -0.4605  -0.4475
 -0.4323  -0.3977  -0.3830  -0.3721  -0.3502  -0.3005  -0.2870  -0.2180
 -- Virtual --
  0.0315   0.0552   0.1073   0.1324   0.1384   0.1466   0.1507   0.1537
  0.1569   0.1602   0.1638   0.1758   0.1824   0.1838   0.1855   0.1953
  0.1991   0.2032   0.2066   0.2125   0.2151   0.2205   0.2241   0.2282
  0.2284   0.2368   0.2425   0.2495   0.2500   0.2583   0.2639   0.2730
  0.2886   0.2994   0.3148   0.3246   0.3291   0.3371   0.3433   0.3475
  0.3549   0.3571   0.3620   0.3725   0.3747   0.3795   0.3827   0.3847
  0.3901   0.3946   0.4019   0.4042   0.4073   0.4104   0.4152   0.4252
  0.4276   0.4289   0.4359   0.4376   0.4399   0.4429   0.4543   0.4553
  0.4602   0.4653   0.4673   0.4698   0.4731   0.4768   0.4800   0.4846
  0.4894   0.4922   0.4987   0.5002   0.5055   0.5089   0.5184   0.5205
  0.5226   0.5263   0.5301   0.5342   0.5367   0.5416   0.5431   0.5454
  0.5494   0.5524   0.5564   0.5595   0.5675   0.5698   0.5742   0.5856
  0.5869   0.5875   0.5894   0.5962   0.5994   0.6024   0.6099   0.6118
  0.6155   0.6173   0.6200   0.6213   0.6218   0.6234   0.6273   0.6311
  0.6340   0.6408   0.6438   0.6438   0.6472   0.6528   0.6562   0.6593
  0.6632   0.6678   0.6709   0.6758   0.6837   0.6857   0.6910   0.6999
  0.7069   0.7093   0.7117   0.7159   0.7222   0.7237   0.7322   0.7385
  0.7422   0.7514   0.7556   0.7630   0.7691   0.7714   0.7812   0.7867
  0.7977   0.8019   0.8051   0.8123   0.8182   0.8215   0.8219   0.8251
  0.8405   0.8430   0.8448   0.8503   0.8628   0.8648   0.8710   0.8828
  0.8842   0.8859   0.8892   0.8944   0.8969   0.8993   0.9071   0.9110
  0.9170   0.9275   0.9347   0.9402   0.9425   0.9456   0.9514   0.9533
  0.9588   0.9684   0.9695   0.9758   0.9785   0.9856   0.9900   0.9919
  0.9951   1.0009   1.0063   1.0123   1.0187   1.0213   1.0251   1.0295
  1.0352   1.0395   1.0489   1.0498   1.0557   1.0610   1.0635   1.0717
  1.0747   1.0771   1.0829   1.0888   1.0961   1.1003   1.1039   1.1060
  1.1097   1.1135   1.1177   1.1210   1.1315   1.1350   1.1367   1.1528
  1.1552   1.1600   1.1658   1.1681   1.1710   1.1721   1.1811   1.1829
  1.1867   1.1902   1.1997   1.2023   1.2061   1.2136   1.2175   1.2208
  1.2260   1.2334   1.2342   1.2421   1.2444   1.2473   1.2542   1.2551
  1.2578   1.2667   1.2703   1.2734   1.2767   1.2855   1.2914   1.2953
  1.2979   1.3039   1.3116   1.3204   1.3243   1.3270   1.3329   1.3380
  1.3451   1.3543   1.3588   1.3658   1.3765   1.3865   1.3947   1.4007
  1.4062   1.4080   1.4118   1.4253   1.4300   1.4317   1.4409   1.4544
  1.4555   1.4638   1.4724   1.4844   1.4871   1.4897   1.4957   1.5022
  1.5028   1.5122   1.5158   1.5186   1.5212   1.5338   1.5354   1.5393
  1.5437   1.5454   1.5480   1.5547   1.5614   1.5670   1.5723   1.5772
  1.5823   1.5939   1.5982   1.6029   1.6101   1.6268   1.6312   1.6386
  1.6412   1.6481   1.6528   1.6573   1.6682   1.6751   1.6827   1.6855
  1.6953   1.7015   1.7056   1.7081   1.7202   1.7248   1.7329   1.7500
  1.7599   1.7641   1.7711   1.7787   1.7848   1.7956   1.8122   1.8162
  1.8197   1.8237   1.8375   1.8410   1.8544   1.8622   1.8681   1.8751
  1.8838   1.8916   1.8996   1.9080   1.9139   1.9246   1.9307   1.9354
  1.9424   1.9464   1.9524   1.9752   1.9854   1.9880   1.9922   2.0040
  2.0089   2.0157   2.0201   2.0313   2.0332   2.0353   2.0414   2.0456
  2.0561   2.0762   2.0831   2.0884   2.0972   2.1094   2.1210   2.1340
  2.1487   2.1558   2.1647   2.1656   2.1830   2.1876   2.1906   2.1945
  2.1991   2.2084   2.2130   2.2196   2.2235   2.2322   2.2362   2.2438
  2.2498   2.2534   2.2563   2.2674   2.2724   2.2741   2.2885   2.3024
  2.3036   2.3100   2.3288   2.3298   2.3361   2.3482   2.3550   2.3635
  2.3695   2.3744   2.3850   2.3950   2.3991   2.4134   2.4166   2.4238
  2.4306   2.4429   2.4483   2.4597   2.4674   2.4803   2.4896   2.4939
  2.5074   2.5125   2.5191   2.5317   2.5411   2.5451   2.5520   2.5603
  2.5723   2.5872   2.5933   2.5987   2.6066   2.6141   2.6185   2.6247
  2.6293   2.6377   2.6414   2.6429   2.6474   2.6509   2.6663   2.6737
  2.6786   2.6874   2.6883   2.6937   2.7026   2.7038   2.7113   2.7132
  2.7189   2.7258   2.7346   2.7423   2.7503   2.7622   2.7641   2.7727
  2.7832   2.7895   2.7940   2.8030   2.8044   2.8061   2.8195   2.8314
  2.8415   2.8479   2.8516   2.8534   2.8609   2.8636   2.8679   2.8730
  2.8777   2.8840   2.8944   2.9065   2.9139   2.9174   2.9333   2.9337
  2.9508   2.9544   2.9566   2.9638   2.9708   2.9764   2.9788   2.9829
  2.9906   2.9984   3.0027   3.0146   3.0233   3.0290   3.0384   3.0429
  3.0497   3.0623   3.0638   3.0730   3.0830   3.0894   3.0909   3.0985
  3.1078   3.1085   3.1097   3.1228   3.1272   3.1351   3.1393   3.1414
  3.1438   3.1488   3.1538   3.1568   3.1597   3.1619   3.1700   3.1802
  3.1837   3.1906   3.1965   3.2065   3.2145   3.2157   3.2205   3.2260
  3.2273   3.2341   3.2405   3.2500   3.2580   3.2589   3.2617   3.2680
  3.2718   3.2755   3.2768   3.2860   3.2893   3.2951   3.2983   3.2995
  3.3062   3.3095   3.3136   3.3172   3.3278   3.3333   3.3362   3.3411
  3.3463   3.3479   3.3510   3.3541   3.3607   3.3615   3.3685   3.3743
  3.3771   3.3814   3.3853   3.3920   3.3955   3.4008   3.4022   3.4061
  3.4110   3.4157   3.4191   3.4251   3.4297   3.4322   3.4394   3.4445
  3.4515   3.4549   3.4589   3.4636   3.4694   3.4727   3.4777   3.4801
  3.4848   3.4894   3.4971   3.5008   3.5032   3.5139   3.5237   3.5306
  3.5336   3.5400   3.5468   3.5562   3.5588   3.5631   3.5664   3.5771
  3.5790   3.5881   3.5901   3.5944   3.5954   3.6015   3.6028   3.6121
  3.6166   3.6218   3.6244   3.6335   3.6369   3.6392   3.6411   3.6481
  3.6583   3.6639   3.6711   3.6776   3.6815   3.6844   3.6916   3.6987
  3.7000   3.7056   3.7067   3.7107   3.7170   3.7248   3.7295   3.7340
  3.7380   3.7417   3.7489   3.7506   3.7601   3.7620   3.7693   3.7731
  3.7849   3.7892   3.7956   3.8009   3.8030   3.8056   3.8103   3.8137
  3.8183   3.8220   3.8270   3.8377   3.8440   3.8476   3.8508   3.8548
  3.8652   3.8689   3.8756   3.8826   3.8867   3.8926   3.9069   3.9074
  3.9144   3.9159   3.9217   3.9315   3.9433   3.9494   3.9557   3.9559
  3.9632   3.9656   3.9750   3.9885   3.9999   4.0007   4.0095   4.0134
  4.0205   4.0247   4.0318   4.0358   4.0448   4.0602   4.0637   4.0672
  4.0687   4.0704   4.0848   4.0913   4.1095   4.1129   4.1204   4.1258
  4.1333   4.1436   4.1491   4.1585   4.1636   4.1666   4.1678   4.1701
  4.1701   4.1801   4.1909   4.2097   4.2147   4.2163   4.2315   4.2329
  4.2442   4.2492   4.2567   4.2665   4.2795   4.2842   4.2927   4.2961
  4.3138   4.3229   4.3279   4.3393   4.3419   4.3461   4.3529   4.3596
  4.3617   4.3700   4.3821   4.3884   4.3914   4.4040   4.4108   4.4154
  4.4219   4.4259   4.4299   4.4351   4.4370   4.4447   4.4504   4.4564
  4.4632   4.4711   4.4928   4.4953   4.5151   4.5191   4.5236   4.5323
  4.5361   4.5446   4.5485   4.5590   4.5680   4.5698   4.5773   4.5811
  4.5982   4.6010   4.6055   4.6149   4.6213   4.6409   4.6463   4.6508
  4.6616   4.6643   4.6846   4.6920   4.7044   4.7125   4.7246   4.7341
  4.7478   4.7653   4.7743   4.7813   4.7904   4.7945   4.8040   4.8176
  4.8310   4.8344   4.8401   4.8497   4.8569   4.8652   4.8804   4.8883
  4.8953   4.9109   4.9316   4.9429   4.9517   4.9592   4.9657   4.9791
  4.9809   5.0012   5.0089   5.0122   5.0220   5.0307   5.0400   5.0569
  5.0670   5.0730   5.0977   5.1053   5.1226   5.1326   5.1469   5.1655
  5.1727   5.1917   5.2033   5.2101   5.2215   5.2273   5.2500   5.2537
  5.2581   5.2698   5.2737   5.2879   5.2948   5.3028   5.3182   5.3262
  5.3416   5.3517   5.3562   5.3635   5.3812   5.3861   5.4001   5.4024
  5.4075   5.4216   5.4262   5.4412   5.4475   5.4810   5.4850   5.5029
  5.5102   5.5203   5.5239   5.5368   5.5516   5.5682   5.5779   5.5846
  5.5957   5.6069   5.6127   5.6217   5.6452   5.6640   5.6678   5.6892
  5.6978   5.7432   5.7584   5.7632   5.7747   5.8075   5.8186   5.8474
  5.8582   5.8800   5.9028   5.9168   5.9292   5.9425   5.9701   6.0013
  6.0399   6.0443   6.0795   6.1265   6.1505   6.1568   6.1731   6.1789
  6.1809   6.2115   6.2299   6.2450   6.2613   6.2616   6.2743   6.2854
  6.2936   6.3108   6.3493   6.3781   6.4448   6.4501   6.4978   6.5397
  6.5482   6.5673   6.6056   6.6443   6.6619   6.6712   6.7136   6.7476
  6.8076   6.8308   6.8576   6.8595   6.8992   6.9783   7.1314   7.1446
  7.2040   7.2075   7.2213   7.2388   7.3098   7.3267   7.3407   7.3639
  7.3653   7.4065   7.4133   7.4864   7.4869   7.4965   7.5249   7.5520
  7.6190   7.7409   7.7739   7.7900   7.8019   7.9029   7.9262   7.9536
  7.9790   8.1372   8.3303   8.5098   8.9227   9.0256   9.3638   9.4871
  9.6745  10.2187  11.1694  11.4334  11.7457  11.8956  12.1228  12.3623
 12.4231  12.4904  12.9458  12.9863  13.0603  13.2699  13.3890  13.4849
 13.7703  13.8311  13.8971  13.9443  14.0385  14.3102  14.9836  15.2234
 --------------------------------------------------------------
 
          Ground-State Mulliken Net Atomic Charges

     Atom                 Charge (a.u.)
  ----------------------------------------
      1 C                    -0.070619
      2 C                    -0.251512
      3 S                    -0.132943
      4 C                    -0.047066
      5 H                     0.194667
      6 C                    -0.049815
      7 C                     0.219366
      8 C                     0.231729
      9 C                    -0.071818
     10 C                    -0.039651
     11 O                    -0.334372
     12 O                    -0.344118
     13 C                    -0.082676
     14 H                     0.120072
     15 H                     0.092267
     16 H                     0.093060
     17 C                    -0.088466
     18 H                     0.124267
     19 H                     0.093713
     20 H                     0.091012
     21 C                    -0.298765
     22 S                    -0.094416
     23 C                     0.087032
     24 H                     0.200042
     25 C                     0.003914
     26 S                     0.077646
     27 C                    -0.211851
     28 C                    -0.028755
     29 C                    -0.109757
     30 S                    -0.002390
     31 C                    -0.162976
     32 C                     0.403685
     33 F                    -0.207407
     34 C                     0.445197
     35 O                    -0.460536
     36 O                    -0.300760
     37 C                    -0.058601
     38 H                     0.121407
     39 H                     0.095168
     40 H                     0.095011
     41 H                     0.216980
     42 H                     0.118531
     43 H                     0.116189
     44 H                     0.208314
  ----------------------------------------
  Sum of atomic charges =     0.000000

 -----------------------------------------------------------------
                    Cartesian Multipole Moments
 -----------------------------------------------------------------
    Charge (ESU x 10^10)
                 0.0000
    Dipole Moment (Debye)
         X       1.3327      Y       1.4920      Z       2.5573
       Tot       3.2469
    Quadrupole Moments (Debye-Ang)
        XX    -200.1639     XY       6.2296     YY    -172.3188
        XZ      -2.1637     YZ      -3.1762     ZZ    -187.6320
    Octopole Moments (Debye-Ang^2)
       XXX    -199.0449    XXY     395.8461    XYY     -66.1021
       YYY     947.6151    XXZ     145.9302    XYZ     -21.5550
       YYZ      70.1340    XZZ     -38.5329    YZZ     388.4822
       ZZZ     508.1628
    Hexadecapole Moments (Debye-Ang^3)
      XXXX    -883.6409   XXXY    -420.4353   XXYY   -3991.9465
      XYYY    -231.3204   YYYY  -19809.2041   XXXZ     188.8112
      XXYZ     664.5645   XYYZ     -40.5106   YYYZ    2014.2164
      XXZZ   -1342.5028   XYZZ      64.4640   YYZZ   -4177.7351
      XZZZ     110.3401   YZZZ    1515.0149   ZZZZ   -7344.4825
 -----------------------------------------------------------------
 Total job time:  354.43s(wall), 11044.88s(cpu) 
 Tue Jan  9 13:13:45 2024

        *************************************************************
        *                                                           *
        *  Thank you very much for using Q-Chem.  Have a nice day.  *
        *                                                           *
        *************************************************************


0 sent ACK to 0 
now end server 0 ... 
cleanup process ... done
remove work dirs ./qchem1325627.0 -- ./qchem1325627.0
rm -rf ./qchem1325627.0
rm -rf ./qchem1325627
