You are running Q-Chem version: 5.4.0

#
# job setting
#
local host:  exp-14-16
current dir: /home/rramji/project-csd799/aromodel/ptb7fout-qchem/hydrogenated-rotation-run
input file:  Dimethoxy_Benzodithiophene_Phi_30_Theta_280_Methylcarbonyl_3_Fluoro_Thienothiophene_Hydrogenated.qcin
output file: 
nprocs     : 1
nthreads   : 64
#
# qchem installation setting
#
QC:          /cm/shared/apps/spack/cpu/opt/spack/linux-centos8-zen2/gcc-10.2.0/qchem-5.4-akfmr7b3t57bfs6qan3padb2wnb2i7cl
QCAUX:       /cm/shared/apps/spack/cpu/opt/spack/linux-centos8-zen2/gcc-10.2.0/qchem-5.4-akfmr7b3t57bfs6qan3padb2wnb2i7cl/qcaux
QCPROG:      /cm/shared/apps/spack/cpu/opt/spack/linux-centos8-zen2/gcc-10.2.0/qchem-5.4-akfmr7b3t57bfs6qan3padb2wnb2i7cl/exe/qcprog.exe
QCPROG_S:    /cm/shared/apps/spack/cpu/opt/spack/linux-centos8-zen2/gcc-10.2.0/qchem-5.4-akfmr7b3t57bfs6qan3padb2wnb2i7cl/exe/qcprog.exe_s
PARALLEL:    -DPARALLEL
QCMPI:       mpich
#
# qchem directory setting
#
qcrun:       qchem1511414
QCSCRATCH:   .
QCLOCALSCR:  
QCTMPDIR:    .
QCFILEPREF:  ./qchem1511414
QCSAVEDIR:   
workdirs:    ./qchem1511414
workdir0:    ./qchem1511414
partmpdirs =  
#
# parallel setting
#
QCRSH:           ssh
QCMPI:           mpich
QCMPIRUN:        /cm/shared/apps/spack/cpu/opt/spack/linux-centos8-zen2/gcc-10.2.0/qchem-5.4-akfmr7b3t57bfs6qan3padb2wnb2i7cl/bin/mpi/mpirun_qchem
QCMACHINEFILE:   ./qchem1511414/hostfile
exp-14-16

#
# env setting
#
exported envs:   QC QCAUX QCSCRATCH QCRUNNAME QCFILEPREF QCPROG QCPROG_S GUIFILE

Running Job 1 of 1 Dimethoxy_Benzodithiophene_Phi_30_Theta_280_Methylcarbonyl_3_Fluoro_Thienothiophene_Hydrogenated.qcin
qchem Dimethoxy_Benzodithiophene_Phi_30_Theta_280_Methylcarbonyl_3_Fluoro_Thienothiophene_Hydrogenated.qcin_1511414.0 ./qchem1511414/ 1
/cm/shared/apps/spack/cpu/opt/spack/linux-centos8-zen2/gcc-10.2.0/qchem-5.4-akfmr7b3t57bfs6qan3padb2wnb2i7cl/bin/mpi/mpirun_qchem -machinefile ./qchem1511414/hostfile -np 1 /cm/shared/apps/spack/cpu/opt/spack/linux-centos8-zen2/gcc-10.2.0/qchem-5.4-akfmr7b3t57bfs6qan3padb2wnb2i7cl/exe/qcprog.exe Dimethoxy_Benzodithiophene_Phi_30_Theta_280_Methylcarbonyl_3_Fluoro_Thienothiophene_Hydrogenated.qcin_1511414.0 ./qchem1511414/

Process 0 of 1 is on exp-14-16 - thread support 0
initial socket setup ...start
initial socket setup ...done 
now start server 0 ... 
                  Welcome to Q-Chem
     A Quantum Leap Into The Future Of Chemistry


 Q-Chem 5.4, Q-Chem, Inc., Pleasanton, CA (2021)

 License issued to: University of California, San Diego (site)

 E. Epifanovsky,  A. T. B. Gilbert,  Xintian Feng,  Joonho Lee,  Yuezhi Mao,  
 N. Mardirossian,  P. Pokhilko,  A. White,  M. Wormit,  M. P. Coons,  
 A. L. Dempwolff,  Zhengting Gan,  D. Hait,  P. R. Horn,  L. D. Jacobson,  
 I. Kaliman,  J. Kussmann,  A. W. Lange,  Ka Un Lao,  D. S. Levine,  Jie Liu,  
 S. C. McKenzie,  A. F. Morrison,  K. Nanda,  F. Plasser,  D. R. Rehn,  
 M. L. Vidal,  Zhi-Qiang You,  Ying Zhu,  B. Alam,  B. Albrecht,  
 A. Aldossary,  E. Alguire,  J. H. Andersen,  D. Barton,  K. Begam,  A. Behn,  
 Y. A. Bernard,  E. J. Berquist,  H. Burton,  A. Carreras,  K. Carter-Fenk,  
 R. Chakraborty,  A. D. Chien,  K. D. Closser,  V. Cofer-Shabica,  
 S. Dasgupta,  Jia Deng,  M. de Wergifosse,  M. Diedenhofen,  Hainam Do,  
 S. Ehlert,  Po-Tung Fang,  S. Fatehi,  Qingguo Feng,  J. Gayvert,  
 Qinghui Ge,  G. Gidofalvi,  M. Goldey,  J. Gomes,  C. Gonzalez-Espinoza,  
 S. Gulania,  A. Gunina,  M. W. D. Hanson-Heine,  P. H. P. Harbach,  
 A. W. Hauser,  M. F. Herbst,  M. Hernandez Vera,  M. Hodecker,  
 Z. C. Holden,  S. Houck,  Xunkun Huang,  Kerwin Hui,  B. C. Huynh,  
 M. Ivanov,  Hyunjun Ji,  Hanjie Jiang,  B. Kaduk,  S. Kaehler,  
 K. Khistyaev,  Jaehoon Kim,  P. Klunzinger,  Z. Koczor-Benda,  
 Joong Hoon Koh,  D. Kosenkov,  L. Koulias,  T. Kowalczyk,  C. M. Krauter,  
 K. Kue,  A. Kunitsa,  T. Kus,  A. Landau,  K. V. Lawler,  D. Lefrancois,  
 S. Lehtola,  Rain Li,  Yi-Pei Li,  Jiashu Liang,  M. Liebenthal,  
 Hung-Hsuan Lin,  You-Sheng Lin,  Fenglai Liu,  Kuan-Yu Liu,  
 M. Loipersberger,  A. Luenser,  A. Manjanath,  P. Manohar,  E. Mansoor,  
 S. F. Manzer,  Shan-Ping Mao,  A. V. Marenich,  T. Markovich,  S. Mason,  
 S. A. Maurer,  P. F. McLaughlin,  M. F. S. J. Menger,  J.-M. Mewes,  
 S. A. Mewes,  P. Morgante,  J. W. Mullinax,  T. S. Nguyen-Beck,  
 K. J. Oosterbaan,  G. Paran,  Alexander C. Paul,  Suranjan K. Paul,  
 F. Pavosevic,  Zheng Pei,  S. Prager,  E. I. Proynov,  E. Ramos,  B. Rana,  
 A. E. Rask,  A. Rettig,  R. M. Richard,  F. Rob,  E. Rossomme,  T. Scheele,  
 M. Scheurer,  M. Schneider,  N. Sergueev,  S. M. Sharada,  W. Skomorowski,  
 D. W. Small,  C. J. Stein,  Yu-Chuan Su,  E. J. Sundstrom,  Zhen Tao,  
 J. Thirman,  T. Tsuchimochi,  N. M. Tubman,  S. P. Veccham,  O. Vydrov,  
 J. Wenzel,  J. Witte,  A. Yamada,  Kun Yao,  S. Yeganeh,  S. R. Yost,  
 A. Zech,  Igor Ying Zhang,  Xing Zhang,  Yu Zhang,  D. Zuev,  
 A. Aspuru-Guzik,  A. T. Bell,  N. A. Besley,  K. B. Bravaya,  B. R. Brooks,  
 D. Casanova,  Jeng-Da Chai,  S. Coriani,  C. J. Cramer,  
 A. E. DePrince, III,  R. A. DiStasio Jr.,  A. Dreuw,  B. D. Dunietz,  
 T. R. Furlani,  W. A. Goddard III,  S. Grimme,  S. Hammes-Schiffer,  
 T. Head-Gordon,  W. J. Hehre,  Chao-Ping Hsu,  T.-C. Jagau,  Yousung Jung,  
 A. Klamt,  Jing Kong,  D. S. Lambrecht,  WanZhen Liang,  N. J. Mayhall,  
 C. W. McCurdy,  J. B. Neaton,  C. Ochsenfeld,  J. A. Parkhill,  R. Peverati,  
 V. A. Rassolov,  Yihan Shao,  L. V. Slipchenko,  T. Stauch,  R. P. Steele,  
 J. E. Subotnik,  A. J. W. Thom,  A. Tkatchenko,  D. G. Truhlar,  
 T. Van Voorhis,  T. A. Wesolowski,  K. B. Whaley,  H. L. Woodcock III,  
 P. M. Zimmerman,  S. Faraji,  P. M. W. Gill,  M. Head-Gordon,  
 J. M. Herbert,  A. I. Krylov

 Contributors to earlier versions of Q-Chem not listed above: 
 R. D. Adamson,  B. Austin,  R. Baer,  J. Baker,  G. J. O. Beran,  
 K. Brandhorst,  S. T. Brown,  E. F. C. Byrd,  A. K. Chakraborty,  
 G. K. L. Chan,  Chun-Min Chang,  Yunqing Chen,  C.-L. Cheng,  
 Siu Hung Chien,  D. M. Chipman,  D. L. Crittenden,  H. Dachsel,  
 R. J. Doerksen,  A. D. Dutoi,  R. G. Edgar,  J. Fosso-Tande,  
 L. Fusti-Molnar,  D. Ghosh,  A. Ghysels,  A. Golubeva-Zadorozhnaya,  
 J. Gonthier,  M. S. Gordon,  S. R. Gwaltney,  G. Hawkins,  J. E. Herr,  
 A. Heyden,  S. Hirata,  E. G. Hohenstein,  G. Kedziora,  F. J. Keil,  
 C. Kelley,  Jihan Kim,  R. A. King,  R. Z. Khaliullin,  P. P. Korambath,  
 W. Kurlancheek,  A. Laurent,  A. M. Lee,  M. S. Lee,  S. V. Levchenko,  
 Ching Yeh Lin,  D. Liotard,  E. Livshits,  R. C. Lochan,  I. Lotan,  
 L. A. Martinez-Martinez,  P. E. Maslen,  N. Nair,  D. P. O'Neill,  
 D. Neuhauser,  E. Neuscamman,  C. M. Oana,  R. Olivares-Amaya,  R. Olson,  
 T. M. Perrine,  B. Peters,  P. A. Pieniazek,  A. Prociuk,  Y. M. Rhee,  
 J. Ritchie,  M. A. Rohrdanz,  E. Rosta,  N. J. Russ,  H. F. Schaefer III,  
 M. W. Schmidt,  N. E. Schultz,  S. Sharma,  N. Shenvi,  C. D. Sherrill,  
 A. C. Simmonett,  A. Sodt,  T. Stein,  D. Stuck,  K. S. Thanthiriwatte,  
 V. Vanovschi,  L. Vogt,  Tao Wang,  A. Warshel,  M. A. Watson,  
 C. F. Williams,  Q. Wu,  X. Xu,  Jun Yang,  W. Zhang,  Yan Zhao

 Please cite Q-Chem as follows:
 Y. Shao et al., Mol. Phys. 113, 184-215 (2015)
 DOI: 10.1080/00268976.2014.952696

 Q-Chem 5.4.0 for Intel X86 EM64T Linux

 Parts of Q-Chem use Armadillo 9.800.1 (Horizon Scraper).
 http://arma.sourceforge.net/

 Q-Chem begins on Tue Jan  9 12:25:28 2024  

 Host: 
0

     Scratch files written to ./qchem1511414//
 May1621 |scratch|qcdevops|jenkins|workspace|build_RNUM    
 Parallel job on  1  processors
 Processing $rem in /cm/shared/apps/spack/cpu/opt/spack/linux-centos8-zen2/gcc-10.2.0/qchem-5.4-akfmr7b3t57bfs6qan3padb2wnb2i7cl/config/preferences:
 Processing $rem in /home/rramji/.qchemrc:
 Symmetry turned off for PCM/SM12/SMD calculation
 Core orbitals will be frozen

 Checking the input file for inconsistencies... 	...done.

 Q-Chem warning in module forms1/BasisType.C, line 2236:

 You are not using the predefined 5D/6D in this basis set.


--------------------------------------------------------------
User input:
--------------------------------------------------------------
$molecule
0 1
C	0.306235	-8.517702	0.095966
C	-0.754415	-7.641575	-0.082807
S	1.833702	-7.638634	0.348635
C	-0.383675	-6.264785	-0.017401
H	-1.787757	-7.966081	-0.259008
C	1.020885	-6.072714	0.231913
C	1.579097	-4.787049	0.305044
C	-1.268082	-5.162801	-0.196549
C	-0.708796	-3.874817	-0.127606
C	0.696769	-3.683952	0.124792
O	-2.572378	-5.499772	-0.397867
O	2.889532	-4.459055	0.506103
C	3.718420	-5.329063	1.267335
H	4.635204	-4.755694	1.502804
H	4.010790	-6.238095	0.697471
H	3.226506	-5.637262	2.215194
C	-3.467415	-4.572261	-0.999238
H	-4.388648	-5.139743	-1.230649
H	-3.052323	-4.153131	-1.940905
H	-3.730819	-3.739531	-0.311543
C	1.064366	-2.306654	0.187323
S	-1.521154	-2.306501	-0.257128
C	0.000000	-1.435185	0.000000
H	2.095939	-1.978138	0.365903
C	0.000000	0.000000	0.000000
S	0.452792	0.783312	1.507541
C	1.238397	2.145556	0.718873
C	0.452875	0.782898	-1.067872
C	1.145945	1.987956	-0.686410
S	0.333556	0.570531	-2.805516
C	1.204604	2.090290	-3.054530
C	1.556633	2.704929	-1.862551
F	2.220797	3.864903	-1.819088
C	1.430252	2.477345	-4.456084
O	1.052242	1.806648	-5.406510
O	2.099050	3.650663	-4.569225
C	2.351116	4.076808	-5.916207
H	2.895579	5.033821	-5.833064
H	1.401015	4.217390	-6.470168
H	2.962391	3.327969	-6.459293
H	1.699302	2.946693	1.306486
H	0.457736	-9.143623	-0.791346
H	0.158056	-9.149441	0.979708
H	0.180205	-1.443175	-1.064830
$end

$rem
JOBTYPE		SP
EXCHANGE	HF
CORRELATION	pRIMP2
BASIS		cc-pvtz
METHOD		rimp2
AUX_BASIS	rimp2-cc-pvtz
SOLVENT_METHOD	PCM
PURECART	11111
SYMMETRY	false
MEM_TOTAL	110000
SCF_CONVERGENCE = 6
THRESH=10
GUI = 2
$end



$solvent
dielectric 4.90
$end
--------------------------------------------------------------
 ----------------------------------------------------------------
             Standard Nuclear Orientation (Angstroms)
    I     Atom           X                Y                Z
 ----------------------------------------------------------------
    1      C       0.3062350000    -8.5177020000     0.0959660000
    2      C      -0.7544150000    -7.6415750000    -0.0828070000
    3      S       1.8337020000    -7.6386340000     0.3486350000
    4      C      -0.3836750000    -6.2647850000    -0.0174010000
    5      H      -1.7877570000    -7.9660810000    -0.2590080000
    6      C       1.0208850000    -6.0727140000     0.2319130000
    7      C       1.5790970000    -4.7870490000     0.3050440000
    8      C      -1.2680820000    -5.1628010000    -0.1965490000
    9      C      -0.7087960000    -3.8748170000    -0.1276060000
   10      C       0.6967690000    -3.6839520000     0.1247920000
   11      O      -2.5723780000    -5.4997720000    -0.3978670000
   12      O       2.8895320000    -4.4590550000     0.5061030000
   13      C       3.7184200000    -5.3290630000     1.2673350000
   14      H       4.6352040000    -4.7556940000     1.5028040000
   15      H       4.0107900000    -6.2380950000     0.6974710000
   16      H       3.2265060000    -5.6372620000     2.2151940000
   17      C      -3.4674150000    -4.5722610000    -0.9992380000
   18      H      -4.3886480000    -5.1397430000    -1.2306490000
   19      H      -3.0523230000    -4.1531310000    -1.9409050000
   20      H      -3.7308190000    -3.7395310000    -0.3115430000
   21      C       1.0643660000    -2.3066540000     0.1873230000
   22      S      -1.5211540000    -2.3065010000    -0.2571280000
   23      C       0.0000000000    -1.4351850000     0.0000000000
   24      H       2.0959390000    -1.9781380000     0.3659030000
   25      C       0.0000000000     0.0000000000     0.0000000000
   26      S       0.4527920000     0.7833120000     1.5075410000
   27      C       1.2383970000     2.1455560000     0.7188730000
   28      C       0.4528750000     0.7828980000    -1.0678720000
   29      C       1.1459450000     1.9879560000    -0.6864100000
   30      S       0.3335560000     0.5705310000    -2.8055160000
   31      C       1.2046040000     2.0902900000    -3.0545300000
   32      C       1.5566330000     2.7049290000    -1.8625510000
   33      F       2.2207970000     3.8649030000    -1.8190880000
   34      C       1.4302520000     2.4773450000    -4.4560840000
   35      O       1.0522420000     1.8066480000    -5.4065100000
   36      O       2.0990500000     3.6506630000    -4.5692250000
   37      C       2.3511160000     4.0768080000    -5.9162070000
   38      H       2.8955790000     5.0338210000    -5.8330640000
   39      H       1.4010150000     4.2173900000    -6.4701680000
   40      H       2.9623910000     3.3279690000    -6.4592930000
   41      H       1.6993020000     2.9466930000     1.3064860000
   42      H       0.4577360000    -9.1436230000    -0.7913460000
   43      H       0.1580560000    -9.1494410000     0.9797080000
   44      H       0.1802050000    -1.4431750000    -1.0648300000
 ----------------------------------------------------------------
 Nuclear Repulsion Energy =        3347.19644690 hartrees
 There are      120 alpha and      120 beta electrons
 Requested basis set is cc-pVTZ
 There are 388 shells and 1096 basis functions

 Total QAlloc Memory Limit 110000 MB
 Mega-Array Size       188 MB
 MEM_STATIC part       192 MB
 Discretize the solute cavity surface with Lebedev spheres
	Using 110 Lebedev grid points for each H atom
	Using 194 Lebedev grid points for other atoms
	Atomic van der Waals radii will be scaled by 1.20
 Remove points where switching function is < 1.0e-08
 Keep 2985 surface tesserae and discard 4291 interior tesserae
 Molecular Surface Area = 443.905 Angst**2
 Requested basis set is rimp2-cc-pVTZ
 There are 853 shells and 2963 basis functions
 A cutoff of  1.0D-10 yielded  33226 shell pairs
 There are    250650 function pairs (    324249 Cartesian)
 Smallest overlap matrix eigenvalue = 2.16E-05

 Scale SEOQF with 1.000000e-01/1.000000e-02/1.000000e-02

 Standard Electronic Orientation quadrupole field applied
 Nucleus-field energy     =     0.0000000449 hartrees
 Guess from superposition of atomic densities
 Warning:  Energy on first SCF cycle will be non-variational
 SAD guess density has 240.000000 electrons

 -----------------------------------------------------------------------
  General SCF calculation program by
  Eric Jon Sundstrom, Paul Horn, Yuezhi Mao, Dmitri Zuev, Alec White,
  David Stuck, Shaama M.S., Shane Yost, Joonho Lee, David Small,
  Daniel Levine, Susi Lehtola, Hugh Burton, Evgeny Epifanovsky,
  Bang C. Huynh
 -----------------------------------------------------------------------
 Hartree-Fock
 using 64 threads for integral computing
 -------------------------------------------------------
 OpenMP Integral computing Module                
 Release: version 1.0, May 2013, Q-Chem Inc. Pittsburgh 
 -------------------------------------------------------
 A restricted SCF calculation will be
 performed using DIIS
 SCF converges when DIIS error is below 1.0e-06
 ---------------------------------------
  Cycle       Energy         DIIS error
 ---------------------------------------
    1   -2767.0470375693      1.75e-02  
    2   -2754.8834924647      1.53e-03  
    3   -2755.2307866557      8.50e-04  
    4   -2755.3161327039      2.57e-04  
    5   -2755.3295740461      7.28e-05  
    6   -2755.3310340120      2.55e-05  
    7   -2755.3314054425      1.31e-05  
    8   -2755.3315247111      5.50e-06  
    9   -2755.3315521482      2.68e-06  
   10   -2755.3315583833      1.42e-06  
   11   -2755.3315602816      6.78e-07  Convergence criterion met
 ---------------------------------------
 SCF time:   CPU 7675.05s  wall 301.00s 

************** Final PCM Free Energy Summary **************
 G_electrostatic  =      -0.02071886 hartree =     -13.00128294 kcal/mol
 G_cavitation     =       0.00000000 hartree =       0.00000000 kcal/mol
 G_dispersion     =       0.00000000 hartree =       0.00000000 kcal/mol
 G_repulsion      =       0.00000000 hartree =       0.00000000 kcal/mol
 --------------------------------------------------
 Non-electrostatic Free Energy =       0.00000000 hartree =       0.00000000 kcal/mol
 Total                         =      -0.02071886 hartree =     -13.00128294 kcal/mol
 --------------------------------------------------
 SCF Energy (H0 + V/2)                       =   -2755.33156028 
 Solute Internal Energy (H0)                 =   -2755.31084142 
 Total Free Energy (H0 + V/2 + non-elec)     =   -2755.33156028 hartree
                                             = -1728996.64982191 kcal/mol
***********************************************************

 SCF   energy in the final basis set =    -2755.3315602816
 Total energy in the final basis set =    -2755.3315602816


 --------------------------------------------------------------
  Generalized many-body perturbation theory program
  by Joonho Lee, Fazle Rob, Xintian Feng, Evgeny Epifanovsky

 No regularization used 
 (reg. param. = 0.0000e+00)
  (P|Q)^-1/2 Time:  CPU 241.05 s  wall 3.89 s

 In RI-MP2 calculation: 
 # of frozen core orbitals: 45

 Components of the RIMP2 correlation energy:
        aaaa    correlation energy =        -0.6693679197 a.u.
        abab    correlation energy =        -3.7531948940 a.u.
        bbbb    correlation energy =        -0.6693679197 a.u.
        non-Brillouin singles      =        -0.0000000000 a.u.
        total same-spin energy     =        -1.3387358394 a.u.
        total opposite-spin energy =        -3.7531948940 a.u.

 Total  RIMP2   correlation energy =        -5.0919307334 a.u.
        RIMP2         total energy =     -2760.4234910150 a.u.

 RI-MP2 Energy Time:  CPU 3311.34 s  wall 53.98 s
 
 --------------------------------------------------------------
 
                    Orbital Energies (a.u.)
 --------------------------------------------------------------
 
 Alpha MOs
 -- Occupied --
-92.0118 -92.0035 -91.9724 -91.9578 -26.3455 -20.6157 -20.5869 -20.5855
-20.5622 -11.4106 -11.3856 -11.3175 -11.3085 -11.3081 -11.3050 -11.2992
-11.2940 -11.2895 -11.2863 -11.2832 -11.2827 -11.2811 -11.2773 -11.2725
-11.2712 -11.2573 -11.2570 -11.2491 -11.2357  -9.0108  -9.0035  -8.9748
 -8.9604  -6.6915  -6.6909  -6.6905  -6.6845  -6.6838  -6.6827  -6.6559
 -6.6550  -6.6538  -6.6416  -6.6407  -6.6397  -1.6625  -1.4682  -1.4094
 -1.4083  -1.3709  -1.2324  -1.2012  -1.1727  -1.1383  -1.1001  -1.0478
 -1.0446  -1.0247  -1.0020  -0.9960  -0.9637  -0.9578  -0.9483  -0.9417
 -0.8919  -0.8715  -0.8633  -0.8154  -0.7953  -0.7900  -0.7836  -0.7674
 -0.7593  -0.7345  -0.7272  -0.7113  -0.7011  -0.6940  -0.6857  -0.6794
 -0.6748  -0.6657  -0.6548  -0.6479  -0.6350  -0.6295  -0.6195  -0.6147
 -0.6105  -0.6000  -0.5930  -0.5758  -0.5714  -0.5644  -0.5568  -0.5542
 -0.5513  -0.5319  -0.5267  -0.5237  -0.5124  -0.5097  -0.5066  -0.5006
 -0.4852  -0.4823  -0.4755  -0.4748  -0.4707  -0.4675  -0.4588  -0.4451
 -0.4216  -0.3994  -0.3837  -0.3693  -0.3506  -0.3055  -0.2881  -0.2196
 -- Virtual --
  0.0318   0.0521   0.0946   0.1283   0.1412   0.1463   0.1497   0.1548
  0.1566   0.1601   0.1716   0.1768   0.1818   0.1842   0.1901   0.1919
  0.2018   0.2038   0.2067   0.2105   0.2144   0.2210   0.2238   0.2275
  0.2290   0.2343   0.2409   0.2435   0.2485   0.2548   0.2630   0.2655
  0.2750   0.2959   0.3005   0.3182   0.3272   0.3318   0.3378   0.3448
  0.3467   0.3559   0.3594   0.3630   0.3664   0.3764   0.3831   0.3840
  0.3883   0.3895   0.3939   0.3986   0.4071   0.4127   0.4136   0.4187
  0.4271   0.4273   0.4298   0.4347   0.4427   0.4438   0.4473   0.4488
  0.4516   0.4575   0.4602   0.4689   0.4691   0.4773   0.4792   0.4823
  0.4845   0.4965   0.4991   0.5015   0.5034   0.5074   0.5105   0.5137
  0.5267   0.5277   0.5303   0.5332   0.5390   0.5419   0.5439   0.5458
  0.5494   0.5541   0.5564   0.5584   0.5625   0.5670   0.5741   0.5760
  0.5800   0.5847   0.5926   0.5953   0.6003   0.6034   0.6072   0.6130
  0.6133   0.6157   0.6193   0.6196   0.6211   0.6235   0.6256   0.6273
  0.6369   0.6389   0.6437   0.6466   0.6498   0.6516   0.6562   0.6572
  0.6599   0.6645   0.6761   0.6810   0.6822   0.6900   0.6930   0.6968
  0.7066   0.7070   0.7110   0.7141   0.7186   0.7214   0.7288   0.7343
  0.7455   0.7499   0.7553   0.7594   0.7638   0.7708   0.7740   0.7875
  0.7895   0.7939   0.7974   0.8075   0.8133   0.8160   0.8219   0.8250
  0.8274   0.8333   0.8406   0.8499   0.8581   0.8607   0.8710   0.8718
  0.8753   0.8847   0.8901   0.8927   0.8984   0.9005   0.9060   0.9099
  0.9195   0.9264   0.9293   0.9333   0.9393   0.9411   0.9463   0.9525
  0.9545   0.9649   0.9689   0.9753   0.9810   0.9844   0.9869   0.9894
  0.9906   0.9957   1.0043   1.0097   1.0157   1.0178   1.0220   1.0260
  1.0313   1.0369   1.0452   1.0497   1.0534   1.0555   1.0632   1.0678
  1.0707   1.0795   1.0823   1.0832   1.0888   1.0983   1.1028   1.1082
  1.1087   1.1152   1.1170   1.1221   1.1247   1.1299   1.1396   1.1445
  1.1531   1.1604   1.1632   1.1640   1.1691   1.1738   1.1820   1.1823
  1.1840   1.1901   1.1945   1.1971   1.2046   1.2059   1.2109   1.2141
  1.2203   1.2261   1.2347   1.2381   1.2416   1.2450   1.2486   1.2536
  1.2589   1.2628   1.2661   1.2773   1.2780   1.2823   1.2866   1.2891
  1.2939   1.3056   1.3082   1.3126   1.3223   1.3287   1.3309   1.3425
  1.3473   1.3556   1.3617   1.3689   1.3837   1.3894   1.3932   1.4001
  1.4042   1.4053   1.4132   1.4186   1.4249   1.4314   1.4426   1.4555
  1.4577   1.4669   1.4783   1.4795   1.4869   1.4929   1.4951   1.5030
  1.5061   1.5066   1.5091   1.5130   1.5231   1.5267   1.5368   1.5377
  1.5409   1.5447   1.5486   1.5497   1.5571   1.5587   1.5722   1.5779
  1.5856   1.5932   1.5988   1.6110   1.6140   1.6215   1.6298   1.6337
  1.6378   1.6448   1.6488   1.6579   1.6679   1.6771   1.6779   1.6845
  1.6920   1.6954   1.7014   1.7090   1.7233   1.7288   1.7305   1.7483
  1.7549   1.7641   1.7750   1.7883   1.7933   1.7960   1.8044   1.8189
  1.8208   1.8274   1.8376   1.8458   1.8514   1.8592   1.8629   1.8765
  1.8816   1.8900   1.9080   1.9130   1.9189   1.9249   1.9327   1.9406
  1.9460   1.9531   1.9558   1.9676   1.9708   1.9797   1.9934   1.9983
  2.0018   2.0053   2.0223   2.0247   2.0279   2.0421   2.0478   2.0535
  2.0702   2.0728   2.0789   2.0874   2.0929   2.0935   2.1090   2.1236
  2.1379   2.1486   2.1582   2.1652   2.1775   2.1820   2.1907   2.1933
  2.1960   2.2057   2.2082   2.2161   2.2256   2.2318   2.2381   2.2414
  2.2454   2.2535   2.2570   2.2689   2.2743   2.2788   2.2882   2.2935
  2.3029   2.3159   2.3169   2.3305   2.3359   2.3568   2.3582   2.3636
  2.3643   2.3794   2.3835   2.3937   2.4029   2.4108   2.4161   2.4207
  2.4325   2.4397   2.4497   2.4640   2.4740   2.4821   2.4839   2.4936
  2.5038   2.5101   2.5126   2.5326   2.5392   2.5481   2.5498   2.5565
  2.5628   2.5858   2.5888   2.5976   2.6050   2.6207   2.6222   2.6268
  2.6283   2.6355   2.6389   2.6452   2.6497   2.6554   2.6612   2.6755
  2.6775   2.6795   2.6898   2.6960   2.7007   2.7046   2.7053   2.7148
  2.7204   2.7255   2.7307   2.7403   2.7496   2.7601   2.7657   2.7746
  2.7820   2.7897   2.7906   2.7977   2.8079   2.8153   2.8186   2.8264
  2.8321   2.8465   2.8499   2.8536   2.8595   2.8687   2.8718   2.8777
  2.8829   2.8865   2.8947   2.9010   2.9128   2.9165   2.9352   2.9419
  2.9482   2.9547   2.9570   2.9604   2.9610   2.9739   2.9792   2.9874
  2.9937   2.9975   3.0147   3.0192   3.0229   3.0323   3.0399   3.0451
  3.0479   3.0598   3.0668   3.0733   3.0816   3.0884   3.0948   3.1000
  3.1025   3.1043   3.1114   3.1187   3.1229   3.1312   3.1352   3.1418
  3.1452   3.1501   3.1542   3.1571   3.1643   3.1663   3.1738   3.1795
  3.1879   3.1954   3.2038   3.2106   3.2140   3.2161   3.2196   3.2209
  3.2263   3.2408   3.2422   3.2438   3.2498   3.2559   3.2637   3.2665
  3.2698   3.2726   3.2808   3.2842   3.2890   3.2922   3.2995   3.3053
  3.3081   3.3144   3.3167   3.3234   3.3273   3.3322   3.3384   3.3441
  3.3495   3.3503   3.3556   3.3576   3.3585   3.3648   3.3658   3.3688
  3.3759   3.3816   3.3911   3.3929   3.3972   3.4015   3.4033   3.4048
  3.4128   3.4190   3.4222   3.4236   3.4317   3.4355   3.4424   3.4451
  3.4505   3.4541   3.4572   3.4623   3.4668   3.4715   3.4778   3.4812
  3.4847   3.4909   3.4968   3.5048   3.5078   3.5213   3.5255   3.5339
  3.5376   3.5419   3.5489   3.5521   3.5574   3.5652   3.5704   3.5722
  3.5795   3.5878   3.5910   3.5950   3.5983   3.6084   3.6088   3.6142
  3.6167   3.6231   3.6291   3.6345   3.6379   3.6395   3.6561   3.6574
  3.6605   3.6658   3.6686   3.6758   3.6775   3.6822   3.6895   3.6944
  3.7037   3.7059   3.7095   3.7137   3.7192   3.7202   3.7259   3.7309
  3.7408   3.7462   3.7557   3.7618   3.7655   3.7684   3.7754   3.7786
  3.7836   3.7912   3.7966   3.7988   3.8012   3.8081   3.8104   3.8140
  3.8178   3.8233   3.8345   3.8387   3.8439   3.8491   3.8511   3.8558
  3.8679   3.8703   3.8728   3.8809   3.8833   3.8884   3.8900   3.9005
  3.9042   3.9169   3.9191   3.9369   3.9397   3.9495   3.9544   3.9598
  3.9611   3.9657   3.9762   3.9819   3.9873   3.9964   4.0053   4.0127
  4.0186   4.0227   4.0350   4.0379   4.0460   4.0620   4.0660   4.0676
  4.0707   4.0746   4.0959   4.0993   4.1074   4.1127   4.1160   4.1222
  4.1367   4.1409   4.1511   4.1560   4.1650   4.1670   4.1710   4.1735
  4.1794   4.1814   4.1909   4.2024   4.2142   4.2189   4.2231   4.2380
  4.2434   4.2489   4.2547   4.2670   4.2705   4.2805   4.2876   4.2929
  4.3180   4.3255   4.3377   4.3414   4.3442   4.3489   4.3540   4.3574
  4.3605   4.3699   4.3789   4.3830   4.4000   4.4045   4.4104   4.4160
  4.4224   4.4245   4.4263   4.4298   4.4314   4.4414   4.4448   4.4564
  4.4606   4.4721   4.4803   4.4945   4.5071   4.5185   4.5224   4.5295
  4.5377   4.5472   4.5559   4.5651   4.5680   4.5724   4.5832   4.5851
  4.5889   4.6037   4.6215   4.6257   4.6330   4.6431   4.6461   4.6553
  4.6685   4.6696   4.6800   4.6969   4.7078   4.7124   4.7236   4.7326
  4.7432   4.7558   4.7747   4.7791   4.7831   4.7887   4.8053   4.8214
  4.8276   4.8349   4.8465   4.8531   4.8638   4.8747   4.8822   4.8871
  4.9001   4.9145   4.9312   4.9448   4.9466   4.9629   4.9682   4.9760
  4.9799   4.9927   5.0076   5.0084   5.0150   5.0205   5.0411   5.0548
  5.0609   5.0706   5.0877   5.0994   5.1152   5.1201   5.1355   5.1625
  5.1754   5.1947   5.1984   5.2098   5.2110   5.2290   5.2493   5.2514
  5.2518   5.2573   5.2736   5.2820   5.2954   5.3019   5.3212   5.3276
  5.3393   5.3485   5.3510   5.3649   5.3777   5.3915   5.3941   5.4045
  5.4092   5.4199   5.4256   5.4413   5.4483   5.4702   5.4844   5.5021
  5.5057   5.5117   5.5215   5.5320   5.5613   5.5707   5.5796   5.5864
  5.5934   5.6092   5.6125   5.6208   5.6423   5.6586   5.6919   5.6931
  5.7224   5.7324   5.7506   5.7653   5.7869   5.8067   5.8307   5.8433
  5.8603   5.8822   5.9026   5.9122   5.9283   5.9350   5.9623   5.9997
  6.0380   6.0415   6.0688   6.1238   6.1498   6.1499   6.1700   6.1757
  6.1808   6.1900   6.2296   6.2478   6.2543   6.2607   6.2692   6.2737
  6.2868   6.2917   6.3352   6.3742   6.4336   6.4492   6.4769   6.5380
  6.5464   6.5664   6.6012   6.6468   6.6602   6.6703   6.7135   6.7445
  6.8076   6.8289   6.8555   6.8587   6.9004   6.9771   7.1326   7.1470
  7.2031   7.2058   7.2234   7.2395   7.3090   7.3272   7.3416   7.3612
  7.3621   7.4049   7.4125   7.4836   7.4877   7.4968   7.5209   7.5500
  7.6147   7.7385   7.7709   7.7890   7.8035   7.8983   7.9273   7.9556
  7.9685   8.1321   8.2577   8.4640   8.9200   9.0217   9.3610   9.4779
  9.6690  10.2031  11.1800  11.4107  11.7501  11.9501  12.1242  12.3468
 12.4195  12.4761  12.9356  12.9916  13.0011  13.3157  13.3859  13.4805
 13.6624  13.7789  13.8754  13.9359  14.0348  14.3096  14.9464  15.2141
 --------------------------------------------------------------
 
          Ground-State Mulliken Net Atomic Charges

     Atom                 Charge (a.u.)
  ----------------------------------------
      1 C                    -0.070129
      2 C                    -0.262957
      3 S                    -0.136115
      4 C                    -0.043565
      5 H                     0.193105
      6 C                    -0.052252
      7 C                     0.223172
      8 C                     0.225226
      9 C                    -0.079814
     10 C                    -0.043119
     11 O                    -0.335969
     12 O                    -0.343660
     13 C                    -0.082493
     14 H                     0.119670
     15 H                     0.092111
     16 H                     0.092566
     17 C                    -0.086005
     18 H                     0.122390
     19 H                     0.092202
     20 H                     0.090007
     21 C                    -0.259197
     22 S                    -0.079363
     23 C                     0.045641
     24 H                     0.208207
     25 C                    -0.078807
     26 S                     0.088771
     27 C                    -0.169602
     28 C                    -0.000891
     29 C                    -0.091650
     30 S                     0.014608
     31 C                    -0.157474
     32 C                     0.395220
     33 F                    -0.204650
     34 C                     0.445860
     35 O                    -0.461124
     36 O                    -0.301129
     37 C                    -0.058339
     38 H                     0.121581
     39 H                     0.095286
     40 H                     0.095305
     41 H                     0.217983
     42 H                     0.117095
     43 H                     0.114551
     44 H                     0.187745
  ----------------------------------------
  Sum of atomic charges =     0.000000

 -----------------------------------------------------------------
                    Cartesian Multipole Moments
 -----------------------------------------------------------------
    Charge (ESU x 10^10)
                -0.0000
    Dipole Moment (Debye)
         X       1.6847      Y       3.2188      Z       2.2591
       Tot       4.2781
    Quadrupole Moments (Debye-Ang)
        XX    -183.9046     XY      10.5730     YY    -180.0098
        XZ       4.0414     YZ      -6.1594     ZZ    -201.4630
    Octopole Moments (Debye-Ang^2)
       XXX    -322.5002    XXY     354.7265    XYY    -115.6588
       YYY    1037.1878    XXZ     156.0440    XYZ     -65.7562
       YYZ     119.5221    XZZ     -61.0698    YZZ     466.4060
       ZZZ     533.9081
    Hexadecapole Moments (Debye-Ang^3)
      XXXX   -3165.4239   XXXY    -186.9599   XXYY   -4045.9141
      XYYY     129.5510   YYYY  -19798.1401   XXXZ     601.6706
      XXYZ     420.1695   XYYZ     219.6954   YYYZ    1339.0667
      XXZZ   -1309.3818   XYZZ     192.7828   YYZZ   -4134.9192
      XZZZ     244.3914   YZZZ    1070.4172   ZZZZ   -5567.5592
 -----------------------------------------------------------------
 Total job time:  366.99s(wall), 11139.99s(cpu) 
 Tue Jan  9 12:31:35 2024

        *************************************************************
        *                                                           *
        *  Thank you very much for using Q-Chem.  Have a nice day.  *
        *                                                           *
        *************************************************************


0 sent ACK to 0 
now end server 0 ... 
cleanup process ... done
remove work dirs ./qchem1511414.0 -- ./qchem1511414.0
rm -rf ./qchem1511414.0
rm -rf ./qchem1511414
