You are running Q-Chem version: 5.4.0

#
# job setting
#
local host:  exp-6-38
current dir: /home/rramji/project-csd799/aromodel/ptb7fout-qchem/hydrogenated-rotation-run
input file:  Dimethoxy_Benzodithiophene_Phi_5_Theta_130_Methylcarbonyl_3_Fluoro_Thienothiophene_Hydrogenated.qcin
output file: 
nprocs     : 1
nthreads   : 64
#
# qchem installation setting
#
QC:          /cm/shared/apps/spack/cpu/opt/spack/linux-centos8-zen2/gcc-10.2.0/qchem-5.4-akfmr7b3t57bfs6qan3padb2wnb2i7cl
QCAUX:       /cm/shared/apps/spack/cpu/opt/spack/linux-centos8-zen2/gcc-10.2.0/qchem-5.4-akfmr7b3t57bfs6qan3padb2wnb2i7cl/qcaux
QCPROG:      /cm/shared/apps/spack/cpu/opt/spack/linux-centos8-zen2/gcc-10.2.0/qchem-5.4-akfmr7b3t57bfs6qan3padb2wnb2i7cl/exe/qcprog.exe
QCPROG_S:    /cm/shared/apps/spack/cpu/opt/spack/linux-centos8-zen2/gcc-10.2.0/qchem-5.4-akfmr7b3t57bfs6qan3padb2wnb2i7cl/exe/qcprog.exe_s
PARALLEL:    -DPARALLEL
QCMPI:       mpich
#
# qchem directory setting
#
qcrun:       qchem3761952
QCSCRATCH:   .
QCLOCALSCR:  
QCTMPDIR:    .
QCFILEPREF:  ./qchem3761952
QCSAVEDIR:   
workdirs:    ./qchem3761952
workdir0:    ./qchem3761952
partmpdirs =  
#
# parallel setting
#
QCRSH:           ssh
QCMPI:           mpich
QCMPIRUN:        /cm/shared/apps/spack/cpu/opt/spack/linux-centos8-zen2/gcc-10.2.0/qchem-5.4-akfmr7b3t57bfs6qan3padb2wnb2i7cl/bin/mpi/mpirun_qchem
QCMACHINEFILE:   ./qchem3761952/hostfile
exp-6-38

#
# env setting
#
exported envs:   QC QCAUX QCSCRATCH QCRUNNAME QCFILEPREF QCPROG QCPROG_S GUIFILE

Running Job 1 of 1 Dimethoxy_Benzodithiophene_Phi_5_Theta_130_Methylcarbonyl_3_Fluoro_Thienothiophene_Hydrogenated.qcin
qchem Dimethoxy_Benzodithiophene_Phi_5_Theta_130_Methylcarbonyl_3_Fluoro_Thienothiophene_Hydrogenated.qcin_3761952.0 ./qchem3761952/ 1
/cm/shared/apps/spack/cpu/opt/spack/linux-centos8-zen2/gcc-10.2.0/qchem-5.4-akfmr7b3t57bfs6qan3padb2wnb2i7cl/bin/mpi/mpirun_qchem -machinefile ./qchem3761952/hostfile -np 1 /cm/shared/apps/spack/cpu/opt/spack/linux-centos8-zen2/gcc-10.2.0/qchem-5.4-akfmr7b3t57bfs6qan3padb2wnb2i7cl/exe/qcprog.exe Dimethoxy_Benzodithiophene_Phi_5_Theta_130_Methylcarbonyl_3_Fluoro_Thienothiophene_Hydrogenated.qcin_3761952.0 ./qchem3761952/

Process 0 of 1 is on exp-6-38 - thread support 0
initial socket setup ...start
initial socket setup ...done 
now start server 0 ... 
                  Welcome to Q-Chem
     A Quantum Leap Into The Future Of Chemistry


 Q-Chem 5.4, Q-Chem, Inc., Pleasanton, CA (2021)

 License issued to: University of California, San Diego (site)

 E. Epifanovsky,  A. T. B. Gilbert,  Xintian Feng,  Joonho Lee,  Yuezhi Mao,  
 N. Mardirossian,  P. Pokhilko,  A. White,  M. Wormit,  M. P. Coons,  
 A. L. Dempwolff,  Zhengting Gan,  D. Hait,  P. R. Horn,  L. D. Jacobson,  
 I. Kaliman,  J. Kussmann,  A. W. Lange,  Ka Un Lao,  D. S. Levine,  Jie Liu,  
 S. C. McKenzie,  A. F. Morrison,  K. Nanda,  F. Plasser,  D. R. Rehn,  
 M. L. Vidal,  Zhi-Qiang You,  Ying Zhu,  B. Alam,  B. Albrecht,  
 A. Aldossary,  E. Alguire,  J. H. Andersen,  D. Barton,  K. Begam,  A. Behn,  
 Y. A. Bernard,  E. J. Berquist,  H. Burton,  A. Carreras,  K. Carter-Fenk,  
 R. Chakraborty,  A. D. Chien,  K. D. Closser,  V. Cofer-Shabica,  
 S. Dasgupta,  Jia Deng,  M. de Wergifosse,  M. Diedenhofen,  Hainam Do,  
 S. Ehlert,  Po-Tung Fang,  S. Fatehi,  Qingguo Feng,  J. Gayvert,  
 Qinghui Ge,  G. Gidofalvi,  M. Goldey,  J. Gomes,  C. Gonzalez-Espinoza,  
 S. Gulania,  A. Gunina,  M. W. D. Hanson-Heine,  P. H. P. Harbach,  
 A. W. Hauser,  M. F. Herbst,  M. Hernandez Vera,  M. Hodecker,  
 Z. C. Holden,  S. Houck,  Xunkun Huang,  Kerwin Hui,  B. C. Huynh,  
 M. Ivanov,  Hyunjun Ji,  Hanjie Jiang,  B. Kaduk,  S. Kaehler,  
 K. Khistyaev,  Jaehoon Kim,  P. Klunzinger,  Z. Koczor-Benda,  
 Joong Hoon Koh,  D. Kosenkov,  L. Koulias,  T. Kowalczyk,  C. M. Krauter,  
 K. Kue,  A. Kunitsa,  T. Kus,  A. Landau,  K. V. Lawler,  D. Lefrancois,  
 S. Lehtola,  Rain Li,  Yi-Pei Li,  Jiashu Liang,  M. Liebenthal,  
 Hung-Hsuan Lin,  You-Sheng Lin,  Fenglai Liu,  Kuan-Yu Liu,  
 M. Loipersberger,  A. Luenser,  A. Manjanath,  P. Manohar,  E. Mansoor,  
 S. F. Manzer,  Shan-Ping Mao,  A. V. Marenich,  T. Markovich,  S. Mason,  
 S. A. Maurer,  P. F. McLaughlin,  M. F. S. J. Menger,  J.-M. Mewes,  
 S. A. Mewes,  P. Morgante,  J. W. Mullinax,  T. S. Nguyen-Beck,  
 K. J. Oosterbaan,  G. Paran,  Alexander C. Paul,  Suranjan K. Paul,  
 F. Pavosevic,  Zheng Pei,  S. Prager,  E. I. Proynov,  E. Ramos,  B. Rana,  
 A. E. Rask,  A. Rettig,  R. M. Richard,  F. Rob,  E. Rossomme,  T. Scheele,  
 M. Scheurer,  M. Schneider,  N. Sergueev,  S. M. Sharada,  W. Skomorowski,  
 D. W. Small,  C. J. Stein,  Yu-Chuan Su,  E. J. Sundstrom,  Zhen Tao,  
 J. Thirman,  T. Tsuchimochi,  N. M. Tubman,  S. P. Veccham,  O. Vydrov,  
 J. Wenzel,  J. Witte,  A. Yamada,  Kun Yao,  S. Yeganeh,  S. R. Yost,  
 A. Zech,  Igor Ying Zhang,  Xing Zhang,  Yu Zhang,  D. Zuev,  
 A. Aspuru-Guzik,  A. T. Bell,  N. A. Besley,  K. B. Bravaya,  B. R. Brooks,  
 D. Casanova,  Jeng-Da Chai,  S. Coriani,  C. J. Cramer,  
 A. E. DePrince, III,  R. A. DiStasio Jr.,  A. Dreuw,  B. D. Dunietz,  
 T. R. Furlani,  W. A. Goddard III,  S. Grimme,  S. Hammes-Schiffer,  
 T. Head-Gordon,  W. J. Hehre,  Chao-Ping Hsu,  T.-C. Jagau,  Yousung Jung,  
 A. Klamt,  Jing Kong,  D. S. Lambrecht,  WanZhen Liang,  N. J. Mayhall,  
 C. W. McCurdy,  J. B. Neaton,  C. Ochsenfeld,  J. A. Parkhill,  R. Peverati,  
 V. A. Rassolov,  Yihan Shao,  L. V. Slipchenko,  T. Stauch,  R. P. Steele,  
 J. E. Subotnik,  A. J. W. Thom,  A. Tkatchenko,  D. G. Truhlar,  
 T. Van Voorhis,  T. A. Wesolowski,  K. B. Whaley,  H. L. Woodcock III,  
 P. M. Zimmerman,  S. Faraji,  P. M. W. Gill,  M. Head-Gordon,  
 J. M. Herbert,  A. I. Krylov

 Contributors to earlier versions of Q-Chem not listed above: 
 R. D. Adamson,  B. Austin,  R. Baer,  J. Baker,  G. J. O. Beran,  
 K. Brandhorst,  S. T. Brown,  E. F. C. Byrd,  A. K. Chakraborty,  
 G. K. L. Chan,  Chun-Min Chang,  Yunqing Chen,  C.-L. Cheng,  
 Siu Hung Chien,  D. M. Chipman,  D. L. Crittenden,  H. Dachsel,  
 R. J. Doerksen,  A. D. Dutoi,  R. G. Edgar,  J. Fosso-Tande,  
 L. Fusti-Molnar,  D. Ghosh,  A. Ghysels,  A. Golubeva-Zadorozhnaya,  
 J. Gonthier,  M. S. Gordon,  S. R. Gwaltney,  G. Hawkins,  J. E. Herr,  
 A. Heyden,  S. Hirata,  E. G. Hohenstein,  G. Kedziora,  F. J. Keil,  
 C. Kelley,  Jihan Kim,  R. A. King,  R. Z. Khaliullin,  P. P. Korambath,  
 W. Kurlancheek,  A. Laurent,  A. M. Lee,  M. S. Lee,  S. V. Levchenko,  
 Ching Yeh Lin,  D. Liotard,  E. Livshits,  R. C. Lochan,  I. Lotan,  
 L. A. Martinez-Martinez,  P. E. Maslen,  N. Nair,  D. P. O'Neill,  
 D. Neuhauser,  E. Neuscamman,  C. M. Oana,  R. Olivares-Amaya,  R. Olson,  
 T. M. Perrine,  B. Peters,  P. A. Pieniazek,  A. Prociuk,  Y. M. Rhee,  
 J. Ritchie,  M. A. Rohrdanz,  E. Rosta,  N. J. Russ,  H. F. Schaefer III,  
 M. W. Schmidt,  N. E. Schultz,  S. Sharma,  N. Shenvi,  C. D. Sherrill,  
 A. C. Simmonett,  A. Sodt,  T. Stein,  D. Stuck,  K. S. Thanthiriwatte,  
 V. Vanovschi,  L. Vogt,  Tao Wang,  A. Warshel,  M. A. Watson,  
 C. F. Williams,  Q. Wu,  X. Xu,  Jun Yang,  W. Zhang,  Yan Zhao

 Please cite Q-Chem as follows:
 Y. Shao et al., Mol. Phys. 113, 184-215 (2015)
 DOI: 10.1080/00268976.2014.952696

 Q-Chem 5.4.0 for Intel X86 EM64T Linux

 Parts of Q-Chem use Armadillo 9.800.1 (Horizon Scraper).
 http://arma.sourceforge.net/

 Q-Chem begins on Tue Jan  9 10:53:40 2024  

 Host: 
0

     Scratch files written to ./qchem3761952//
 May1621 |scratch|qcdevops|jenkins|workspace|build_RNUM    
 Parallel job on  1  processors
 Processing $rem in /cm/shared/apps/spack/cpu/opt/spack/linux-centos8-zen2/gcc-10.2.0/qchem-5.4-akfmr7b3t57bfs6qan3padb2wnb2i7cl/config/preferences:
 Processing $rem in /home/rramji/.qchemrc:
 Symmetry turned off for PCM/SM12/SMD calculation
 Core orbitals will be frozen

 Checking the input file for inconsistencies... 	...done.

 Q-Chem warning in module forms1/BasisType.C, line 2236:

 You are not using the predefined 5D/6D in this basis set.


--------------------------------------------------------------
User input:
--------------------------------------------------------------
$molecule
0 1
C	-0.217225	-8.517702	-0.236226
C	0.611939	-7.641575	0.448921
S	-1.413715	-7.638634	-1.218777
C	0.323572	-6.264785	0.206907
H	1.418739	-7.966081	1.118185
C	-0.768156	-6.072714	-0.711285
C	-1.215016	-4.787049	-1.053725
C	0.999917	-5.162801	0.804258
C	0.550033	-3.874817	0.464908
C	-0.541024	-3.683952	-0.456457
O	2.028811	-5.499772	1.630752
O	-2.249357	-4.459055	-1.883064
C	-2.586579	-5.329063	-2.956754
H	-3.262802	-4.755694	-3.619069
H	-3.124711	-6.238095	-2.609423
H	-1.686639	-5.637262	-3.531667
C	2.503251	-4.572261	2.599073
H	3.185356	-5.139743	3.260097
H	1.672937	-4.153131	3.207034
H	3.075213	-3.739531	2.135214
C	-0.828107	-2.306654	-0.694410
S	1.188794	-2.306501	0.983256
C	-0.000000	-1.435185	-0.000000
H	-1.632185	-1.978138	-1.364851
C	0.000000	0.000000	0.000000
S	0.079327	0.901280	1.507541
C	0.215617	2.467903	0.718873
C	0.079577	0.900940	-1.067872
C	0.198433	2.285998	-0.686410
S	0.061187	0.658044	-2.805516
C	0.208347	2.403534	-3.054530
C	0.267636	3.109360	-1.862551
F	0.379347	4.441341	-1.819088
C	0.249278	2.849688	-4.456084
O	0.190132	2.082076	-5.406510
O	0.359548	4.195721	-4.569225
C	0.407901	4.688467	-5.916207
H	0.496901	5.785916	-5.833064
H	-0.512596	4.414348	-6.470168
H	1.278377	4.268124	-6.459293
H	0.294764	3.388767	1.306486
H	-0.792084	-9.143623	0.456457
H	0.352973	-9.149441	-0.927480
H	-0.688477	-1.443175	0.832067
$end

$rem
JOBTYPE		SP
EXCHANGE	HF
CORRELATION	pRIMP2
BASIS		cc-pvtz
METHOD		rimp2
AUX_BASIS	rimp2-cc-pvtz
SOLVENT_METHOD	PCM
PURECART	11111
SYMMETRY	false
MEM_TOTAL	110000
SCF_CONVERGENCE = 6
THRESH=10
GUI = 2
$end



$solvent
dielectric 4.90
$end
--------------------------------------------------------------
 ----------------------------------------------------------------
             Standard Nuclear Orientation (Angstroms)
    I     Atom           X                Y                Z
 ----------------------------------------------------------------
    1      C      -0.2172250000    -8.5177020000    -0.2362260000
    2      C       0.6119390000    -7.6415750000     0.4489210000
    3      S      -1.4137150000    -7.6386340000    -1.2187770000
    4      C       0.3235720000    -6.2647850000     0.2069070000
    5      H       1.4187390000    -7.9660810000     1.1181850000
    6      C      -0.7681560000    -6.0727140000    -0.7112850000
    7      C      -1.2150160000    -4.7870490000    -1.0537250000
    8      C       0.9999170000    -5.1628010000     0.8042580000
    9      C       0.5500330000    -3.8748170000     0.4649080000
   10      C      -0.5410240000    -3.6839520000    -0.4564570000
   11      O       2.0288110000    -5.4997720000     1.6307520000
   12      O      -2.2493570000    -4.4590550000    -1.8830640000
   13      C      -2.5865790000    -5.3290630000    -2.9567540000
   14      H      -3.2628020000    -4.7556940000    -3.6190690000
   15      H      -3.1247110000    -6.2380950000    -2.6094230000
   16      H      -1.6866390000    -5.6372620000    -3.5316670000
   17      C       2.5032510000    -4.5722610000     2.5990730000
   18      H       3.1853560000    -5.1397430000     3.2600970000
   19      H       1.6729370000    -4.1531310000     3.2070340000
   20      H       3.0752130000    -3.7395310000     2.1352140000
   21      C      -0.8281070000    -2.3066540000    -0.6944100000
   22      S       1.1887940000    -2.3065010000     0.9832560000
   23      C       0.0000000000    -1.4351850000     0.0000000000
   24      H      -1.6321850000    -1.9781380000    -1.3648510000
   25      C       0.0000000000     0.0000000000     0.0000000000
   26      S       0.0793270000     0.9012800000     1.5075410000
   27      C       0.2156170000     2.4679030000     0.7188730000
   28      C       0.0795770000     0.9009400000    -1.0678720000
   29      C       0.1984330000     2.2859980000    -0.6864100000
   30      S       0.0611870000     0.6580440000    -2.8055160000
   31      C       0.2083470000     2.4035340000    -3.0545300000
   32      C       0.2676360000     3.1093600000    -1.8625510000
   33      F       0.3793470000     4.4413410000    -1.8190880000
   34      C       0.2492780000     2.8496880000    -4.4560840000
   35      O       0.1901320000     2.0820760000    -5.4065100000
   36      O       0.3595480000     4.1957210000    -4.5692250000
   37      C       0.4079010000     4.6884670000    -5.9162070000
   38      H       0.4969010000     5.7859160000    -5.8330640000
   39      H      -0.5125960000     4.4143480000    -6.4701680000
   40      H       1.2783770000     4.2681240000    -6.4592930000
   41      H       0.2947640000     3.3887670000     1.3064860000
   42      H      -0.7920840000    -9.1436230000     0.4564570000
   43      H       0.3529730000    -9.1494410000    -0.9274800000
   44      H      -0.6884770000    -1.4431750000     0.8320670000
 ----------------------------------------------------------------
 Nuclear Repulsion Energy =        3333.51163607 hartrees
 There are      120 alpha and      120 beta electrons
 Requested basis set is cc-pVTZ
 There are 388 shells and 1096 basis functions

 Total QAlloc Memory Limit 110000 MB
 Mega-Array Size       188 MB
 MEM_STATIC part       192 MB
 Discretize the solute cavity surface with Lebedev spheres
	Using 110 Lebedev grid points for each H atom
	Using 194 Lebedev grid points for other atoms
	Atomic van der Waals radii will be scaled by 1.20
 Remove points where switching function is < 1.0e-08
 Keep 2972 surface tesserae and discard 4304 interior tesserae
 Molecular Surface Area = 442.919 Angst**2
 Requested basis set is rimp2-cc-pVTZ
 There are 853 shells and 2963 basis functions
 A cutoff of  1.0D-10 yielded  32890 shell pairs
 There are    248502 function pairs (    321549 Cartesian)
 Smallest overlap matrix eigenvalue = 2.20E-05

 Scale SEOQF with 1.000000e-01/1.000000e-02/1.000000e-02

 Standard Electronic Orientation quadrupole field applied
 Nucleus-field energy     =     0.0000000288 hartrees
 Guess from superposition of atomic densities
 Warning:  Energy on first SCF cycle will be non-variational
 SAD guess density has 240.000000 electrons

 -----------------------------------------------------------------------
  General SCF calculation program by
  Eric Jon Sundstrom, Paul Horn, Yuezhi Mao, Dmitri Zuev, Alec White,
  David Stuck, Shaama M.S., Shane Yost, Joonho Lee, David Small,
  Daniel Levine, Susi Lehtola, Hugh Burton, Evgeny Epifanovsky,
  Bang C. Huynh
 -----------------------------------------------------------------------
 Hartree-Fock
 using 64 threads for integral computing
 -------------------------------------------------------
 OpenMP Integral computing Module                
 Release: version 1.0, May 2013, Q-Chem Inc. Pittsburgh 
 -------------------------------------------------------
 A restricted SCF calculation will be
 performed using DIIS
 SCF converges when DIIS error is below 1.0e-06
 ---------------------------------------
  Cycle       Energy         DIIS error
 ---------------------------------------
    1   -2767.0184721010      1.75e-02  
    2   -2754.8940757423      1.53e-03  
    3   -2755.2427829588      8.53e-04  
    4   -2755.3290057509      2.56e-04  
    5   -2755.3425138721      7.39e-05  
    6   -2755.3440388234      2.59e-05  
    7   -2755.3444395351      1.36e-05  
    8   -2755.3445727202      5.77e-06  
    9   -2755.3446055472      3.00e-06  
   10   -2755.3446136242      1.55e-06  
   11   -2755.3446162770      8.15e-07  Convergence criterion met
 ---------------------------------------
 SCF time:   CPU 7270.88s  wall 265.00s 

************** Final PCM Free Energy Summary **************
 G_electrostatic  =      -0.02086748 hartree =     -13.09454105 kcal/mol
 G_cavitation     =       0.00000000 hartree =       0.00000000 kcal/mol
 G_dispersion     =       0.00000000 hartree =       0.00000000 kcal/mol
 G_repulsion      =       0.00000000 hartree =       0.00000000 kcal/mol
 --------------------------------------------------
 Non-electrostatic Free Energy =       0.00000000 hartree =       0.00000000 kcal/mol
 Total                         =      -0.02086748 hartree =     -13.09454105 kcal/mol
 --------------------------------------------------
 SCF Energy (H0 + V/2)                       =   -2755.34461628 
 Solute Internal Energy (H0)                 =   -2755.32374880 
 Total Free Energy (H0 + V/2 + non-elec)     =   -2755.34461628 hartree
                                             = -1729004.84258270 kcal/mol
***********************************************************

 SCF   energy in the final basis set =    -2755.3446162770
 Total energy in the final basis set =    -2755.3446162770


 --------------------------------------------------------------
  Generalized many-body perturbation theory program
  by Joonho Lee, Fazle Rob, Xintian Feng, Evgeny Epifanovsky

 No regularization used 
 (reg. param. = 0.0000e+00)
  (P|Q)^-1/2 Time:  CPU 148.61 s  wall 2.60 s

 In RI-MP2 calculation: 
 # of frozen core orbitals: 45

 Components of the RIMP2 correlation energy:
        aaaa    correlation energy =        -0.6684118531 a.u.
        abab    correlation energy =        -3.7507454692 a.u.
        bbbb    correlation energy =        -0.6684118531 a.u.
        non-Brillouin singles      =        -0.0000000000 a.u.
        total same-spin energy     =        -1.3368237061 a.u.
        total opposite-spin energy =        -3.7507454692 a.u.

 Total  RIMP2   correlation energy =        -5.0875691753 a.u.
        RIMP2         total energy =     -2760.4321854523 a.u.

 RI-MP2 Energy Time:  CPU 2894.41 s  wall 47.26 s
 
 --------------------------------------------------------------
 
                    Orbital Energies (a.u.)
 --------------------------------------------------------------
 
 Alpha MOs
 -- Occupied --
-92.0162 -91.9971 -91.9787 -91.9582 -26.3432 -20.6150 -20.5873 -20.5870
-20.5616 -11.4096 -11.3822 -11.3091 -11.3088 -11.3077 -11.3039 -11.2982
-11.2967 -11.2890 -11.2849 -11.2849 -11.2837 -11.2824 -11.2806 -11.2730
-11.2730 -11.2583 -11.2583 -11.2497 -11.2369  -9.0149  -8.9972  -8.9810
 -8.9608  -6.6957  -6.6952  -6.6946  -6.6783  -6.6776  -6.6764  -6.6621
 -6.6612  -6.6599  -6.6421  -6.6411  -6.6401  -1.6603  -1.4675  -1.4107
 -1.4088  -1.3702  -1.2289  -1.2029  -1.1739  -1.1377  -1.1001  -1.0463
 -1.0445  -1.0241  -1.0039  -0.9976  -0.9627  -0.9592  -0.9485  -0.9405
 -0.8938  -0.8686  -0.8667  -0.8118  -0.8006  -0.7886  -0.7848  -0.7678
 -0.7566  -0.7378  -0.7252  -0.7162  -0.6980  -0.6864  -0.6847  -0.6799
 -0.6740  -0.6612  -0.6563  -0.6486  -0.6353  -0.6310  -0.6200  -0.6149
 -0.6119  -0.5990  -0.5921  -0.5764  -0.5717  -0.5650  -0.5586  -0.5519
 -0.5497  -0.5334  -0.5310  -0.5280  -0.5136  -0.5079  -0.5070  -0.5016
 -0.4853  -0.4802  -0.4774  -0.4743  -0.4729  -0.4683  -0.4606  -0.4462
 -0.4276  -0.3977  -0.3855  -0.3703  -0.3514  -0.2996  -0.2888  -0.2194
 -- Virtual --
  0.0339   0.0514   0.1110   0.1220   0.1402   0.1462   0.1529   0.1562
  0.1585   0.1607   0.1683   0.1732   0.1827   0.1832   0.1899   0.1970
  0.1990   0.2034   0.2047   0.2148   0.2181   0.2224   0.2229   0.2276
  0.2296   0.2330   0.2396   0.2439   0.2487   0.2558   0.2608   0.2721
  0.2748   0.2903   0.2975   0.3249   0.3338   0.3374   0.3399   0.3423
  0.3493   0.3576   0.3586   0.3636   0.3696   0.3815   0.3844   0.3857
  0.3871   0.3910   0.4013   0.4032   0.4097   0.4148   0.4187   0.4258
  0.4267   0.4290   0.4318   0.4356   0.4402   0.4450   0.4468   0.4501
  0.4536   0.4592   0.4617   0.4676   0.4730   0.4737   0.4808   0.4875
  0.4900   0.4944   0.4990   0.5011   0.5072   0.5094   0.5129   0.5179
  0.5218   0.5276   0.5305   0.5340   0.5371   0.5416   0.5436   0.5463
  0.5507   0.5532   0.5559   0.5610   0.5617   0.5694   0.5713   0.5805
  0.5829   0.5867   0.5902   0.5957   0.5978   0.6016   0.6082   0.6118
  0.6130   0.6145   0.6153   0.6208   0.6233   0.6236   0.6265   0.6301
  0.6337   0.6347   0.6416   0.6465   0.6488   0.6514   0.6544   0.6564
  0.6600   0.6662   0.6718   0.6760   0.6817   0.6840   0.6942   0.7006
  0.7066   0.7081   0.7117   0.7137   0.7186   0.7191   0.7281   0.7353
  0.7405   0.7456   0.7566   0.7603   0.7641   0.7670   0.7747   0.7868
  0.7901   0.7944   0.8002   0.8070   0.8132   0.8175   0.8208   0.8262
  0.8340   0.8359   0.8447   0.8551   0.8602   0.8661   0.8689   0.8735
  0.8755   0.8837   0.8884   0.8928   0.8966   0.9040   0.9098   0.9123
  0.9185   0.9249   0.9284   0.9361   0.9414   0.9466   0.9496   0.9536
  0.9594   0.9641   0.9672   0.9755   0.9800   0.9842   0.9866   0.9907
  0.9997   1.0003   1.0063   1.0139   1.0151   1.0176   1.0239   1.0299
  1.0303   1.0402   1.0442   1.0472   1.0521   1.0581   1.0635   1.0723
  1.0780   1.0804   1.0851   1.0868   1.0945   1.0979   1.1013   1.1093
  1.1114   1.1151   1.1194   1.1247   1.1309   1.1331   1.1394   1.1455
  1.1539   1.1580   1.1629   1.1655   1.1722   1.1786   1.1789   1.1850
  1.1863   1.1925   1.1977   1.2007   1.2075   1.2104   1.2160   1.2172
  1.2246   1.2343   1.2367   1.2388   1.2404   1.2475   1.2536   1.2567
  1.2603   1.2648   1.2676   1.2710   1.2792   1.2827   1.2894   1.2930
  1.2992   1.3053   1.3090   1.3189   1.3248   1.3289   1.3370   1.3427
  1.3500   1.3569   1.3635   1.3696   1.3755   1.3927   1.3961   1.3997
  1.4058   1.4101   1.4156   1.4242   1.4321   1.4375   1.4491   1.4544
  1.4598   1.4713   1.4801   1.4874   1.4922   1.4965   1.4995   1.5015
  1.5046   1.5097   1.5132   1.5156   1.5202   1.5252   1.5352   1.5389
  1.5394   1.5417   1.5467   1.5514   1.5550   1.5640   1.5699   1.5743
  1.5836   1.5962   1.5970   1.6046   1.6195   1.6232   1.6316   1.6356
  1.6431   1.6548   1.6557   1.6621   1.6687   1.6745   1.6771   1.6893
  1.6922   1.7031   1.7095   1.7144   1.7177   1.7239   1.7283   1.7404
  1.7615   1.7674   1.7807   1.7841   1.7937   1.7961   1.8087   1.8131
  1.8201   1.8236   1.8304   1.8470   1.8488   1.8597   1.8700   1.8754
  1.8770   1.8938   1.9037   1.9065   1.9147   1.9195   1.9323   1.9337
  1.9426   1.9463   1.9591   1.9712   1.9825   1.9891   1.9931   1.9983
  2.0002   2.0146   2.0179   2.0211   2.0320   2.0378   2.0387   2.0472
  2.0583   2.0714   2.0816   2.0854   2.0961   2.1063   2.1081   2.1193
  2.1434   2.1532   2.1606   2.1663   2.1794   2.1841   2.1899   2.1954
  2.1978   2.1992   2.2126   2.2155   2.2228   2.2250   2.2390   2.2433
  2.2471   2.2542   2.2576   2.2664   2.2730   2.2883   2.2937   2.2978
  2.3055   2.3154   2.3230   2.3317   2.3431   2.3470   2.3541   2.3614
  2.3707   2.3808   2.3896   2.4009   2.4087   2.4116   2.4192   2.4234
  2.4331   2.4444   2.4517   2.4609   2.4688   2.4822   2.4890   2.5000
  2.5019   2.5098   2.5133   2.5318   2.5382   2.5470   2.5558   2.5636
  2.5692   2.5832   2.5973   2.6022   2.6188   2.6222   2.6240   2.6286
  2.6320   2.6374   2.6420   2.6435   2.6487   2.6496   2.6636   2.6784
  2.6801   2.6822   2.6849   2.6923   2.6993   2.7051   2.7124   2.7175
  2.7233   2.7299   2.7315   2.7452   2.7515   2.7534   2.7634   2.7722
  2.7823   2.7871   2.7936   2.8068   2.8072   2.8141   2.8213   2.8268
  2.8298   2.8429   2.8463   2.8523   2.8564   2.8602   2.8657   2.8733
  2.8799   2.8866   2.8939   2.9022   2.9093   2.9127   2.9279   2.9359
  2.9450   2.9567   2.9582   2.9627   2.9675   2.9768   2.9855   2.9877
  2.9926   2.9988   3.0154   3.0231   3.0253   3.0317   3.0374   3.0430
  3.0477   3.0624   3.0681   3.0765   3.0840   3.0913   3.0926   3.0983
  3.1040   3.1050   3.1136   3.1202   3.1255   3.1292   3.1370   3.1427
  3.1486   3.1496   3.1554   3.1610   3.1627   3.1697   3.1721   3.1781
  3.1869   3.1971   3.2005   3.2023   3.2113   3.2163   3.2200   3.2287
  3.2331   3.2390   3.2470   3.2524   3.2546   3.2579   3.2612   3.2662
  3.2690   3.2720   3.2746   3.2841   3.2870   3.2912   3.2991   3.3011
  3.3073   3.3105   3.3115   3.3157   3.3222   3.3296   3.3377   3.3397
  3.3438   3.3456   3.3516   3.3521   3.3574   3.3653   3.3667   3.3689
  3.3707   3.3802   3.3827   3.3906   3.3970   3.4003   3.4015   3.4064
  3.4085   3.4121   3.4253   3.4284   3.4298   3.4395   3.4417   3.4448
  3.4501   3.4553   3.4568   3.4630   3.4678   3.4732   3.4766   3.4792
  3.4835   3.4864   3.4914   3.5004   3.5075   3.5129   3.5268   3.5292
  3.5351   3.5444   3.5463   3.5537   3.5594   3.5631   3.5670   3.5728
  3.5797   3.5842   3.5876   3.5926   3.5971   3.6006   3.6024   3.6122
  3.6165   3.6220   3.6262   3.6321   3.6333   3.6396   3.6418   3.6485
  3.6546   3.6694   3.6697   3.6753   3.6788   3.6837   3.6862   3.6927
  3.6964   3.7009   3.7058   3.7114   3.7141   3.7158   3.7223   3.7290
  3.7340   3.7384   3.7511   3.7567   3.7619   3.7678   3.7714   3.7777
  3.7807   3.7890   3.7939   3.8007   3.8044   3.8071   3.8080   3.8176
  3.8200   3.8222   3.8243   3.8311   3.8442   3.8485   3.8503   3.8541
  3.8552   3.8667   3.8731   3.8793   3.8869   3.8891   3.8965   3.9054
  3.9135   3.9176   3.9241   3.9341   3.9465   3.9494   3.9553   3.9569
  3.9612   3.9647   3.9736   3.9789   3.9946   3.9997   4.0034   4.0093
  4.0151   4.0198   4.0274   4.0376   4.0485   4.0536   4.0606   4.0674
  4.0686   4.0735   4.0815   4.1017   4.1101   4.1136   4.1172   4.1316
  4.1360   4.1421   4.1531   4.1576   4.1623   4.1661   4.1677   4.1723
  4.1762   4.1817   4.1868   4.1983   4.2109   4.2137   4.2177   4.2323
  4.2381   4.2463   4.2491   4.2699   4.2725   4.2842   4.2898   4.3073
  4.3161   4.3248   4.3284   4.3415   4.3431   4.3515   4.3522   4.3588
  4.3655   4.3753   4.3768   4.3872   4.3950   4.4043   4.4102   4.4151
  4.4227   4.4285   4.4322   4.4328   4.4373   4.4391   4.4462   4.4559
  4.4595   4.4717   4.4912   4.5009   4.5078   4.5162   4.5206   4.5243
  4.5291   4.5510   4.5580   4.5629   4.5674   4.5706   4.5727   4.5841
  4.5927   4.5967   4.6162   4.6196   4.6291   4.6397   4.6434   4.6519
  4.6628   4.6680   4.6736   4.6877   4.6980   4.7094   4.7159   4.7242
  4.7392   4.7483   4.7556   4.7766   4.7778   4.7916   4.8104   4.8183
  4.8255   4.8339   4.8484   4.8584   4.8606   4.8776   4.8868   4.8918
  4.9038   4.9143   4.9268   4.9331   4.9482   4.9603   4.9656   4.9711
  4.9844   4.9989   5.0088   5.0100   5.0249   5.0291   5.0400   5.0485
  5.0696   5.0835   5.0920   5.1092   5.1179   5.1283   5.1605   5.1637
  5.1794   5.1953   5.2018   5.2090   5.2204   5.2304   5.2510   5.2535
  5.2580   5.2675   5.2719   5.2893   5.2931   5.3143   5.3193   5.3259
  5.3319   5.3496   5.3519   5.3683   5.3734   5.3905   5.4008   5.4031
  5.4100   5.4235   5.4261   5.4431   5.4522   5.4848   5.4956   5.5073
  5.5150   5.5206   5.5284   5.5436   5.5655   5.5670   5.5821   5.5833
  5.6010   5.6095   5.6194   5.6214   5.6474   5.6646   5.6730   5.6912
  5.7039   5.7358   5.7487   5.7635   5.7729   5.8074   5.8154   5.8457
  5.8584   5.8793   5.9029   5.9160   5.9289   5.9545   5.9932   6.0216
  6.0414   6.0425   6.0914   6.1219   6.1504   6.1529   6.1724   6.1770
  6.1822   6.2010   6.2289   6.2428   6.2605   6.2613   6.2782   6.2886
  6.2982   6.3129   6.3382   6.4136   6.4354   6.4499   6.4892   6.5385
  6.5476   6.5659   6.6044   6.6495   6.6611   6.6709   6.7129   6.7467
  6.8069   6.8300   6.8559   6.8592   6.8982   6.9782   7.1314   7.1448
  7.2038   7.2081   7.2218   7.2396   7.3096   7.3268   7.3413   7.3632
  7.3642   7.4062   7.4131   7.4856   7.4862   7.4971   7.5257   7.5517
  7.6159   7.7384   7.7730   7.7900   7.8026   7.9023   7.9272   7.9541
  7.9741   8.1345   8.2976   8.5973   8.9219   9.0301   9.3629   9.4845
  9.6750  10.2289  11.1690  11.4459  11.7547  11.9347  12.1214  12.3830
 12.4259  12.5131  12.9205  13.0161  13.0790  13.2540  13.3859  13.4785
 13.7407  13.7760  13.8788  13.9454  14.0323  14.3110  14.9449  15.2114
 --------------------------------------------------------------
 
          Ground-State Mulliken Net Atomic Charges

     Atom                 Charge (a.u.)
  ----------------------------------------
      1 C                    -0.070152
      2 C                    -0.260093
      3 S                    -0.135105
      4 C                    -0.044415
      5 H                     0.193393
      6 C                    -0.051825
      7 C                     0.225170
      8 C                     0.225292
      9 C                    -0.077136
     10 C                    -0.059808
     11 O                    -0.334662
     12 O                    -0.343545
     13 C                    -0.082711
     14 H                     0.120507
     15 H                     0.091758
     16 H                     0.093215
     17 C                    -0.087182
     18 H                     0.123410
     19 H                     0.091964
     20 H                     0.090315
     21 C                    -0.254567
     22 S                    -0.077917
     23 C                     0.092911
     24 H                     0.211420
     25 C                    -0.121665
     26 S                     0.083464
     27 C                    -0.186418
     28 C                     0.049510
     29 C                    -0.122989
     30 S                     0.002381
     31 C                    -0.155813
     32 C                     0.400573
     33 F                    -0.207367
     34 C                     0.443902
     35 O                    -0.460458
     36 O                    -0.300497
     37 C                    -0.058674
     38 H                     0.121422
     39 H                     0.095126
     40 H                     0.095218
     41 H                     0.218542
     42 H                     0.117213
     43 H                     0.115145
     44 H                     0.191147
  ----------------------------------------
  Sum of atomic charges =     0.000000

 -----------------------------------------------------------------
                    Cartesian Multipole Moments
 -----------------------------------------------------------------
    Charge (ESU x 10^10)
                 0.0000
    Dipole Moment (Debye)
         X      -0.0710      Y       2.7258      Z       3.5387
       Tot       4.4674
    Quadrupole Moments (Debye-Ang)
        XX    -196.8814     XY      -1.4911     YY    -174.5827
        XZ       7.6199     YZ      -9.8920     ZZ    -192.7505
    Octopole Moments (Debye-Ang^2)
       XXX     -10.1851    XXY     358.4437    XYY      27.9148
       YYY     966.0988    XXZ     188.5007    XYZ     -44.1710
       YYZ     138.2279    XZZ      -0.2388    YZZ     408.6629
       ZZZ     592.6294
    Hexadecapole Moments (Debye-Ang^3)
      XXXX   -1555.8024   XXXY    -562.8602   XXYY   -4114.3960
      XYYY    -741.5787   YYYY  -20430.0327   XXXZ    -394.6640
      XXYZ     392.0264   XYYZ     -19.9126   YYYZ     709.4375
      XXZZ   -1238.7327   XYZZ    -108.7918   YYZZ   -4095.2183
      XZZZ    -408.8354   YZZZ     649.3906   ZZZZ   -6509.8529
 -----------------------------------------------------------------
 Total job time:  317.08s(wall), 10270.86s(cpu) 
 Tue Jan  9 10:58:58 2024

        *************************************************************
        *                                                           *
        *  Thank you very much for using Q-Chem.  Have a nice day.  *
        *                                                           *
        *************************************************************


0 sent ACK to 0 
now end server 0 ... 
cleanup process ... done
remove work dirs ./qchem3761952.0 -- ./qchem3761952.0
rm -rf ./qchem3761952.0
rm -rf ./qchem3761952
