You are running Q-Chem version: 5.4.0

#
# job setting
#
local host:  exp-14-15
current dir: /home/rramji/project-csd799/aromodel/ptb7fout-qchem/hydrogenated-rotation-run
input file:  Dimethoxy_Benzodithiophene_Phi_0_Theta_240_Methylcarbonyl_3_Fluoro_Thienothiophene_Hydrogenated.qcin
output file: 
nprocs     : 1
nthreads   : 64
#
# qchem installation setting
#
QC:          /cm/shared/apps/spack/cpu/opt/spack/linux-centos8-zen2/gcc-10.2.0/qchem-5.4-akfmr7b3t57bfs6qan3padb2wnb2i7cl
QCAUX:       /cm/shared/apps/spack/cpu/opt/spack/linux-centos8-zen2/gcc-10.2.0/qchem-5.4-akfmr7b3t57bfs6qan3padb2wnb2i7cl/qcaux
QCPROG:      /cm/shared/apps/spack/cpu/opt/spack/linux-centos8-zen2/gcc-10.2.0/qchem-5.4-akfmr7b3t57bfs6qan3padb2wnb2i7cl/exe/qcprog.exe
QCPROG_S:    /cm/shared/apps/spack/cpu/opt/spack/linux-centos8-zen2/gcc-10.2.0/qchem-5.4-akfmr7b3t57bfs6qan3padb2wnb2i7cl/exe/qcprog.exe_s
PARALLEL:    -DPARALLEL
QCMPI:       mpich
#
# qchem directory setting
#
qcrun:       qchem1989189
QCSCRATCH:   .
QCLOCALSCR:  
QCTMPDIR:    .
QCFILEPREF:  ./qchem1989189
QCSAVEDIR:   
workdirs:    ./qchem1989189
workdir0:    ./qchem1989189
partmpdirs =  
#
# parallel setting
#
QCRSH:           ssh
QCMPI:           mpich
QCMPIRUN:        /cm/shared/apps/spack/cpu/opt/spack/linux-centos8-zen2/gcc-10.2.0/qchem-5.4-akfmr7b3t57bfs6qan3padb2wnb2i7cl/bin/mpi/mpirun_qchem
QCMACHINEFILE:   ./qchem1989189/hostfile
exp-14-15

#
# env setting
#
exported envs:   QC QCAUX QCSCRATCH QCRUNNAME QCFILEPREF QCPROG QCPROG_S GUIFILE

Running Job 1 of 1 Dimethoxy_Benzodithiophene_Phi_0_Theta_240_Methylcarbonyl_3_Fluoro_Thienothiophene_Hydrogenated.qcin
qchem Dimethoxy_Benzodithiophene_Phi_0_Theta_240_Methylcarbonyl_3_Fluoro_Thienothiophene_Hydrogenated.qcin_1989189.0 ./qchem1989189/ 1
/cm/shared/apps/spack/cpu/opt/spack/linux-centos8-zen2/gcc-10.2.0/qchem-5.4-akfmr7b3t57bfs6qan3padb2wnb2i7cl/bin/mpi/mpirun_qchem -machinefile ./qchem1989189/hostfile -np 1 /cm/shared/apps/spack/cpu/opt/spack/linux-centos8-zen2/gcc-10.2.0/qchem-5.4-akfmr7b3t57bfs6qan3padb2wnb2i7cl/exe/qcprog.exe Dimethoxy_Benzodithiophene_Phi_0_Theta_240_Methylcarbonyl_3_Fluoro_Thienothiophene_Hydrogenated.qcin_1989189.0 ./qchem1989189/

Process 0 of 1 is on exp-14-15 - thread support 0
initial socket setup ...start
initial socket setup ...done 
now start server 0 ... 
                  Welcome to Q-Chem
     A Quantum Leap Into The Future Of Chemistry


 Q-Chem 5.4, Q-Chem, Inc., Pleasanton, CA (2021)

 License issued to: University of California, San Diego (site)

 E. Epifanovsky,  A. T. B. Gilbert,  Xintian Feng,  Joonho Lee,  Yuezhi Mao,  
 N. Mardirossian,  P. Pokhilko,  A. White,  M. Wormit,  M. P. Coons,  
 A. L. Dempwolff,  Zhengting Gan,  D. Hait,  P. R. Horn,  L. D. Jacobson,  
 I. Kaliman,  J. Kussmann,  A. W. Lange,  Ka Un Lao,  D. S. Levine,  Jie Liu,  
 S. C. McKenzie,  A. F. Morrison,  K. Nanda,  F. Plasser,  D. R. Rehn,  
 M. L. Vidal,  Zhi-Qiang You,  Ying Zhu,  B. Alam,  B. Albrecht,  
 A. Aldossary,  E. Alguire,  J. H. Andersen,  D. Barton,  K. Begam,  A. Behn,  
 Y. A. Bernard,  E. J. Berquist,  H. Burton,  A. Carreras,  K. Carter-Fenk,  
 R. Chakraborty,  A. D. Chien,  K. D. Closser,  V. Cofer-Shabica,  
 S. Dasgupta,  Jia Deng,  M. de Wergifosse,  M. Diedenhofen,  Hainam Do,  
 S. Ehlert,  Po-Tung Fang,  S. Fatehi,  Qingguo Feng,  J. Gayvert,  
 Qinghui Ge,  G. Gidofalvi,  M. Goldey,  J. Gomes,  C. Gonzalez-Espinoza,  
 S. Gulania,  A. Gunina,  M. W. D. Hanson-Heine,  P. H. P. Harbach,  
 A. W. Hauser,  M. F. Herbst,  M. Hernandez Vera,  M. Hodecker,  
 Z. C. Holden,  S. Houck,  Xunkun Huang,  Kerwin Hui,  B. C. Huynh,  
 M. Ivanov,  Hyunjun Ji,  Hanjie Jiang,  B. Kaduk,  S. Kaehler,  
 K. Khistyaev,  Jaehoon Kim,  P. Klunzinger,  Z. Koczor-Benda,  
 Joong Hoon Koh,  D. Kosenkov,  L. Koulias,  T. Kowalczyk,  C. M. Krauter,  
 K. Kue,  A. Kunitsa,  T. Kus,  A. Landau,  K. V. Lawler,  D. Lefrancois,  
 S. Lehtola,  Rain Li,  Yi-Pei Li,  Jiashu Liang,  M. Liebenthal,  
 Hung-Hsuan Lin,  You-Sheng Lin,  Fenglai Liu,  Kuan-Yu Liu,  
 M. Loipersberger,  A. Luenser,  A. Manjanath,  P. Manohar,  E. Mansoor,  
 S. F. Manzer,  Shan-Ping Mao,  A. V. Marenich,  T. Markovich,  S. Mason,  
 S. A. Maurer,  P. F. McLaughlin,  M. F. S. J. Menger,  J.-M. Mewes,  
 S. A. Mewes,  P. Morgante,  J. W. Mullinax,  T. S. Nguyen-Beck,  
 K. J. Oosterbaan,  G. Paran,  Alexander C. Paul,  Suranjan K. Paul,  
 F. Pavosevic,  Zheng Pei,  S. Prager,  E. I. Proynov,  E. Ramos,  B. Rana,  
 A. E. Rask,  A. Rettig,  R. M. Richard,  F. Rob,  E. Rossomme,  T. Scheele,  
 M. Scheurer,  M. Schneider,  N. Sergueev,  S. M. Sharada,  W. Skomorowski,  
 D. W. Small,  C. J. Stein,  Yu-Chuan Su,  E. J. Sundstrom,  Zhen Tao,  
 J. Thirman,  T. Tsuchimochi,  N. M. Tubman,  S. P. Veccham,  O. Vydrov,  
 J. Wenzel,  J. Witte,  A. Yamada,  Kun Yao,  S. Yeganeh,  S. R. Yost,  
 A. Zech,  Igor Ying Zhang,  Xing Zhang,  Yu Zhang,  D. Zuev,  
 A. Aspuru-Guzik,  A. T. Bell,  N. A. Besley,  K. B. Bravaya,  B. R. Brooks,  
 D. Casanova,  Jeng-Da Chai,  S. Coriani,  C. J. Cramer,  
 A. E. DePrince, III,  R. A. DiStasio Jr.,  A. Dreuw,  B. D. Dunietz,  
 T. R. Furlani,  W. A. Goddard III,  S. Grimme,  S. Hammes-Schiffer,  
 T. Head-Gordon,  W. J. Hehre,  Chao-Ping Hsu,  T.-C. Jagau,  Yousung Jung,  
 A. Klamt,  Jing Kong,  D. S. Lambrecht,  WanZhen Liang,  N. J. Mayhall,  
 C. W. McCurdy,  J. B. Neaton,  C. Ochsenfeld,  J. A. Parkhill,  R. Peverati,  
 V. A. Rassolov,  Yihan Shao,  L. V. Slipchenko,  T. Stauch,  R. P. Steele,  
 J. E. Subotnik,  A. J. W. Thom,  A. Tkatchenko,  D. G. Truhlar,  
 T. Van Voorhis,  T. A. Wesolowski,  K. B. Whaley,  H. L. Woodcock III,  
 P. M. Zimmerman,  S. Faraji,  P. M. W. Gill,  M. Head-Gordon,  
 J. M. Herbert,  A. I. Krylov

 Contributors to earlier versions of Q-Chem not listed above: 
 R. D. Adamson,  B. Austin,  R. Baer,  J. Baker,  G. J. O. Beran,  
 K. Brandhorst,  S. T. Brown,  E. F. C. Byrd,  A. K. Chakraborty,  
 G. K. L. Chan,  Chun-Min Chang,  Yunqing Chen,  C.-L. Cheng,  
 Siu Hung Chien,  D. M. Chipman,  D. L. Crittenden,  H. Dachsel,  
 R. J. Doerksen,  A. D. Dutoi,  R. G. Edgar,  J. Fosso-Tande,  
 L. Fusti-Molnar,  D. Ghosh,  A. Ghysels,  A. Golubeva-Zadorozhnaya,  
 J. Gonthier,  M. S. Gordon,  S. R. Gwaltney,  G. Hawkins,  J. E. Herr,  
 A. Heyden,  S. Hirata,  E. G. Hohenstein,  G. Kedziora,  F. J. Keil,  
 C. Kelley,  Jihan Kim,  R. A. King,  R. Z. Khaliullin,  P. P. Korambath,  
 W. Kurlancheek,  A. Laurent,  A. M. Lee,  M. S. Lee,  S. V. Levchenko,  
 Ching Yeh Lin,  D. Liotard,  E. Livshits,  R. C. Lochan,  I. Lotan,  
 L. A. Martinez-Martinez,  P. E. Maslen,  N. Nair,  D. P. O'Neill,  
 D. Neuhauser,  E. Neuscamman,  C. M. Oana,  R. Olivares-Amaya,  R. Olson,  
 T. M. Perrine,  B. Peters,  P. A. Pieniazek,  A. Prociuk,  Y. M. Rhee,  
 J. Ritchie,  M. A. Rohrdanz,  E. Rosta,  N. J. Russ,  H. F. Schaefer III,  
 M. W. Schmidt,  N. E. Schultz,  S. Sharma,  N. Shenvi,  C. D. Sherrill,  
 A. C. Simmonett,  A. Sodt,  T. Stein,  D. Stuck,  K. S. Thanthiriwatte,  
 V. Vanovschi,  L. Vogt,  Tao Wang,  A. Warshel,  M. A. Watson,  
 C. F. Williams,  Q. Wu,  X. Xu,  Jun Yang,  W. Zhang,  Yan Zhao

 Please cite Q-Chem as follows:
 Y. Shao et al., Mol. Phys. 113, 184-215 (2015)
 DOI: 10.1080/00268976.2014.952696

 Q-Chem 5.4.0 for Intel X86 EM64T Linux

 Parts of Q-Chem use Armadillo 9.800.1 (Horizon Scraper).
 http://arma.sourceforge.net/

 Q-Chem begins on Tue Jan  9 11:57:09 2024  

 Host: 
0

     Scratch files written to ./qchem1989189//
 May1621 |scratch|qcdevops|jenkins|workspace|build_RNUM    
 Parallel job on  1  processors
 Processing $rem in /cm/shared/apps/spack/cpu/opt/spack/linux-centos8-zen2/gcc-10.2.0/qchem-5.4-akfmr7b3t57bfs6qan3padb2wnb2i7cl/config/preferences:
 Processing $rem in /home/rramji/.qchemrc:
 Symmetry turned off for PCM/SM12/SMD calculation
 Core orbitals will be frozen

 Checking the input file for inconsistencies... 	...done.

 Q-Chem warning in module forms1/BasisType.C, line 2236:

 You are not using the predefined 5D/6D in this basis set.


--------------------------------------------------------------
User input:
--------------------------------------------------------------
$molecule
0 1
C	0.296276	-8.517702	-0.123330
C	-0.631143	-7.641575	0.421494
S	1.628795	-7.638634	-0.911611
C	-0.305097	-6.264785	0.233291
H	-1.535988	-7.966081	0.950737
C	0.931114	-6.072714	-0.478557
C	1.405737	-4.787049	-0.781346
C	-1.097747	-5.162801	0.664542
C	-0.624993	-3.874817	0.357854
C	0.613970	-3.683952	-0.352278
O	-2.226300	-5.499772	1.348709
O	2.538827	-4.459055	-1.469658
C	3.663102	-5.329063	-1.419319
H	4.516756	-4.755694	-1.828237
H	3.520769	-6.238095	-2.043793
H	3.895546	-5.637262	-0.377021
C	-3.298492	-4.572261	1.463351
H	-4.152945	-5.139743	1.878237
H	-3.585804	-4.153131	0.475176
H	-3.058230	-3.739531	2.159469
C	0.935761	-2.306654	-0.540664
S	-1.330550	-2.306501	0.780808
C	0.000000	-1.435185	0.000000
H	1.840780	-1.978138	-1.066946
C	0.000000	0.000000	0.000000
S	0.000474	0.904764	1.507541
C	-0.000295	2.477305	0.718873
C	0.000752	0.904447	-1.067872
C	-0.001560	2.294593	-0.686410
S	0.003602	0.660872	-2.805516
C	-0.001928	2.412546	-3.054530
C	-0.004381	3.120854	-1.862551
F	-0.009185	4.457503	-1.819088
C	-0.000038	2.860570	-4.456084
O	0.007944	2.090724	-5.406510
O	-0.007501	4.211092	-4.569225
C	-0.002278	4.706177	-5.916207
H	-0.009265	5.807207	-5.833064
H	-0.895381	4.352875	-6.470168
H	0.901521	4.363301	-6.459293
H	-0.001708	3.401562	1.306486
H	-0.158021	-9.143623	-0.900433
H	0.750822	-9.149441	0.648903
H	-0.546415	-1.443175	-0.931540
$end

$rem
JOBTYPE		SP
EXCHANGE	HF
CORRELATION	pRIMP2
BASIS		cc-pvtz
METHOD		rimp2
AUX_BASIS	rimp2-cc-pvtz
SOLVENT_METHOD	PCM
PURECART	11111
SYMMETRY	false
MEM_TOTAL	110000
SCF_CONVERGENCE = 6
THRESH=10
GUI = 2
$end



$solvent
dielectric 4.90
$end
--------------------------------------------------------------
 ----------------------------------------------------------------
             Standard Nuclear Orientation (Angstroms)
    I     Atom           X                Y                Z
 ----------------------------------------------------------------
    1      C       0.2962760000    -8.5177020000    -0.1233300000
    2      C      -0.6311430000    -7.6415750000     0.4214940000
    3      S       1.6287950000    -7.6386340000    -0.9116110000
    4      C      -0.3050970000    -6.2647850000     0.2332910000
    5      H      -1.5359880000    -7.9660810000     0.9507370000
    6      C       0.9311140000    -6.0727140000    -0.4785570000
    7      C       1.4057370000    -4.7870490000    -0.7813460000
    8      C      -1.0977470000    -5.1628010000     0.6645420000
    9      C      -0.6249930000    -3.8748170000     0.3578540000
   10      C       0.6139700000    -3.6839520000    -0.3522780000
   11      O      -2.2263000000    -5.4997720000     1.3487090000
   12      O       2.5388270000    -4.4590550000    -1.4696580000
   13      C       3.6631020000    -5.3290630000    -1.4193190000
   14      H       4.5167560000    -4.7556940000    -1.8282370000
   15      H       3.5207690000    -6.2380950000    -2.0437930000
   16      H       3.8955460000    -5.6372620000    -0.3770210000
   17      C      -3.2984920000    -4.5722610000     1.4633510000
   18      H      -4.1529450000    -5.1397430000     1.8782370000
   19      H      -3.5858040000    -4.1531310000     0.4751760000
   20      H      -3.0582300000    -3.7395310000     2.1594690000
   21      C       0.9357610000    -2.3066540000    -0.5406640000
   22      S      -1.3305500000    -2.3065010000     0.7808080000
   23      C       0.0000000000    -1.4351850000     0.0000000000
   24      H       1.8407800000    -1.9781380000    -1.0669460000
   25      C       0.0000000000     0.0000000000     0.0000000000
   26      S       0.0004740000     0.9047640000     1.5075410000
   27      C      -0.0002950000     2.4773050000     0.7188730000
   28      C       0.0007520000     0.9044470000    -1.0678720000
   29      C      -0.0015600000     2.2945930000    -0.6864100000
   30      S       0.0036020000     0.6608720000    -2.8055160000
   31      C      -0.0019280000     2.4125460000    -3.0545300000
   32      C      -0.0043810000     3.1208540000    -1.8625510000
   33      F      -0.0091850000     4.4575030000    -1.8190880000
   34      C      -0.0000380000     2.8605700000    -4.4560840000
   35      O       0.0079440000     2.0907240000    -5.4065100000
   36      O      -0.0075010000     4.2110920000    -4.5692250000
   37      C      -0.0022780000     4.7061770000    -5.9162070000
   38      H      -0.0092650000     5.8072070000    -5.8330640000
   39      H      -0.8953810000     4.3528750000    -6.4701680000
   40      H       0.9015210000     4.3633010000    -6.4592930000
   41      H      -0.0017080000     3.4015620000     1.3064860000
   42      H      -0.1580210000    -9.1436230000    -0.9004330000
   43      H       0.7508220000    -9.1494410000     0.6489030000
   44      H      -0.5464150000    -1.4431750000    -0.9315400000
 ----------------------------------------------------------------
 Nuclear Repulsion Energy =        3330.51038390 hartrees
 There are      120 alpha and      120 beta electrons
 Requested basis set is cc-pVTZ
 There are 388 shells and 1096 basis functions

 Total QAlloc Memory Limit 110000 MB
 Mega-Array Size       188 MB
 MEM_STATIC part       192 MB
 Discretize the solute cavity surface with Lebedev spheres
	Using 110 Lebedev grid points for each H atom
	Using 194 Lebedev grid points for other atoms
	Atomic van der Waals radii will be scaled by 1.20
 Remove points where switching function is < 1.0e-08
 Keep 2961 surface tesserae and discard 4315 interior tesserae
 Molecular Surface Area = 444.082 Angst**2
 Requested basis set is rimp2-cc-pVTZ
 There are 853 shells and 2963 basis functions
 A cutoff of  1.0D-10 yielded  32889 shell pairs
 There are    248807 function pairs (    321991 Cartesian)
 Smallest overlap matrix eigenvalue = 2.19E-05

 Scale SEOQF with 1.000000e-01/1.000000e-02/1.000000e-02

 Standard Electronic Orientation quadrupole field applied
 Nucleus-field energy     =     0.0000000358 hartrees
 Guess from superposition of atomic densities
 Warning:  Energy on first SCF cycle will be non-variational
 SAD guess density has 240.000000 electrons

 -----------------------------------------------------------------------
  General SCF calculation program by
  Eric Jon Sundstrom, Paul Horn, Yuezhi Mao, Dmitri Zuev, Alec White,
  David Stuck, Shaama M.S., Shane Yost, Joonho Lee, David Small,
  Daniel Levine, Susi Lehtola, Hugh Burton, Evgeny Epifanovsky,
  Bang C. Huynh
 -----------------------------------------------------------------------
 Hartree-Fock
 using 64 threads for integral computing
 -------------------------------------------------------
 OpenMP Integral computing Module                
 Release: version 1.0, May 2013, Q-Chem Inc. Pittsburgh 
 -------------------------------------------------------
 A restricted SCF calculation will be
 performed using DIIS
 SCF converges when DIIS error is below 1.0e-06
 ---------------------------------------
  Cycle       Energy         DIIS error
 ---------------------------------------
    1   -2767.0155033868      1.75e-02  
    2   -2754.8981868662      1.53e-03  
    3   -2755.2458557077      8.53e-04  
    4   -2755.3321042303      2.56e-04  
    5   -2755.3455239316      7.31e-05  
    6   -2755.3469878654      2.53e-05  
    7   -2755.3473575888      1.31e-05  
    8   -2755.3474751498      5.43e-06  
    9   -2755.3475025235      2.72e-06  
   10   -2755.3475089377      1.39e-06  
   11   -2755.3475109477      7.16e-07  Convergence criterion met
 ---------------------------------------
 SCF time:   CPU 7488.68s  wall 271.00s 

************** Final PCM Free Energy Summary **************
 G_electrostatic  =      -0.02027444 hartree =     -12.72240606 kcal/mol
 G_cavitation     =       0.00000000 hartree =       0.00000000 kcal/mol
 G_dispersion     =       0.00000000 hartree =       0.00000000 kcal/mol
 G_repulsion      =       0.00000000 hartree =       0.00000000 kcal/mol
 --------------------------------------------------
 Non-electrostatic Free Energy =       0.00000000 hartree =       0.00000000 kcal/mol
 Total                         =      -0.02027444 hartree =     -12.72240606 kcal/mol
 --------------------------------------------------
 SCF Energy (H0 + V/2)                       =   -2755.34751095 
 Solute Internal Energy (H0)                 =   -2755.32723650 
 Total Free Energy (H0 + V/2 + non-elec)     =   -2755.34751095 hartree
                                             = -1729006.65901594 kcal/mol
***********************************************************

 SCF   energy in the final basis set =    -2755.3475109477
 Total energy in the final basis set =    -2755.3475109477


 --------------------------------------------------------------
  Generalized many-body perturbation theory program
  by Joonho Lee, Fazle Rob, Xintian Feng, Evgeny Epifanovsky

 No regularization used 
 (reg. param. = 0.0000e+00)
  (P|Q)^-1/2 Time:  CPU 133.93 s  wall 2.51 s

 In RI-MP2 calculation: 
 # of frozen core orbitals: 45

 Components of the RIMP2 correlation energy:
        aaaa    correlation energy =        -0.6686483894 a.u.
        abab    correlation energy =        -3.7508909694 a.u.
        bbbb    correlation energy =        -0.6686483894 a.u.
        non-Brillouin singles      =        -0.0000000000 a.u.
        total same-spin energy     =        -1.3372967789 a.u.
        total opposite-spin energy =        -3.7508909694 a.u.

 Total  RIMP2   correlation energy =        -5.0881877483 a.u.
        RIMP2         total energy =     -2760.4356986960 a.u.

 RI-MP2 Energy Time:  CPU 2932.95 s  wall 47.73 s
 
 --------------------------------------------------------------
 
                    Orbital Energies (a.u.)
 --------------------------------------------------------------
 
 Alpha MOs
 -- Occupied --
-92.0128 -91.9996 -91.9795 -91.9582 -26.3442 -20.6153 -20.5874 -20.5871
-20.5618 -11.4100 -11.3836 -11.3091 -11.3082 -11.3079 -11.3048 -11.3008
-11.2987 -11.2892 -11.2852 -11.2848 -11.2835 -11.2827 -11.2815 -11.2729
-11.2724 -11.2584 -11.2579 -11.2497 -11.2371  -9.0115  -8.9997  -8.9816
 -8.9608  -6.6923  -6.6917  -6.6912  -6.6807  -6.6800  -6.6789  -6.6627
 -6.6618  -6.6605  -6.6420  -6.6411  -6.6401  -1.6612  -1.4678  -1.4107
 -1.4089  -1.3705  -1.2297  -1.2029  -1.1737  -1.1370  -1.1010  -1.0463
 -1.0461  -1.0234  -1.0039  -0.9976  -0.9623  -0.9594  -0.9487  -0.9412
 -0.8939  -0.8712  -0.8648  -0.8114  -0.7980  -0.7900  -0.7847  -0.7681
 -0.7585  -0.7360  -0.7260  -0.7096  -0.7008  -0.6954  -0.6852  -0.6801
 -0.6744  -0.6650  -0.6559  -0.6487  -0.6359  -0.6306  -0.6201  -0.6149
 -0.6121  -0.5989  -0.5925  -0.5775  -0.5710  -0.5655  -0.5584  -0.5528
 -0.5476  -0.5332  -0.5315  -0.5265  -0.5130  -0.5085  -0.5075  -0.5021
 -0.4853  -0.4817  -0.4762  -0.4745  -0.4693  -0.4688  -0.4617  -0.4468
 -0.4259  -0.3987  -0.3857  -0.3702  -0.3505  -0.3011  -0.2895  -0.2203
 -- Virtual --
  0.0347   0.0530   0.1094   0.1304   0.1371   0.1441   0.1515   0.1550
  0.1570   0.1596   0.1689   0.1755   0.1828   0.1872   0.1892   0.1958
  0.1990   0.2034   0.2039   0.2114   0.2147   0.2206   0.2235   0.2275
  0.2296   0.2329   0.2389   0.2428   0.2483   0.2541   0.2655   0.2684
  0.2738   0.2951   0.2984   0.3229   0.3313   0.3374   0.3397   0.3431
  0.3483   0.3569   0.3581   0.3673   0.3698   0.3743   0.3839   0.3847
  0.3860   0.3920   0.4001   0.4020   0.4040   0.4152   0.4187   0.4207
  0.4246   0.4283   0.4345   0.4378   0.4408   0.4450   0.4469   0.4488
  0.4545   0.4605   0.4638   0.4669   0.4722   0.4759   0.4791   0.4821
  0.4900   0.4921   0.4957   0.4998   0.5035   0.5111   0.5133   0.5180
  0.5232   0.5260   0.5325   0.5341   0.5398   0.5416   0.5447   0.5486
  0.5523   0.5536   0.5569   0.5583   0.5604   0.5676   0.5709   0.5797
  0.5832   0.5857   0.5877   0.5924   0.5980   0.6052   0.6105   0.6112
  0.6126   0.6142   0.6169   0.6211   0.6222   0.6237   0.6264   0.6301
  0.6321   0.6372   0.6419   0.6457   0.6492   0.6524   0.6552   0.6588
  0.6650   0.6666   0.6683   0.6766   0.6797   0.6831   0.6921   0.6989
  0.6996   0.7098   0.7115   0.7161   0.7188   0.7219   0.7231   0.7387
  0.7395   0.7510   0.7565   0.7582   0.7616   0.7723   0.7747   0.7830
  0.7897   0.7968   0.8015   0.8081   0.8101   0.8130   0.8220   0.8270
  0.8293   0.8375   0.8416   0.8582   0.8593   0.8678   0.8716   0.8729
  0.8768   0.8850   0.8902   0.8914   0.8960   0.9006   0.9076   0.9111
  0.9171   0.9197   0.9354   0.9365   0.9404   0.9434   0.9507   0.9554
  0.9590   0.9665   0.9669   0.9737   0.9759   0.9809   0.9870   0.9886
  0.9923   1.0043   1.0075   1.0094   1.0157   1.0175   1.0243   1.0300
  1.0386   1.0447   1.0459   1.0493   1.0522   1.0554   1.0613   1.0701
  1.0756   1.0778   1.0836   1.0857   1.0966   1.0989   1.1068   1.1080
  1.1090   1.1134   1.1157   1.1216   1.1286   1.1300   1.1409   1.1487
  1.1539   1.1577   1.1615   1.1641   1.1713   1.1740   1.1773   1.1796
  1.1851   1.1897   1.1979   1.1987   1.2058   1.2111   1.2131   1.2188
  1.2227   1.2290   1.2312   1.2380   1.2412   1.2443   1.2530   1.2549
  1.2590   1.2616   1.2647   1.2775   1.2803   1.2830   1.2901   1.2921
  1.2963   1.3057   1.3125   1.3221   1.3247   1.3262   1.3303   1.3383
  1.3531   1.3543   1.3675   1.3733   1.3797   1.3867   1.3906   1.3960
  1.4079   1.4103   1.4186   1.4208   1.4261   1.4375   1.4510   1.4616
  1.4641   1.4699   1.4704   1.4809   1.4884   1.4954   1.4979   1.5024
  1.5076   1.5084   1.5117   1.5133   1.5181   1.5287   1.5365   1.5392
  1.5398   1.5432   1.5444   1.5527   1.5571   1.5616   1.5723   1.5768
  1.5810   1.5940   1.5999   1.6026   1.6144   1.6214   1.6325   1.6348
  1.6457   1.6557   1.6599   1.6621   1.6704   1.6744   1.6824   1.6907
  1.6932   1.6974   1.7057   1.7092   1.7164   1.7255   1.7359   1.7469
  1.7577   1.7635   1.7777   1.7841   1.7955   1.7977   1.8069   1.8128
  1.8213   1.8237   1.8250   1.8460   1.8497   1.8619   1.8674   1.8711
  1.8840   1.8922   1.8956   1.9062   1.9137   1.9250   1.9313   1.9384
  1.9495   1.9552   1.9598   1.9612   1.9718   1.9852   1.9883   1.9984
  2.0046   2.0109   2.0197   2.0250   2.0295   2.0348   2.0419   2.0507
  2.0612   2.0735   2.0801   2.0895   2.0942   2.1079   2.1100   2.1252
  2.1414   2.1560   2.1580   2.1604   2.1769   2.1794   2.1906   2.1949
  2.1981   2.2023   2.2092   2.2192   2.2247   2.2332   2.2386   2.2436
  2.2458   2.2555   2.2574   2.2671   2.2712   2.2745   2.2902   2.2989
  2.3076   2.3089   2.3208   2.3296   2.3430   2.3500   2.3553   2.3593
  2.3696   2.3746   2.3917   2.4001   2.4108   2.4145   2.4178   2.4196
  2.4334   2.4440   2.4498   2.4695   2.4731   2.4806   2.4832   2.4904
  2.5025   2.5130   2.5143   2.5325   2.5387   2.5486   2.5573   2.5590
  2.5717   2.5768   2.5968   2.6018   2.6175   2.6198   2.6244   2.6262
  2.6277   2.6344   2.6417   2.6444   2.6494   2.6538   2.6667   2.6753
  2.6804   2.6827   2.6890   2.6937   2.6992   2.7007   2.7069   2.7147
  2.7219   2.7268   2.7299   2.7444   2.7462   2.7559   2.7623   2.7730
  2.7791   2.7839   2.7894   2.8011   2.8045   2.8110   2.8192   2.8241
  2.8289   2.8442   2.8478   2.8543   2.8629   2.8639   2.8665   2.8754
  2.8792   2.8807   2.8937   2.9022   2.9148   2.9156   2.9311   2.9347
  2.9403   2.9513   2.9584   2.9600   2.9666   2.9738   2.9783   2.9867
  2.9882   2.9975   3.0127   3.0149   3.0230   3.0319   3.0370   3.0449
  3.0498   3.0628   3.0667   3.0704   3.0867   3.0909   3.0918   3.0967
  3.1024   3.1047   3.1086   3.1237   3.1280   3.1317   3.1350   3.1399
  3.1414   3.1479   3.1532   3.1577   3.1679   3.1700   3.1758   3.1771
  3.1836   3.1941   3.2012   3.2049   3.2131   3.2177   3.2193   3.2240
  3.2311   3.2397   3.2428   3.2515   3.2533   3.2556   3.2586   3.2655
  3.2665   3.2707   3.2798   3.2809   3.2862   3.2924   3.2953   3.3015
  3.3050   3.3068   3.3100   3.3197   3.3232   3.3310   3.3388   3.3408
  3.3436   3.3498   3.3515   3.3543   3.3629   3.3646   3.3662   3.3708
  3.3759   3.3790   3.3818   3.3970   3.4001   3.4010   3.4024   3.4059
  3.4085   3.4185   3.4202   3.4246   3.4289   3.4322   3.4393   3.4437
  3.4480   3.4537   3.4579   3.4622   3.4664   3.4672   3.4764   3.4784
  3.4844   3.4863   3.4889   3.4932   3.5037   3.5106   3.5216   3.5286
  3.5408   3.5468   3.5492   3.5584   3.5600   3.5644   3.5717   3.5772
  3.5776   3.5805   3.5880   3.5929   3.5991   3.6040   3.6079   3.6128
  3.6204   3.6243   3.6259   3.6270   3.6335   3.6399   3.6406   3.6459
  3.6565   3.6649   3.6710   3.6791   3.6828   3.6832   3.6851   3.6921
  3.7016   3.7027   3.7046   3.7057   3.7115   3.7174   3.7219   3.7292
  3.7368   3.7425   3.7512   3.7575   3.7621   3.7653   3.7730   3.7756
  3.7838   3.7925   3.7941   3.7994   3.8031   3.8063   3.8153   3.8175
  3.8185   3.8207   3.8264   3.8331   3.8472   3.8484   3.8552   3.8595
  3.8618   3.8648   3.8761   3.8781   3.8850   3.8933   3.8989   3.8999
  3.9126   3.9215   3.9237   3.9343   3.9377   3.9499   3.9567   3.9586
  3.9614   3.9673   3.9711   3.9853   3.9929   3.9994   4.0045   4.0112
  4.0188   4.0239   4.0403   4.0458   4.0518   4.0625   4.0661   4.0674
  4.0726   4.0765   4.0838   4.0939   4.1023   4.1124   4.1190   4.1218
  4.1289   4.1415   4.1490   4.1555   4.1630   4.1664   4.1684   4.1715
  4.1768   4.1847   4.1938   4.2081   4.2101   4.2114   4.2203   4.2367
  4.2448   4.2470   4.2558   4.2673   4.2713   4.2764   4.2865   4.3070
  4.3113   4.3198   4.3298   4.3414   4.3417   4.3483   4.3539   4.3576
  4.3651   4.3679   4.3763   4.3852   4.3961   4.4041   4.4133   4.4156
  4.4230   4.4254   4.4264   4.4302   4.4338   4.4388   4.4433   4.4555
  4.4614   4.4775   4.4832   4.4877   4.5104   4.5171   4.5205   4.5288
  4.5331   4.5391   4.5539   4.5658   4.5686   4.5709   4.5813   4.5827
  4.5846   4.6019   4.6099   4.6209   4.6350   4.6423   4.6453   4.6500
  4.6582   4.6655   4.6804   4.6859   4.7034   4.7153   4.7245   4.7352
  4.7446   4.7488   4.7691   4.7787   4.7818   4.7856   4.7989   4.8188
  4.8265   4.8361   4.8454   4.8585   4.8693   4.8784   4.8884   4.8910
  4.8993   4.9231   4.9331   4.9386   4.9456   4.9510   4.9660   4.9729
  4.9850   4.9948   5.0085   5.0103   5.0126   5.0183   5.0419   5.0473
  5.0572   5.0784   5.0941   5.1112   5.1232   5.1286   5.1398   5.1636
  5.1754   5.1942   5.2029   5.2070   5.2196   5.2377   5.2509   5.2519
  5.2555   5.2598   5.2731   5.2846   5.2940   5.3087   5.3205   5.3268
  5.3382   5.3454   5.3512   5.3649   5.3687   5.3876   5.3912   5.4006
  5.4063   5.4241   5.4259   5.4423   5.4485   5.4846   5.5009   5.5082
  5.5145   5.5218   5.5236   5.5344   5.5617   5.5668   5.5807   5.5831
  5.5889   5.6098   5.6200   5.6211   5.6386   5.6610   5.6901   5.6974
  5.6998   5.7411   5.7565   5.7657   5.7898   5.8071   5.8324   5.8454
  5.8585   5.8805   5.9030   5.9143   5.9286   5.9575   5.9929   6.0225
  6.0383   6.0422   6.0995   6.1249   6.1501   6.1533   6.1720   6.1758
  6.1827   6.1999   6.2358   6.2465   6.2610   6.2636   6.2742   6.2857
  6.2981   6.3116   6.3413   6.3928   6.4413   6.4496   6.4840   6.5387
  6.5475   6.5673   6.6040   6.6470   6.6606   6.6706   6.7165   6.7459
  6.8069   6.8295   6.8568   6.8590   6.8979   6.9779   7.1310   7.1462
  7.2035   7.2076   7.2215   7.2399   7.3093   7.3265   7.3418   7.3624
  7.3634   7.4062   7.4128   7.4848   7.4859   7.4974   7.5246   7.5516
  7.6158   7.7392   7.7722   7.7895   7.8025   7.9013   7.9269   7.9550
  7.9750   8.1336   8.3208   8.5460   8.9211   9.0259   9.3621   9.4804
  9.6751  10.2129  11.1678  11.4500  11.7549  11.9355  12.1218  12.3648
 12.4178  12.4982  12.9288  13.0007  13.0732  13.2916  13.3847  13.4801
 13.7240  13.7858  13.8782  13.9461  14.0318  14.3124  14.9850  15.2096
 --------------------------------------------------------------
 
          Ground-State Mulliken Net Atomic Charges

     Atom                 Charge (a.u.)
  ----------------------------------------
      1 C                    -0.070304
      2 C                    -0.259061
      3 S                    -0.135173
      4 C                    -0.044617
      5 H                     0.193390
      6 C                    -0.052353
      7 C                     0.224675
      8 C                     0.226651
      9 C                    -0.077374
     10 C                    -0.053935
     11 O                    -0.334847
     12 O                    -0.343019
     13 C                    -0.082741
     14 H                     0.120292
     15 H                     0.092148
     16 H                     0.092607
     17 C                    -0.086836
     18 H                     0.123419
     19 H                     0.092974
     20 H                     0.090131
     21 C                    -0.254002
     22 S                    -0.073208
     23 C                     0.065266
     24 H                     0.209362
     25 C                    -0.077203
     26 S                     0.089127
     27 C                    -0.187492
     28 C                     0.013303
     29 C                    -0.112549
     30 S                     0.002049
     31 C                    -0.156320
     32 C                     0.396977
     33 F                    -0.206073
     34 C                     0.445089
     35 O                    -0.460885
     36 O                    -0.300630
     37 C                    -0.058630
     38 H                     0.121538
     39 H                     0.095253
     40 H                     0.095171
     41 H                     0.217277
     42 H                     0.117479
     43 H                     0.115034
     44 H                     0.188039
  ----------------------------------------
  Sum of atomic charges =     0.000000

 -----------------------------------------------------------------
                    Cartesian Multipole Moments
 -----------------------------------------------------------------
    Charge (ESU x 10^10)
                -0.0000
    Dipole Moment (Debye)
         X      -0.4154      Y       2.7031      Z       2.5424
       Tot       3.7340
    Quadrupole Moments (Debye-Ang)
        XX    -183.9473     XY       3.4285     YY    -174.2716
        XZ      -3.4785     YZ      -9.7208     ZZ    -205.7982
    Octopole Moments (Debye-Ang^2)
       XXX     -44.1981    XXY     293.4812    XYY     -40.5858
       YYY     964.1712    XXZ     180.8016    XYZ      15.4958
       YYZ     135.0146    XZZ     -20.4192    YZZ     471.9491
       ZZZ     575.6586
    Hexadecapole Moments (Debye-Ang^3)
      XXXX   -1962.0411   XXXY     494.8161   XXYY   -3928.6944
      XYYY     733.8688   YYYY  -20440.3415   XXXZ     362.2116
      XXYZ     462.5976   XYYZ     103.2989   YYYZ     870.4983
      XXZZ   -1306.3731   XYZZ     188.1899   YYZZ   -4281.4263
      XZZZ     495.1557   YZZZ     808.8180   ZZZZ   -5941.5175
 -----------------------------------------------------------------
 Total job time:  323.11s(wall), 10529.73s(cpu) 
 Tue Jan  9 12:02:32 2024

        *************************************************************
        *                                                           *
        *  Thank you very much for using Q-Chem.  Have a nice day.  *
        *                                                           *
        *************************************************************


0 sent ACK to 0 
now end server 0 ... 
cleanup process ... done
remove work dirs ./qchem1989189.0 -- ./qchem1989189.0
rm -rf ./qchem1989189.0
rm -rf ./qchem1989189
