You are running Q-Chem version: 5.4.0

#
# job setting
#
local host:  exp-3-51
current dir: /home/rramji/project-csd799/aromodel/ptb7fout-qchem/hydrogenated-rotation-run
input file:  Dimethoxy_Benzodithiophene_Phi_15_Theta_330_Methylcarbonyl_3_Fluoro_Thienothiophene_Hydrogenated.qcin
output file: 
nprocs     : 1
nthreads   : 64
#
# qchem installation setting
#
QC:          /cm/shared/apps/spack/cpu/opt/spack/linux-centos8-zen2/gcc-10.2.0/qchem-5.4-akfmr7b3t57bfs6qan3padb2wnb2i7cl
QCAUX:       /cm/shared/apps/spack/cpu/opt/spack/linux-centos8-zen2/gcc-10.2.0/qchem-5.4-akfmr7b3t57bfs6qan3padb2wnb2i7cl/qcaux
QCPROG:      /cm/shared/apps/spack/cpu/opt/spack/linux-centos8-zen2/gcc-10.2.0/qchem-5.4-akfmr7b3t57bfs6qan3padb2wnb2i7cl/exe/qcprog.exe
QCPROG_S:    /cm/shared/apps/spack/cpu/opt/spack/linux-centos8-zen2/gcc-10.2.0/qchem-5.4-akfmr7b3t57bfs6qan3padb2wnb2i7cl/exe/qcprog.exe_s
PARALLEL:    -DPARALLEL
QCMPI:       mpich
#
# qchem directory setting
#
qcrun:       qchem816674
QCSCRATCH:   .
QCLOCALSCR:  
QCTMPDIR:    .
QCFILEPREF:  ./qchem816674
QCSAVEDIR:   
workdirs:    ./qchem816674
workdir0:    ./qchem816674
partmpdirs =  
#
# parallel setting
#
QCRSH:           ssh
QCMPI:           mpich
QCMPIRUN:        /cm/shared/apps/spack/cpu/opt/spack/linux-centos8-zen2/gcc-10.2.0/qchem-5.4-akfmr7b3t57bfs6qan3padb2wnb2i7cl/bin/mpi/mpirun_qchem
QCMACHINEFILE:   ./qchem816674/hostfile
exp-3-51

#
# env setting
#
exported envs:   QC QCAUX QCSCRATCH QCRUNNAME QCFILEPREF QCPROG QCPROG_S GUIFILE

Running Job 1 of 1 Dimethoxy_Benzodithiophene_Phi_15_Theta_330_Methylcarbonyl_3_Fluoro_Thienothiophene_Hydrogenated.qcin
qchem Dimethoxy_Benzodithiophene_Phi_15_Theta_330_Methylcarbonyl_3_Fluoro_Thienothiophene_Hydrogenated.qcin_816674.0 ./qchem816674/ 1
/cm/shared/apps/spack/cpu/opt/spack/linux-centos8-zen2/gcc-10.2.0/qchem-5.4-akfmr7b3t57bfs6qan3padb2wnb2i7cl/bin/mpi/mpirun_qchem -machinefile ./qchem816674/hostfile -np 1 /cm/shared/apps/spack/cpu/opt/spack/linux-centos8-zen2/gcc-10.2.0/qchem-5.4-akfmr7b3t57bfs6qan3padb2wnb2i7cl/exe/qcprog.exe Dimethoxy_Benzodithiophene_Phi_15_Theta_330_Methylcarbonyl_3_Fluoro_Thienothiophene_Hydrogenated.qcin_816674.0 ./qchem816674/

Process 0 of 1 is on exp-3-51 - thread support 0
initial socket setup ...start
initial socket setup ...done 
now start server 0 ... 
                  Welcome to Q-Chem
     A Quantum Leap Into The Future Of Chemistry


 Q-Chem 5.4, Q-Chem, Inc., Pleasanton, CA (2021)

 License issued to: University of California, San Diego (site)

 E. Epifanovsky,  A. T. B. Gilbert,  Xintian Feng,  Joonho Lee,  Yuezhi Mao,  
 N. Mardirossian,  P. Pokhilko,  A. White,  M. Wormit,  M. P. Coons,  
 A. L. Dempwolff,  Zhengting Gan,  D. Hait,  P. R. Horn,  L. D. Jacobson,  
 I. Kaliman,  J. Kussmann,  A. W. Lange,  Ka Un Lao,  D. S. Levine,  Jie Liu,  
 S. C. McKenzie,  A. F. Morrison,  K. Nanda,  F. Plasser,  D. R. Rehn,  
 M. L. Vidal,  Zhi-Qiang You,  Ying Zhu,  B. Alam,  B. Albrecht,  
 A. Aldossary,  E. Alguire,  J. H. Andersen,  D. Barton,  K. Begam,  A. Behn,  
 Y. A. Bernard,  E. J. Berquist,  H. Burton,  A. Carreras,  K. Carter-Fenk,  
 R. Chakraborty,  A. D. Chien,  K. D. Closser,  V. Cofer-Shabica,  
 S. Dasgupta,  Jia Deng,  M. de Wergifosse,  M. Diedenhofen,  Hainam Do,  
 S. Ehlert,  Po-Tung Fang,  S. Fatehi,  Qingguo Feng,  J. Gayvert,  
 Qinghui Ge,  G. Gidofalvi,  M. Goldey,  J. Gomes,  C. Gonzalez-Espinoza,  
 S. Gulania,  A. Gunina,  M. W. D. Hanson-Heine,  P. H. P. Harbach,  
 A. W. Hauser,  M. F. Herbst,  M. Hernandez Vera,  M. Hodecker,  
 Z. C. Holden,  S. Houck,  Xunkun Huang,  Kerwin Hui,  B. C. Huynh,  
 M. Ivanov,  Hyunjun Ji,  Hanjie Jiang,  B. Kaduk,  S. Kaehler,  
 K. Khistyaev,  Jaehoon Kim,  P. Klunzinger,  Z. Koczor-Benda,  
 Joong Hoon Koh,  D. Kosenkov,  L. Koulias,  T. Kowalczyk,  C. M. Krauter,  
 K. Kue,  A. Kunitsa,  T. Kus,  A. Landau,  K. V. Lawler,  D. Lefrancois,  
 S. Lehtola,  Rain Li,  Yi-Pei Li,  Jiashu Liang,  M. Liebenthal,  
 Hung-Hsuan Lin,  You-Sheng Lin,  Fenglai Liu,  Kuan-Yu Liu,  
 M. Loipersberger,  A. Luenser,  A. Manjanath,  P. Manohar,  E. Mansoor,  
 S. F. Manzer,  Shan-Ping Mao,  A. V. Marenich,  T. Markovich,  S. Mason,  
 S. A. Maurer,  P. F. McLaughlin,  M. F. S. J. Menger,  J.-M. Mewes,  
 S. A. Mewes,  P. Morgante,  J. W. Mullinax,  T. S. Nguyen-Beck,  
 K. J. Oosterbaan,  G. Paran,  Alexander C. Paul,  Suranjan K. Paul,  
 F. Pavosevic,  Zheng Pei,  S. Prager,  E. I. Proynov,  E. Ramos,  B. Rana,  
 A. E. Rask,  A. Rettig,  R. M. Richard,  F. Rob,  E. Rossomme,  T. Scheele,  
 M. Scheurer,  M. Schneider,  N. Sergueev,  S. M. Sharada,  W. Skomorowski,  
 D. W. Small,  C. J. Stein,  Yu-Chuan Su,  E. J. Sundstrom,  Zhen Tao,  
 J. Thirman,  T. Tsuchimochi,  N. M. Tubman,  S. P. Veccham,  O. Vydrov,  
 J. Wenzel,  J. Witte,  A. Yamada,  Kun Yao,  S. Yeganeh,  S. R. Yost,  
 A. Zech,  Igor Ying Zhang,  Xing Zhang,  Yu Zhang,  D. Zuev,  
 A. Aspuru-Guzik,  A. T. Bell,  N. A. Besley,  K. B. Bravaya,  B. R. Brooks,  
 D. Casanova,  Jeng-Da Chai,  S. Coriani,  C. J. Cramer,  
 A. E. DePrince, III,  R. A. DiStasio Jr.,  A. Dreuw,  B. D. Dunietz,  
 T. R. Furlani,  W. A. Goddard III,  S. Grimme,  S. Hammes-Schiffer,  
 T. Head-Gordon,  W. J. Hehre,  Chao-Ping Hsu,  T.-C. Jagau,  Yousung Jung,  
 A. Klamt,  Jing Kong,  D. S. Lambrecht,  WanZhen Liang,  N. J. Mayhall,  
 C. W. McCurdy,  J. B. Neaton,  C. Ochsenfeld,  J. A. Parkhill,  R. Peverati,  
 V. A. Rassolov,  Yihan Shao,  L. V. Slipchenko,  T. Stauch,  R. P. Steele,  
 J. E. Subotnik,  A. J. W. Thom,  A. Tkatchenko,  D. G. Truhlar,  
 T. Van Voorhis,  T. A. Wesolowski,  K. B. Whaley,  H. L. Woodcock III,  
 P. M. Zimmerman,  S. Faraji,  P. M. W. Gill,  M. Head-Gordon,  
 J. M. Herbert,  A. I. Krylov

 Contributors to earlier versions of Q-Chem not listed above: 
 R. D. Adamson,  B. Austin,  R. Baer,  J. Baker,  G. J. O. Beran,  
 K. Brandhorst,  S. T. Brown,  E. F. C. Byrd,  A. K. Chakraborty,  
 G. K. L. Chan,  Chun-Min Chang,  Yunqing Chen,  C.-L. Cheng,  
 Siu Hung Chien,  D. M. Chipman,  D. L. Crittenden,  H. Dachsel,  
 R. J. Doerksen,  A. D. Dutoi,  R. G. Edgar,  J. Fosso-Tande,  
 L. Fusti-Molnar,  D. Ghosh,  A. Ghysels,  A. Golubeva-Zadorozhnaya,  
 J. Gonthier,  M. S. Gordon,  S. R. Gwaltney,  G. Hawkins,  J. E. Herr,  
 A. Heyden,  S. Hirata,  E. G. Hohenstein,  G. Kedziora,  F. J. Keil,  
 C. Kelley,  Jihan Kim,  R. A. King,  R. Z. Khaliullin,  P. P. Korambath,  
 W. Kurlancheek,  A. Laurent,  A. M. Lee,  M. S. Lee,  S. V. Levchenko,  
 Ching Yeh Lin,  D. Liotard,  E. Livshits,  R. C. Lochan,  I. Lotan,  
 L. A. Martinez-Martinez,  P. E. Maslen,  N. Nair,  D. P. O'Neill,  
 D. Neuhauser,  E. Neuscamman,  C. M. Oana,  R. Olivares-Amaya,  R. Olson,  
 T. M. Perrine,  B. Peters,  P. A. Pieniazek,  A. Prociuk,  Y. M. Rhee,  
 J. Ritchie,  M. A. Rohrdanz,  E. Rosta,  N. J. Russ,  H. F. Schaefer III,  
 M. W. Schmidt,  N. E. Schultz,  S. Sharma,  N. Shenvi,  C. D. Sherrill,  
 A. C. Simmonett,  A. Sodt,  T. Stein,  D. Stuck,  K. S. Thanthiriwatte,  
 V. Vanovschi,  L. Vogt,  Tao Wang,  A. Warshel,  M. A. Watson,  
 C. F. Williams,  Q. Wu,  X. Xu,  Jun Yang,  W. Zhang,  Yan Zhao

 Please cite Q-Chem as follows:
 Y. Shao et al., Mol. Phys. 113, 184-215 (2015)
 DOI: 10.1080/00268976.2014.952696

 Q-Chem 5.4.0 for Intel X86 EM64T Linux

 Parts of Q-Chem use Armadillo 9.800.1 (Horizon Scraper).
 http://arma.sourceforge.net/

 Q-Chem begins on Tue Jan  9 13:05:13 2024  

 Host: 
0

     Scratch files written to ./qchem816674//
 May1621 |scratch|qcdevops|jenkins|workspace|build_RNUM    
 Parallel job on  1  processors
 Processing $rem in /cm/shared/apps/spack/cpu/opt/spack/linux-centos8-zen2/gcc-10.2.0/qchem-5.4-akfmr7b3t57bfs6qan3padb2wnb2i7cl/config/preferences:
 Processing $rem in /home/rramji/.qchemrc:
 Symmetry turned off for PCM/SM12/SMD calculation
 Core orbitals will be frozen

 Checking the input file for inconsistencies... 	...done.

 Q-Chem warning in module forms1/BasisType.C, line 2236:

 You are not using the predefined 5D/6D in this basis set.


--------------------------------------------------------------
User input:
--------------------------------------------------------------
$molecule
0 1
C	0.123330	-8.517702	0.296276
C	-0.421494	-7.641575	-0.631143
S	0.911611	-7.638634	1.628795
C	-0.233291	-6.264785	-0.305097
H	-0.950737	-7.966081	-1.535988
C	0.478557	-6.072714	0.931114
C	0.781346	-4.787049	1.405737
C	-0.664542	-5.162801	-1.097747
C	-0.357854	-3.874817	-0.624993
C	0.352278	-3.683952	0.613970
O	-1.348709	-5.499772	-2.226300
O	1.469658	-4.459055	2.538827
C	1.419319	-5.329063	3.663102
H	1.828237	-4.755694	4.516756
H	2.043793	-6.238095	3.520769
H	0.377021	-5.637262	3.895546
C	-1.463351	-4.572261	-3.298492
H	-1.878237	-5.139743	-4.152945
H	-0.475176	-4.153131	-3.585804
H	-2.159469	-3.739531	-3.058230
C	0.540664	-2.306654	0.935761
S	-0.780808	-2.306501	-1.330550
C	0.000000	-1.435185	0.000000
H	1.066946	-1.978138	1.840780
C	0.000000	0.000000	0.000000
S	0.234628	0.873813	1.507541
C	0.640889	2.392969	0.718873
C	0.234815	0.873434	-1.067872
C	0.592377	2.216811	-0.686410
S	0.174526	0.637422	-2.805516
C	0.622551	2.330840	-3.054530
C	0.803505	3.015647	-1.862551
F	1.144815	4.307994	-1.819088
C	0.740334	2.763108	-4.456084
O	0.548793	2.017428	-5.406510
O	1.082665	4.069544	-4.569225
C	1.215848	4.546407	-5.916207
H	1.494066	5.611729	-5.833064
H	0.261736	4.436296	-6.470168
H	2.000108	3.981294	-6.459293
H	0.878739	3.286099	1.306486
H	0.900433	-9.143623	-0.158021
H	-0.648903	-9.149441	0.750822
H	0.931540	-1.443175	-0.546415
$end

$rem
JOBTYPE		SP
EXCHANGE	HF
CORRELATION	pRIMP2
BASIS		cc-pvtz
METHOD		rimp2
AUX_BASIS	rimp2-cc-pvtz
SOLVENT_METHOD	PCM
PURECART	11111
SYMMETRY	false
MEM_TOTAL	110000
SCF_CONVERGENCE = 6
THRESH=10
GUI = 2
$end



$solvent
dielectric 4.90
$end
--------------------------------------------------------------
 ----------------------------------------------------------------
             Standard Nuclear Orientation (Angstroms)
    I     Atom           X                Y                Z
 ----------------------------------------------------------------
    1      C       0.1233300000    -8.5177020000     0.2962760000
    2      C      -0.4214940000    -7.6415750000    -0.6311430000
    3      S       0.9116110000    -7.6386340000     1.6287950000
    4      C      -0.2332910000    -6.2647850000    -0.3050970000
    5      H      -0.9507370000    -7.9660810000    -1.5359880000
    6      C       0.4785570000    -6.0727140000     0.9311140000
    7      C       0.7813460000    -4.7870490000     1.4057370000
    8      C      -0.6645420000    -5.1628010000    -1.0977470000
    9      C      -0.3578540000    -3.8748170000    -0.6249930000
   10      C       0.3522780000    -3.6839520000     0.6139700000
   11      O      -1.3487090000    -5.4997720000    -2.2263000000
   12      O       1.4696580000    -4.4590550000     2.5388270000
   13      C       1.4193190000    -5.3290630000     3.6631020000
   14      H       1.8282370000    -4.7556940000     4.5167560000
   15      H       2.0437930000    -6.2380950000     3.5207690000
   16      H       0.3770210000    -5.6372620000     3.8955460000
   17      C      -1.4633510000    -4.5722610000    -3.2984920000
   18      H      -1.8782370000    -5.1397430000    -4.1529450000
   19      H      -0.4751760000    -4.1531310000    -3.5858040000
   20      H      -2.1594690000    -3.7395310000    -3.0582300000
   21      C       0.5406640000    -2.3066540000     0.9357610000
   22      S      -0.7808080000    -2.3065010000    -1.3305500000
   23      C       0.0000000000    -1.4351850000     0.0000000000
   24      H       1.0669460000    -1.9781380000     1.8407800000
   25      C       0.0000000000     0.0000000000     0.0000000000
   26      S       0.2346280000     0.8738130000     1.5075410000
   27      C       0.6408890000     2.3929690000     0.7188730000
   28      C       0.2348150000     0.8734340000    -1.0678720000
   29      C       0.5923770000     2.2168110000    -0.6864100000
   30      S       0.1745260000     0.6374220000    -2.8055160000
   31      C       0.6225510000     2.3308400000    -3.0545300000
   32      C       0.8035050000     3.0156470000    -1.8625510000
   33      F       1.1448150000     4.3079940000    -1.8190880000
   34      C       0.7403340000     2.7631080000    -4.4560840000
   35      O       0.5487930000     2.0174280000    -5.4065100000
   36      O       1.0826650000     4.0695440000    -4.5692250000
   37      C       1.2158480000     4.5464070000    -5.9162070000
   38      H       1.4940660000     5.6117290000    -5.8330640000
   39      H       0.2617360000     4.4362960000    -6.4701680000
   40      H       2.0001080000     3.9812940000    -6.4592930000
   41      H       0.8787390000     3.2860990000     1.3064860000
   42      H       0.9004330000    -9.1436230000    -0.1580210000
   43      H      -0.6489030000    -9.1494410000     0.7508220000
   44      H       0.9315400000    -1.4431750000    -0.5464150000
 ----------------------------------------------------------------
 Nuclear Repulsion Energy =        3346.49700993 hartrees
 There are      120 alpha and      120 beta electrons
 Requested basis set is cc-pVTZ
 There are 388 shells and 1096 basis functions

 Total QAlloc Memory Limit 110000 MB
 Mega-Array Size       188 MB
 MEM_STATIC part       192 MB
 Discretize the solute cavity surface with Lebedev spheres
	Using 110 Lebedev grid points for each H atom
	Using 194 Lebedev grid points for other atoms
	Atomic van der Waals radii will be scaled by 1.20
 Remove points where switching function is < 1.0e-08
 Keep 2965 surface tesserae and discard 4311 interior tesserae
 Molecular Surface Area = 438.891 Angst**2
 Requested basis set is rimp2-cc-pVTZ
 There are 853 shells and 2963 basis functions
 A cutoff of  1.0D-10 yielded  33077 shell pairs
 There are    249863 function pairs (    323262 Cartesian)
 Smallest overlap matrix eigenvalue = 2.17E-05

 Scale SEOQF with 1.000000e-01/1.000000e-02/1.000000e-02

 Standard Electronic Orientation quadrupole field applied
 Nucleus-field energy     =     0.0000000221 hartrees
 Guess from superposition of atomic densities
 Warning:  Energy on first SCF cycle will be non-variational
 SAD guess density has 240.000000 electrons

 -----------------------------------------------------------------------
  General SCF calculation program by
  Eric Jon Sundstrom, Paul Horn, Yuezhi Mao, Dmitri Zuev, Alec White,
  David Stuck, Shaama M.S., Shane Yost, Joonho Lee, David Small,
  Daniel Levine, Susi Lehtola, Hugh Burton, Evgeny Epifanovsky,
  Bang C. Huynh
 -----------------------------------------------------------------------
 Hartree-Fock
 using 64 threads for integral computing
 -------------------------------------------------------
 OpenMP Integral computing Module                
 Release: version 1.0, May 2013, Q-Chem Inc. Pittsburgh 
 -------------------------------------------------------
 A restricted SCF calculation will be
 performed using DIIS
 SCF converges when DIIS error is below 1.0e-06
 ---------------------------------------
  Cycle       Energy         DIIS error
 ---------------------------------------
    1   -2767.0354068230      1.75e-02  
    2   -2754.8904615736      1.53e-03  
    3   -2755.2386386359      8.55e-04  
    4   -2755.3257518085      2.56e-04  
    5   -2755.3394219508      7.38e-05  
    6   -2755.3409703380      2.60e-05  
    7   -2755.3413794550      1.37e-05  
    8   -2755.3415114062      5.67e-06  
    9   -2755.3415419180      2.93e-06  
   10   -2755.3415491681      1.48e-06  
   11   -2755.3415515766      7.92e-07  Convergence criterion met
 ---------------------------------------
 SCF time:   CPU 7959.90s  wall 310.00s 

************** Final PCM Free Energy Summary **************
 G_electrostatic  =      -0.02027675 hartree =     -12.72385134 kcal/mol
 G_cavitation     =       0.00000000 hartree =       0.00000000 kcal/mol
 G_dispersion     =       0.00000000 hartree =       0.00000000 kcal/mol
 G_repulsion      =       0.00000000 hartree =       0.00000000 kcal/mol
 --------------------------------------------------
 Non-electrostatic Free Energy =       0.00000000 hartree =       0.00000000 kcal/mol
 Total                         =      -0.02027675 hartree =     -12.72385134 kcal/mol
 --------------------------------------------------
 SCF Energy (H0 + V/2)                       =   -2755.34155158 
 Solute Internal Energy (H0)                 =   -2755.32127483 
 Total Free Energy (H0 + V/2 + non-elec)     =   -2755.34155158 hartree
                                             = -1729002.91945414 kcal/mol
***********************************************************

 SCF   energy in the final basis set =    -2755.3415515766
 Total energy in the final basis set =    -2755.3415515766


 --------------------------------------------------------------
  Generalized many-body perturbation theory program
  by Joonho Lee, Fazle Rob, Xintian Feng, Evgeny Epifanovsky

 No regularization used 
 (reg. param. = 0.0000e+00)
  (P|Q)^-1/2 Time:  CPU 192.54 s  wall 3.03 s

 In RI-MP2 calculation: 
 # of frozen core orbitals: 45

 Components of the RIMP2 correlation energy:
        aaaa    correlation energy =        -0.6695252804 a.u.
        abab    correlation energy =        -3.7527588132 a.u.
        bbbb    correlation energy =        -0.6695252804 a.u.
        non-Brillouin singles      =        -0.0000000000 a.u.
        total same-spin energy     =        -1.3390505609 a.u.
        total opposite-spin energy =        -3.7527588132 a.u.

 Total  RIMP2   correlation energy =        -5.0918093740 a.u.
        RIMP2         total energy =     -2760.4333609506 a.u.

 RI-MP2 Energy Time:  CPU 3040.60 s  wall 49.75 s
 
 --------------------------------------------------------------
 
                    Orbital Energies (a.u.)
 --------------------------------------------------------------
 
 Alpha MOs
 -- Occupied --
-92.0149 -91.9971 -91.9793 -91.9594 -26.3428 -20.6149 -20.5880 -20.5879
-20.5614 -11.4094 -11.3816 -11.3099 -11.3095 -11.3090 -11.3022 -11.2975
-11.2939 -11.2889 -11.2849 -11.2845 -11.2844 -11.2835 -11.2833 -11.2746
-11.2733 -11.2603 -11.2592 -11.2508 -11.2392  -9.0134  -8.9972  -8.9817
 -8.9620  -6.6942  -6.6936  -6.6931  -6.6782  -6.6775  -6.6763  -6.6628
 -6.6619  -6.6606  -6.6432  -6.6423  -6.6412  -1.6599  -1.4673  -1.4113
 -1.4098  -1.3700  -1.2306  -1.2026  -1.1749  -1.1372  -1.1012  -1.0481
 -1.0447  -1.0237  -1.0043  -0.9980  -0.9638  -0.9571  -0.9493  -0.9419
 -0.8944  -0.8704  -0.8645  -0.8155  -0.7923  -0.7901  -0.7851  -0.7694
 -0.7574  -0.7366  -0.7248  -0.7091  -0.6984  -0.6956  -0.6847  -0.6814
 -0.6739  -0.6650  -0.6562  -0.6492  -0.6367  -0.6316  -0.6211  -0.6158
 -0.6111  -0.5995  -0.5936  -0.5761  -0.5713  -0.5654  -0.5596  -0.5562
 -0.5509  -0.5318  -0.5304  -0.5263  -0.5147  -0.5107  -0.5080  -0.5010
 -0.4855  -0.4802  -0.4770  -0.4737  -0.4718  -0.4659  -0.4609  -0.4471
 -0.4316  -0.3968  -0.3843  -0.3715  -0.3500  -0.2997  -0.2882  -0.2186
 -- Virtual --
  0.0332   0.0537   0.1089   0.1304   0.1417   0.1473   0.1497   0.1535
  0.1568   0.1606   0.1629   0.1758   0.1828   0.1842   0.1857   0.1950
  0.1996   0.2025   0.2069   0.2120   0.2150   0.2207   0.2237   0.2284
  0.2289   0.2353   0.2423   0.2472   0.2490   0.2576   0.2657   0.2730
  0.2825   0.2945   0.3115   0.3237   0.3297   0.3381   0.3430   0.3455
  0.3527   0.3572   0.3609   0.3698   0.3730   0.3802   0.3830   0.3846
  0.3895   0.3951   0.4007   0.4044   0.4069   0.4097   0.4152   0.4253
  0.4283   0.4313   0.4335   0.4370   0.4420   0.4436   0.4525   0.4551
  0.4587   0.4646   0.4675   0.4691   0.4728   0.4773   0.4813   0.4871
  0.4889   0.4933   0.4972   0.5018   0.5034   0.5071   0.5177   0.5207
  0.5225   0.5262   0.5306   0.5340   0.5368   0.5414   0.5436   0.5438
  0.5482   0.5523   0.5559   0.5582   0.5674   0.5701   0.5746   0.5844
  0.5859   0.5877   0.5889   0.5941   0.5970   0.6012   0.6089   0.6111
  0.6149   0.6159   0.6181   0.6215   0.6226   0.6244   0.6266   0.6300
  0.6346   0.6419   0.6420   0.6447   0.6474   0.6527   0.6556   0.6581
  0.6629   0.6666   0.6715   0.6740   0.6855   0.6872   0.6931   0.6992
  0.7032   0.7105   0.7117   0.7160   0.7207   0.7222   0.7303   0.7360
  0.7418   0.7517   0.7539   0.7660   0.7686   0.7699   0.7777   0.7880
  0.7979   0.8015   0.8050   0.8098   0.8136   0.8173   0.8198   0.8249
  0.8357   0.8427   0.8458   0.8524   0.8630   0.8649   0.8738   0.8752
  0.8837   0.8860   0.8900   0.8926   0.8980   0.9007   0.9078   0.9101
  0.9145   0.9279   0.9360   0.9377   0.9416   0.9454   0.9533   0.9552
  0.9569   0.9667   0.9714   0.9747   0.9778   0.9863   0.9902   0.9951
  0.9971   1.0006   1.0043   1.0138   1.0190   1.0214   1.0231   1.0292
  1.0299   1.0388   1.0489   1.0509   1.0553   1.0600   1.0637   1.0725
  1.0751   1.0807   1.0855   1.0875   1.0962   1.0988   1.1029   1.1042
  1.1084   1.1127   1.1163   1.1232   1.1267   1.1337   1.1372   1.1515
  1.1558   1.1589   1.1661   1.1696   1.1717   1.1753   1.1809   1.1832
  1.1857   1.1910   1.1994   1.2015   1.2064   1.2120   1.2185   1.2193
  1.2258   1.2326   1.2341   1.2415   1.2442   1.2480   1.2524   1.2542
  1.2553   1.2644   1.2688   1.2724   1.2753   1.2851   1.2905   1.2935
  1.2996   1.3016   1.3121   1.3193   1.3250   1.3304   1.3341   1.3404
  1.3473   1.3511   1.3581   1.3644   1.3765   1.3904   1.3927   1.4002
  1.4059   1.4101   1.4172   1.4260   1.4292   1.4336   1.4424   1.4534
  1.4563   1.4587   1.4731   1.4809   1.4881   1.4938   1.4978   1.5026
  1.5031   1.5122   1.5169   1.5197   1.5238   1.5340   1.5346   1.5393
  1.5425   1.5444   1.5461   1.5556   1.5581   1.5629   1.5674   1.5770
  1.5788   1.5913   1.6011   1.6030   1.6093   1.6237   1.6309   1.6386
  1.6444   1.6476   1.6570   1.6618   1.6696   1.6767   1.6815   1.6852
  1.6945   1.6972   1.7071   1.7104   1.7220   1.7275   1.7340   1.7487
  1.7619   1.7670   1.7688   1.7838   1.7898   1.7952   1.8113   1.8150
  1.8181   1.8265   1.8380   1.8425   1.8541   1.8658   1.8720   1.8760
  1.8826   1.8910   1.8957   1.9088   1.9129   1.9198   1.9312   1.9373
  1.9432   1.9481   1.9565   1.9765   1.9831   1.9849   1.9919   2.0020
  2.0068   2.0163   2.0195   2.0218   2.0293   2.0362   2.0404   2.0502
  2.0531   2.0741   2.0817   2.0871   2.0931   2.1048   2.1130   2.1331
  2.1488   2.1590   2.1626   2.1653   2.1806   2.1874   2.1915   2.1938
  2.1985   2.2078   2.2098   2.2202   2.2230   2.2320   2.2365   2.2471
  2.2492   2.2509   2.2591   2.2657   2.2689   2.2756   2.2889   2.3040
  2.3080   2.3113   2.3268   2.3309   2.3360   2.3474   2.3562   2.3647
  2.3712   2.3757   2.3933   2.3956   2.4026   2.4148   2.4176   2.4254
  2.4330   2.4383   2.4527   2.4623   2.4680   2.4810   2.4910   2.4957
  2.5051   2.5134   2.5152   2.5314   2.5429   2.5467   2.5527   2.5580
  2.5733   2.5860   2.5946   2.5986   2.6088   2.6181   2.6218   2.6251
  2.6305   2.6382   2.6431   2.6444   2.6480   2.6560   2.6634   2.6767
  2.6791   2.6869   2.6906   2.6965   2.7035   2.7049   2.7096   2.7116
  2.7186   2.7262   2.7380   2.7425   2.7522   2.7589   2.7614   2.7711
  2.7807   2.7878   2.7920   2.7992   2.8050   2.8059   2.8182   2.8328
  2.8396   2.8474   2.8499   2.8523   2.8587   2.8633   2.8673   2.8684
  2.8737   2.8847   2.8945   2.9017   2.9112   2.9161   2.9321   2.9353
  2.9472   2.9532   2.9546   2.9622   2.9651   2.9767   2.9789   2.9827
  2.9868   2.9996   3.0070   3.0159   3.0232   3.0294   3.0372   3.0411
  3.0492   3.0602   3.0655   3.0739   3.0833   3.0884   3.0936   3.0979
  3.1059   3.1082   3.1129   3.1216   3.1273   3.1327   3.1360   3.1402
  3.1418   3.1500   3.1529   3.1566   3.1617   3.1618   3.1690   3.1795
  3.1854   3.1926   3.1976   3.2084   3.2142   3.2149   3.2195   3.2231
  3.2275   3.2361   3.2391   3.2497   3.2571   3.2600   3.2624   3.2670
  3.2724   3.2738   3.2796   3.2823   3.2896   3.2945   3.2975   3.3007
  3.3055   3.3083   3.3156   3.3177   3.3282   3.3336   3.3344   3.3421
  3.3450   3.3475   3.3511   3.3518   3.3596   3.3607   3.3674   3.3725
  3.3740   3.3778   3.3849   3.3938   3.3958   3.4010   3.4026   3.4050
  3.4105   3.4163   3.4188   3.4239   3.4286   3.4300   3.4390   3.4437
  3.4506   3.4527   3.4578   3.4625   3.4672   3.4741   3.4763   3.4803
  3.4845   3.4864   3.4896   3.4958   3.5033   3.5154   3.5229   3.5278
  3.5380   3.5404   3.5465   3.5551   3.5561   3.5622   3.5655   3.5740
  3.5778   3.5829   3.5874   3.5925   3.5960   3.6012   3.6036   3.6131
  3.6143   3.6182   3.6256   3.6340   3.6358   3.6393   3.6434   3.6453
  3.6615   3.6625   3.6720   3.6779   3.6812   3.6847   3.6905   3.6943
  3.7034   3.7054   3.7069   3.7096   3.7134   3.7210   3.7267   3.7308
  3.7361   3.7440   3.7490   3.7494   3.7607   3.7633   3.7688   3.7792
  3.7847   3.7886   3.7967   3.7976   3.8047   3.8047   3.8085   3.8138
  3.8191   3.8233   3.8320   3.8367   3.8429   3.8457   3.8485   3.8579
  3.8624   3.8696   3.8765   3.8818   3.8869   3.8906   3.9045   3.9067
  3.9121   3.9205   3.9291   3.9299   3.9450   3.9484   3.9544   3.9570
  3.9636   3.9659   3.9716   3.9895   3.9964   4.0008   4.0124   4.0148
  4.0198   4.0204   4.0254   4.0376   4.0476   4.0586   4.0618   4.0671
  4.0678   4.0697   4.0823   4.0898   4.1076   4.1127   4.1239   4.1266
  4.1317   4.1433   4.1473   4.1574   4.1608   4.1654   4.1668   4.1689
  4.1702   4.1769   4.1906   4.2102   4.2136   4.2169   4.2312   4.2341
  4.2454   4.2484   4.2584   4.2652   4.2710   4.2839   4.2945   4.2964
  4.3168   4.3209   4.3276   4.3400   4.3419   4.3474   4.3498   4.3594
  4.3623   4.3701   4.3787   4.3858   4.3932   4.4028   4.4113   4.4161
  4.4212   4.4261   4.4286   4.4337   4.4353   4.4420   4.4488   4.4569
  4.4628   4.4714   4.4908   4.4970   4.5168   4.5200   4.5231   4.5307
  4.5395   4.5444   4.5500   4.5601   4.5683   4.5702   4.5787   4.5804
  4.5919   4.5979   4.6063   4.6126   4.6218   4.6410   4.6464   4.6505
  4.6608   4.6634   4.6855   4.6912   4.7048   4.7136   4.7231   4.7318
  4.7489   4.7569   4.7712   4.7787   4.7872   4.7934   4.8046   4.8175
  4.8276   4.8299   4.8409   4.8482   4.8581   4.8715   4.8836   4.8908
  4.9012   4.9141   4.9321   4.9398   4.9496   4.9606   4.9645   4.9785
  4.9811   5.0014   5.0088   5.0110   5.0209   5.0284   5.0407   5.0567
  5.0662   5.0721   5.0983   5.1005   5.1177   5.1307   5.1401   5.1639
  5.1724   5.1922   5.2055   5.2105   5.2197   5.2279   5.2505   5.2538
  5.2581   5.2713   5.2736   5.2862   5.2949   5.2996   5.3182   5.3264
  5.3419   5.3514   5.3558   5.3636   5.3780   5.3855   5.3993   5.4022
  5.4098   5.4210   5.4262   5.4417   5.4514   5.4844   5.4849   5.5054
  5.5092   5.5195   5.5242   5.5362   5.5542   5.5683   5.5787   5.5842
  5.5957   5.6075   5.6144   5.6216   5.6473   5.6644   5.6707   5.6893
  5.6972   5.7411   5.7596   5.7625   5.7750   5.8075   5.8186   5.8499
  5.8583   5.8801   5.9027   5.9191   5.9291   5.9527   5.9728   6.0069
  6.0399   6.0444   6.0829   6.1248   6.1504   6.1564   6.1730   6.1788
  6.1813   6.2102   6.2288   6.2428   6.2613   6.2624   6.2752   6.2862
  6.3003   6.3209   6.3453   6.3788   6.4426   6.4501   6.4853   6.5396
  6.5469   6.5651   6.6052   6.6447   6.6615   6.6711   6.7127   6.7471
  6.8068   6.8305   6.8568   6.8594   6.8984   6.9782   7.1309   7.1448
  7.2039   7.2077   7.2214   7.2387   7.3098   7.3263   7.3407   7.3636
  7.3649   7.4064   7.4132   7.4861   7.4867   7.4965   7.5250   7.5520
  7.6179   7.7398   7.7735   7.7900   7.8018   7.9026   7.9260   7.9537
  7.9771   8.1361   8.3237   8.5194   8.9224   9.0249   9.3635   9.4847
  9.6738  10.2114  11.1684  11.4277  11.7434  11.8978  12.1221  12.3544
 12.4208  12.4880  12.9375  12.9769  13.0744  13.2880  13.3892  13.4824
 13.7541  13.8224  13.8847  13.9396  14.0377  14.3097  14.9742  15.2208
 --------------------------------------------------------------
 
          Ground-State Mulliken Net Atomic Charges

     Atom                 Charge (a.u.)
  ----------------------------------------
      1 C                    -0.070552
      2 C                    -0.252971
      3 S                    -0.133335
      4 C                    -0.046499
      5 H                     0.194448
      6 C                    -0.051110
      7 C                     0.220782
      8 C                     0.232248
      9 C                    -0.076987
     10 C                    -0.046603
     11 O                    -0.334557
     12 O                    -0.344000
     13 C                    -0.082560
     14 H                     0.120060
     15 H                     0.092134
     16 H                     0.092996
     17 C                    -0.088325
     18 H                     0.123938
     19 H                     0.093806
     20 H                     0.090732
     21 C                    -0.283713
     22 S                    -0.083646
     23 C                     0.074293
     24 H                     0.202846
     25 C                    -0.009673
     26 S                     0.080349
     27 C                    -0.206163
     28 C                    -0.021156
     29 C                    -0.110584
     30 S                    -0.001765
     31 C                    -0.160222
     32 C                     0.400869
     33 F                    -0.207103
     34 C                     0.445283
     35 O                    -0.460527
     36 O                    -0.300690
     37 C                    -0.058592
     38 H                     0.121428
     39 H                     0.095142
     40 H                     0.095019
     41 H                     0.216713
     42 H                     0.118373
     43 H                     0.115974
     44 H                     0.203901
  ----------------------------------------
  Sum of atomic charges =     0.000000

 -----------------------------------------------------------------
                    Cartesian Multipole Moments
 -----------------------------------------------------------------
    Charge (ESU x 10^10)
                 0.0000
    Dipole Moment (Debye)
         X       1.0506      Y       1.7514      Z       2.5203
       Tot       3.2439
    Quadrupole Moments (Debye-Ang)
        XX    -200.2150     XY       5.8299     YY    -172.3341
        XZ       1.6880     YZ      -3.8117     ZZ    -188.4358
    Octopole Moments (Debye-Ang^2)
       XXX    -164.3094    XXY     385.7220    XYY     -61.4407
       YYY     944.4748    XXZ     149.5574    XYZ     -32.1618
       YYZ      71.2795    XZZ     -31.7629    YZZ     389.5592
       ZZZ     511.8854
    Hexadecapole Moments (Debye-Ang^3)
      XXXX   -1006.8908   XXXY    -197.6478   XXYY   -4042.8496
      XYYY      14.3891   YYYY  -20013.0392   XXXZ     -82.1299
      XXYZ     683.6279   XYYZ     -46.9021   YYYZ    1972.9445
      XXZZ   -1303.7434   XYZZ      83.0613   YYZZ   -4139.9656
      XZZZ     -86.3390   YZZZ    1508.4523   ZZZZ   -7131.1001
 -----------------------------------------------------------------
 Total job time:  364.71s(wall), 11144.44s(cpu) 
 Tue Jan  9 13:11:18 2024

        *************************************************************
        *                                                           *
        *  Thank you very much for using Q-Chem.  Have a nice day.  *
        *                                                           *
        *************************************************************


0 sent ACK to 0 
now end server 0 ... 
cleanup process ... done
remove work dirs ./qchem816674.0 -- ./qchem816674.0
rm -rf ./qchem816674.0
rm -rf ./qchem816674
