You are running Q-Chem version: 5.4.0

#
# job setting
#
local host:  exp-3-51
current dir: /home/rramji/project-csd799/aromodel/ptb7fout-qchem/hydrogenated-rotation-run
input file:  Dimethoxy_Benzodithiophene_Phi_15_Theta_50_Methylcarbonyl_3_Fluoro_Thienothiophene_Hydrogenated.qcin
output file: 
nprocs     : 1
nthreads   : 64
#
# qchem installation setting
#
QC:          /cm/shared/apps/spack/cpu/opt/spack/linux-centos8-zen2/gcc-10.2.0/qchem-5.4-akfmr7b3t57bfs6qan3padb2wnb2i7cl
QCAUX:       /cm/shared/apps/spack/cpu/opt/spack/linux-centos8-zen2/gcc-10.2.0/qchem-5.4-akfmr7b3t57bfs6qan3padb2wnb2i7cl/qcaux
QCPROG:      /cm/shared/apps/spack/cpu/opt/spack/linux-centos8-zen2/gcc-10.2.0/qchem-5.4-akfmr7b3t57bfs6qan3padb2wnb2i7cl/exe/qcprog.exe
QCPROG_S:    /cm/shared/apps/spack/cpu/opt/spack/linux-centos8-zen2/gcc-10.2.0/qchem-5.4-akfmr7b3t57bfs6qan3padb2wnb2i7cl/exe/qcprog.exe_s
PARALLEL:    -DPARALLEL
QCMPI:       mpich
#
# qchem directory setting
#
qcrun:       qchem774189
QCSCRATCH:   .
QCLOCALSCR:  
QCTMPDIR:    .
QCFILEPREF:  ./qchem774189
QCSAVEDIR:   
workdirs:    ./qchem774189
workdir0:    ./qchem774189
partmpdirs =  
#
# parallel setting
#
QCRSH:           ssh
QCMPI:           mpich
QCMPIRUN:        /cm/shared/apps/spack/cpu/opt/spack/linux-centos8-zen2/gcc-10.2.0/qchem-5.4-akfmr7b3t57bfs6qan3padb2wnb2i7cl/bin/mpi/mpirun_qchem
QCMACHINEFILE:   ./qchem774189/hostfile
exp-3-51

#
# env setting
#
exported envs:   QC QCAUX QCSCRATCH QCRUNNAME QCFILEPREF QCPROG QCPROG_S GUIFILE

Running Job 1 of 1 Dimethoxy_Benzodithiophene_Phi_15_Theta_50_Methylcarbonyl_3_Fluoro_Thienothiophene_Hydrogenated.qcin
qchem Dimethoxy_Benzodithiophene_Phi_15_Theta_50_Methylcarbonyl_3_Fluoro_Thienothiophene_Hydrogenated.qcin_774189.0 ./qchem774189/ 1
/cm/shared/apps/spack/cpu/opt/spack/linux-centos8-zen2/gcc-10.2.0/qchem-5.4-akfmr7b3t57bfs6qan3padb2wnb2i7cl/bin/mpi/mpirun_qchem -machinefile ./qchem774189/hostfile -np 1 /cm/shared/apps/spack/cpu/opt/spack/linux-centos8-zen2/gcc-10.2.0/qchem-5.4-akfmr7b3t57bfs6qan3padb2wnb2i7cl/exe/qcprog.exe Dimethoxy_Benzodithiophene_Phi_15_Theta_50_Methylcarbonyl_3_Fluoro_Thienothiophene_Hydrogenated.qcin_774189.0 ./qchem774189/

Process 0 of 1 is on exp-3-51 - thread support 0
initial socket setup ...start
initial socket setup ...done 
now start server 0 ... 
                  Welcome to Q-Chem
     A Quantum Leap Into The Future Of Chemistry


 Q-Chem 5.4, Q-Chem, Inc., Pleasanton, CA (2021)

 License issued to: University of California, San Diego (site)

 E. Epifanovsky,  A. T. B. Gilbert,  Xintian Feng,  Joonho Lee,  Yuezhi Mao,  
 N. Mardirossian,  P. Pokhilko,  A. White,  M. Wormit,  M. P. Coons,  
 A. L. Dempwolff,  Zhengting Gan,  D. Hait,  P. R. Horn,  L. D. Jacobson,  
 I. Kaliman,  J. Kussmann,  A. W. Lange,  Ka Un Lao,  D. S. Levine,  Jie Liu,  
 S. C. McKenzie,  A. F. Morrison,  K. Nanda,  F. Plasser,  D. R. Rehn,  
 M. L. Vidal,  Zhi-Qiang You,  Ying Zhu,  B. Alam,  B. Albrecht,  
 A. Aldossary,  E. Alguire,  J. H. Andersen,  D. Barton,  K. Begam,  A. Behn,  
 Y. A. Bernard,  E. J. Berquist,  H. Burton,  A. Carreras,  K. Carter-Fenk,  
 R. Chakraborty,  A. D. Chien,  K. D. Closser,  V. Cofer-Shabica,  
 S. Dasgupta,  Jia Deng,  M. de Wergifosse,  M. Diedenhofen,  Hainam Do,  
 S. Ehlert,  Po-Tung Fang,  S. Fatehi,  Qingguo Feng,  J. Gayvert,  
 Qinghui Ge,  G. Gidofalvi,  M. Goldey,  J. Gomes,  C. Gonzalez-Espinoza,  
 S. Gulania,  A. Gunina,  M. W. D. Hanson-Heine,  P. H. P. Harbach,  
 A. W. Hauser,  M. F. Herbst,  M. Hernandez Vera,  M. Hodecker,  
 Z. C. Holden,  S. Houck,  Xunkun Huang,  Kerwin Hui,  B. C. Huynh,  
 M. Ivanov,  Hyunjun Ji,  Hanjie Jiang,  B. Kaduk,  S. Kaehler,  
 K. Khistyaev,  Jaehoon Kim,  P. Klunzinger,  Z. Koczor-Benda,  
 Joong Hoon Koh,  D. Kosenkov,  L. Koulias,  T. Kowalczyk,  C. M. Krauter,  
 K. Kue,  A. Kunitsa,  T. Kus,  A. Landau,  K. V. Lawler,  D. Lefrancois,  
 S. Lehtola,  Rain Li,  Yi-Pei Li,  Jiashu Liang,  M. Liebenthal,  
 Hung-Hsuan Lin,  You-Sheng Lin,  Fenglai Liu,  Kuan-Yu Liu,  
 M. Loipersberger,  A. Luenser,  A. Manjanath,  P. Manohar,  E. Mansoor,  
 S. F. Manzer,  Shan-Ping Mao,  A. V. Marenich,  T. Markovich,  S. Mason,  
 S. A. Maurer,  P. F. McLaughlin,  M. F. S. J. Menger,  J.-M. Mewes,  
 S. A. Mewes,  P. Morgante,  J. W. Mullinax,  T. S. Nguyen-Beck,  
 K. J. Oosterbaan,  G. Paran,  Alexander C. Paul,  Suranjan K. Paul,  
 F. Pavosevic,  Zheng Pei,  S. Prager,  E. I. Proynov,  E. Ramos,  B. Rana,  
 A. E. Rask,  A. Rettig,  R. M. Richard,  F. Rob,  E. Rossomme,  T. Scheele,  
 M. Scheurer,  M. Schneider,  N. Sergueev,  S. M. Sharada,  W. Skomorowski,  
 D. W. Small,  C. J. Stein,  Yu-Chuan Su,  E. J. Sundstrom,  Zhen Tao,  
 J. Thirman,  T. Tsuchimochi,  N. M. Tubman,  S. P. Veccham,  O. Vydrov,  
 J. Wenzel,  J. Witte,  A. Yamada,  Kun Yao,  S. Yeganeh,  S. R. Yost,  
 A. Zech,  Igor Ying Zhang,  Xing Zhang,  Yu Zhang,  D. Zuev,  
 A. Aspuru-Guzik,  A. T. Bell,  N. A. Besley,  K. B. Bravaya,  B. R. Brooks,  
 D. Casanova,  Jeng-Da Chai,  S. Coriani,  C. J. Cramer,  
 A. E. DePrince, III,  R. A. DiStasio Jr.,  A. Dreuw,  B. D. Dunietz,  
 T. R. Furlani,  W. A. Goddard III,  S. Grimme,  S. Hammes-Schiffer,  
 T. Head-Gordon,  W. J. Hehre,  Chao-Ping Hsu,  T.-C. Jagau,  Yousung Jung,  
 A. Klamt,  Jing Kong,  D. S. Lambrecht,  WanZhen Liang,  N. J. Mayhall,  
 C. W. McCurdy,  J. B. Neaton,  C. Ochsenfeld,  J. A. Parkhill,  R. Peverati,  
 V. A. Rassolov,  Yihan Shao,  L. V. Slipchenko,  T. Stauch,  R. P. Steele,  
 J. E. Subotnik,  A. J. W. Thom,  A. Tkatchenko,  D. G. Truhlar,  
 T. Van Voorhis,  T. A. Wesolowski,  K. B. Whaley,  H. L. Woodcock III,  
 P. M. Zimmerman,  S. Faraji,  P. M. W. Gill,  M. Head-Gordon,  
 J. M. Herbert,  A. I. Krylov

 Contributors to earlier versions of Q-Chem not listed above: 
 R. D. Adamson,  B. Austin,  R. Baer,  J. Baker,  G. J. O. Beran,  
 K. Brandhorst,  S. T. Brown,  E. F. C. Byrd,  A. K. Chakraborty,  
 G. K. L. Chan,  Chun-Min Chang,  Yunqing Chen,  C.-L. Cheng,  
 Siu Hung Chien,  D. M. Chipman,  D. L. Crittenden,  H. Dachsel,  
 R. J. Doerksen,  A. D. Dutoi,  R. G. Edgar,  J. Fosso-Tande,  
 L. Fusti-Molnar,  D. Ghosh,  A. Ghysels,  A. Golubeva-Zadorozhnaya,  
 J. Gonthier,  M. S. Gordon,  S. R. Gwaltney,  G. Hawkins,  J. E. Herr,  
 A. Heyden,  S. Hirata,  E. G. Hohenstein,  G. Kedziora,  F. J. Keil,  
 C. Kelley,  Jihan Kim,  R. A. King,  R. Z. Khaliullin,  P. P. Korambath,  
 W. Kurlancheek,  A. Laurent,  A. M. Lee,  M. S. Lee,  S. V. Levchenko,  
 Ching Yeh Lin,  D. Liotard,  E. Livshits,  R. C. Lochan,  I. Lotan,  
 L. A. Martinez-Martinez,  P. E. Maslen,  N. Nair,  D. P. O'Neill,  
 D. Neuhauser,  E. Neuscamman,  C. M. Oana,  R. Olivares-Amaya,  R. Olson,  
 T. M. Perrine,  B. Peters,  P. A. Pieniazek,  A. Prociuk,  Y. M. Rhee,  
 J. Ritchie,  M. A. Rohrdanz,  E. Rosta,  N. J. Russ,  H. F. Schaefer III,  
 M. W. Schmidt,  N. E. Schultz,  S. Sharma,  N. Shenvi,  C. D. Sherrill,  
 A. C. Simmonett,  A. Sodt,  T. Stein,  D. Stuck,  K. S. Thanthiriwatte,  
 V. Vanovschi,  L. Vogt,  Tao Wang,  A. Warshel,  M. A. Watson,  
 C. F. Williams,  Q. Wu,  X. Xu,  Jun Yang,  W. Zhang,  Yan Zhao

 Please cite Q-Chem as follows:
 Y. Shao et al., Mol. Phys. 113, 184-215 (2015)
 DOI: 10.1080/00268976.2014.952696

 Q-Chem 5.4.0 for Intel X86 EM64T Linux

 Parts of Q-Chem use Armadillo 9.800.1 (Horizon Scraper).
 http://arma.sourceforge.net/

 Q-Chem begins on Tue Jan  9 10:13:03 2024  

 Host: 
0

     Scratch files written to ./qchem774189//
 May1621 |scratch|qcdevops|jenkins|workspace|build_RNUM    
 Parallel job on  1  processors
 Processing $rem in /cm/shared/apps/spack/cpu/opt/spack/linux-centos8-zen2/gcc-10.2.0/qchem-5.4-akfmr7b3t57bfs6qan3padb2wnb2i7cl/config/preferences:
 Processing $rem in /home/rramji/.qchemrc:
 Symmetry turned off for PCM/SM12/SMD calculation
 Core orbitals will be frozen

 Checking the input file for inconsistencies... 	...done.

 Q-Chem warning in module forms1/BasisType.C, line 2236:

 You are not using the predefined 5D/6D in this basis set.


--------------------------------------------------------------
User input:
--------------------------------------------------------------
$molecule
0 1
C	-0.270358	-8.517702	0.172904
C	0.548363	-7.641575	-0.524688
S	-1.445750	-7.638634	1.180599
C	0.259951	-6.264785	-0.282727
H	1.347559	-7.966081	-1.203014
C	-0.833868	-6.072714	0.632972
C	-1.248701	-4.787049	1.013580
C	0.965673	-5.162801	-0.845068
C	0.553357	-3.874817	-0.460946
C	-0.543470	-3.683952	0.453541
O	1.958276	-5.499772	-1.714812
O	-2.245053	-4.459055	1.888193
C	-3.360989	-5.329063	2.033848
H	-4.130667	-4.755694	2.584788
H	-3.112380	-6.238095	2.624118
H	-3.770895	-5.637262	1.047748
C	2.994272	-4.572261	-2.013896
H	3.763700	-5.139743	-2.570853
H	3.448815	-4.153131	-1.090625
H	2.636780	-3.739531	-2.657717
C	-0.827659	-2.306654	0.694943
S	1.174750	-2.306501	-0.999993
C	0.000000	-1.435185	0.000000
H	-1.627541	-1.978138	1.370385
C	0.000000	0.000000	0.000000
S	0.234628	0.873813	1.507541
C	0.640889	2.392969	0.718873
C	0.234815	0.873434	-1.067872
C	0.592377	2.216811	-0.686410
S	0.174526	0.637422	-2.805516
C	0.622551	2.330840	-3.054530
C	0.803505	3.015647	-1.862551
F	1.144815	4.307994	-1.819088
C	0.740334	2.763108	-4.456084
O	0.548793	2.017428	-5.406510
O	1.082665	4.069544	-4.569225
C	1.215848	4.546407	-5.916207
H	1.494066	5.611729	-5.833064
H	0.261736	4.436296	-6.470168
H	2.000108	3.981294	-6.459293
H	0.878739	3.286099	1.306486
H	0.311979	-9.143623	0.859314
H	-0.852097	-9.149441	-0.508666
H	0.699874	-1.443175	0.822504
$end

$rem
JOBTYPE		SP
EXCHANGE	HF
CORRELATION	pRIMP2
BASIS		cc-pvtz
METHOD		rimp2
AUX_BASIS	rimp2-cc-pvtz
SOLVENT_METHOD	PCM
PURECART	11111
SYMMETRY	false
MEM_TOTAL	110000
SCF_CONVERGENCE = 6
THRESH=10
GUI = 2
$end



$solvent
dielectric 4.90
$end
--------------------------------------------------------------
 ----------------------------------------------------------------
             Standard Nuclear Orientation (Angstroms)
    I     Atom           X                Y                Z
 ----------------------------------------------------------------
    1      C      -0.2703580000    -8.5177020000     0.1729040000
    2      C       0.5483630000    -7.6415750000    -0.5246880000
    3      S      -1.4457500000    -7.6386340000     1.1805990000
    4      C       0.2599510000    -6.2647850000    -0.2827270000
    5      H       1.3475590000    -7.9660810000    -1.2030140000
    6      C      -0.8338680000    -6.0727140000     0.6329720000
    7      C      -1.2487010000    -4.7870490000     1.0135800000
    8      C       0.9656730000    -5.1628010000    -0.8450680000
    9      C       0.5533570000    -3.8748170000    -0.4609460000
   10      C      -0.5434700000    -3.6839520000     0.4535410000
   11      O       1.9582760000    -5.4997720000    -1.7148120000
   12      O      -2.2450530000    -4.4590550000     1.8881930000
   13      C      -3.3609890000    -5.3290630000     2.0338480000
   14      H      -4.1306670000    -4.7556940000     2.5847880000
   15      H      -3.1123800000    -6.2380950000     2.6241180000
   16      H      -3.7708950000    -5.6372620000     1.0477480000
   17      C       2.9942720000    -4.5722610000    -2.0138960000
   18      H       3.7637000000    -5.1397430000    -2.5708530000
   19      H       3.4488150000    -4.1531310000    -1.0906250000
   20      H       2.6367800000    -3.7395310000    -2.6577170000
   21      C      -0.8276590000    -2.3066540000     0.6949430000
   22      S       1.1747500000    -2.3065010000    -0.9999930000
   23      C       0.0000000000    -1.4351850000     0.0000000000
   24      H      -1.6275410000    -1.9781380000     1.3703850000
   25      C       0.0000000000     0.0000000000     0.0000000000
   26      S       0.2346280000     0.8738130000     1.5075410000
   27      C       0.6408890000     2.3929690000     0.7188730000
   28      C       0.2348150000     0.8734340000    -1.0678720000
   29      C       0.5923770000     2.2168110000    -0.6864100000
   30      S       0.1745260000     0.6374220000    -2.8055160000
   31      C       0.6225510000     2.3308400000    -3.0545300000
   32      C       0.8035050000     3.0156470000    -1.8625510000
   33      F       1.1448150000     4.3079940000    -1.8190880000
   34      C       0.7403340000     2.7631080000    -4.4560840000
   35      O       0.5487930000     2.0174280000    -5.4065100000
   36      O       1.0826650000     4.0695440000    -4.5692250000
   37      C       1.2158480000     4.5464070000    -5.9162070000
   38      H       1.4940660000     5.6117290000    -5.8330640000
   39      H       0.2617360000     4.4362960000    -6.4701680000
   40      H       2.0001080000     3.9812940000    -6.4592930000
   41      H       0.8787390000     3.2860990000     1.3064860000
   42      H       0.3119790000    -9.1436230000     0.8593140000
   43      H      -0.8520970000    -9.1494410000    -0.5086660000
   44      H       0.6998740000    -1.4431750000     0.8225040000
 ----------------------------------------------------------------
 Nuclear Repulsion Energy =        3343.76259997 hartrees
 There are      120 alpha and      120 beta electrons
 Requested basis set is cc-pVTZ
 There are 388 shells and 1096 basis functions

 Total QAlloc Memory Limit 110000 MB
 Mega-Array Size       188 MB
 MEM_STATIC part       192 MB
 Discretize the solute cavity surface with Lebedev spheres
	Using 110 Lebedev grid points for each H atom
	Using 194 Lebedev grid points for other atoms
	Atomic van der Waals radii will be scaled by 1.20
 Remove points where switching function is < 1.0e-08
 Keep 2972 surface tesserae and discard 4304 interior tesserae
 Molecular Surface Area = 441.624 Angst**2
 Requested basis set is rimp2-cc-pVTZ
 There are 853 shells and 2963 basis functions
 A cutoff of  1.0D-10 yielded  32922 shell pairs
 There are    248968 function pairs (    322217 Cartesian)
 Smallest overlap matrix eigenvalue = 2.14E-05

 Scale SEOQF with 1.000000e-01/1.000000e-02/1.000000e-02

 Standard Electronic Orientation quadrupole field applied
 Nucleus-field energy     =     0.0000000335 hartrees
 Guess from superposition of atomic densities
 Warning:  Energy on first SCF cycle will be non-variational
 SAD guess density has 240.000000 electrons

 -----------------------------------------------------------------------
  General SCF calculation program by
  Eric Jon Sundstrom, Paul Horn, Yuezhi Mao, Dmitri Zuev, Alec White,
  David Stuck, Shaama M.S., Shane Yost, Joonho Lee, David Small,
  Daniel Levine, Susi Lehtola, Hugh Burton, Evgeny Epifanovsky,
  Bang C. Huynh
 -----------------------------------------------------------------------
 Hartree-Fock
 using 64 threads for integral computing
 -------------------------------------------------------
 OpenMP Integral computing Module                
 Release: version 1.0, May 2013, Q-Chem Inc. Pittsburgh 
 -------------------------------------------------------
 A restricted SCF calculation will be
 performed using DIIS
 SCF converges when DIIS error is below 1.0e-06
 ---------------------------------------
  Cycle       Energy         DIIS error
 ---------------------------------------
    1   -2767.0317979782      1.75e-02  
    2   -2754.8903223263      1.53e-03  
    3   -2755.2391595304      8.52e-04  
    4   -2755.3252246451      2.56e-04  
    5   -2755.3387613723      7.39e-05  
    6   -2755.3402881834      2.60e-05  
    7   -2755.3406893825      1.36e-05  
    8   -2755.3408211106      5.69e-06  
    9   -2755.3408525776      2.92e-06  
   10   -2755.3408602044      1.52e-06  
   11   -2755.3408627608      8.05e-07  Convergence criterion met
 ---------------------------------------
 SCF time:   CPU 7988.84s  wall 306.00s 

************** Final PCM Free Energy Summary **************
 G_electrostatic  =      -0.02128525 hartree =     -13.35669565 kcal/mol
 G_cavitation     =       0.00000000 hartree =       0.00000000 kcal/mol
 G_dispersion     =       0.00000000 hartree =       0.00000000 kcal/mol
 G_repulsion      =       0.00000000 hartree =       0.00000000 kcal/mol
 --------------------------------------------------
 Non-electrostatic Free Energy =       0.00000000 hartree =       0.00000000 kcal/mol
 Total                         =      -0.02128525 hartree =     -13.35669565 kcal/mol
 --------------------------------------------------
 SCF Energy (H0 + V/2)                       =   -2755.34086276 
 Solute Internal Energy (H0)                 =   -2755.31957751 
 Total Free Energy (H0 + V/2 + non-elec)     =   -2755.34086276 hartree
                                             = -1729002.48721573 kcal/mol
***********************************************************

 SCF   energy in the final basis set =    -2755.3408627608
 Total energy in the final basis set =    -2755.3408627608


 --------------------------------------------------------------
  Generalized many-body perturbation theory program
  by Joonho Lee, Fazle Rob, Xintian Feng, Evgeny Epifanovsky

 No regularization used 
 (reg. param. = 0.0000e+00)
  (P|Q)^-1/2 Time:  CPU 172.64 s  wall 3.16 s

 In RI-MP2 calculation: 
 # of frozen core orbitals: 45

 Components of the RIMP2 correlation energy:
        aaaa    correlation energy =        -0.6686542916 a.u.
        abab    correlation energy =        -3.7513764338 a.u.
        bbbb    correlation energy =        -0.6686542916 a.u.
        non-Brillouin singles      =        -0.0000000000 a.u.
        total same-spin energy     =        -1.3373085832 a.u.
        total opposite-spin energy =        -3.7513764338 a.u.

 Total  RIMP2   correlation energy =        -5.0886850171 a.u.
        RIMP2         total energy =     -2760.4295477779 a.u.

 RI-MP2 Energy Time:  CPU 3086.13 s  wall 51.69 s
 
 --------------------------------------------------------------
 
                    Orbital Energies (a.u.)
 --------------------------------------------------------------
 
 Alpha MOs
 -- Occupied --
-92.0147 -91.9963 -91.9789 -91.9582 -26.3429 -20.6148 -20.5874 -20.5869
-20.5613 -11.4092 -11.3817 -11.3091 -11.3091 -11.3077 -11.3040 -11.2975
-11.2969 -11.2888 -11.2848 -11.2842 -11.2831 -11.2830 -11.2806 -11.2729
-11.2719 -11.2582 -11.2578 -11.2497 -11.2370  -9.0136  -8.9964  -8.9810
 -8.9608  -6.6944  -6.6938  -6.6933  -6.6774  -6.6767  -6.6755  -6.6621
 -6.6612  -6.6599  -6.6421  -6.6411  -6.6401  -1.6600  -1.4672  -1.4104
 -1.4091  -1.3699  -1.2298  -1.2024  -1.1739  -1.1376  -1.0998  -1.0468
 -1.0438  -1.0246  -1.0038  -0.9968  -0.9633  -0.9576  -0.9485  -0.9411
 -0.8936  -0.8680  -0.8662  -0.8149  -0.7947  -0.7895  -0.7844  -0.7684
 -0.7564  -0.7377  -0.7249  -0.7156  -0.6968  -0.6878  -0.6845  -0.6801
 -0.6738  -0.6617  -0.6560  -0.6487  -0.6366  -0.6300  -0.6200  -0.6152
 -0.6108  -0.5992  -0.5922  -0.5768  -0.5712  -0.5637  -0.5596  -0.5575
 -0.5484  -0.5331  -0.5311  -0.5247  -0.5128  -0.5093  -0.5074  -0.5015
 -0.4850  -0.4801  -0.4762  -0.4736  -0.4692  -0.4678  -0.4605  -0.4470
 -0.4277  -0.3963  -0.3857  -0.3699  -0.3519  -0.2984  -0.2895  -0.2193
 -- Virtual --
  0.0338   0.0511   0.1091   0.1299   0.1377   0.1486   0.1529   0.1546
  0.1572   0.1587   0.1676   0.1762   0.1806   0.1822   0.1885   0.1982
  0.2007   0.2030   0.2057   0.2138   0.2151   0.2210   0.2243   0.2285
  0.2300   0.2323   0.2372   0.2439   0.2498   0.2542   0.2642   0.2704
  0.2741   0.2883   0.3033   0.3257   0.3283   0.3367   0.3412   0.3453
  0.3485   0.3579   0.3584   0.3669   0.3745   0.3838   0.3841   0.3855
  0.3883   0.3933   0.4008   0.4045   0.4071   0.4104   0.4183   0.4211
  0.4225   0.4282   0.4320   0.4356   0.4396   0.4460   0.4463   0.4542
  0.4587   0.4632   0.4642   0.4695   0.4716   0.4766   0.4789   0.4845
  0.4894   0.4937   0.5005   0.5042   0.5052   0.5124   0.5163   0.5187
  0.5195   0.5243   0.5327   0.5343   0.5384   0.5427   0.5453   0.5502
  0.5511   0.5541   0.5558   0.5597   0.5613   0.5660   0.5747   0.5774
  0.5815   0.5868   0.5885   0.5955   0.5974   0.6011   0.6059   0.6119
  0.6126   0.6141   0.6165   0.6209   0.6220   0.6250   0.6279   0.6302
  0.6324   0.6374   0.6410   0.6463   0.6482   0.6523   0.6565   0.6567
  0.6619   0.6677   0.6707   0.6771   0.6862   0.6879   0.6919   0.7012
  0.7060   0.7063   0.7131   0.7167   0.7187   0.7239   0.7254   0.7333
  0.7381   0.7495   0.7562   0.7598   0.7651   0.7730   0.7834   0.7872
  0.7908   0.7989   0.8022   0.8067   0.8096   0.8171   0.8217   0.8257
  0.8290   0.8324   0.8481   0.8511   0.8620   0.8633   0.8680   0.8731
  0.8738   0.8816   0.8883   0.8929   0.8961   0.9028   0.9051   0.9162
  0.9193   0.9236   0.9291   0.9343   0.9422   0.9442   0.9500   0.9550
  0.9620   0.9640   0.9660   0.9771   0.9803   0.9848   0.9906   0.9944
  0.9949   1.0033   1.0045   1.0110   1.0174   1.0184   1.0256   1.0315
  1.0384   1.0438   1.0449   1.0538   1.0545   1.0611   1.0648   1.0710
  1.0716   1.0780   1.0834   1.0853   1.0971   1.1015   1.1045   1.1053
  1.1129   1.1161   1.1177   1.1218   1.1303   1.1365   1.1382   1.1524
  1.1534   1.1565   1.1613   1.1653   1.1696   1.1728   1.1792   1.1817
  1.1863   1.1932   1.1989   1.1995   1.2068   1.2084   1.2111   1.2212
  1.2253   1.2284   1.2341   1.2404   1.2422   1.2440   1.2553   1.2586
  1.2610   1.2653   1.2670   1.2757   1.2772   1.2855   1.2895   1.2935
  1.3014   1.3062   1.3146   1.3197   1.3219   1.3313   1.3339   1.3382
  1.3431   1.3516   1.3640   1.3705   1.3828   1.3892   1.3938   1.3987
  1.4068   1.4147   1.4187   1.4227   1.4272   1.4387   1.4424   1.4491
  1.4626   1.4681   1.4730   1.4825   1.4880   1.4945   1.5006   1.5019
  1.5028   1.5085   1.5113   1.5179   1.5273   1.5312   1.5366   1.5391
  1.5417   1.5461   1.5494   1.5535   1.5554   1.5613   1.5698   1.5764
  1.5883   1.5972   1.5979   1.6015   1.6107   1.6252   1.6278   1.6360
  1.6416   1.6462   1.6580   1.6644   1.6672   1.6740   1.6828   1.6883
  1.6943   1.6989   1.7078   1.7098   1.7185   1.7252   1.7338   1.7429
  1.7573   1.7580   1.7744   1.7807   1.7910   1.7938   1.8092   1.8160
  1.8204   1.8233   1.8288   1.8421   1.8494   1.8584   1.8683   1.8770
  1.8781   1.8836   1.8976   1.9023   1.9178   1.9218   1.9259   1.9397
  1.9434   1.9598   1.9644   1.9726   1.9769   1.9888   1.9947   1.9985
  2.0022   2.0122   2.0195   2.0219   2.0329   2.0393   2.0436   2.0527
  2.0574   2.0726   2.0771   2.0895   2.0969   2.1014   2.1200   2.1301
  2.1409   2.1516   2.1561   2.1650   2.1753   2.1858   2.1919   2.1957
  2.1991   2.2058   2.2095   2.2124   2.2247   2.2275   2.2354   2.2429
  2.2484   2.2554   2.2623   2.2706   2.2750   2.2892   2.2934   2.3032
  2.3097   2.3111   2.3278   2.3325   2.3361   2.3506   2.3534   2.3552
  2.3698   2.3755   2.3936   2.4018   2.4031   2.4137   2.4159   2.4235
  2.4279   2.4406   2.4437   2.4619   2.4773   2.4790   2.4858   2.4931
  2.5021   2.5127   2.5183   2.5336   2.5405   2.5432   2.5574   2.5649
  2.5694   2.5791   2.5955   2.5972   2.6146   2.6170   2.6195   2.6257
  2.6291   2.6310   2.6414   2.6438   2.6461   2.6507   2.6651   2.6680
  2.6820   2.6869   2.6887   2.6943   2.6973   2.7054   2.7087   2.7140
  2.7223   2.7263   2.7354   2.7457   2.7528   2.7547   2.7628   2.7737
  2.7777   2.7839   2.7897   2.7994   2.8036   2.8129   2.8154   2.8232
  2.8401   2.8436   2.8509   2.8531   2.8571   2.8646   2.8658   2.8726
  2.8809   2.8857   2.8886   2.9034   2.9075   2.9140   2.9269   2.9430
  2.9498   2.9555   2.9585   2.9647   2.9738   2.9775   2.9839   2.9913
  2.9955   2.9958   3.0144   3.0226   3.0234   3.0307   3.0368   3.0441
  3.0525   3.0620   3.0659   3.0737   3.0829   3.0926   3.0968   3.1006
  3.1029   3.1096   3.1137   3.1171   3.1301   3.1322   3.1379   3.1430
  3.1463   3.1527   3.1536   3.1575   3.1674   3.1696   3.1737   3.1741
  3.1834   3.1906   3.1996   3.2055   3.2130   3.2146   3.2179   3.2222
  3.2266   3.2312   3.2390   3.2479   3.2545   3.2576   3.2604   3.2646
  3.2688   3.2715   3.2761   3.2809   3.2886   3.2939   3.2977   3.3019
  3.3067   3.3125   3.3162   3.3175   3.3300   3.3355   3.3374   3.3418
  3.3447   3.3493   3.3520   3.3579   3.3636   3.3673   3.3679   3.3697
  3.3827   3.3854   3.3893   3.3914   3.3957   3.3993   3.4013   3.4067
  3.4123   3.4173   3.4244   3.4261   3.4319   3.4345   3.4393   3.4445
  3.4472   3.4521   3.4553   3.4599   3.4653   3.4691   3.4770   3.4831
  3.4840   3.4915   3.4943   3.5016   3.5057   3.5129   3.5166   3.5269
  3.5304   3.5419   3.5460   3.5534   3.5614   3.5633   3.5649   3.5769
  3.5799   3.5888   3.5899   3.5948   3.6003   3.6046   3.6114   3.6130
  3.6149   3.6228   3.6291   3.6303   3.6344   3.6392   3.6422   3.6571
  3.6648   3.6708   3.6747   3.6756   3.6828   3.6847   3.6877   3.6931
  3.7005   3.7055   3.7076   3.7138   3.7189   3.7209   3.7298   3.7362
  3.7413   3.7469   3.7488   3.7548   3.7580   3.7635   3.7691   3.7723
  3.7823   3.7887   3.7947   3.7950   3.8018   3.8073   3.8101   3.8142
  3.8176   3.8210   3.8277   3.8361   3.8425   3.8459   3.8527   3.8550
  3.8645   3.8660   3.8777   3.8828   3.8853   3.8942   3.9000   3.9022
  3.9134   3.9185   3.9258   3.9335   3.9377   3.9414   3.9494   3.9591
  3.9627   3.9651   3.9760   3.9855   3.9926   3.9961   4.0060   4.0101
  4.0141   4.0188   4.0332   4.0403   4.0480   4.0584   4.0638   4.0672
  4.0683   4.0787   4.0823   4.0945   4.0996   4.1122   4.1168   4.1350
  4.1440   4.1458   4.1564   4.1615   4.1658   4.1676   4.1718   4.1727
  4.1764   4.1831   4.1889   4.2043   4.2083   4.2123   4.2233   4.2337
  4.2349   4.2464   4.2565   4.2660   4.2774   4.2847   4.2902   4.3026
  4.3152   4.3204   4.3304   4.3397   4.3420   4.3483   4.3558   4.3581
  4.3635   4.3717   4.3731   4.3814   4.3905   4.4048   4.4132   4.4166
  4.4190   4.4230   4.4290   4.4313   4.4357   4.4379   4.4485   4.4616
  4.4640   4.4724   4.4798   4.4916   4.5051   4.5145   4.5211   4.5296
  4.5379   4.5442   4.5528   4.5581   4.5699   4.5744   4.5787   4.5846
  4.5885   4.6025   4.6119   4.6154   4.6211   4.6301   4.6518   4.6541
  4.6582   4.6602   4.6708   4.6779   4.6913   4.7070   4.7234   4.7267
  4.7362   4.7568   4.7638   4.7787   4.7842   4.7874   4.8043   4.8208
  4.8265   4.8407   4.8426   4.8468   4.8641   4.8729   4.8816   4.8892
  4.9018   4.9162   4.9248   4.9413   4.9486   4.9511   4.9652   4.9698
  4.9745   5.0000   5.0090   5.0111   5.0144   5.0213   5.0424   5.0513
  5.0791   5.0898   5.0981   5.1091   5.1216   5.1237   5.1565   5.1618
  5.1747   5.1934   5.1981   5.2042   5.2204   5.2368   5.2463   5.2518
  5.2574   5.2603   5.2794   5.2917   5.2936   5.3137   5.3158   5.3260
  5.3363   5.3516   5.3588   5.3639   5.3731   5.3795   5.3895   5.4024
  5.4057   5.4173   5.4263   5.4426   5.4491   5.4850   5.5024   5.5046
  5.5104   5.5207   5.5248   5.5386   5.5527   5.5682   5.5742   5.5821
  5.5882   5.6095   5.6111   5.6218   5.6342   5.6613   5.6783   5.6905
  5.6980   5.7270   5.7577   5.7611   5.7832   5.8076   5.8208   5.8560
  5.8602   5.8800   5.8967   5.9191   5.9292   5.9380   5.9767   5.9969
  6.0399   6.0449   6.0893   6.1293   6.1505   6.1566   6.1713   6.1782
  6.1803   6.2019   6.2227   6.2467   6.2615   6.2631   6.2753   6.2821
  6.3089   6.3283   6.3557   6.3731   6.4502   6.4529   6.4845   6.5399
  6.5473   6.5681   6.6071   6.6449   6.6614   6.6713   6.7167   6.7465
  6.8069   6.8301   6.8577   6.8596   6.8981   6.9786   7.1313   7.1460
  7.2040   7.2073   7.2221   7.2394   7.3100   7.3269   7.3421   7.3635
  7.3642   7.4066   7.4134   7.4859   7.4864   7.4963   7.5258   7.5513
  7.6156   7.7409   7.7734   7.7902   7.8025   7.9033   7.9261   7.9547
  7.9722   8.1343   8.3233   8.5819   8.9223   9.0291   9.3633   9.4845
  9.6751  10.2428  11.1807  11.4623  11.7314  11.8908  12.1233  12.3668
 12.4176  12.4966  12.9634  12.9903  13.0338  13.2694  13.3861  13.4808
 13.7509  13.7785  13.8873  13.9444  14.0328  14.3091  14.8344  15.2033
 --------------------------------------------------------------
 
          Ground-State Mulliken Net Atomic Charges

     Atom                 Charge (a.u.)
  ----------------------------------------
      1 C                    -0.070077
      2 C                    -0.259597
      3 S                    -0.135911
      4 C                    -0.045885
      5 H                     0.193582
      6 C                    -0.049095
      7 C                     0.219137
      8 C                     0.225283
      9 C                    -0.071632
     10 C                    -0.025721
     11 O                    -0.334711
     12 O                    -0.343644
     13 C                    -0.082847
     14 H                     0.119845
     15 H                     0.092233
     16 H                     0.093138
     17 C                    -0.087817
     18 H                     0.123668
     19 H                     0.092047
     20 H                     0.091574
     21 C                    -0.300895
     22 S                    -0.081153
     23 C                     0.104813
     24 H                     0.203423
     25 C                    -0.041926
     26 S                     0.088086
     27 C                    -0.192502
     28 C                    -0.057757
     29 C                    -0.093751
     30 S                     0.012056
     31 C                    -0.155987
     32 C                     0.398897
     33 F                    -0.207628
     34 C                     0.443887
     35 O                    -0.460154
     36 O                    -0.300679
     37 C                    -0.058517
     38 H                     0.121300
     39 H                     0.095181
     40 H                     0.095063
     41 H                     0.217788
     42 H                     0.117314
     43 H                     0.115103
     44 H                     0.194472
  ----------------------------------------
  Sum of atomic charges =     0.000000

 -----------------------------------------------------------------
                    Cartesian Multipole Moments
 -----------------------------------------------------------------
    Charge (ESU x 10^10)
                -0.0000
    Dipole Moment (Debye)
         X       1.2346      Y       2.5775      Z       3.3056
       Tot       4.3698
    Quadrupole Moments (Debye-Ang)
        XX    -184.6739     XY       0.8739     YY    -175.7214
        XZ      -8.1850     YZ      -4.5741     ZZ    -203.9372
    Octopole Moments (Debye-Ang^2)
       XXX    -103.2789    XXY     311.6755    XYY       2.0043
       YYY     977.2238    XXZ     162.2621    XYZ      12.6524
       YYZ      80.0018    XZZ      -5.9804    YZZ     466.9422
       ZZZ     525.7087
    Hexadecapole Moments (Debye-Ang^3)
      XXXX   -1910.6031   XXXY    -884.7081   XXYY   -3881.0825
      XYYY   -1028.8915   YYYY  -20256.8895   XXXZ     860.2178
      XXYZ     588.4383   XYYZ     129.9908   YYYZ    1755.9431
      XXZZ   -1261.3998   XYZZ    -159.5016   YYZZ   -4318.1044
      XZZZ     830.3439   YZZZ    1345.2307   ZZZZ   -6312.8554
 -----------------------------------------------------------------
 Total job time:  371.57s(wall), 11249.52s(cpu) 
 Tue Jan  9 10:19:15 2024

        *************************************************************
        *                                                           *
        *  Thank you very much for using Q-Chem.  Have a nice day.  *
        *                                                           *
        *************************************************************


0 sent ACK to 0 
now end server 0 ... 
cleanup process ... done
remove work dirs ./qchem774189.0 -- ./qchem774189.0
rm -rf ./qchem774189.0
rm -rf ./qchem774189
