You are running Q-Chem version: 5.4.0

#
# job setting
#
local host:  exp-4-19
current dir: /home/rramji/project-csd799/aromodel/ptb7fout-qchem/hydrogenated-rotation-run
input file:  Dimethoxy_Benzodithiophene_Phi_25_Theta_230_Methylcarbonyl_3_Fluoro_Thienothiophene_Hydrogenated.qcin
output file: 
nprocs     : 1
nthreads   : 64
#
# qchem installation setting
#
QC:          /cm/shared/apps/spack/cpu/opt/spack/linux-centos8-zen2/gcc-10.2.0/qchem-5.4-akfmr7b3t57bfs6qan3padb2wnb2i7cl
QCAUX:       /cm/shared/apps/spack/cpu/opt/spack/linux-centos8-zen2/gcc-10.2.0/qchem-5.4-akfmr7b3t57bfs6qan3padb2wnb2i7cl/qcaux
QCPROG:      /cm/shared/apps/spack/cpu/opt/spack/linux-centos8-zen2/gcc-10.2.0/qchem-5.4-akfmr7b3t57bfs6qan3padb2wnb2i7cl/exe/qcprog.exe
QCPROG_S:    /cm/shared/apps/spack/cpu/opt/spack/linux-centos8-zen2/gcc-10.2.0/qchem-5.4-akfmr7b3t57bfs6qan3padb2wnb2i7cl/exe/qcprog.exe_s
PARALLEL:    -DPARALLEL
QCMPI:       mpich
#
# qchem directory setting
#
qcrun:       qchem3313260
QCSCRATCH:   .
QCLOCALSCR:  
QCTMPDIR:    .
QCFILEPREF:  ./qchem3313260
QCSAVEDIR:   
workdirs:    ./qchem3313260
workdir0:    ./qchem3313260
partmpdirs =  
#
# parallel setting
#
QCRSH:           ssh
QCMPI:           mpich
QCMPIRUN:        /cm/shared/apps/spack/cpu/opt/spack/linux-centos8-zen2/gcc-10.2.0/qchem-5.4-akfmr7b3t57bfs6qan3padb2wnb2i7cl/bin/mpi/mpirun_qchem
QCMACHINEFILE:   ./qchem3313260/hostfile
exp-4-19

#
# env setting
#
exported envs:   QC QCAUX QCSCRATCH QCRUNNAME QCFILEPREF QCPROG QCPROG_S GUIFILE

Running Job 1 of 1 Dimethoxy_Benzodithiophene_Phi_25_Theta_230_Methylcarbonyl_3_Fluoro_Thienothiophene_Hydrogenated.qcin
qchem Dimethoxy_Benzodithiophene_Phi_25_Theta_230_Methylcarbonyl_3_Fluoro_Thienothiophene_Hydrogenated.qcin_3313260.0 ./qchem3313260/ 1
/cm/shared/apps/spack/cpu/opt/spack/linux-centos8-zen2/gcc-10.2.0/qchem-5.4-akfmr7b3t57bfs6qan3padb2wnb2i7cl/bin/mpi/mpirun_qchem -machinefile ./qchem3313260/hostfile -np 1 /cm/shared/apps/spack/cpu/opt/spack/linux-centos8-zen2/gcc-10.2.0/qchem-5.4-akfmr7b3t57bfs6qan3padb2wnb2i7cl/exe/qcprog.exe Dimethoxy_Benzodithiophene_Phi_25_Theta_230_Methylcarbonyl_3_Fluoro_Thienothiophene_Hydrogenated.qcin_3313260.0 ./qchem3313260/

Process 0 of 1 is on exp-4-19 - thread support 0
initial socket setup ...start
initial socket setup ...done 
now start server 0 ... 
                  Welcome to Q-Chem
     A Quantum Leap Into The Future Of Chemistry


 Q-Chem 5.4, Q-Chem, Inc., Pleasanton, CA (2021)

 License issued to: University of California, San Diego (site)

 E. Epifanovsky,  A. T. B. Gilbert,  Xintian Feng,  Joonho Lee,  Yuezhi Mao,  
 N. Mardirossian,  P. Pokhilko,  A. White,  M. Wormit,  M. P. Coons,  
 A. L. Dempwolff,  Zhengting Gan,  D. Hait,  P. R. Horn,  L. D. Jacobson,  
 I. Kaliman,  J. Kussmann,  A. W. Lange,  Ka Un Lao,  D. S. Levine,  Jie Liu,  
 S. C. McKenzie,  A. F. Morrison,  K. Nanda,  F. Plasser,  D. R. Rehn,  
 M. L. Vidal,  Zhi-Qiang You,  Ying Zhu,  B. Alam,  B. Albrecht,  
 A. Aldossary,  E. Alguire,  J. H. Andersen,  D. Barton,  K. Begam,  A. Behn,  
 Y. A. Bernard,  E. J. Berquist,  H. Burton,  A. Carreras,  K. Carter-Fenk,  
 R. Chakraborty,  A. D. Chien,  K. D. Closser,  V. Cofer-Shabica,  
 S. Dasgupta,  Jia Deng,  M. de Wergifosse,  M. Diedenhofen,  Hainam Do,  
 S. Ehlert,  Po-Tung Fang,  S. Fatehi,  Qingguo Feng,  J. Gayvert,  
 Qinghui Ge,  G. Gidofalvi,  M. Goldey,  J. Gomes,  C. Gonzalez-Espinoza,  
 S. Gulania,  A. Gunina,  M. W. D. Hanson-Heine,  P. H. P. Harbach,  
 A. W. Hauser,  M. F. Herbst,  M. Hernandez Vera,  M. Hodecker,  
 Z. C. Holden,  S. Houck,  Xunkun Huang,  Kerwin Hui,  B. C. Huynh,  
 M. Ivanov,  Hyunjun Ji,  Hanjie Jiang,  B. Kaduk,  S. Kaehler,  
 K. Khistyaev,  Jaehoon Kim,  P. Klunzinger,  Z. Koczor-Benda,  
 Joong Hoon Koh,  D. Kosenkov,  L. Koulias,  T. Kowalczyk,  C. M. Krauter,  
 K. Kue,  A. Kunitsa,  T. Kus,  A. Landau,  K. V. Lawler,  D. Lefrancois,  
 S. Lehtola,  Rain Li,  Yi-Pei Li,  Jiashu Liang,  M. Liebenthal,  
 Hung-Hsuan Lin,  You-Sheng Lin,  Fenglai Liu,  Kuan-Yu Liu,  
 M. Loipersberger,  A. Luenser,  A. Manjanath,  P. Manohar,  E. Mansoor,  
 S. F. Manzer,  Shan-Ping Mao,  A. V. Marenich,  T. Markovich,  S. Mason,  
 S. A. Maurer,  P. F. McLaughlin,  M. F. S. J. Menger,  J.-M. Mewes,  
 S. A. Mewes,  P. Morgante,  J. W. Mullinax,  T. S. Nguyen-Beck,  
 K. J. Oosterbaan,  G. Paran,  Alexander C. Paul,  Suranjan K. Paul,  
 F. Pavosevic,  Zheng Pei,  S. Prager,  E. I. Proynov,  E. Ramos,  B. Rana,  
 A. E. Rask,  A. Rettig,  R. M. Richard,  F. Rob,  E. Rossomme,  T. Scheele,  
 M. Scheurer,  M. Schneider,  N. Sergueev,  S. M. Sharada,  W. Skomorowski,  
 D. W. Small,  C. J. Stein,  Yu-Chuan Su,  E. J. Sundstrom,  Zhen Tao,  
 J. Thirman,  T. Tsuchimochi,  N. M. Tubman,  S. P. Veccham,  O. Vydrov,  
 J. Wenzel,  J. Witte,  A. Yamada,  Kun Yao,  S. Yeganeh,  S. R. Yost,  
 A. Zech,  Igor Ying Zhang,  Xing Zhang,  Yu Zhang,  D. Zuev,  
 A. Aspuru-Guzik,  A. T. Bell,  N. A. Besley,  K. B. Bravaya,  B. R. Brooks,  
 D. Casanova,  Jeng-Da Chai,  S. Coriani,  C. J. Cramer,  
 A. E. DePrince, III,  R. A. DiStasio Jr.,  A. Dreuw,  B. D. Dunietz,  
 T. R. Furlani,  W. A. Goddard III,  S. Grimme,  S. Hammes-Schiffer,  
 T. Head-Gordon,  W. J. Hehre,  Chao-Ping Hsu,  T.-C. Jagau,  Yousung Jung,  
 A. Klamt,  Jing Kong,  D. S. Lambrecht,  WanZhen Liang,  N. J. Mayhall,  
 C. W. McCurdy,  J. B. Neaton,  C. Ochsenfeld,  J. A. Parkhill,  R. Peverati,  
 V. A. Rassolov,  Yihan Shao,  L. V. Slipchenko,  T. Stauch,  R. P. Steele,  
 J. E. Subotnik,  A. J. W. Thom,  A. Tkatchenko,  D. G. Truhlar,  
 T. Van Voorhis,  T. A. Wesolowski,  K. B. Whaley,  H. L. Woodcock III,  
 P. M. Zimmerman,  S. Faraji,  P. M. W. Gill,  M. Head-Gordon,  
 J. M. Herbert,  A. I. Krylov

 Contributors to earlier versions of Q-Chem not listed above: 
 R. D. Adamson,  B. Austin,  R. Baer,  J. Baker,  G. J. O. Beran,  
 K. Brandhorst,  S. T. Brown,  E. F. C. Byrd,  A. K. Chakraborty,  
 G. K. L. Chan,  Chun-Min Chang,  Yunqing Chen,  C.-L. Cheng,  
 Siu Hung Chien,  D. M. Chipman,  D. L. Crittenden,  H. Dachsel,  
 R. J. Doerksen,  A. D. Dutoi,  R. G. Edgar,  J. Fosso-Tande,  
 L. Fusti-Molnar,  D. Ghosh,  A. Ghysels,  A. Golubeva-Zadorozhnaya,  
 J. Gonthier,  M. S. Gordon,  S. R. Gwaltney,  G. Hawkins,  J. E. Herr,  
 A. Heyden,  S. Hirata,  E. G. Hohenstein,  G. Kedziora,  F. J. Keil,  
 C. Kelley,  Jihan Kim,  R. A. King,  R. Z. Khaliullin,  P. P. Korambath,  
 W. Kurlancheek,  A. Laurent,  A. M. Lee,  M. S. Lee,  S. V. Levchenko,  
 Ching Yeh Lin,  D. Liotard,  E. Livshits,  R. C. Lochan,  I. Lotan,  
 L. A. Martinez-Martinez,  P. E. Maslen,  N. Nair,  D. P. O'Neill,  
 D. Neuhauser,  E. Neuscamman,  C. M. Oana,  R. Olivares-Amaya,  R. Olson,  
 T. M. Perrine,  B. Peters,  P. A. Pieniazek,  A. Prociuk,  Y. M. Rhee,  
 J. Ritchie,  M. A. Rohrdanz,  E. Rosta,  N. J. Russ,  H. F. Schaefer III,  
 M. W. Schmidt,  N. E. Schultz,  S. Sharma,  N. Shenvi,  C. D. Sherrill,  
 A. C. Simmonett,  A. Sodt,  T. Stein,  D. Stuck,  K. S. Thanthiriwatte,  
 V. Vanovschi,  L. Vogt,  Tao Wang,  A. Warshel,  M. A. Watson,  
 C. F. Williams,  Q. Wu,  X. Xu,  Jun Yang,  W. Zhang,  Yan Zhao

 Please cite Q-Chem as follows:
 Y. Shao et al., Mol. Phys. 113, 184-215 (2015)
 DOI: 10.1080/00268976.2014.952696

 Q-Chem 5.4.0 for Intel X86 EM64T Linux

 Parts of Q-Chem use Armadillo 9.800.1 (Horizon Scraper).
 http://arma.sourceforge.net/

 Q-Chem begins on Tue Jan  9 11:49:36 2024  

 Host: 
0

     Scratch files written to ./qchem3313260//
 May1621 |scratch|qcdevops|jenkins|workspace|build_RNUM    
 Parallel job on  1  processors
 Processing $rem in /cm/shared/apps/spack/cpu/opt/spack/linux-centos8-zen2/gcc-10.2.0/qchem-5.4-akfmr7b3t57bfs6qan3padb2wnb2i7cl/config/preferences:
 Processing $rem in /home/rramji/.qchemrc:
 Symmetry turned off for PCM/SM12/SMD calculation
 Core orbitals will be frozen

 Checking the input file for inconsistencies... 	...done.

 Q-Chem warning in module forms1/BasisType.C, line 2236:

 You are not using the predefined 5D/6D in this basis set.


--------------------------------------------------------------
User input:
--------------------------------------------------------------
$molecule
0 1
C	0.270358	-8.517702	-0.172904
C	-0.548363	-7.641575	0.524688
S	1.445750	-7.638634	-1.180599
C	-0.259951	-6.264785	0.282727
H	-1.347559	-7.966081	1.203014
C	0.833868	-6.072714	-0.632972
C	1.248701	-4.787049	-1.013580
C	-0.965673	-5.162801	0.845068
C	-0.553357	-3.874817	0.460946
C	0.543470	-3.683952	-0.453541
O	-1.958276	-5.499772	1.714812
O	2.245053	-4.459055	-1.888193
C	3.360989	-5.329063	-2.033848
H	4.130667	-4.755694	-2.584788
H	3.112380	-6.238095	-2.624118
H	3.770895	-5.637262	-1.047748
C	-2.994272	-4.572261	2.013896
H	-3.763700	-5.139743	2.570853
H	-3.448815	-4.153131	1.090625
H	-2.636780	-3.739531	2.657717
C	0.827659	-2.306654	-0.694943
S	-1.174750	-2.306501	0.999993
C	-0.000000	-1.435185	-0.000000
H	1.627541	-1.978138	-1.370385
C	0.000000	0.000000	0.000000
S	0.382799	0.819795	1.507541
C	1.046687	2.245325	0.718873
C	0.382918	0.819389	-1.067872
C	0.968323	2.080267	-0.686410
S	0.282561	0.597432	-2.805516
C	1.017839	2.187324	-3.054530
C	1.314960	2.830306	-1.862551
F	1.875498	4.043751	-1.819088
C	1.208895	2.592573	-4.456084
O	0.890778	1.891482	-5.406510
O	1.772886	3.819715	-4.569225
C	1.986852	4.266207	-5.916207
H	2.445834	5.267032	-5.833064
H	1.028114	4.323448	-6.470168
H	2.661066	3.573494	-6.459293
H	1.436015	3.083584	1.306486
H	-0.311979	-9.143623	-0.859314
H	0.852097	-9.149441	0.508666
H	-0.699874	-1.443175	-0.822504
$end

$rem
JOBTYPE		SP
EXCHANGE	HF
CORRELATION	pRIMP2
BASIS		cc-pvtz
METHOD		rimp2
AUX_BASIS	rimp2-cc-pvtz
SOLVENT_METHOD	PCM
PURECART	11111
SYMMETRY	false
MEM_TOTAL	110000
SCF_CONVERGENCE = 6
THRESH=10
GUI = 2
$end



$solvent
dielectric 4.90
$end
--------------------------------------------------------------
 ----------------------------------------------------------------
             Standard Nuclear Orientation (Angstroms)
    I     Atom           X                Y                Z
 ----------------------------------------------------------------
    1      C       0.2703580000    -8.5177020000    -0.1729040000
    2      C      -0.5483630000    -7.6415750000     0.5246880000
    3      S       1.4457500000    -7.6386340000    -1.1805990000
    4      C      -0.2599510000    -6.2647850000     0.2827270000
    5      H      -1.3475590000    -7.9660810000     1.2030140000
    6      C       0.8338680000    -6.0727140000    -0.6329720000
    7      C       1.2487010000    -4.7870490000    -1.0135800000
    8      C      -0.9656730000    -5.1628010000     0.8450680000
    9      C      -0.5533570000    -3.8748170000     0.4609460000
   10      C       0.5434700000    -3.6839520000    -0.4535410000
   11      O      -1.9582760000    -5.4997720000     1.7148120000
   12      O       2.2450530000    -4.4590550000    -1.8881930000
   13      C       3.3609890000    -5.3290630000    -2.0338480000
   14      H       4.1306670000    -4.7556940000    -2.5847880000
   15      H       3.1123800000    -6.2380950000    -2.6241180000
   16      H       3.7708950000    -5.6372620000    -1.0477480000
   17      C      -2.9942720000    -4.5722610000     2.0138960000
   18      H      -3.7637000000    -5.1397430000     2.5708530000
   19      H      -3.4488150000    -4.1531310000     1.0906250000
   20      H      -2.6367800000    -3.7395310000     2.6577170000
   21      C       0.8276590000    -2.3066540000    -0.6949430000
   22      S      -1.1747500000    -2.3065010000     0.9999930000
   23      C       0.0000000000    -1.4351850000     0.0000000000
   24      H       1.6275410000    -1.9781380000    -1.3703850000
   25      C       0.0000000000     0.0000000000     0.0000000000
   26      S       0.3827990000     0.8197950000     1.5075410000
   27      C       1.0466870000     2.2453250000     0.7188730000
   28      C       0.3829180000     0.8193890000    -1.0678720000
   29      C       0.9683230000     2.0802670000    -0.6864100000
   30      S       0.2825610000     0.5974320000    -2.8055160000
   31      C       1.0178390000     2.1873240000    -3.0545300000
   32      C       1.3149600000     2.8303060000    -1.8625510000
   33      F       1.8754980000     4.0437510000    -1.8190880000
   34      C       1.2088950000     2.5925730000    -4.4560840000
   35      O       0.8907780000     1.8914820000    -5.4065100000
   36      O       1.7728860000     3.8197150000    -4.5692250000
   37      C       1.9868520000     4.2662070000    -5.9162070000
   38      H       2.4458340000     5.2670320000    -5.8330640000
   39      H       1.0281140000     4.3234480000    -6.4701680000
   40      H       2.6610660000     3.5734940000    -6.4592930000
   41      H       1.4360150000     3.0835840000     1.3064860000
   42      H      -0.3119790000    -9.1436230000    -0.8593140000
   43      H       0.8520970000    -9.1494410000     0.5086660000
   44      H      -0.6998740000    -1.4431750000    -0.8225040000
 ----------------------------------------------------------------
 Nuclear Repulsion Energy =        3346.06058680 hartrees
 There are      120 alpha and      120 beta electrons
 Requested basis set is cc-pVTZ
 There are 388 shells and 1096 basis functions

 Total QAlloc Memory Limit 110000 MB
 Mega-Array Size       188 MB
 MEM_STATIC part       192 MB
 Discretize the solute cavity surface with Lebedev spheres
	Using 110 Lebedev grid points for each H atom
	Using 194 Lebedev grid points for other atoms
	Atomic van der Waals radii will be scaled by 1.20
 Remove points where switching function is < 1.0e-08
 Keep 2965 surface tesserae and discard 4311 interior tesserae
 Molecular Surface Area = 442.822 Angst**2
 Requested basis set is rimp2-cc-pVTZ
 There are 853 shells and 2963 basis functions
 A cutoff of  1.0D-10 yielded  33201 shell pairs
 There are    250629 function pairs (    324165 Cartesian)
 Smallest overlap matrix eigenvalue = 2.12E-05

 Scale SEOQF with 1.000000e-01/1.000000e-02/1.000000e-02

 Standard Electronic Orientation quadrupole field applied
 Nucleus-field energy     =     0.0000000360 hartrees
 Guess from superposition of atomic densities
 Warning:  Energy on first SCF cycle will be non-variational
 SAD guess density has 240.000000 electrons

 -----------------------------------------------------------------------
  General SCF calculation program by
  Eric Jon Sundstrom, Paul Horn, Yuezhi Mao, Dmitri Zuev, Alec White,
  David Stuck, Shaama M.S., Shane Yost, Joonho Lee, David Small,
  Daniel Levine, Susi Lehtola, Hugh Burton, Evgeny Epifanovsky,
  Bang C. Huynh
 -----------------------------------------------------------------------
 Hartree-Fock
 using 64 threads for integral computing
 -------------------------------------------------------
 OpenMP Integral computing Module                
 Release: version 1.0, May 2013, Q-Chem Inc. Pittsburgh 
 -------------------------------------------------------
 A restricted SCF calculation will be
 performed using DIIS
 SCF converges when DIIS error is below 1.0e-06
 ---------------------------------------
  Cycle       Energy         DIIS error
 ---------------------------------------
    1   -2767.0284560993      1.75e-02  
    2   -2754.8860763488      1.53e-03  
    3   -2755.2336963519      8.53e-04  
    4   -2755.3199395685      2.56e-04  
    5   -2755.3333817934      7.31e-05  
    6   -2755.3348539346      2.54e-05  
    7   -2755.3352268789      1.32e-05  
    8   -2755.3353458357      5.46e-06  
    9   -2755.3353733620      2.72e-06  
   10   -2755.3353798493      1.42e-06  
   11   -2755.3353818964      7.21e-07  Convergence criterion met
 ---------------------------------------
 SCF time:   CPU 7465.95s  wall 272.00s 

************** Final PCM Free Energy Summary **************
 G_electrostatic  =      -0.02032982 hartree =     -12.75715492 kcal/mol
 G_cavitation     =       0.00000000 hartree =       0.00000000 kcal/mol
 G_dispersion     =       0.00000000 hartree =       0.00000000 kcal/mol
 G_repulsion      =       0.00000000 hartree =       0.00000000 kcal/mol
 --------------------------------------------------
 Non-electrostatic Free Energy =       0.00000000 hartree =       0.00000000 kcal/mol
 Total                         =      -0.02032982 hartree =     -12.75715492 kcal/mol
 --------------------------------------------------
 SCF Energy (H0 + V/2)                       =   -2755.33538190 
 Solute Internal Energy (H0)                 =   -2755.31505208 
 Total Free Energy (H0 + V/2 + non-elec)     =   -2755.33538190 hartree
                                             = -1728999.04792138 kcal/mol
***********************************************************

 SCF   energy in the final basis set =    -2755.3353818964
 Total energy in the final basis set =    -2755.3353818964


 --------------------------------------------------------------
  Generalized many-body perturbation theory program
  by Joonho Lee, Fazle Rob, Xintian Feng, Evgeny Epifanovsky

 No regularization used 
 (reg. param. = 0.0000e+00)
  (P|Q)^-1/2 Time:  CPU 121.78 s  wall 1.92 s

 In RI-MP2 calculation: 
 # of frozen core orbitals: 45

 Components of the RIMP2 correlation energy:
        aaaa    correlation energy =        -0.6693875469 a.u.
        abab    correlation energy =        -3.7531515283 a.u.
        bbbb    correlation energy =        -0.6693875469 a.u.
        non-Brillouin singles      =        -0.0000000000 a.u.
        total same-spin energy     =        -1.3387750939 a.u.
        total opposite-spin energy =        -3.7531515283 a.u.

 Total  RIMP2   correlation energy =        -5.0919266221 a.u.
        RIMP2         total energy =     -2760.4273085185 a.u.

 RI-MP2 Energy Time:  CPU 2948.12 s  wall 47.57 s
 
 --------------------------------------------------------------
 
                    Orbital Energies (a.u.)
 --------------------------------------------------------------
 
 Alpha MOs
 -- Occupied --
-92.0114 -92.0012 -91.9784 -91.9578 -26.3447 -20.6155 -20.5870 -20.5869
-20.5620 -11.4103 -11.3842 -11.3119 -11.3090 -11.3072 -11.3041 -11.2996
-11.2990 -11.2893 -11.2862 -11.2846 -11.2832 -11.2825 -11.2801 -11.2725
-11.2724 -11.2580 -11.2574 -11.2493 -11.2362  -9.0105  -9.0012  -8.9805
 -8.9604  -6.6912  -6.6905  -6.6901  -6.6823  -6.6815  -6.6804  -6.6617
 -6.6608  -6.6595  -6.6416  -6.6407  -6.6397  -1.6616  -1.4680  -1.4103
 -1.4087  -1.3707  -1.2311  -1.2025  -1.1733  -1.1377  -1.1006  -1.0469
 -1.0458  -1.0240  -1.0032  -0.9973  -0.9628  -0.9592  -0.9485  -0.9415
 -0.8935  -0.8712  -0.8641  -0.8112  -0.7991  -0.7903  -0.7839  -0.7674
 -0.7586  -0.7359  -0.7264  -0.7102  -0.7002  -0.6949  -0.6854  -0.6802
 -0.6745  -0.6646  -0.6558  -0.6484  -0.6365  -0.6304  -0.6197  -0.6147
 -0.6119  -0.5995  -0.5929  -0.5776  -0.5714  -0.5658  -0.5581  -0.5550
 -0.5449  -0.5319  -0.5303  -0.5264  -0.5126  -0.5089  -0.5073  -0.5017
 -0.4850  -0.4818  -0.4765  -0.4745  -0.4692  -0.4676  -0.4606  -0.4463
 -0.4262  -0.3980  -0.3846  -0.3697  -0.3512  -0.3019  -0.2889  -0.2190
 -- Virtual --
  0.0332   0.0533   0.1006   0.1275   0.1357   0.1441   0.1514   0.1550
  0.1569   0.1599   0.1688   0.1749   0.1838   0.1883   0.1897   0.1973
  0.2008   0.2026   0.2051   0.2141   0.2146   0.2213   0.2240   0.2275
  0.2292   0.2335   0.2390   0.2448   0.2489   0.2533   0.2636   0.2679
  0.2746   0.2933   0.2980   0.3205   0.3319   0.3346   0.3417   0.3442
  0.3528   0.3561   0.3588   0.3643   0.3718   0.3778   0.3836   0.3856
  0.3866   0.3906   0.3977   0.4077   0.4107   0.4169   0.4202   0.4228
  0.4239   0.4282   0.4330   0.4388   0.4395   0.4410   0.4467   0.4514
  0.4546   0.4556   0.4614   0.4700   0.4733   0.4781   0.4784   0.4824
  0.4870   0.4904   0.4965   0.4988   0.5052   0.5084   0.5108   0.5185
  0.5253   0.5276   0.5279   0.5354   0.5356   0.5402   0.5421   0.5445
  0.5519   0.5534   0.5573   0.5578   0.5642   0.5646   0.5742   0.5769
  0.5867   0.5875   0.5907   0.5934   0.5968   0.6069   0.6110   0.6126
  0.6135   0.6158   0.6179   0.6212   0.6226   0.6241   0.6276   0.6312
  0.6366   0.6385   0.6398   0.6441   0.6471   0.6499   0.6539   0.6576
  0.6635   0.6671   0.6692   0.6742   0.6808   0.6874   0.6903   0.6989
  0.7020   0.7090   0.7115   0.7178   0.7188   0.7250   0.7267   0.7371
  0.7391   0.7509   0.7557   0.7593   0.7605   0.7722   0.7743   0.7855
  0.7928   0.7976   0.8018   0.8029   0.8108   0.8121   0.8197   0.8269
  0.8338   0.8373   0.8393   0.8486   0.8573   0.8639   0.8686   0.8734
  0.8761   0.8811   0.8898   0.8928   0.9006   0.9044   0.9076   0.9086
  0.9126   0.9230   0.9356   0.9382   0.9395   0.9438   0.9505   0.9531
  0.9594   0.9676   0.9702   0.9714   0.9767   0.9820   0.9873   0.9905
  0.9916   1.0005   1.0064   1.0144   1.0151   1.0235   1.0270   1.0362
  1.0408   1.0428   1.0481   1.0504   1.0516   1.0571   1.0671   1.0691
  1.0744   1.0776   1.0800   1.0872   1.0952   1.1022   1.1069   1.1095
  1.1127   1.1140   1.1176   1.1249   1.1320   1.1383   1.1424   1.1470
  1.1501   1.1540   1.1647   1.1696   1.1706   1.1744   1.1781   1.1804
  1.1861   1.1900   1.1930   1.1958   1.2069   1.2071   1.2143   1.2162
  1.2211   1.2276   1.2323   1.2371   1.2427   1.2486   1.2543   1.2550
  1.2577   1.2620   1.2636   1.2763   1.2792   1.2845   1.2887   1.2971
  1.2996   1.3053   1.3125   1.3182   1.3207   1.3312   1.3359   1.3385
  1.3458   1.3549   1.3604   1.3709   1.3800   1.3865   1.3926   1.3994
  1.4063   1.4118   1.4159   1.4181   1.4305   1.4351   1.4418   1.4629
  1.4654   1.4677   1.4774   1.4813   1.4863   1.4928   1.4988   1.5010
  1.5042   1.5062   1.5134   1.5151   1.5269   1.5316   1.5359   1.5386
  1.5416   1.5435   1.5477   1.5509   1.5589   1.5621   1.5743   1.5771
  1.5832   1.5866   1.6003   1.6066   1.6122   1.6195   1.6230   1.6309
  1.6449   1.6503   1.6542   1.6624   1.6667   1.6729   1.6776   1.6844
  1.6942   1.6975   1.7013   1.7152   1.7207   1.7243   1.7352   1.7408
  1.7522   1.7600   1.7751   1.7874   1.7904   1.8002   1.8072   1.8110
  1.8187   1.8246   1.8309   1.8419   1.8487   1.8662   1.8708   1.8769
  1.8875   1.9005   1.9056   1.9079   1.9160   1.9249   1.9295   1.9389
  1.9449   1.9549   1.9611   1.9655   1.9694   1.9792   1.9896   1.9942
  2.0067   2.0109   2.0203   2.0265   2.0307   2.0424   2.0454   2.0567
  2.0630   2.0742   2.0819   2.0864   2.0953   2.1024   2.1056   2.1283
  2.1349   2.1469   2.1567   2.1720   2.1770   2.1814   2.1927   2.1952
  2.1990   2.2011   2.2096   2.2178   2.2208   2.2309   2.2351   2.2431
  2.2453   2.2525   2.2567   2.2667   2.2735   2.2773   2.2892   2.2929
  2.3056   2.3074   2.3219   2.3270   2.3298   2.3467   2.3530   2.3585
  2.3671   2.3789   2.3911   2.3931   2.4005   2.4089   2.4172   2.4197
  2.4352   2.4392   2.4462   2.4670   2.4767   2.4820   2.4833   2.4872
  2.5007   2.5117   2.5157   2.5319   2.5373   2.5533   2.5592   2.5653
  2.5722   2.5857   2.5947   2.6018   2.6099   2.6211   2.6243   2.6254
  2.6288   2.6338   2.6366   2.6422   2.6483   2.6545   2.6683   2.6716
  2.6795   2.6852   2.6898   2.6925   2.7006   2.7035   2.7081   2.7147
  2.7211   2.7297   2.7384   2.7427   2.7542   2.7631   2.7670   2.7741
  2.7795   2.7893   2.7947   2.8023   2.8075   2.8124   2.8173   2.8291
  2.8335   2.8432   2.8477   2.8541   2.8600   2.8606   2.8720   2.8760
  2.8824   2.8875   2.8896   2.9008   2.9080   2.9108   2.9205   2.9457
  2.9506   2.9547   2.9570   2.9626   2.9739   2.9770   2.9803   2.9850
  2.9915   3.0038   3.0108   3.0140   3.0231   3.0286   3.0360   3.0444
  3.0502   3.0592   3.0661   3.0693   3.0810   3.0883   3.0928   3.0963
  3.1000   3.1031   3.1090   3.1229   3.1281   3.1290   3.1342   3.1414
  3.1455   3.1497   3.1560   3.1587   3.1649   3.1698   3.1757   3.1780
  3.1834   3.1881   3.1990   3.2066   3.2133   3.2166   3.2233   3.2237
  3.2297   3.2373   3.2430   3.2482   3.2529   3.2586   3.2616   3.2657
  3.2671   3.2732   3.2770   3.2814   3.2836   3.2947   3.3000   3.3033
  3.3086   3.3115   3.3163   3.3272   3.3285   3.3374   3.3401   3.3418
  3.3484   3.3508   3.3534   3.3541   3.3620   3.3646   3.3664   3.3731
  3.3749   3.3809   3.3854   3.3934   3.3973   3.4004   3.4013   3.4046
  3.4093   3.4130   3.4199   3.4254   3.4305   3.4347   3.4367   3.4433
  3.4479   3.4527   3.4570   3.4635   3.4672   3.4714   3.4753   3.4803
  3.4837   3.4903   3.4940   3.4993   3.5124   3.5181   3.5250   3.5316
  3.5352   3.5391   3.5439   3.5516   3.5558   3.5587   3.5680   3.5738
  3.5782   3.5846   3.5882   3.5965   3.6026   3.6043   3.6090   3.6114
  3.6181   3.6204   3.6251   3.6331   3.6372   3.6409   3.6448   3.6565
  3.6660   3.6698   3.6782   3.6804   3.6827   3.6863   3.6887   3.6991
  3.7042   3.7054   3.7103   3.7128   3.7192   3.7234   3.7265   3.7361
  3.7390   3.7430   3.7456   3.7552   3.7601   3.7666   3.7731   3.7783
  3.7880   3.7892   3.7902   3.7993   3.8018   3.8067   3.8117   3.8124
  3.8202   3.8232   3.8307   3.8320   3.8453   3.8487   3.8519   3.8572
  3.8595   3.8632   3.8764   3.8796   3.8854   3.8927   3.9008   3.9055
  3.9163   3.9214   3.9256   3.9367   3.9394   3.9476   3.9501   3.9591
  3.9602   3.9648   3.9739   3.9830   3.9921   3.9937   4.0031   4.0100
  4.0185   4.0238   4.0336   4.0384   4.0460   4.0566   4.0638   4.0673
  4.0683   4.0718   4.0818   4.0973   4.1114   4.1117   4.1171   4.1237
  4.1348   4.1410   4.1512   4.1550   4.1648   4.1663   4.1694   4.1745
  4.1791   4.1876   4.1971   4.2043   4.2101   4.2152   4.2289   4.2351
  4.2426   4.2494   4.2534   4.2610   4.2738   4.2839   4.2978   4.3050
  4.3127   4.3289   4.3314   4.3384   4.3417   4.3469   4.3571   4.3599
  4.3626   4.3747   4.3815   4.3842   4.3927   4.4044   4.4091   4.4143
  4.4234   4.4262   4.4282   4.4296   4.4370   4.4403   4.4429   4.4503
  4.4653   4.4773   4.4832   4.4917   4.5084   4.5142   4.5201   4.5243
  4.5379   4.5455   4.5482   4.5638   4.5672   4.5749   4.5824   4.5864
  4.5884   4.6032   4.6144   4.6298   4.6310   4.6427   4.6482   4.6513
  4.6567   4.6596   4.6770   4.6872   4.6990   4.7083   4.7304   4.7347
  4.7393   4.7529   4.7659   4.7739   4.7834   4.7938   4.8084   4.8233
  4.8253   4.8341   4.8397   4.8452   4.8577   4.8675   4.8765   4.8859
  4.9031   4.9124   4.9368   4.9438   4.9481   4.9520   4.9640   4.9747
  4.9779   4.9998   5.0061   5.0085   5.0156   5.0279   5.0368   5.0460
  5.0553   5.0658   5.0929   5.0999   5.1067   5.1270   5.1351   5.1636
  5.1740   5.1935   5.2001   5.2029   5.2097   5.2285   5.2496   5.2525
  5.2571   5.2585   5.2681   5.2861   5.2938   5.3147   5.3262   5.3289
  5.3378   5.3416   5.3486   5.3643   5.3664   5.3791   5.3942   5.4015
  5.4044   5.4141   5.4257   5.4407   5.4454   5.4846   5.4999   5.5015
  5.5118   5.5182   5.5225   5.5345   5.5664   5.5727   5.5815   5.5840
  5.5869   5.6101   5.6209   5.6227   5.6352   5.6596   5.6747   5.6920
  5.7083   5.7336   5.7485   5.7639   5.7823   5.8069   5.8212   5.8416
  5.8592   5.8810   5.9057   5.9149   5.9285   5.9582   5.9978   6.0209
  6.0381   6.0418   6.0847   6.1310   6.1479   6.1500   6.1718   6.1755
  6.1802   6.1947   6.2388   6.2493   6.2552   6.2608   6.2704   6.2868
  6.2950   6.2999   6.3434   6.4014   6.4413   6.4494   6.4879   6.5391
  6.5490   6.5684   6.6042   6.6482   6.6607   6.6705   6.7147   6.7453
  6.8082   6.8294   6.8560   6.8588   6.8991   6.9777   7.1314   7.1460
  7.2033   7.2060   7.2220   7.2399   7.3092   7.3273   7.3413   7.3620
  7.3628   7.4056   7.4126   7.4844   7.4864   7.4975   7.5234   7.5503
  7.6149   7.7356   7.7717   7.7892   7.8030   7.9006   7.9268   7.9551
  7.9704   8.1327   8.2833   8.5149   8.9208   9.0264   9.3619   9.4806
  9.6731  10.2273  11.1804  11.4276  11.7544  11.9498  12.1251  12.3661
 12.4220  12.4888  12.9295  12.9882  13.0127  13.1933  13.3850  13.4795
 13.6680  13.7826  13.8752  13.9357  14.0327  14.3118  15.1165  15.2486
 --------------------------------------------------------------
 
          Ground-State Mulliken Net Atomic Charges

     Atom                 Charge (a.u.)
  ----------------------------------------
      1 C                    -0.070175
      2 C                    -0.262211
      3 S                    -0.135913
      4 C                    -0.046043
      5 H                     0.193108
      6 C                    -0.053320
      7 C                     0.221329
      8 C                     0.231023
      9 C                    -0.077246
     10 C                    -0.036468
     11 O                    -0.334966
     12 O                    -0.342887
     13 C                    -0.082865
     14 H                     0.120208
     15 H                     0.092303
     16 H                     0.092524
     17 C                    -0.086922
     18 H                     0.123681
     19 H                     0.092513
     20 H                     0.089903
     21 C                    -0.298312
     22 S                    -0.078752
     23 C                     0.086267
     24 H                     0.211530
     25 C                    -0.054021
     26 S                     0.094227
     27 C                    -0.184722
     28 C                    -0.048524
     29 C                    -0.090031
     30 S                     0.016493
     31 C                    -0.155783
     32 C                     0.397470
     33 F                    -0.205855
     34 C                     0.445694
     35 O                    -0.460816
     36 O                    -0.300914
     37 C                    -0.058400
     38 H                     0.121577
     39 H                     0.095312
     40 H                     0.095212
     41 H                     0.216804
     42 H                     0.117120
     43 H                     0.114639
     44 H                     0.196211
  ----------------------------------------
  Sum of atomic charges =     0.000000

 -----------------------------------------------------------------
                    Cartesian Multipole Moments
 -----------------------------------------------------------------
    Charge (ESU x 10^10)
                -0.0000
    Dipole Moment (Debye)
         X       0.7755      Y       2.8045      Z       2.4543
       Tot       3.8066
    Quadrupole Moments (Debye-Ang)
        XX    -182.8213     XY       9.1696     YY    -178.1870
        XZ      -9.4583     YZ      -9.4183     ZZ    -203.8129
    Octopole Moments (Debye-Ang^2)
       XXX    -272.4562    XXY     329.7448    XYY     -92.6162
       YYY    1012.6602    XXZ     169.7422    XYZ       3.7383
       YYZ     152.9420    XZZ     -57.5557    YZZ     473.5900
       ZZZ     584.0822
    Hexadecapole Moments (Debye-Ang^3)
      XXXX   -2295.0197   XXXY    -203.9707   XXYY   -3859.2136
      XYYY      65.4246   YYYY  -19989.1022   XXXZ    1103.1590
      XXYZ     336.3625   XYYZ     180.2895   YYYZ     691.1301
      XXZZ   -1256.5504   XYZZ     182.8353   YYZZ   -4321.3849
      XZZZ    1001.2515   YZZZ     615.0005   ZZZZ   -6307.3793
 -----------------------------------------------------------------
 Total job time:  324.16s(wall), 10522.09s(cpu) 
 Tue Jan  9 11:55:00 2024

        *************************************************************
        *                                                           *
        *  Thank you very much for using Q-Chem.  Have a nice day.  *
        *                                                           *
        *************************************************************


0 sent ACK to 0 
now end server 0 ... 
cleanup process ... done
remove work dirs ./qchem3313260.0 -- ./qchem3313260.0
rm -rf ./qchem3313260.0
rm -rf ./qchem3313260
